                         Program Version 4.2.0 -  RELEASE  -
|  1> # ORCA input file
|  2> # SCF done       -201.011794290521          0.000602945264
|  3> ! CAM-B3LYP def2-SVP def2/J RIJCOSX Grid4 TightSCF
|  4> %maxcore 5000
|  5> %tddft
|  6>     Mode sTDDFT
|  7>     Ethresh 5.0
|  8>     maxcore 5000
|  9> end
| 10>
| 11> %pal
| 12>   nprocs 6
| 13>   end
| 14> * xyz 0 1
| 15>    C       -6.54640        -2.16266         2.71445
| 16>    O       -5.93468        -3.09746         3.21178
| 17>    C       -7.72565        -1.50188         3.30416
| 18>    C       -8.13310        -0.45026         2.46573
| 19>    C       -9.24049         0.30644         2.81651
| 20>    C       -9.92249        -0.00775         3.98474
| 21>    C       -9.50265        -1.05709         4.78892
| 22>    C       -8.39051        -1.82324         4.46808
| 23>   Br      -10.48562        -1.46950         6.36450
| 24>    C       -7.23124        -0.39855         1.31173
| 25>    C       -7.31387         0.51657         0.29156
| 26>    C       -8.28305         1.53866         0.22679
| 27>    N       -9.04625         2.38917         0.11540
| 28>    C       -6.45646         0.57945        -0.82578
| 29>    N       -5.80049         0.69491        -1.76185
| 30>    C       -6.27612        -1.47384         1.45902
| 31>    C       -5.28194        -1.81058         0.55688
| 32>    C       -4.37806        -2.86464         0.59330
| 33>    S       -4.25383        -4.08530         1.83981
| 34>    C       -2.98595        -4.95328         1.00175
| 35>    C       -2.65918        -4.29272        -0.17583
| 36>    C       -3.42665        -3.13040        -0.41770
| 37>    C       -3.06293        -2.49532        -1.62329
| 38>    C       -2.05088        -3.15669        -2.26192
| 39>    C       -1.41754        -2.77096        -3.52557
| 40>    O       -1.72189        -1.80719        -4.18043
| 41>    O       -0.44622        -3.63509        -3.85763
| 42>    C        0.24553        -3.35828        -5.06563
| 43>    S       -1.50054        -4.58596        -1.42890
| 44>    C       -2.45303        -6.12618         1.58601
| 45>    C       -2.97556        -6.59423         2.77565
| 46>    C       -2.51279        -7.68526         3.48860
| 47>    C       -1.46831        -8.55465         2.92742
| 48>    C       -0.82554        -8.30069         1.76559
| 49>    S       -1.11676        -6.92882         0.77143
| 50>    C       -1.34375        -9.62805         3.85002
| 51>    C       -2.22634        -9.43664         4.91883
| 52>    C       -2.13526       -10.47278         5.87528
| 53>    C       -1.21291       -11.40240         5.51656
| 54>    S       -0.41490       -11.06294         4.01566
| 55>    C       -2.94867        -8.21103         4.72611
| 56>    C       -3.87189        -7.68020         5.66117
| 57>    C       -4.33254        -6.40344         5.71205
| 58>    C       -5.26009        -5.90860         6.66182
| 59>    C       -5.73054        -4.62203         6.73489
| 60>    C       -6.61852        -4.39304         7.80512
| 61>    C       -6.84881        -5.55837         8.58585
| 62>    S       -5.93802        -6.90767         7.92882
| 63>    C       -7.66314        -5.52763         9.70540
| 64>    O       -7.97642        -6.52680        10.55937
| 65>    C       -7.42655        -7.81250        10.39153
| 66>    C       -8.26084        -4.28215        10.01532
| 67>    C       -8.03783        -3.11971         9.22885
| 68>    C       -7.20618        -3.14730         8.12476
| 69>    O       -6.87951        -2.12226         7.29531
| 70>    C       -7.00103        -0.79485         7.75495
| 71>    S       -8.94401        -1.77201         9.87537
| 72>    C       -9.54465        -2.74142        11.20791
| 73>    C       -9.11555        -4.04218        11.10457
| 74>    C      -10.43665        -2.24917        12.18792
| 75>    C      -10.75456        -0.96180        12.49787
| 76>    C      -12.02896        -0.66696        13.20223
| 77>    O      -12.73916        -1.44782        13.79045
| 78>    C      -12.26229         0.77856        12.97202
| 79>    C      -11.15532         1.33437        12.30345
| 80>    C      -10.13779         0.29829        12.14680
| 81>    C       -8.79581         0.52179        11.98198
| 82>    C       -8.24115         1.77969        11.67640
| 83>    N       -7.74338         2.77628        11.39837
| 84>    C       -7.81388        -0.46664        12.20884
| 85>    N       -6.97870        -1.21297        12.46098
| 86>    C      -11.16233         2.67619        11.95484
| 87>    C      -12.26977         3.44354        12.28331
| 88>    C      -13.34538         2.87952        12.95680
| 89>    C      -13.36284         1.53725        13.31240
| 90>   Br      -14.83324         3.97489        13.39952
| 91>    H       -9.58839         1.12367         2.20681
| 92>    H      -10.79090         0.56757         4.26695
| 93>    H       -8.05034        -2.63229         5.09493
| 94>    H       -5.18860        -1.18948        -0.32398
| 95>    H       -3.50373        -1.59742        -2.01766
| 96>    H        0.99065        -4.14181        -5.17433
| 97>    H        0.72217        -2.37738        -5.01211
| 98>    H       -0.44794        -3.36565        -5.90895
| 99>    H       -3.83283        -6.05746         3.15166
|100>    H       -0.05503        -8.94852         1.37800
|101>    H       -2.71800       -10.53151         6.77647
|102>    H       -0.93641       -12.29232         6.04745
|103>    H       -4.20305        -8.36686         6.43222
|104>    H       -3.96974        -5.65268         5.02727
|105>    H       -5.45319        -3.85542         6.03402
|106>    H       -6.33630        -7.79741        10.46553
|107>    H       -7.72241        -8.25729         9.43796
|108>    H       -7.83438        -8.40681        11.20799
|109>    H       -8.04486        -0.47818         7.82693
|110>    H       -6.49152        -0.18355         7.01070
|111>    H       -6.51689        -0.66316         8.72602
|112>    H       -9.37986        -4.80681        11.81187
|113>    H      -11.01437        -3.00638        12.70898
|114>    H      -10.33590         3.12644        11.42900
|115>    H      -12.29713         4.48902        12.01660
|116>    H      -14.19809         1.09713        13.83479
|117> *
|118>
|119>                          ****END OF INPUT****

CARTESIAN COORDINATES (ANGSTROEM)
---------------------------------
  C     -6.546400   -2.162660    2.714450
  O     -5.934680   -3.097460    3.211780
  C     -7.725650   -1.501880    3.304160
  C     -8.133100   -0.450260    2.465730
  C     -9.240490    0.306440    2.816510
  C     -9.922490   -0.007750    3.984740
  C     -9.502650   -1.057090    4.788920
  C     -8.390510   -1.823240    4.468080
  Br   -10.485620   -1.469500    6.364500
  C     -7.231240   -0.398550    1.311730
  C     -7.313870    0.516570    0.291560
  C     -8.283050    1.538660    0.226790
  N     -9.046250    2.389170    0.115400
  C     -6.456460    0.579450   -0.825780
  N     -5.800490    0.694910   -1.761850
  C     -6.276120   -1.473840    1.459020
  C     -5.281940   -1.810580    0.556880
  C     -4.378060   -2.864640    0.593300
  S     -4.253830   -4.085300    1.839810
  C     -2.985950   -4.953280    1.001750
  C     -2.659180   -4.292720   -0.175830
  C     -3.426650   -3.130400   -0.417700
  C     -3.062930   -2.495320   -1.623290
  C     -2.050880   -3.156690   -2.261920
  C     -1.417540   -2.770960   -3.525570
  O     -1.721890   -1.807190   -4.180430
  O     -0.446220   -3.635090   -3.857630
  C      0.245530   -3.358280   -5.065630
  S     -1.500540   -4.585960   -1.428900
  C     -2.453030   -6.126180    1.586010
  C     -2.975560   -6.594230    2.775650
  C     -2.512790   -7.685260    3.488600
  C     -1.468310   -8.554650    2.927420
  C     -0.825540   -8.300690    1.765590
  S     -1.116760   -6.928820    0.771430
  C     -1.343750   -9.628050    3.850020
  C     -2.226340   -9.436640    4.918830
  C     -2.135260  -10.472780    5.875280
  C     -1.212910  -11.402400    5.516560
  S     -0.414900  -11.062940    4.015660
  C     -2.948670   -8.211030    4.726110
  C     -3.871890   -7.680200    5.661170
  C     -4.332540   -6.403440    5.712050
  C     -5.260090   -5.908600    6.661820
  C     -5.730540   -4.622030    6.734890
  C     -6.618520   -4.393040    7.805120
  C     -6.848810   -5.558370    8.585850
  S     -5.938020   -6.907670    7.928820
  C     -7.663140   -5.527630    9.705400
  O     -7.976420   -6.526800   10.559370
  C     -7.426550   -7.812500   10.391530
  C     -8.260840   -4.282150   10.015320
  C     -8.037830   -3.119710    9.228850
  C     -7.206180   -3.147300    8.124760
  O     -6.879510   -2.122260    7.295310
  C     -7.001030   -0.794850    7.754950
  S     -8.944010   -1.772010    9.875370
  C     -9.544650   -2.741420   11.207910
  C     -9.115550   -4.042180   11.104570
  C    -10.436650   -2.249170   12.187920
  C    -10.754560   -0.961800   12.497870
  C    -12.028960   -0.666960   13.202230
  O    -12.739160   -1.447820   13.790450
  C    -12.262290    0.778560   12.972020
  C    -11.155320    1.334370   12.303450
  C    -10.137790    0.298290   12.146800
  C     -8.795810    0.521790   11.981980
  C     -8.241150    1.779690   11.676400
  N     -7.743380    2.776280   11.398370
  C     -7.813880   -0.466640   12.208840
  N     -6.978700   -1.212970   12.460980
  C    -11.162330    2.676190   11.954840
  C    -12.269770    3.443540   12.283310
  C    -13.345380    2.879520   12.956800
  C    -13.362840    1.537250   13.312400
  Br   -14.833240    3.974890   13.399520
  H     -9.588390    1.123670    2.206810
  H    -10.790900    0.567570    4.266950
  H     -8.050340   -2.632290    5.094930
  H     -5.188600   -1.189480   -0.323980
  H     -3.503730   -1.597420   -2.017660
  H      0.990650   -4.141810   -5.174330
  H      0.722170   -2.377380   -5.012110
  H     -0.447940   -3.365650   -5.908950
  H     -3.832830   -6.057460    3.151660
  H     -0.055030   -8.948520    1.378000
  H     -2.718000  -10.531510    6.776470
  H     -0.936410  -12.292320    6.047450
  H     -4.203050   -8.366860    6.432220
  H     -3.969740   -5.652680    5.027270
  H     -5.453190   -3.855420    6.034020
  H     -6.336300   -7.797410   10.465530
  H     -7.722410   -8.257290    9.437960
  H     -7.834380   -8.406810   11.207990
  H     -8.044860   -0.478180    7.826930
  H     -6.491520   -0.183550    7.010700
  H     -6.516890   -0.663160    8.726020
  H     -9.379860   -4.806810   11.811870
  H    -11.014370   -3.006380   12.708980
  H    -10.335900    3.126440   11.429000
  H    -12.297130    4.489020   12.016600
  H    -14.198090    1.097130   13.834790

 Total Charge           Charge          ....    0
 Multiplicity           Mult            ....    1
 Number of Electrons    NEL             ....  616
 Basis Dimension        Dim             .... 1254

ORBITAL ENERGIES
----------------

  NO   OCC          E(Eh)            E(eV)
   0   2.0000    -482.872717    -13139.6346
   1   2.0000    -482.869452    -13139.5458
   2   2.0000     -88.987045     -2421.4606
   3   2.0000     -88.976599     -2421.1763
   4   2.0000     -88.972959     -2421.0773
   5   2.0000     -88.966131     -2420.8915
   6   2.0000     -88.956348     -2420.6253
   7   2.0000     -88.956112     -2420.6189
   8   2.0000     -62.550020     -1702.0726
   9   2.0000     -62.547168     -1701.9950
  10   2.0000     -56.383876     -1534.2833
  11   2.0000     -56.381395     -1534.2157
  12   2.0000     -56.381299     -1534.2132
  13   2.0000     -56.381005     -1534.2051
  14   2.0000     -56.378481     -1534.1365
  15   2.0000     -56.378476     -1534.1363
  16   2.0000     -19.270733      -524.3833
  17   2.0000     -19.261017      -524.1189
  18   2.0000     -19.252636      -523.8909
  19   2.0000     -19.226129      -523.1696
  20   2.0000     -19.215421      -522.8782
  21   2.0000     -19.212671      -522.8033
  22   2.0000     -14.417302      -392.3147
  23   2.0000     -14.415305      -392.2604
  24   2.0000     -14.411976      -392.1698
  25   2.0000     -14.407847      -392.0574
  26   2.0000     -10.412862      -283.3484
  27   2.0000     -10.372254      -282.2434
  28   2.0000     -10.366632      -282.0904
  29   2.0000     -10.352520      -281.7064
  30   2.0000     -10.342266      -281.4274
  31   2.0000     -10.341995      -281.4200
  32   2.0000     -10.341976      -281.4195
  33   2.0000     -10.341720      -281.4125
  34   2.0000     -10.341036      -281.3939
  35   2.0000     -10.340157      -281.3700
  36   2.0000     -10.339387      -281.3490
  37   2.0000     -10.338473      -281.3242
  38   2.0000     -10.335586      -281.2456
  39   2.0000     -10.335284      -281.2374
  40   2.0000     -10.332516      -281.1620
  41   2.0000     -10.329449      -281.0786
  42   2.0000     -10.324163      -280.9348
  43   2.0000     -10.323732      -280.9230
  44   2.0000     -10.323594      -280.9193
  45   2.0000     -10.321454      -280.8611
  46   2.0000     -10.320171      -280.8261
  47   2.0000     -10.320144      -280.8254
  48   2.0000     -10.318282      -280.7747
  49   2.0000     -10.317634      -280.7571
  50   2.0000     -10.315394      -280.6961
  51   2.0000     -10.312083      -280.6060
  52   2.0000     -10.311202      -280.5821
  53   2.0000     -10.311021      -280.5771
  54   2.0000     -10.310747      -280.5697
  55   2.0000     -10.310441      -280.5614
  56   2.0000     -10.309372      -280.5323
  57   2.0000     -10.308768      -280.5158
  58   2.0000     -10.308745      -280.5152
  59   2.0000     -10.308459      -280.5074
  60   2.0000     -10.308071      -280.4969
  61   2.0000     -10.306447      -280.4527
  62   2.0000     -10.302137      -280.3354
  63   2.0000     -10.301826      -280.3269
  64   2.0000     -10.301690      -280.3232
  65   2.0000     -10.301551      -280.3195
  66   2.0000     -10.300478      -280.2902
  67   2.0000     -10.300314      -280.2858
  68   2.0000     -10.299771      -280.2710
  69   2.0000     -10.298820      -280.2452
  70   2.0000     -10.297102      -280.1984
  71   2.0000     -10.296245      -280.1751
  72   2.0000     -10.296075      -280.1704
  73   2.0000     -10.295980      -280.1679
  74   2.0000     -10.294878      -280.1379
  75   2.0000     -10.293939      -280.1123
  76   2.0000     -10.291090      -280.0348
  77   2.0000     -10.289807      -279.9999
  78   2.0000     -10.289446      -279.9901
  79   2.0000     -10.288497      -279.9642
  80   2.0000     -10.288015      -279.9511
  81   2.0000     -10.284526      -279.8562
  82   2.0000     -10.284038      -279.8429
  83   2.0000     -10.276508      -279.6380
  84   2.0000      -8.779129      -238.8923
  85   2.0000      -8.776445      -238.8192
  86   2.0000      -8.082114      -219.9255
  87   2.0000      -8.069068      -219.5705
  88   2.0000      -8.067953      -219.5402
  89   2.0000      -8.061527      -219.3653
  90   2.0000      -8.051042      -219.0800
  91   2.0000      -8.050772      -219.0726
  92   2.0000      -6.614869      -179.9997
  93   2.0000      -6.612297      -179.9298
  94   2.0000      -6.601344      -179.6317
  95   2.0000      -6.600795      -179.6168
  96   2.0000      -6.598542      -179.5554
  97   2.0000      -6.598128      -179.5442
  98   2.0000      -6.051735      -164.6761
  99   2.0000      -6.047204      -164.5528
 100   2.0000      -6.043898      -164.4628
 101   2.0000      -6.038798      -164.3240
 102   2.0000      -6.037635      -164.2924
 103   2.0000      -6.034006      -164.1936
 104   2.0000      -6.033286      -164.1741
 105   2.0000      -6.030994      -164.1117
 106   2.0000      -6.030994      -164.1117
 107   2.0000      -6.029403      -164.0684
 108   2.0000      -6.026721      -163.9954
 109   2.0000      -6.023520      -163.9083
 110   2.0000      -6.020882      -163.8365
 111   2.0000      -6.020719      -163.8321
 112   2.0000      -6.016671      -163.7220
 113   2.0000      -6.016412      -163.7149
 114   2.0000      -6.012165      -163.5993
 115   2.0000      -6.011755      -163.5882
 116   2.0000      -2.730807       -74.3090
 117   2.0000      -2.728202       -74.2381
 118   2.0000      -2.727135       -74.2091
 119   2.0000      -2.726766       -74.1991
 120   2.0000      -2.724447       -74.1360
 121   2.0000      -2.724183       -74.1288
 122   2.0000      -2.716003       -73.9062
 123   2.0000      -2.715986       -73.9057
 124   2.0000      -2.713230       -73.8308
 125   2.0000      -2.713220       -73.8305
 126   2.0000      -1.201554       -32.6959
 127   2.0000      -1.166587       -31.7445
 128   2.0000      -1.156062       -31.4580
 129   2.0000      -1.140040       -31.0221
 130   2.0000      -1.130732       -30.7688
 131   2.0000      -1.106865       -30.1193
 132   2.0000      -1.029254       -28.0074
 133   2.0000      -1.018938       -27.7267
 134   2.0000      -1.018315       -27.7098
 135   2.0000      -1.014985       -27.6191
 136   2.0000      -1.002156       -27.2700
 137   2.0000      -1.001286       -27.2464
 138   2.0000      -0.998763       -27.1777
 139   2.0000      -0.992808       -27.0157
 140   2.0000      -0.990172       -26.9440
 141   2.0000      -0.983876       -26.7726
 142   2.0000      -0.983251       -26.7556
 143   2.0000      -0.966980       -26.3129
 144   2.0000      -0.961540       -26.1648
 145   2.0000      -0.959783       -26.1170
 146   2.0000      -0.939724       -25.5712
 147   2.0000      -0.926256       -25.2047
 148   2.0000      -0.918426       -24.9916
 149   2.0000      -0.909120       -24.7384
 150   2.0000      -0.907534       -24.6953
 151   2.0000      -0.899991       -24.4900
 152   2.0000      -0.895417       -24.3655
 153   2.0000      -0.884728       -24.0747
 154   2.0000      -0.880491       -23.9594
 155   2.0000      -0.879761       -23.9395
 156   2.0000      -0.869869       -23.6703
 157   2.0000      -0.862824       -23.4786
 158   2.0000      -0.858763       -23.3681
 159   2.0000      -0.854443       -23.2506
 160   2.0000      -0.850885       -23.1538
 161   2.0000      -0.847470       -23.0608
 162   2.0000      -0.841004       -22.8849
 163   2.0000      -0.824695       -22.4411
 164   2.0000      -0.820636       -22.3306
 165   2.0000      -0.813220       -22.1288
 166   2.0000      -0.810926       -22.0664
 167   2.0000      -0.806255       -21.9393
 168   2.0000      -0.802769       -21.8445
 169   2.0000      -0.790036       -21.4980
 170   2.0000      -0.776384       -21.1265
 171   2.0000      -0.768503       -20.9120
 172   2.0000      -0.765070       -20.8186
 173   2.0000      -0.763630       -20.7794
 174   2.0000      -0.753718       -20.5097
 175   2.0000      -0.741269       -20.1710
 176   2.0000      -0.732628       -19.9358
 177   2.0000      -0.723465       -19.6865
 178   2.0000      -0.713616       -19.4185
 179   2.0000      -0.699787       -19.0422
 180   2.0000      -0.697675       -18.9847
 181   2.0000      -0.695444       -18.9240
 182   2.0000      -0.687859       -18.7176
 183   2.0000      -0.682757       -18.5788
 184   2.0000      -0.679179       -18.4814
 185   2.0000      -0.673653       -18.3310
 186   2.0000      -0.671942       -18.2845
 187   2.0000      -0.661316       -17.9953
 188   2.0000      -0.659108       -17.9352
 189   2.0000      -0.647128       -17.6093
 190   2.0000      -0.647087       -17.6081
 191   2.0000      -0.639557       -17.4032
 192   2.0000      -0.632452       -17.2099
 193   2.0000      -0.631167       -17.1749
 194   2.0000      -0.623913       -16.9775
 195   2.0000      -0.619040       -16.8449
 196   2.0000      -0.618140       -16.8204
 197   2.0000      -0.614990       -16.7347
 198   2.0000      -0.612441       -16.6654
 199   2.0000      -0.609105       -16.5746
 200   2.0000      -0.604258       -16.4427
 201   2.0000      -0.592952       -16.1350
 202   2.0000      -0.589620       -16.0444
 203   2.0000      -0.584679       -15.9099
 204   2.0000      -0.582972       -15.8635
 205   2.0000      -0.580364       -15.7925
 206   2.0000      -0.580303       -15.7909
 207   2.0000      -0.574881       -15.6433
 208   2.0000      -0.570097       -15.5131
 209   2.0000      -0.567748       -15.4492
 210   2.0000      -0.565236       -15.3809
 211   2.0000      -0.562345       -15.3022
 212   2.0000      -0.559323       -15.2200
 213   2.0000      -0.553541       -15.0626
 214   2.0000      -0.548852       -14.9350
 215   2.0000      -0.545145       -14.8341
 216   2.0000      -0.543971       -14.8022
 217   2.0000      -0.543123       -14.7791
 218   2.0000      -0.542503       -14.7622
 219   2.0000      -0.539577       -14.6826
 220   2.0000      -0.536565       -14.6007
 221   2.0000      -0.534315       -14.5394
 222   2.0000      -0.533866       -14.5272
 223   2.0000      -0.530750       -14.4424
 224   2.0000      -0.530135       -14.4257
 225   2.0000      -0.530062       -14.4237
 226   2.0000      -0.524606       -14.2752
 227   2.0000      -0.518659       -14.1134
 228   2.0000      -0.516949       -14.0669
 229   2.0000      -0.515755       -14.0344
 230   2.0000      -0.514367       -13.9966
 231   2.0000      -0.507553       -13.8112
 232   2.0000      -0.507333       -13.8052
 233   2.0000      -0.500011       -13.6060
 234   2.0000      -0.498825       -13.5737
 235   2.0000      -0.497674       -13.5424
 236   2.0000      -0.497518       -13.5382
 237   2.0000      -0.493428       -13.4268
 238   2.0000      -0.491872       -13.3845
 239   2.0000      -0.491244       -13.3674
 240   2.0000      -0.489194       -13.3117
 241   2.0000      -0.484591       -13.1864
 242   2.0000      -0.480232       -13.0678
 243   2.0000      -0.479301       -13.0424
 244   2.0000      -0.478997       -13.0342
 245   2.0000      -0.471578       -12.8323
 246   2.0000      -0.470629       -12.8065
 247   2.0000      -0.468587       -12.7509
 248   2.0000      -0.464967       -12.6524
 249   2.0000      -0.463590       -12.6149
 250   2.0000      -0.462720       -12.5913
 251   2.0000      -0.458796       -12.4845
 252   2.0000      -0.456711       -12.4277
 253   2.0000      -0.454819       -12.3762
 254   2.0000      -0.452810       -12.3216
 255   2.0000      -0.450919       -12.2701
 256   2.0000      -0.448895       -12.2150
 257   2.0000      -0.446750       -12.1567
 258   2.0000      -0.445599       -12.1254
 259   2.0000      -0.444363       -12.0917
 260   2.0000      -0.443363       -12.0645
 261   2.0000      -0.441624       -12.0172
 262   2.0000      -0.439262       -11.9529
 263   2.0000      -0.438734       -11.9386
 264   2.0000      -0.437560       -11.9066
 265   2.0000      -0.434933       -11.8351
 266   2.0000      -0.429516       -11.6877
 267   2.0000      -0.428471       -11.6593
 268   2.0000      -0.427049       -11.6206
 269   2.0000      -0.426320       -11.6007
 270   2.0000      -0.425318       -11.5735
 271   2.0000      -0.422809       -11.5052
 272   2.0000      -0.421197       -11.4614
 273   2.0000      -0.419897       -11.4260
 274   2.0000      -0.417707       -11.3664
 275   2.0000      -0.415658       -11.3106
 276   2.0000      -0.413668       -11.2565
 277   2.0000      -0.411089       -11.1863
 278   2.0000      -0.408824       -11.1247
 279   2.0000      -0.406304       -11.0561
 280   2.0000      -0.403992       -10.9932
 281   2.0000      -0.400724       -10.9042
 282   2.0000      -0.387809       -10.5528
 283   2.0000      -0.386854       -10.5268
 284   2.0000      -0.384045       -10.4504
 285   2.0000      -0.381485       -10.3807
 286   2.0000      -0.366928        -9.9846
 287   2.0000      -0.365154        -9.9364
 288   2.0000      -0.364824        -9.9274
 289   2.0000      -0.364467        -9.9177
 290   2.0000      -0.360121        -9.7994
 291   2.0000      -0.350421        -9.5354
 292   2.0000      -0.348894        -9.4939
 293   2.0000      -0.348670        -9.4878
 294   2.0000      -0.341309        -9.2875
 295   2.0000      -0.338498        -9.2110
 296   2.0000      -0.336643        -9.1605
 297   2.0000      -0.334894        -9.1129
 298   2.0000      -0.331541        -9.0217
 299   2.0000      -0.322926        -8.7873
 300   2.0000      -0.316169        -8.6034
 301   2.0000      -0.308674        -8.3995
 302   2.0000      -0.305977        -8.3261
 303   2.0000      -0.296173        -8.0593
 304   2.0000      -0.289166        -7.8686
 305   2.0000      -0.272802        -7.4233
 306   2.0000      -0.246494        -6.7075
 307   2.0000      -0.225611        -6.1392
 308   0.0000      -0.110297        -3.0013
 309   0.0000      -0.090646        -2.4666
 310   0.0000      -0.070166        -1.9093
 311   0.0000      -0.062794        -1.7087
 312   0.0000      -0.055949        -1.5225

MULLIKEN ATOMIC CHARGES
-----------------------
   0 C :    0.170674
   1 O :   -0.198873
   2 C :   -0.016915
   3 C :    0.035723
   4 C :   -0.034054
   5 C :    0.050827
   6 C :   -0.018025
   7 C :   -0.003583
   8 Br:   -0.017997
   9 C :    0.317203
  10 C :   -0.354556
  11 C :   -0.187988
  12 N :    0.153293
  13 C :   -0.191701
  14 N :    0.150062
  15 C :   -0.112378
  16 C :   -0.023747
  17 C :   -0.062749
  18 S :    0.159728
  19 C :   -0.074803
  20 C :   -0.063822
  21 C :    0.139163
  22 C :   -0.020234
  23 C :   -0.116319
  24 C :    0.204573
  25 O :   -0.182270
  26 O :   -0.311277
  27 C :    0.186475
  28 S :    0.179594
  29 C :   -0.062408
  30 C :   -0.097375
  31 C :    0.054355
  32 C :    0.064249
  33 C :   -0.124260
  34 S :    0.137618
  35 C :   -0.105152
  36 C :    0.050447
  37 C :    0.013824
  38 C :   -0.065512
  39 S :    0.134706
  40 C :    0.091286
  41 C :   -0.024490
  42 C :    0.000733
  43 C :    0.002522
  44 C :   -0.052830
  45 C :    0.074964
  46 C :   -0.119222
  47 S :    0.062216
  48 C :    0.125045
  49 O :   -0.305185
  50 C :    0.166981
  51 C :    0.050060
  52 C :   -0.082232
  53 C :    0.103035
  54 O :   -0.325299
  55 C :    0.161661
  56 S :    0.089582
  57 C :   -0.044971
  58 C :    0.005711
  59 C :    0.052586
  60 C :   -0.135782
  61 C :    0.141604
  62 O :   -0.137823
  63 C :   -0.010760
  64 C :    0.025298
  65 C :    0.247227
  66 C :   -0.319853
  67 C :   -0.180120
  68 N :    0.153091
  69 C :   -0.206580
  70 N :    0.170858
  71 C :   -0.027162
  72 C :    0.050202
  73 C :   -0.006588
  74 C :   -0.013232
  75 Br:   -0.022666
  76 H :    0.006655
  77 H :    0.002887
  78 H :    0.003702
  79 H :   -0.003442
  80 H :    0.032406
  81 H :    0.038311
  82 H :    0.038621
  83 H :    0.038717
  84 H :    0.021846
  85 H :    0.039796
  86 H :   -0.014993
  87 H :    0.029636
  88 H :   -0.017079
  89 H :   -0.007232
  90 H :   -0.007211
  91 H :    0.039810
  92 H :    0.037553
  93 H :    0.042867
  94 H :    0.038587
  95 H :    0.040101
  96 H :    0.040695
  97 H :   -0.000948
  98 H :    0.023918
  99 H :    0.009439
 100 H :    0.005457
 101 H :    0.003518
Sum of atomic charges:   -0.0000000

LOEWDIN ATOMIC CHARGES
----------------------
   0 C :    0.087190
   1 O :   -0.178649
   2 C :   -0.038260
   3 C :   -0.013965
   4 C :    0.005618
   5 C :   -0.015137
   6 C :   -0.102448
   7 C :    0.001567
   8 Br:    0.121421
   9 C :    0.075556
  10 C :   -0.145363
  11 C :   -0.019113
  12 N :   -0.055089
  13 C :   -0.019448
  14 N :   -0.055267
  15 C :   -0.120120
  16 C :    0.049604
  17 C :   -0.185892
  18 S :    0.524258
  19 C :   -0.173450
  20 C :   -0.207319
  21 C :   -0.041241
  22 C :   -0.008972
  23 C :   -0.189227
  24 C :    0.066777
  25 O :   -0.160337
  26 O :   -0.100972
  27 C :    0.083618
  28 S :    0.435482
  29 C :   -0.199970
  30 C :   -0.005862
  31 C :   -0.025205
  32 C :   -0.047720
  33 C :   -0.137025
  34 S :    0.451059
  35 C :   -0.197559
  36 C :   -0.038741
  37 C :   -0.061808
  38 C :   -0.159623
  39 S :    0.426329
  40 C :   -0.035768
  41 C :   -0.021587
  42 C :   -0.036827
  43 C :   -0.145155
  44 C :   -0.039155
  45 C :   -0.044079
  46 C :   -0.187526
  47 S :    0.391633
  48 C :    0.042719
  49 O :   -0.093908
  50 C :    0.067482
  51 C :   -0.068817
  52 C :   -0.168242
  53 C :    0.018779
  54 O :   -0.100770
  55 C :    0.065613
  56 S :    0.431607
  57 C :   -0.177413
  58 C :    0.019613
  59 C :    0.056097
  60 C :   -0.103702
  61 C :    0.084284
  62 O :   -0.138343
  63 C :   -0.039805
  64 C :   -0.011423
  65 C :    0.058914
  66 C :   -0.141354
  67 C :   -0.020236
  68 N :   -0.052739
  69 C :   -0.041216
  70 N :   -0.050084
  71 C :    0.003763
  72 C :   -0.012656
  73 C :   -0.100510
  74 C :    0.000191
  75 Br:    0.112983
  76 H :    0.042514
  77 H :    0.039482
  78 H :    0.042587
  79 H :    0.049521
  80 H :    0.049087
  81 H :    0.027782
  82 H :    0.026243
  83 H :    0.026183
  84 H :    0.029119
  85 H :    0.038171
  86 H :    0.031586
  87 H :    0.024966
  88 H :    0.023903
  89 H :    0.034941
  90 H :    0.035189
  91 H :    0.015277
  92 H :    0.013891
  93 H :    0.032442
  94 H :    0.000548
  95 H :    0.030725
  96 H :    0.020649
  97 H :    0.040016
  98 H :    0.051708
  99 H :    0.042256
 100 H :    0.040044
 101 H :    0.044108

  Mayer bond orders larger than 0.100000
B(  0-C ,  1-O ) :   2.0611 B(  0-C ,  2-C ) :   0.9630 B(  0-C , 15-C ) :   1.0100
B(  2-C ,  3-C ) :   1.3301 B(  2-C ,  7-C ) :   1.3818 B(  3-C ,  4-C ) :   1.3748
B(  3-C ,  9-C ) :   0.9804 B(  4-C ,  5-C ) :   1.3711 B(  4-C , 76-H ) :   0.9848
B(  5-C ,  6-C ) :   1.3957 B(  5-C , 77-H ) :   0.9858 B(  6-C ,  7-C ) :   1.3255
B(  6-C ,  8-Br) :   0.9947 B(  7-C , 78-H ) :   1.0080 B(  9-C , 10-C ) :   1.6142
B(  9-C , 15-C ) :   1.1025 B( 10-C , 11-C ) :   1.1465 B( 10-C , 13-C ) :   1.1466
B( 11-C , 12-N ) :   2.9729 B( 13-C , 14-N ) :   2.9735 B( 15-C , 16-C ) :   1.4360
B( 16-C , 17-C ) :   1.3522 B( 16-C , 79-H ) :   0.9355 B( 17-C , 18-S ) :   1.0726
B( 17-C , 21-C ) :   1.2440 B( 18-S , 19-C ) :   1.1256 B( 19-C , 20-C ) :   1.3846
B( 19-C , 29-C ) :   1.2343 B( 20-C , 21-C ) :   1.3114 B( 20-C , 28-S ) :   1.0465
B( 21-C , 22-C ) :   1.1744 B( 22-C , 23-C ) :   1.5979 B( 22-C , 80-H ) :   0.9984
B( 23-C , 24-C ) :   0.9484 B( 23-C , 28-S ) :   1.0836 B( 24-C , 25-O ) :   2.1556
B( 24-C , 26-O ) :   1.2318 B( 26-O , 27-C ) :   0.9170 B( 27-C , 81-H ) :   0.9811
B( 27-C , 82-H ) :   0.9769 B( 27-C , 83-H ) :   0.9769 B( 29-C , 30-C ) :   1.4570
B( 29-C , 34-S ) :   1.0362 B( 30-C , 31-C ) :   1.2778 B( 30-C , 84-H ) :   0.9603
B( 31-C , 32-C ) :   1.0491 B( 31-C , 40-C ) :   1.3520 B( 32-C , 33-C ) :   1.6060
B( 32-C , 35-C ) :   1.1838 B( 33-C , 34-S ) :   1.1438 B( 33-C , 85-H ) :   0.9400
B( 35-C , 36-C ) :   1.4247 B( 35-C , 39-S ) :   1.0794 B( 36-C , 37-C ) :   1.2164
B( 36-C , 40-C ) :   1.1144 B( 37-C , 38-C ) :   1.5907 B( 37-C , 86-H ) :   0.9976
B( 38-C , 39-S ) :   1.1509 B( 38-C , 87-H ) :   0.9662 B( 40-C , 41-C ) :   1.1752
B( 41-C , 42-C ) :   1.5942 B( 41-C , 88-H ) :   0.9571 B( 42-C , 43-C ) :   1.1753
B( 42-C , 89-H ) :   0.9730 B( 43-C , 44-C ) :   1.4922 B( 43-C , 47-S ) :   1.0475
B( 44-C , 45-C ) :   1.1812 B( 44-C , 90-H ) :   1.0097 B( 45-C , 46-C ) :   1.3026
B( 45-C , 53-C ) :   1.2830 B( 46-C , 47-S ) :   1.0033 B( 46-C , 48-C ) :   1.3822
B( 48-C , 49-O ) :   1.2372 B( 48-C , 51-C ) :   1.2665 B( 49-O , 50-C ) :   0.9408
B( 50-C , 91-H ) :   0.9681 B( 50-C , 92-H ) :   0.9673 B( 50-C , 93-H ) :   0.9762
B( 51-C , 52-C ) :   1.2933 B( 51-C , 58-C ) :   1.2125 B( 52-C , 53-C ) :   1.3918
B( 52-C , 56-S ) :   1.0218 B( 53-C , 54-O ) :   1.1943 B( 54-O , 55-C ) :   0.9383
B( 55-C , 94-H ) :   0.9577 B( 55-C , 95-H ) :   0.9753 B( 55-C , 96-H ) :   0.9719
B( 56-S , 57-C ) :   1.0440 B( 57-C , 58-C ) :   1.4574 B( 57-C , 59-C ) :   1.1504
B( 58-C , 97-H ) :   1.0103 B( 59-C , 60-C ) :   1.6169 B( 59-C , 98-H ) :   0.9517
B( 60-C , 61-C ) :   0.9482 B( 60-C , 65-C ) :   1.0405 B( 61-C , 62-O ) :   2.2720
B( 61-C , 63-C ) :   0.9182 B( 63-C , 64-C ) :   1.3354 B( 63-C , 74-C ) :   1.3853
B( 64-C , 65-C ) :   1.0109 B( 64-C , 71-C ) :   1.3720 B( 65-C , 66-C ) :   1.6513
B( 66-C , 67-C ) :   1.1388 B( 66-C , 69-C ) :   1.1455 B( 67-C , 68-N ) :   2.9931
B( 69-C , 70-N ) :   3.0250 B( 71-C , 72-C ) :   1.3771 B( 71-C , 99-H ) :   0.9865
B( 72-C , 73-C ) :   1.3930 B( 72-C ,100-H ) :   0.9851 B( 73-C , 74-C ) :   1.3405
B( 73-C , 75-Br) :   0.9910 B( 74-C ,101-H ) :   1.0067

-----------------------------------------------------------------------------
         ABSORPTION SPECTRUM VIA TRANSITION ELECTRIC DIPOLE MOMENTS
-----------------------------------------------------------------------------
State   Energy  Wavelength   fosc         T2         TX        TY        TZ
        (cm-1)    (nm)                  (au**2)     (au)      (au)      (au)
-----------------------------------------------------------------------------
   0   10654.6    938.6   0.318174990   9.83119   0.19812  -1.35963   2.81839
   1   15548.9    643.1   1.009283823  21.36929  -2.37405   3.62338   1.61380
   2   16523.8    605.2   0.158348041   3.15485  -0.96966   1.39693  -0.51305
   3   19323.3    517.5   0.067248621   1.14572  -0.81620   0.55282   0.41704
   4   19588.0    510.5   0.058705073   0.98665  -0.44377  -0.25028   0.85269
   5   20598.2    485.5   0.746315066  11.92801   2.37683  -1.87163  -1.66605
   6   21534.1    464.4   0.032379818   0.49502  -0.59092   0.22540   0.30827
   7   22985.6    435.1   0.280028963   4.01072   1.46489  -1.10000  -0.80920
   8   23924.6    418.0   0.025645656   0.35289   0.08976  -0.46918  -0.35314
   9   24661.1    405.5   0.127671918   1.70435  -0.03317  -1.25246  -0.36687
  10   25138.5    397.8   0.251187959   3.28954   1.06271  -0.53486  -1.36898
  11   25639.4    390.0   0.096650825   1.24100  -0.77051   0.80433   0.01905
  12   26629.8    375.5   0.064510253   0.79751   0.24649   0.13381  -0.84785
  13   27160.4    368.2   0.006635752   0.08043   0.14326  -0.09405  -0.22597
  14   27529.7    363.2   0.005456263   0.06525   0.18551   0.16662   0.05543
  15   27879.5    358.7   0.055524574   0.65566  -0.36511  -0.17963   0.70006
  16   28627.0    349.3   0.048426411   0.55691   0.50890   0.21116  -0.50333
  17   28839.0    346.8   0.245232394   2.79945   1.39618  -0.34275  -0.85596
  18   29096.8    343.7   0.031921987   0.36118  -0.04672  -0.20313   0.56368
  19   29356.7    340.6   0.015664056   0.17566  -0.26470   0.27252   0.17700
  20   29966.1    333.7   0.087730073   0.96381  -0.07211   0.74676  -0.63322
  21   30053.4    332.7   0.079421752   0.87000   0.44633  -0.26421  -0.77523
  22   30957.6    323.0   0.068466337   0.72809  -0.31399   0.78334  -0.12603
  23   31239.3    320.1   0.080584376   0.84923  -0.76037   0.52064   0.00164
  24   31867.6    313.8   0.009154977   0.09458   0.26783  -0.14617   0.03846
  25   32110.5    311.4   0.000798392   0.00819  -0.04102   0.07924  -0.01494
  26   32468.6    308.0   0.103488194   1.04931  -0.62915  -0.47633   0.65313
  27   32530.4    307.4   0.137548127   1.39200  -0.62764   0.53164   0.84583
  28   32694.8    305.9   0.095732069   0.96395  -0.85897   0.25199   0.40326
  29   33093.1    302.2   0.119148722   1.18530  -0.71894  -0.28802   0.76515
  30   33276.0    300.5   0.241828368   2.39250  -1.14168   0.99148   0.32562
  31   33303.9    300.3   0.357746069   3.53635  -1.33978   0.76856   1.07268
  32   33616.5    297.5   0.178150294   1.74465  -0.26490  -0.58037   1.15657
  33   33957.3    294.5   0.321690234   3.11874   0.49124   0.89012  -1.44399
  34   34311.4    291.4   0.008168486   0.07838  -0.07238   0.20631  -0.17485
  35   34662.2    288.5   0.090617382   0.86066   0.56534  -0.70896   0.19600
  36   35009.8    285.6   0.167694443   1.57690   1.08380  -0.40466  -0.48840
  37   35250.0    283.7   0.087638155   0.81848   0.86427   0.13150  -0.23287
  38   35339.6    283.0   0.100707616   0.93816   0.48340   0.04014  -0.83837
  39   35548.3    281.3   0.000356421   0.00330   0.01514  -0.05265   0.01730
  40   35823.0    279.2   0.050474383   0.46386  -0.04419  -0.55056   0.39848
  41   36008.5    277.7   0.351360509   3.21236   0.16934  -1.09002   1.41263
  42   36610.6    273.1   0.026523492   0.23851   0.18350  -0.17996   0.41527
  43   36723.3    272.3   0.212227048   1.90254   0.30783   0.91666  -0.98363
  44   36956.0    270.6   0.059949094   0.53404   0.29948   0.18772  -0.63962
  45   37286.6    268.2   0.010041984   0.08866  -0.05041   0.19285  -0.22121
  46   37629.4    265.7   0.026601187   0.23273  -0.37695   0.21413   0.21162
  47   37773.9    264.7   0.067032911   0.58421  -0.42466   0.60180  -0.20425
  48   37799.2    264.6   0.004581941   0.03991   0.15791   0.10344  -0.06535
  49   37884.8    264.0   0.012406489   0.10781   0.06420   0.24711  -0.20646
  50   38107.2    262.4   0.037201819   0.32139   0.35969   0.08987  -0.42888
  51   38214.5    261.7   0.078135627   0.67313   0.56092  -0.50401   0.32322
  52   38455.6    260.0   0.052081649   0.44586   0.15287  -0.62376   0.18281
  53   38635.2    258.8   0.197920500   1.68649   0.99105   0.53017  -0.65056
  54   38932.7    256.9   0.079536968   0.67256   0.74014  -0.29414  -0.19552
  55   39072.4    255.9   0.038420977   0.32372   0.33879  -0.36175  -0.27944
  56   39242.2    254.8   0.005906424   0.04955  -0.02914   0.21598   0.04532
  57   39456.0    253.4   0.021795958   0.18186  -0.22227   0.14420   0.33416
  58   39813.8    251.2   0.045329674   0.37482   0.07027  -0.46264   0.39478
  59   40064.6    249.6   0.024236648   0.19915   0.36682  -0.12237  -0.22276
  60   40072.6    249.5   0.008842122   0.07264  -0.05235   0.16392  -0.20744

FINAL SINGLE POINT ENERGY    -10428.780776529798

DIPOLE MOMENT
-------------
                                X             Y             Z
Electronic contribution:   -125.41374      90.75566      81.46790
Nuclear contribution   :    127.11679     -95.01101     -81.98856
                        -----------------------------------------
Total Dipole Moment    :      1.70305      -4.25535      -0.52066
                        -----------------------------------------
Magnitude (a.u.)       :      4.61297
Magnitude (Debye)      :     11.72524

Rotational constants in cm-1:     0.000987     0.000296     0.000238
Rotational constants in MHz :    29.603726     8.877055     7.121531

                             ****ORCA TERMINATED NORMALLY****
TOTAL RUN TIME: 0 days 0 hours 12 minutes 9 seconds 422 msec
