                         Program Version 4.2.0 -  RELEASE  -
|  1> # ORCA input file
|  2> # SCF done       -171.126102482125          0.000383826572
|  3> ! CAM-B3LYP def2-SVP def2/J RIJCOSX Grid4 TightSCF
|  4> %maxcore 5000
|  5> %tddft
|  6>     Mode sTDDFT
|  7>     Ethresh 5.0
|  8>     maxcore 5000
|  9> end
| 10>
| 11> %pal
| 12>   nprocs 6
| 13>   end
| 14> * xyz 0 1
| 15>    C       -7.58592        -1.99202         1.06381
| 16>    O       -7.28211        -3.05296         1.57803
| 17>    C       -8.76637        -1.16387         1.38754
| 18>    C       -8.76488        -0.01611         0.57473
| 19>    C       -9.78716         0.91225         0.70449
| 20>    C      -10.78701         0.68003         1.63800
| 21>    C      -10.76642        -0.46042         2.42922
| 22>    C       -9.75410        -1.40504         2.31854
| 23>   Br      -12.15665        -0.73409         3.69408
| 24>    C       -7.59101        -0.05879        -0.29831
| 25>    C       -7.26219         0.89562        -1.22829
| 26>    C       -8.02250         2.05887        -1.47022
| 27>    N       -8.59430         3.02351        -1.71622
| 28>    C       -6.13339         0.86394        -2.07256
| 29>    N       -5.23949         0.91054        -2.79327
| 30>    C       -6.87097        -1.27559         0.00736
| 31>    C       -5.70806        -1.70368        -0.59143
| 32>    C       -4.95508        -2.85655        -0.37219
| 33>    S       -5.26118        -4.14786         0.76895
| 34>    C       -3.85235        -5.03597         0.26239
| 35>    C       -3.17494        -4.35460        -0.74442
| 36>    C       -3.78009        -3.13084        -1.10560
| 37>    C       -3.06988        -2.45574        -2.12082
| 38>    C       -1.96059        -3.15005        -2.51180
| 39>    C       -0.96270        -2.79621        -3.52594
| 40>    O       -0.00914        -3.48344        -3.79936
| 41>    O       -1.24015        -1.62283        -4.10440
| 42>    C       -0.32509        -1.19300        -5.10249
| 43>    S       -1.73594        -4.65508        -1.66313
| 44>    C       -3.53177        -6.28787         0.85902
| 45>    C       -2.47087        -7.09853         0.46739
| 46>    C       -2.18467        -8.32888         1.05643
| 47>    C       -2.92342        -8.87223         2.10192
| 48>    C       -4.01305        -8.06936         2.54383
| 49>    C       -4.31465        -6.80218         1.92857
| 50>    N       -5.36610        -6.30815         2.54709
| 51>    O       -5.70619        -7.18807         3.47930
| 52>    N       -4.90555        -8.25799         3.49672
| 53>    C       -2.64963       -10.13219         2.70813
| 54>    N       -3.40812       -10.59250         3.76001
| 55>    C       -2.93554       -11.80946         4.12765
| 56>    C       -3.12337       -12.87302         4.99359
| 57>    C       -2.12104       -13.81339         4.67674
| 58>    N       -1.34111       -13.33033         3.64284
| 59>    C       -1.83302       -12.12456         3.27497
| 60>    C       -1.65777       -11.07198         2.38712
| 61>    C       -1.91418       -15.07131         5.27239
| 62>    C       -0.80965       -15.84780         5.04594
| 63>    C       -0.70808       -17.18038         5.45692
| 64>    C        0.24886       -18.10592         5.11644
| 65>    C        0.26223       -19.38485         5.86718
| 66>    O       -0.56395       -19.76517         6.66609
| 67>    C        1.50432       -20.07367         5.45667
| 68>    C        2.14975       -19.30839         4.46986
| 69>    C        1.33230       -18.12680         4.16494
| 70>    C        1.54432       -17.33723         3.05649
| 71>    C        2.59863       -17.53576         2.13714
| 72>    N        3.42268       -17.62193         1.34211
| 73>    C        0.76964       -16.25951         2.59848
| 74>    N        0.22186       -15.35814         2.13570
| 75>    C        3.36815       -19.74012         3.96635
| 76>    C        3.90690       -20.92803         4.43897
| 77>    C        3.24040       -21.67529         5.39986
| 78>    C        2.02711       -21.25766         5.93107
| 79>   Br        4.01262       -23.30076         6.00871
| 80>    H       -9.82469         1.80446         0.10171
| 81>    H      -11.58937         1.39282         1.75092
| 82>    H       -9.73202        -2.29350         2.93028
| 83>    H       -5.29509        -1.06419        -1.36044
| 84>    H       -3.34287        -1.50968        -2.55194
| 85>    H       -0.70005        -0.23895        -5.46283
| 86>    H       -0.27988        -1.92168        -5.91445
| 87>    H        0.67403        -1.07918        -4.67687
| 88>    H       -1.83645        -6.76597        -0.33885
| 89>    H       -1.34352        -8.88594         0.67672
| 90>    H       -4.18189       -10.07112         4.14678
| 91>    H       -3.85184       -12.98346         5.77137
| 92>    H       -0.68164       -13.88933         3.11118
| 93>    H       -0.92675       -10.98391         1.61026
| 94>    H       -2.70694       -15.44576         5.90573
| 95>    H        0.02034       -15.41838         4.51227
| 96>    H       -1.46446       -17.55376         6.14058
| 97>    H        3.91282       -19.17604         3.22787
| 98>    H        4.85437       -21.27463         4.05587
| 99>    H        1.50714       -21.82813         6.68488
|100> *
|101>
|102>                          ****END OF INPUT****

CARTESIAN COORDINATES (ANGSTROEM)
---------------------------------
  C     -7.585920   -1.992020    1.063810
  O     -7.282110   -3.052960    1.578030
  C     -8.766370   -1.163870    1.387540
  C     -8.764880   -0.016110    0.574730
  C     -9.787160    0.912250    0.704490
  C    -10.787010    0.680030    1.638000
  C    -10.766420   -0.460420    2.429220
  C     -9.754100   -1.405040    2.318540
  Br   -12.156650   -0.734090    3.694080
  C     -7.591010   -0.058790   -0.298310
  C     -7.262190    0.895620   -1.228290
  C     -8.022500    2.058870   -1.470220
  N     -8.594300    3.023510   -1.716220
  C     -6.133390    0.863940   -2.072560
  N     -5.239490    0.910540   -2.793270
  C     -6.870970   -1.275590    0.007360
  C     -5.708060   -1.703680   -0.591430
  C     -4.955080   -2.856550   -0.372190
  S     -5.261180   -4.147860    0.768950
  C     -3.852350   -5.035970    0.262390
  C     -3.174940   -4.354600   -0.744420
  C     -3.780090   -3.130840   -1.105600
  C     -3.069880   -2.455740   -2.120820
  C     -1.960590   -3.150050   -2.511800
  C     -0.962700   -2.796210   -3.525940
  O     -0.009140   -3.483440   -3.799360
  O     -1.240150   -1.622830   -4.104400
  C     -0.325090   -1.193000   -5.102490
  S     -1.735940   -4.655080   -1.663130
  C     -3.531770   -6.287870    0.859020
  C     -2.470870   -7.098530    0.467390
  C     -2.184670   -8.328880    1.056430
  C     -2.923420   -8.872230    2.101920
  C     -4.013050   -8.069360    2.543830
  C     -4.314650   -6.802180    1.928570
  N     -5.366100   -6.308150    2.547090
  O     -5.706190   -7.188070    3.479300
  N     -4.905550   -8.257990    3.496720
  C     -2.649630  -10.132190    2.708130
  N     -3.408120  -10.592500    3.760010
  C     -2.935540  -11.809460    4.127650
  C     -3.123370  -12.873020    4.993590
  C     -2.121040  -13.813390    4.676740
  N     -1.341110  -13.330330    3.642840
  C     -1.833020  -12.124560    3.274970
  C     -1.657770  -11.071980    2.387120
  C     -1.914180  -15.071310    5.272390
  C     -0.809650  -15.847800    5.045940
  C     -0.708080  -17.180380    5.456920
  C      0.248860  -18.105920    5.116440
  C      0.262230  -19.384850    5.867180
  O     -0.563950  -19.765170    6.666090
  C      1.504320  -20.073670    5.456670
  C      2.149750  -19.308390    4.469860
  C      1.332300  -18.126800    4.164940
  C      1.544320  -17.337230    3.056490
  C      2.598630  -17.535760    2.137140
  N      3.422680  -17.621930    1.342110
  C      0.769640  -16.259510    2.598480
  N      0.221860  -15.358140    2.135700
  C      3.368150  -19.740120    3.966350
  C      3.906900  -20.928030    4.438970
  C      3.240400  -21.675290    5.399860
  C      2.027110  -21.257660    5.931070
  Br     4.012620  -23.300760    6.008710
  H     -9.824690    1.804460    0.101710
  H    -11.589370    1.392820    1.750920
  H     -9.732020   -2.293500    2.930280
  H     -5.295090   -1.064190   -1.360440
  H     -3.342870   -1.509680   -2.551940
  H     -0.700050   -0.238950   -5.462830
  H     -0.279880   -1.921680   -5.914450
  H      0.674030   -1.079180   -4.676870
  H     -1.836450   -6.765970   -0.338850
  H     -1.343520   -8.885940    0.676720
  H     -4.181890  -10.071120    4.146780
  H     -3.851840  -12.983460    5.771370
  H     -0.681640  -13.889330    3.111180
  H     -0.926750  -10.983910    1.610260
  H     -2.706940  -15.445760    5.905730
  H      0.020340  -15.418380    4.512270
  H     -1.464460  -17.553760    6.140580
  H      3.912820  -19.176040    3.227870
  H      4.854370  -21.274630    4.055870
  H      1.507140  -21.828130    6.684880

 Total Charge           Charge          ....    0
 Multiplicity           Mult            ....    1
 Number of Electrons    NEL             ....  506
 Basis Dimension        Dim             .... 1054

ORBITAL ENERGIES
----------------

  NO   OCC          E(Eh)            E(eV)
   0   2.0000    -482.872881    -13139.6391
   1   2.0000    -482.870670    -13139.5789
   2   2.0000     -88.978164     -2421.2189
   3   2.0000     -88.974307     -2421.1140
   4   2.0000     -62.550578     -1702.0878
   5   2.0000     -62.548391     -1702.0283
   6   2.0000     -56.384411     -1534.2978
   7   2.0000     -56.382223     -1534.2383
   8   2.0000     -56.381898     -1534.2294
   9   2.0000     -56.381880     -1534.2289
  10   2.0000     -56.379705     -1534.1698
  11   2.0000     -56.379700     -1534.1696
  12   2.0000     -19.373327      -527.1750
  13   2.0000     -19.267934      -524.3071
  14   2.0000     -19.226180      -523.1710
  15   2.0000     -19.213801      -522.8341
  16   2.0000     -19.213373      -522.8224
  17   2.0000     -14.503001      -394.6467
  18   2.0000     -14.497309      -394.4918
  19   2.0000     -14.468673      -393.7126
  20   2.0000     -14.461092      -393.5063
  21   2.0000     -14.429864      -392.6566
  22   2.0000     -14.422800      -392.4643
  23   2.0000     -14.416136      -392.2830
  24   2.0000     -14.414986      -392.2517
  25   2.0000     -10.413265      -283.3594
  26   2.0000     -10.373299      -282.2718
  27   2.0000     -10.363457      -282.0040
  28   2.0000     -10.347033      -281.5571
  29   2.0000     -10.346694      -281.5479
  30   2.0000     -10.345592      -281.5179
  31   2.0000     -10.345193      -281.5070
  32   2.0000     -10.344615      -281.4913
  33   2.0000     -10.343870      -281.4710
  34   2.0000     -10.342868      -281.4437
  35   2.0000     -10.342258      -281.4271
  36   2.0000     -10.338903      -281.3359
  37   2.0000     -10.332428      -281.1596
  38   2.0000     -10.331856      -281.1441
  39   2.0000     -10.328490      -281.0525
  40   2.0000     -10.326295      -280.9928
  41   2.0000     -10.325990      -280.9845
  42   2.0000     -10.325936      -280.9830
  43   2.0000     -10.324617      -280.9471
  44   2.0000     -10.323763      -280.9239
  45   2.0000     -10.323093      -280.9056
  46   2.0000     -10.321851      -280.8718
  47   2.0000     -10.319949      -280.8201
  48   2.0000     -10.319439      -280.8062
  49   2.0000     -10.319174      -280.7990
  50   2.0000     -10.314945      -280.6839
  51   2.0000     -10.313907      -280.6557
  52   2.0000     -10.313830      -280.6536
  53   2.0000     -10.313708      -280.6503
  54   2.0000     -10.312110      -280.6068
  55   2.0000     -10.311299      -280.5847
  56   2.0000     -10.310217      -280.5553
  57   2.0000     -10.308953      -280.5209
  58   2.0000     -10.307884      -280.4918
  59   2.0000     -10.305308      -280.4217
  60   2.0000     -10.304222      -280.3921
  61   2.0000     -10.303229      -280.3651
  62   2.0000     -10.302625      -280.3487
  63   2.0000     -10.302138      -280.3354
  64   2.0000     -10.301497      -280.3180
  65   2.0000     -10.300624      -280.2942
  66   2.0000     -10.300281      -280.2849
  67   2.0000     -10.299117      -280.2532
  68   2.0000     -10.296415      -280.1797
  69   2.0000     -10.290519      -280.0193
  70   2.0000     -10.288410      -279.9619
  71   2.0000     -10.286964      -279.9225
  72   2.0000     -10.283282      -279.8223
  73   2.0000      -8.779854      -238.9120
  74   2.0000      -8.777677      -238.8527
  75   2.0000      -8.070184      -219.6009
  76   2.0000      -8.068980      -219.5681
  77   2.0000      -6.615690      -180.0221
  78   2.0000      -6.613494      -179.9623
  79   2.0000      -6.601972      -179.6488
  80   2.0000      -6.601535      -179.6369
  81   2.0000      -6.599798      -179.5896
  82   2.0000      -6.599374      -179.5781
  83   2.0000      -6.039630      -164.3467
  84   2.0000      -6.038708      -164.3216
  85   2.0000      -6.034862      -164.2170
  86   2.0000      -6.034383      -164.2039
  87   2.0000      -6.032557      -164.1542
  88   2.0000      -6.030432      -164.0964
  89   2.0000      -2.731651       -74.3320
  90   2.0000      -2.729455       -74.2722
  91   2.0000      -2.727871       -74.2291
  92   2.0000      -2.727519       -74.2196
  93   2.0000      -2.725679       -74.1695
  94   2.0000      -2.725350       -74.1605
  95   2.0000      -2.716639       -73.9235
  96   2.0000      -2.716631       -73.9233
  97   2.0000      -2.714474       -73.8646
  98   2.0000      -2.714460       -73.8642
  99   2.0000      -1.326881       -36.1063
 100   2.0000      -1.200149       -32.6577
 101   2.0000      -1.141517       -31.0623
 102   2.0000      -1.128791       -30.7160
 103   2.0000      -1.106998       -30.1229
 104   2.0000      -1.105569       -30.0841
 105   2.0000      -1.068649       -29.0794
 106   2.0000      -1.034185       -28.1416
 107   2.0000      -1.027266       -27.9533
 108   2.0000      -1.026273       -27.9263
 109   2.0000      -1.023074       -27.8393
 110   2.0000      -1.013898       -27.5896
 111   2.0000      -1.006321       -27.3834
 112   2.0000      -1.005178       -27.3523
 113   2.0000      -0.997161       -27.1341
 114   2.0000      -0.997091       -27.1322
 115   2.0000      -0.968827       -26.3631
 116   2.0000      -0.963342       -26.2139
 117   2.0000      -0.961872       -26.1739
 118   2.0000      -0.939463       -25.5641
 119   2.0000      -0.928388       -25.2627
 120   2.0000      -0.925251       -25.1774
 121   2.0000      -0.912495       -24.8302
 122   2.0000      -0.911276       -24.7971
 123   2.0000      -0.902357       -24.5544
 124   2.0000      -0.895590       -24.3702
 125   2.0000      -0.887036       -24.1375
 126   2.0000      -0.879442       -23.9308
 127   2.0000      -0.875394       -23.8207
 128   2.0000      -0.864370       -23.5207
 129   2.0000      -0.862231       -23.4625
 130   2.0000      -0.857611       -23.3368
 131   2.0000      -0.850094       -23.1322
 132   2.0000      -0.846192       -23.0261
 133   2.0000      -0.821768       -22.3614
 134   2.0000      -0.811685       -22.0871
 135   2.0000      -0.803759       -21.8714
 136   2.0000      -0.794288       -21.6137
 137   2.0000      -0.773042       -21.0355
 138   2.0000      -0.771963       -21.0062
 139   2.0000      -0.770256       -20.9597
 140   2.0000      -0.769058       -20.9271
 141   2.0000      -0.758460       -20.6388
 142   2.0000      -0.738246       -20.0887
 143   2.0000      -0.729137       -19.8408
 144   2.0000      -0.715893       -19.4804
 145   2.0000      -0.706118       -19.2145
 146   2.0000      -0.703595       -19.1458
 147   2.0000      -0.700527       -19.0623
 148   2.0000      -0.699521       -19.0349
 149   2.0000      -0.692466       -18.8430
 150   2.0000      -0.684676       -18.6310
 151   2.0000      -0.681138       -18.5347
 152   2.0000      -0.675023       -18.3683
 153   2.0000      -0.664991       -18.0953
 154   2.0000      -0.658745       -17.9254
 155   2.0000      -0.651496       -17.7281
 156   2.0000      -0.645956       -17.5774
 157   2.0000      -0.644323       -17.5329
 158   2.0000      -0.628180       -17.0936
 159   2.0000      -0.624977       -17.0065
 160   2.0000      -0.622653       -16.9432
 161   2.0000      -0.621343       -16.9076
 162   2.0000      -0.618961       -16.8428
 163   2.0000      -0.614959       -16.7339
 164   2.0000      -0.612357       -16.6631
 165   2.0000      -0.600109       -16.3298
 166   2.0000      -0.590353       -16.0643
 167   2.0000      -0.586088       -15.9483
 168   2.0000      -0.583794       -15.8858
 169   2.0000      -0.579592       -15.7715
 170   2.0000      -0.578391       -15.7388
 171   2.0000      -0.570774       -15.5315
 172   2.0000      -0.570056       -15.5120
 173   2.0000      -0.562650       -15.3105
 174   2.0000      -0.557989       -15.1836
 175   2.0000      -0.550728       -14.9861
 176   2.0000      -0.547790       -14.9061
 177   2.0000      -0.546652       -14.8752
 178   2.0000      -0.545729       -14.8500
 179   2.0000      -0.544868       -14.8266
 180   2.0000      -0.543498       -14.7893
 181   2.0000      -0.540701       -14.7132
 182   2.0000      -0.537921       -14.6376
 183   2.0000      -0.535466       -14.5708
 184   2.0000      -0.533430       -14.5154
 185   2.0000      -0.529339       -14.4041
 186   2.0000      -0.527616       -14.3572
 187   2.0000      -0.525304       -14.2942
 188   2.0000      -0.519869       -14.1464
 189   2.0000      -0.516323       -14.0499
 190   2.0000      -0.506541       -13.7837
 191   2.0000      -0.503354       -13.6969
 192   2.0000      -0.503036       -13.6883
 193   2.0000      -0.502014       -13.6605
 194   2.0000      -0.501164       -13.6374
 195   2.0000      -0.499424       -13.5900
 196   2.0000      -0.495757       -13.4902
 197   2.0000      -0.491792       -13.3823
 198   2.0000      -0.489941       -13.3320
 199   2.0000      -0.482924       -13.1410
 200   2.0000      -0.482258       -13.1229
 201   2.0000      -0.480211       -13.0672
 202   2.0000      -0.476181       -12.9575
 203   2.0000      -0.475275       -12.9329
 204   2.0000      -0.473664       -12.8891
 205   2.0000      -0.471457       -12.8290
 206   2.0000      -0.468529       -12.7493
 207   2.0000      -0.466012       -12.6808
 208   2.0000      -0.460011       -12.5175
 209   2.0000      -0.456525       -12.4227
 210   2.0000      -0.456180       -12.4133
 211   2.0000      -0.454423       -12.3655
 212   2.0000      -0.453512       -12.3407
 213   2.0000      -0.445971       -12.1355
 214   2.0000      -0.445491       -12.1224
 215   2.0000      -0.443202       -12.0602
 216   2.0000      -0.440989       -11.9999
 217   2.0000      -0.438342       -11.9279
 218   2.0000      -0.436147       -11.8682
 219   2.0000      -0.435490       -11.8503
 220   2.0000      -0.434660       -11.8277
 221   2.0000      -0.432317       -11.7640
 222   2.0000      -0.431789       -11.7496
 223   2.0000      -0.426978       -11.6187
 224   2.0000      -0.425906       -11.5895
 225   2.0000      -0.425221       -11.5709
 226   2.0000      -0.424015       -11.5380
 227   2.0000      -0.415337       -11.3019
 228   2.0000      -0.411883       -11.2079
 229   2.0000      -0.406481       -11.0609
 230   2.0000      -0.401293       -10.9197
 231   2.0000      -0.394780       -10.7425
 232   2.0000      -0.387242       -10.5374
 233   2.0000      -0.385793       -10.4980
 234   2.0000      -0.382440       -10.4067
 235   2.0000      -0.378189       -10.2910
 236   2.0000      -0.367391        -9.9972
 237   2.0000      -0.367321        -9.9953
 238   2.0000      -0.366834        -9.9821
 239   2.0000      -0.365308        -9.9405
 240   2.0000      -0.353297        -9.6137
 241   2.0000      -0.348672        -9.4878
 242   2.0000      -0.344077        -9.3628
 243   2.0000      -0.340271        -9.2592
 244   2.0000      -0.338583        -9.2133
 245   2.0000      -0.336294        -9.1510
 246   2.0000      -0.321587        -8.7508
 247   2.0000      -0.315033        -8.5725
 248   2.0000      -0.310745        -8.4558
 249   2.0000      -0.307092        -8.3564
 250   2.0000      -0.302149        -8.2219
 251   2.0000      -0.272537        -7.4161
 252   2.0000      -0.238263        -6.4835
 253   0.0000      -0.118757        -3.2316
 254   0.0000      -0.093134        -2.5343
 255   0.0000      -0.075673        -2.0592
 256   0.0000      -0.065667        -1.7869
 257   0.0000      -0.058857        -1.6016

MULLIKEN ATOMIC CHARGES
-----------------------
   0 C :    0.161404
   1 O :   -0.168760
   2 C :   -0.019110
   3 C :    0.027346
   4 C :   -0.026184
   5 C :    0.048513
   6 C :   -0.004644
   7 C :   -0.012776
   8 Br:   -0.020143
   9 C :    0.322927
  10 C :   -0.352788
  11 C :   -0.191823
  12 N :    0.154025
  13 C :   -0.186217
  14 N :    0.145368
  15 C :   -0.094640
  16 C :   -0.050455
  17 C :   -0.057509
  18 S :    0.237249
  19 C :   -0.126122
  20 C :   -0.040068
  21 C :    0.125279
  22 C :    0.000854
  23 C :   -0.129600
  24 C :    0.210911
  25 O :   -0.199191
  26 O :   -0.294602
  27 C :    0.189959
  28 S :    0.158823
  29 C :    0.103712
  30 C :   -0.040015
  31 C :   -0.040949
  32 C :    0.129060
  33 C :   -0.016067
  34 C :   -0.060513
  35 N :    0.048463
  36 O :   -0.084637
  37 N :    0.002473
  38 C :    0.012889
  39 N :   -0.033485
  40 C :    0.131679
  41 C :   -0.149213
  42 C :    0.087723
  43 N :   -0.030503
  44 C :    0.130705
  45 C :   -0.154892
  46 C :    0.033172
  47 C :   -0.019325
  48 C :    0.017023
  49 C :   -0.123350
  50 C :    0.134868
  51 O :   -0.147333
  52 C :   -0.009647
  53 C :    0.012784
  54 C :    0.333571
  55 C :   -0.370283
  56 C :   -0.199254
  57 N :    0.152051
  58 C :   -0.126811
  59 N :    0.097122
  60 C :   -0.030070
  61 C :    0.048664
  62 C :   -0.004130
  63 C :   -0.013278
  64 Br:   -0.022099
  65 H :    0.007708
  66 H :    0.006379
  67 H :    0.004064
  68 H :   -0.006497
  69 H :    0.025537
  70 H :    0.042754
  71 H :    0.036000
  72 H :    0.034879
  73 H :   -0.009642
  74 H :   -0.010679
  75 H :    0.134313
  76 H :   -0.020972
  77 H :    0.125974
  78 H :   -0.021291
  79 H :    0.005956
  80 H :    0.003921
  81 H :    0.015840
  82 H :    0.010397
  83 H :    0.004223
  84 H :    0.003005
Sum of atomic charges:   -0.0000000

LOEWDIN ATOMIC CHARGES
----------------------
   0 C :    0.083558
   1 O :   -0.156603
   2 C :   -0.036356
   3 C :   -0.015624
   4 C :    0.008068
   5 C :   -0.014213
   6 C :   -0.098469
   7 C :   -0.000534
   8 Br:    0.115358
   9 C :    0.076907
  10 C :   -0.144238
  11 C :   -0.019584
  12 N :   -0.053159
  13 C :   -0.016662
  14 N :   -0.058813
  15 C :   -0.112703
  16 C :    0.052680
  17 C :   -0.188371
  18 S :    0.564739
  19 C :   -0.168509
  20 C :   -0.191403
  21 C :   -0.047847
  22 C :   -0.015067
  23 C :   -0.189377
  24 C :    0.063065
  25 O :   -0.175764
  26 O :   -0.084885
  27 C :    0.085318
  28 S :    0.448600
  29 C :   -0.056992
  30 C :    0.004342
  31 C :   -0.005525
  32 C :   -0.021809
  33 C :   -0.039885
  34 C :   -0.050921
  35 N :   -0.020562
  36 O :    0.082405
  37 N :   -0.036907
  38 C :    0.015192
  39 N :    0.075811
  40 C :   -0.012437
  41 C :   -0.059324
  42 C :   -0.005549
  43 N :    0.076866
  44 C :    0.008593
  45 C :   -0.080284
  46 C :    0.037731
  47 C :   -0.062829
  48 C :    0.073229
  49 C :   -0.119672
  50 C :    0.081219
  51 O :   -0.145251
  52 C :   -0.037102
  53 C :   -0.015047
  54 C :    0.080607
  55 C :   -0.157993
  56 C :   -0.021691
  57 N :   -0.056778
  58 C :    0.020350
  59 N :   -0.080972
  60 C :    0.005365
  61 C :   -0.015209
  62 C :   -0.098729
  63 C :   -0.001396
  64 Br:    0.113628
  65 H :    0.042962
  66 H :    0.040432
  67 H :    0.044416
  68 H :    0.048606
  69 H :    0.044999
  70 H :    0.029861
  71 H :    0.025128
  72 H :    0.024922
  73 H :    0.025864
  74 H :    0.038725
  75 H :    0.079396
  76 H :    0.030902
  77 H :    0.071963
  78 H :    0.029815
  79 H :    0.042567
  80 H :    0.026844
  81 H :    0.043950
  82 H :    0.042384
  83 H :    0.039722
  84 H :    0.043957

  Mayer bond orders larger than 0.100000
B(  0-C ,  1-O ) :   2.1362 B(  0-C ,  2-C ) :   0.9515 B(  0-C , 15-C ) :   0.9853
B(  2-C ,  3-C ) :   1.3336 B(  2-C ,  7-C ) :   1.3843 B(  3-C ,  4-C ) :   1.3720
B(  3-C ,  9-C ) :   0.9864 B(  4-C ,  5-C ) :   1.3782 B(  4-C , 65-H ) :   0.9830
B(  5-C ,  6-C ) :   1.3945 B(  5-C , 66-H ) :   0.9839 B(  6-C ,  7-C ) :   1.3301
B(  6-C ,  8-Br) :   0.9915 B(  7-C , 67-H ) :   1.0077 B(  9-C , 10-C ) :   1.6137
B(  9-C , 15-C ) :   1.0941 B( 10-C , 11-C ) :   1.1459 B( 10-C , 13-C ) :   1.1483
B( 11-C , 12-N ) :   2.9723 B( 13-C , 14-N ) :   2.9719 B( 15-C , 16-C ) :   1.4752
B( 16-C , 17-C ) :   1.3177 B( 16-C , 68-H ) :   0.9357 B( 17-C , 18-S ) :   1.0686
B( 17-C , 21-C ) :   1.2500 B( 18-S , 19-C ) :   1.1454 B( 19-C , 20-C ) :   1.3938
B( 19-C , 29-C ) :   1.1805 B( 20-C , 21-C ) :   1.3123 B( 20-C , 28-S ) :   1.0665
B( 21-C , 22-C ) :   1.1642 B( 22-C , 23-C ) :   1.5893 B( 22-C , 69-H ) :   0.9929
B( 23-C , 24-C ) :   0.9521 B( 23-C , 28-S ) :   1.0881 B( 24-C , 25-O ) :   2.1403
B( 24-C , 26-O ) :   1.2571 B( 26-O , 27-C ) :   0.9151 B( 27-C , 70-H ) :   0.9812
B( 27-C , 71-H ) :   0.9761 B( 27-C , 72-H ) :   0.9763 B( 29-C , 30-C ) :   1.4185
B( 29-C , 32-C ) :   0.1034 B( 29-C , 34-C ) :   1.1286 B( 30-C , 31-C ) :   1.2571
B( 30-C , 73-H ) :   0.9836 B( 31-C , 32-C ) :   1.4752 B( 31-C , 74-H ) :   0.9889
B( 32-C , 33-C ) :   1.1079 B( 32-C , 38-C ) :   1.0722 B( 33-C , 34-C ) :   1.1568
B( 33-C , 37-N ) :   1.5658 B( 34-C , 35-N ) :   1.5893 B( 35-N , 36-O ) :   1.0711
B( 35-N , 37-N ) :   0.1777 B( 36-O , 37-N ) :   1.0687 B( 38-C , 39-N ) :   1.2560
B( 38-C , 45-C ) :   1.3742 B( 39-N , 40-C ) :   1.1628 B( 39-N , 75-H ) :   0.8975
B( 40-C , 41-C ) :   1.2951 B( 40-C , 44-C ) :   1.2544 B( 41-C , 42-C ) :   1.2873
B( 41-C , 76-H ) :   1.0425 B( 42-C , 43-N ) :   1.1937 B( 42-C , 46-C ) :   1.2024
B( 43-N , 44-C ) :   1.2132 B( 43-N , 77-H ) :   0.8802 B( 44-C , 45-C ) :   1.2809
B( 45-C , 78-H ) :   1.0205 B( 46-C , 47-C ) :   1.5112 B( 46-C , 79-H ) :   0.9734
B( 47-C , 48-C ) :   1.2197 B( 47-C , 80-H ) :   0.9587 B( 48-C , 49-C ) :   1.5022
B( 48-C , 81-H ) :   0.9556 B( 49-C , 50-C ) :   0.9638 B( 49-C , 54-C ) :   1.0845
B( 50-C , 51-O ) :   2.2504 B( 50-C , 52-C ) :   0.9202 B( 52-C , 53-C ) :   1.3348
B( 52-C , 63-C ) :   1.3902 B( 53-C , 54-C ) :   0.9955 B( 53-C , 60-C ) :   1.3682
B( 54-C , 55-C ) :   1.5680 B( 55-C , 56-C ) :   1.1294 B( 55-C , 58-C ) :   1.1972
B( 56-C , 57-N ) :   2.9839 B( 58-C , 59-N ) :   2.8821 B( 59-N , 77-H ) :   0.1246
B( 60-C , 61-C ) :   1.3816 B( 60-C , 82-H ) :   0.9816 B( 61-C , 62-C ) :   1.3960
B( 61-C , 83-H ) :   0.9850 B( 62-C , 63-C ) :   1.3318 B( 62-C , 64-Br) :   0.9908
B( 63-C , 84-H ) :   1.0071

-----------------------------------------------------------------------------
         ABSORPTION SPECTRUM VIA TRANSITION ELECTRIC DIPOLE MOMENTS
-----------------------------------------------------------------------------
State   Energy  Wavelength   fosc         T2         TX        TY        TZ
        (cm-1)    (nm)                  (au**2)     (au)      (au)      (au)
-----------------------------------------------------------------------------
   0   12167.1    821.9   2.155050449  58.31039   3.16564  -6.72731   1.74140
   1   17885.4    559.1   0.013705922   0.25228   0.12182  -0.18475  -0.45090
   2   20048.1    498.8   0.094182372   1.54657  -1.01658   0.62837   0.34395
   3   21624.4    462.4   0.100642719   1.53219   1.00341  -0.23891  -0.68432
   4   23835.3    419.5   0.049281995   0.68068   0.40204   0.43769  -0.57225
   5   24481.9    408.5   0.233076299   3.13422   0.59677  -1.59016   0.49946
   6   24546.2    407.4   0.048823406   0.65482  -0.50312   0.63364   0.01387
   7   27053.7    369.6   0.145117437   1.76591  -0.98927  -0.10723   0.88076
   8   27160.4    368.2   0.127465289   1.54501  -0.82624  -0.00878   0.92859
   9   27515.7    363.4   0.038373485   0.45912   0.54283  -0.09801  -0.39351
  10   28215.3    354.4   0.221645962   2.58613  -0.89090  -0.60794   1.19283
  11   28724.3    348.1   0.106033087   1.21525   0.65231  -0.83244   0.31111
  12   29405.6    340.1   0.014103110   0.15789  -0.07778   0.35036  -0.17055
  13   29935.1    334.1   0.043994617   0.48383  -0.39169   0.56108  -0.12489
  14   30393.7    329.0   0.018963918   0.20541   0.11544   0.25234  -0.35834
  15   30533.8    327.5   0.091029708   0.98147   0.32196  -0.80389   0.48122
  16   31378.4    318.7   0.006384907   0.06699   0.09083   0.19667  -0.14162
  17   31502.3    317.4   0.053314491   0.55716   0.04858   0.55165  -0.50048
  18   31679.8    315.7   0.001233831   0.01282  -0.01791  -0.10714   0.03195
  19   32259.3    310.0   0.094771409   0.96716   0.49844  -0.82623   0.18989
  20   32612.7    306.6   0.334760503   3.37927  -1.55221   0.54927   0.81744
  21   33946.0    294.6   0.017704127   0.17170  -0.20025   0.35121  -0.09082
  22   34102.1    293.2   0.406074218   3.92013  -0.97973  -0.94609   1.43707
  23   34565.0    289.3   0.500092445   4.76309  -0.30575   1.74662  -1.27237
  24   34907.6    286.5   0.021717663   0.20482  -0.15263  -0.24414   0.34917
  25   35357.5    282.8   0.011262494   0.10486   0.28758  -0.07580  -0.12813
  26   35549.7    281.3   0.126811946   1.17436   0.46043   0.58119  -0.79030
  27   35920.5    278.4   0.200358291   1.83629  -0.32442  -0.98209   0.87552
  28   36296.4    275.5   0.108023420   0.97978  -0.66445  -0.22833   0.69724
  29   36721.6    272.3   0.006595827   0.05913  -0.16178   0.01523   0.18091
  30   37102.1    269.5   0.148224411   1.31521  -0.06153   0.91817  -0.68439
  31   37459.9    267.0   0.007790813   0.06847  -0.03402   0.23510  -0.10972
  32   37672.3    265.4   0.022656823   0.19799  -0.33960  -0.04058   0.28464
  33   37788.0    264.6   0.004304005   0.03750   0.02046  -0.14598   0.12557
  34   38150.4    262.1   0.027115761   0.23399  -0.17196  -0.25202   0.37538
  35   38307.9    261.0   0.041752746   0.35882   0.30281  -0.50113   0.12646
  36   38484.9    259.8   0.094597319   0.80921  -0.34161  -0.49608   0.66815
  37   38547.1    259.4   0.000896275   0.00765   0.07218  -0.03442  -0.03548
  38   39245.4    254.8   0.002375839   0.01993   0.04930  -0.12859   0.03104
  39   39600.7    252.5   0.032688672   0.27175  -0.33018   0.40217   0.03150
  40   40098.0    249.4   0.000642900   0.00528  -0.04892  -0.02260  -0.04873

FINAL SINGLE POINT ENERGY     -8595.893083172185

DIPOLE MOMENT
-------------
                                X             Y             Z
Electronic contribution:    -32.42910     -57.01952      63.13373
Nuclear contribution   :     32.37832      56.66516     -62.01368
                        -----------------------------------------
Total Dipole Moment    :     -0.05078      -0.35436       1.12005
                        -----------------------------------------
Magnitude (a.u.)       :      1.17587
Magnitude (Debye)      :      2.98882

Rotational constants in cm-1:     0.001719     0.000191     0.000172
Rotational constants in MHz :    51.546193     5.720602     5.156035

                             ****ORCA TERMINATED NORMALLY****
TOTAL RUN TIME: 0 days 0 hours 7 minutes 26 seconds 915 msec
