                         Program Version 4.2.0 -  RELEASE  -
|  1> # ORCA input file
|  2> # SCF done       -172.773269415792          0.000574129056
|  3> ! CAM-B3LYP def2-SVP def2/J RIJCOSX Grid4 TightSCF
|  4> %maxcore 5000
|  5> %tddft
|  6>     Mode sTDDFT
|  7>     Ethresh 5.0
|  8>     maxcore 5000
|  9> end
| 10>
| 11> %pal
| 12>   nprocs 6
| 13>   end
| 14> * xyz 0 1
| 15>    C       -1.15340        -1.09150         0.67500
| 16>    O       -0.93662        -2.23103         0.33130
| 17>    C       -0.19567         0.03538         0.61276
| 18>    C       -0.84226         1.23119         0.96966
| 19>    C       -0.12627         2.42109         0.96863
| 20>    C        1.21491         2.39485         0.61916
| 21>    C        1.83279         1.20031         0.27142
| 22>    C        1.13687        -0.00039         0.25669
| 23>   Br        3.67477         1.21294        -0.19439
| 24>    C       -2.23613         0.93834         1.29205
| 25>    C       -3.15996         1.85360         1.72028
| 26>    C       -2.89480         3.23042         1.88267
| 27>    N       -2.74373         4.35847         2.03204
| 28>    C       -4.49929         1.56847         2.06328
| 29>    N       -5.59860         1.42859         2.36364
| 30>    C       -2.43435        -0.49267         1.13127
| 31>    C       -3.60777        -1.16656         1.23932
| 32>    C       -3.78820        -2.59518         1.18557
| 33>    C       -2.92784        -3.48290         1.86374
| 34>    O       -2.05243        -2.88295         2.70205
| 35>    C       -0.86358        -3.51202         3.13621
| 36>    C       -3.11180        -4.87611         1.72963
| 37>    O       -2.25526        -5.66228         2.44261
| 38>    C       -2.10914        -7.03298         2.15697
| 39>    C       -4.16526        -5.34861         0.92818
| 40>    C       -5.04459        -4.44125         0.30896
| 41>    C       -4.87565        -3.09401         0.45603
| 42>    C       -4.46340        -6.70750         0.72984
| 43>    C       -4.88223        -7.81637         0.46932
| 44>    C       -5.25152        -9.13331         0.24135
| 45>    S       -4.14779       -10.44286         0.57898
| 46>    C       -5.34174       -11.60824         0.06596
| 47>    C       -6.50761       -10.99096        -0.33372
| 48>    C       -6.45536        -9.59995        -0.23958
| 49>    C       -5.06738       -12.96649         0.08557
| 50>    C       -4.80655       -14.15206         0.10250
| 51>    C       -4.55245       -15.52099         0.10821
| 52>    C       -3.31019       -16.03605         0.19026
| 53>    C       -3.00291       -17.44823         0.20290
| 54>    C       -1.73117       -17.87279        -0.21557
| 55>    O       -0.84299       -16.93342        -0.71376
| 56>    C       -1.13201       -16.53532        -2.04415
| 57>    C       -1.37444       -19.22589        -0.17101
| 58>    O       -0.15384       -19.72832        -0.45732
| 59>    C        0.98946       -18.90194        -0.56012
| 60>    C       -2.34201       -20.18438         0.23063
| 61>    C       -3.59537       -19.72985         0.66973
| 62>    C       -3.92334       -18.40223         0.65421
| 63>    C       -2.10273       -21.59249         0.27975
| 64>    C       -1.25358       -22.42985        -0.37666
| 65>    C       -1.07010       -23.79686         0.19022
| 66>    O       -1.72338       -24.31271         1.06664
| 67>    C        0.09773       -24.36291        -0.51919
| 68>    C        0.51892       -23.46133        -1.51277
| 69>    C       -0.38498       -22.31150        -1.52429
| 70>    C       -0.49089       -21.41320        -2.55346
| 71>    C        0.39489       -21.35004        -3.64839
| 72>    N        1.09876       -21.22098        -4.54633
| 73>    C       -1.52332       -20.46580        -2.67934
| 74>    N       -2.34306       -19.67916        -2.84696
| 75>    C        1.61972       -23.77264        -2.29751
| 76>    C        2.27423       -24.97630        -2.08317
| 77>    C        1.83265       -25.85733        -1.10478
| 78>    C        0.73712       -25.56602        -0.30308
| 79>   Br        2.75434       -27.50057        -0.85763
| 80>    H       -0.58582         3.36000         1.22968
| 81>    H        1.78565         3.31079         0.61565
| 82>    H        1.61044        -0.93049        -0.01720
| 83>    H       -4.52589        -0.59627         1.31377
| 84>    H       -0.26911        -2.71065         3.57697
| 85>    H       -0.31831        -3.94725         2.29769
| 86>    H       -1.06043        -4.27611         3.88982
| 87>    H       -1.20963        -7.33988         2.69141
| 88>    H       -1.97465        -7.21294         1.08796
| 89>    H       -2.95969        -7.61416         2.52135
| 90>    H       -5.85791        -4.83949        -0.27749
| 91>    H       -5.54607        -2.40008        -0.02706
| 92>    H       -7.36138       -11.54268        -0.68462
| 93>    H       -7.26507        -8.94400        -0.50523
| 94>    H       -5.41940       -16.16180         0.00769
| 95>    H       -2.46232       -15.36440         0.23285
| 96>    H       -2.09082       -16.01206        -2.10644
| 97>    H       -1.16178       -17.39928        -2.71608
| 98>    H       -0.32729       -15.86320        -2.33661
| 99>    H        1.83810       -19.58310        -0.48281
|100>    H        1.02890       -18.16861         0.24592
|101>    H        1.02928       -18.38610        -1.52180
|102>    H       -4.31751       -20.46071         1.00114
|103>    H       -4.88982       -18.08164         1.00951
|104>    H       -2.70291       -22.11167         1.02469
|105>    H        1.98046       -23.10144        -3.05975
|106>    H        3.13375       -25.23363        -2.68300
|107>    H        0.39131       -26.24688         0.45917
|108> *
|109>
|110>                          ****END OF INPUT****

CARTESIAN COORDINATES (ANGSTROEM)
---------------------------------
  C     -1.153400   -1.091500    0.675000
  O     -0.936620   -2.231030    0.331300
  C     -0.195670    0.035380    0.612760
  C     -0.842260    1.231190    0.969660
  C     -0.126270    2.421090    0.968630
  C      1.214910    2.394850    0.619160
  C      1.832790    1.200310    0.271420
  C      1.136870   -0.000390    0.256690
  Br     3.674770    1.212940   -0.194390
  C     -2.236130    0.938340    1.292050
  C     -3.159960    1.853600    1.720280
  C     -2.894800    3.230420    1.882670
  N     -2.743730    4.358470    2.032040
  C     -4.499290    1.568470    2.063280
  N     -5.598600    1.428590    2.363640
  C     -2.434350   -0.492670    1.131270
  C     -3.607770   -1.166560    1.239320
  C     -3.788200   -2.595180    1.185570
  C     -2.927840   -3.482900    1.863740
  O     -2.052430   -2.882950    2.702050
  C     -0.863580   -3.512020    3.136210
  C     -3.111800   -4.876110    1.729630
  O     -2.255260   -5.662280    2.442610
  C     -2.109140   -7.032980    2.156970
  C     -4.165260   -5.348610    0.928180
  C     -5.044590   -4.441250    0.308960
  C     -4.875650   -3.094010    0.456030
  C     -4.463400   -6.707500    0.729840
  C     -4.882230   -7.816370    0.469320
  C     -5.251520   -9.133310    0.241350
  S     -4.147790  -10.442860    0.578980
  C     -5.341740  -11.608240    0.065960
  C     -6.507610  -10.990960   -0.333720
  C     -6.455360   -9.599950   -0.239580
  C     -5.067380  -12.966490    0.085570
  C     -4.806550  -14.152060    0.102500
  C     -4.552450  -15.520990    0.108210
  C     -3.310190  -16.036050    0.190260
  C     -3.002910  -17.448230    0.202900
  C     -1.731170  -17.872790   -0.215570
  O     -0.842990  -16.933420   -0.713760
  C     -1.132010  -16.535320   -2.044150
  C     -1.374440  -19.225890   -0.171010
  O     -0.153840  -19.728320   -0.457320
  C      0.989460  -18.901940   -0.560120
  C     -2.342010  -20.184380    0.230630
  C     -3.595370  -19.729850    0.669730
  C     -3.923340  -18.402230    0.654210
  C     -2.102730  -21.592490    0.279750
  C     -1.253580  -22.429850   -0.376660
  C     -1.070100  -23.796860    0.190220
  O     -1.723380  -24.312710    1.066640
  C      0.097730  -24.362910   -0.519190
  C      0.518920  -23.461330   -1.512770
  C     -0.384980  -22.311500   -1.524290
  C     -0.490890  -21.413200   -2.553460
  C      0.394890  -21.350040   -3.648390
  N      1.098760  -21.220980   -4.546330
  C     -1.523320  -20.465800   -2.679340
  N     -2.343060  -19.679160   -2.846960
  C      1.619720  -23.772640   -2.297510
  C      2.274230  -24.976300   -2.083170
  C      1.832650  -25.857330   -1.104780
  C      0.737120  -25.566020   -0.303080
  Br     2.754340  -27.500570   -0.857630
  H     -0.585820    3.360000    1.229680
  H      1.785650    3.310790    0.615650
  H      1.610440   -0.930490   -0.017200
  H     -4.525890   -0.596270    1.313770
  H     -0.269110   -2.710650    3.576970
  H     -0.318310   -3.947250    2.297690
  H     -1.060430   -4.276110    3.889820
  H     -1.209630   -7.339880    2.691410
  H     -1.974650   -7.212940    1.087960
  H     -2.959690   -7.614160    2.521350
  H     -5.857910   -4.839490   -0.277490
  H     -5.546070   -2.400080   -0.027060
  H     -7.361380  -11.542680   -0.684620
  H     -7.265070   -8.944000   -0.505230
  H     -5.419400  -16.161800    0.007690
  H     -2.462320  -15.364400    0.232850
  H     -2.090820  -16.012060   -2.106440
  H     -1.161780  -17.399280   -2.716080
  H     -0.327290  -15.863200   -2.336610
  H      1.838100  -19.583100   -0.482810
  H      1.028900  -18.168610    0.245920
  H      1.029280  -18.386100   -1.521800
  H     -4.317510  -20.460710    1.001140
  H     -4.889820  -18.081640    1.009510
  H     -2.702910  -22.111670    1.024690
  H      1.980460  -23.101440   -3.059750
  H      3.133750  -25.233630   -2.683000
  H      0.391310  -26.246880    0.459170

 Total Charge           Charge          ....    0
 Multiplicity           Mult            ....    1
 Number of Electrons    NEL             ....  502
 Basis Dimension        Dim             .... 1090

ORBITAL ENERGIES
----------------

  NO   OCC          E(Eh)            E(eV)
   0   2.0000    -482.874158    -13139.6738
   1   2.0000    -482.871853    -13139.6111
   2   2.0000     -88.969000     -2420.9696
   3   2.0000     -62.551864     -1702.1228
   4   2.0000     -62.549554     -1702.0599
   5   2.0000     -56.385705     -1534.3330
   6   2.0000     -56.383392     -1534.2701
   7   2.0000     -56.383183     -1534.2644
   8   2.0000     -56.383164     -1534.2639
   9   2.0000     -56.380866     -1534.2014
  10   2.0000     -56.380863     -1534.2013
  11   2.0000     -19.267116      -524.2849
  12   2.0000     -19.254764      -523.9488
  13   2.0000     -19.246839      -523.7331
  14   2.0000     -19.243214      -523.6345
  15   2.0000     -19.220382      -523.0132
  16   2.0000     -19.218892      -522.9726
  17   2.0000     -14.418736      -392.3538
  18   2.0000     -14.418197      -392.3391
  19   2.0000     -14.417884      -392.3306
  20   2.0000     -14.416909      -392.3040
  21   2.0000     -10.370492      -282.1954
  22   2.0000     -10.367960      -282.1265
  23   2.0000     -10.357123      -281.8317
  24   2.0000     -10.349624      -281.6276
  25   2.0000     -10.348087      -281.5858
  26   2.0000     -10.346940      -281.5546
  27   2.0000     -10.345697      -281.5207
  28   2.0000     -10.344174      -281.4793
  29   2.0000     -10.343484      -281.4605
  30   2.0000     -10.343240      -281.4539
  31   2.0000     -10.339151      -281.3426
  32   2.0000     -10.337861      -281.3075
  33   2.0000     -10.328269      -281.0465
  34   2.0000     -10.325556      -280.9727
  35   2.0000     -10.324058      -280.9319
  36   2.0000     -10.323444      -280.9152
  37   2.0000     -10.321455      -280.8611
  38   2.0000     -10.320350      -280.8310
  39   2.0000     -10.320143      -280.8254
  40   2.0000     -10.319601      -280.8106
  41   2.0000     -10.317158      -280.7441
  42   2.0000     -10.316746      -280.7329
  43   2.0000     -10.314271      -280.6656
  44   2.0000     -10.312710      -280.6231
  45   2.0000     -10.311893      -280.6009
  46   2.0000     -10.310398      -280.5602
  47   2.0000     -10.308790      -280.5164
  48   2.0000     -10.306017      -280.4410
  49   2.0000     -10.305371      -280.4234
  50   2.0000     -10.304497      -280.3996
  51   2.0000     -10.304163      -280.3905
  52   2.0000     -10.304040      -280.3872
  53   2.0000     -10.302248      -280.3384
  54   2.0000     -10.301460      -280.3170
  55   2.0000     -10.300303      -280.2855
  56   2.0000     -10.298487      -280.2361
  57   2.0000     -10.297872      -280.2193
  58   2.0000     -10.297446      -280.2077
  59   2.0000     -10.295470      -280.1540
  60   2.0000     -10.295280      -280.1488
  61   2.0000     -10.291835      -280.0551
  62   2.0000     -10.289718      -279.9975
  63   2.0000     -10.287439      -279.9355
  64   2.0000     -10.287410      -279.9347
  65   2.0000     -10.287003      -279.9236
  66   2.0000     -10.286525      -279.9106
  67   2.0000     -10.284222      -279.8479
  68   2.0000     -10.283366      -279.8246
  69   2.0000     -10.281809      -279.7822
  70   2.0000     -10.281157      -279.7645
  71   2.0000     -10.279881      -279.7298
  72   2.0000     -10.279592      -279.7219
  73   2.0000      -8.781136      -238.9469
  74   2.0000      -8.778826      -238.8840
  75   2.0000      -8.064549      -219.4475
  76   2.0000      -6.616990      -180.0574
  77   2.0000      -6.614677      -179.9945
  78   2.0000      -6.603242      -179.6834
  79   2.0000      -6.602801      -179.6714
  80   2.0000      -6.600928      -179.6204
  81   2.0000      -6.600507      -179.6089
  82   2.0000      -6.033903      -164.1908
  83   2.0000      -6.029732      -164.0774
  84   2.0000      -6.026494      -163.9892
  85   2.0000      -2.732900       -74.3660
  86   2.0000      -2.730579       -74.3028
  87   2.0000      -2.729145       -74.2638
  88   2.0000      -2.728864       -74.2562
  89   2.0000      -2.726815       -74.2004
  90   2.0000      -2.726574       -74.1938
  91   2.0000      -2.717911       -73.9581
  92   2.0000      -2.717907       -73.9580
  93   2.0000      -2.715610       -73.8955
  94   2.0000      -2.715596       -73.8951
  95   2.0000      -1.174188       -31.9513
  96   2.0000      -1.166554       -31.7435
  97   2.0000      -1.144812       -31.1519
  98   2.0000      -1.140912       -31.0458
  99   2.0000      -1.133914       -30.8554
 100   2.0000      -1.132730       -30.8231
 101   2.0000      -1.021316       -27.7914
 102   2.0000      -1.020782       -27.7769
 103   2.0000      -1.003172       -27.2977
 104   2.0000      -1.002537       -27.2804
 105   2.0000      -0.997582       -27.1456
 106   2.0000      -0.995684       -27.0939
 107   2.0000      -0.994801       -27.0699
 108   2.0000      -0.970627       -26.4121
 109   2.0000      -0.970358       -26.4048
 110   2.0000      -0.962399       -26.1882
 111   2.0000      -0.961724       -26.1699
 112   2.0000      -0.923262       -25.1232
 113   2.0000      -0.915075       -24.9005
 114   2.0000      -0.911027       -24.7903
 115   2.0000      -0.910382       -24.7727
 116   2.0000      -0.900405       -24.5013
 117   2.0000      -0.893125       -24.3032
 118   2.0000      -0.886025       -24.1100
 119   2.0000      -0.878059       -23.8932
 120   2.0000      -0.865908       -23.5626
 121   2.0000      -0.859922       -23.3997
 122   2.0000      -0.859012       -23.3749
 123   2.0000      -0.857412       -23.3314
 124   2.0000      -0.850135       -23.1333
 125   2.0000      -0.841961       -22.9109
 126   2.0000      -0.838545       -22.8180
 127   2.0000      -0.827504       -22.5175
 128   2.0000      -0.814294       -22.1581
 129   2.0000      -0.802370       -21.8336
 130   2.0000      -0.795749       -21.6534
 131   2.0000      -0.783048       -21.3078
 132   2.0000      -0.772306       -21.0155
 133   2.0000      -0.769813       -20.9477
 134   2.0000      -0.768372       -20.9085
 135   2.0000      -0.766755       -20.8645
 136   2.0000      -0.763913       -20.7871
 137   2.0000      -0.741035       -20.1646
 138   2.0000      -0.726788       -19.7769
 139   2.0000      -0.706298       -19.2193
 140   2.0000      -0.701698       -19.0942
 141   2.0000      -0.698654       -19.0113
 142   2.0000      -0.694014       -18.8851
 143   2.0000      -0.692180       -18.8352
 144   2.0000      -0.688588       -18.7374
 145   2.0000      -0.682564       -18.5735
 146   2.0000      -0.680452       -18.5161
 147   2.0000      -0.672495       -18.2995
 148   2.0000      -0.669163       -18.2088
 149   2.0000      -0.661268       -17.9940
 150   2.0000      -0.638292       -17.3688
 151   2.0000      -0.636109       -17.3094
 152   2.0000      -0.625407       -17.0182
 153   2.0000      -0.622474       -16.9384
 154   2.0000      -0.619046       -16.8451
 155   2.0000      -0.616792       -16.7838
 156   2.0000      -0.614235       -16.7142
 157   2.0000      -0.608777       -16.5657
 158   2.0000      -0.603992       -16.4355
 159   2.0000      -0.601940       -16.3796
 160   2.0000      -0.598642       -16.2899
 161   2.0000      -0.583634       -15.8815
 162   2.0000      -0.581007       -15.8100
 163   2.0000      -0.577361       -15.7108
 164   2.0000      -0.574846       -15.6424
 165   2.0000      -0.571635       -15.5550
 166   2.0000      -0.567216       -15.4347
 167   2.0000      -0.564817       -15.3695
 168   2.0000      -0.559539       -15.2258
 169   2.0000      -0.553100       -15.0506
 170   2.0000      -0.548880       -14.9358
 171   2.0000      -0.547496       -14.8981
 172   2.0000      -0.545593       -14.8463
 173   2.0000      -0.544089       -14.8054
 174   2.0000      -0.542796       -14.7702
 175   2.0000      -0.541160       -14.7257
 176   2.0000      -0.539334       -14.6760
 177   2.0000      -0.538539       -14.6544
 178   2.0000      -0.532358       -14.4862
 179   2.0000      -0.528852       -14.3908
 180   2.0000      -0.527943       -14.3661
 181   2.0000      -0.525792       -14.3075
 182   2.0000      -0.521218       -14.1831
 183   2.0000      -0.518727       -14.1153
 184   2.0000      -0.518317       -14.1041
 185   2.0000      -0.512618       -13.9491
 186   2.0000      -0.509536       -13.8652
 187   2.0000      -0.506338       -13.7782
 188   2.0000      -0.501216       -13.6388
 189   2.0000      -0.497770       -13.5450
 190   2.0000      -0.497106       -13.5269
 191   2.0000      -0.496353       -13.5065
 192   2.0000      -0.494344       -13.4518
 193   2.0000      -0.490356       -13.3433
 194   2.0000      -0.485833       -13.2202
 195   2.0000      -0.480352       -13.0710
 196   2.0000      -0.476938       -12.9781
 197   2.0000      -0.475450       -12.9376
 198   2.0000      -0.471737       -12.8366
 199   2.0000      -0.469648       -12.7798
 200   2.0000      -0.467731       -12.7276
 201   2.0000      -0.466811       -12.7026
 202   2.0000      -0.463492       -12.6123
 203   2.0000      -0.463251       -12.6057
 204   2.0000      -0.458435       -12.4746
 205   2.0000      -0.454732       -12.3739
 206   2.0000      -0.452949       -12.3254
 207   2.0000      -0.451224       -12.2784
 208   2.0000      -0.449951       -12.2438
 209   2.0000      -0.445816       -12.1313
 210   2.0000      -0.445031       -12.1099
 211   2.0000      -0.444383       -12.0923
 212   2.0000      -0.437719       -11.9109
 213   2.0000      -0.435089       -11.8394
 214   2.0000      -0.434968       -11.8361
 215   2.0000      -0.432016       -11.7558
 216   2.0000      -0.429925       -11.6988
 217   2.0000      -0.428856       -11.6698
 218   2.0000      -0.427237       -11.6257
 219   2.0000      -0.425736       -11.5849
 220   2.0000      -0.423581       -11.5262
 221   2.0000      -0.421364       -11.4659
 222   2.0000      -0.420943       -11.4544
 223   2.0000      -0.415256       -11.2997
 224   2.0000      -0.412742       -11.2313
 225   2.0000      -0.410149       -11.1607
 226   2.0000      -0.407645       -11.0926
 227   2.0000      -0.398416       -10.8414
 228   2.0000      -0.390890       -10.6367
 229   2.0000      -0.389439       -10.5972
 230   2.0000      -0.382466       -10.4074
 231   2.0000      -0.369153       -10.0452
 232   2.0000      -0.368782       -10.0351
 233   2.0000      -0.366762        -9.9801
 234   2.0000      -0.361254        -9.8302
 235   2.0000      -0.355784        -9.6814
 236   2.0000      -0.352392        -9.5891
 237   2.0000      -0.351107        -9.5541
 238   2.0000      -0.349752        -9.5172
 239   2.0000      -0.345681        -9.4065
 240   2.0000      -0.340969        -9.2782
 241   2.0000      -0.340606        -9.2684
 242   2.0000      -0.335476        -9.1288
 243   2.0000      -0.333257        -9.0684
 244   2.0000      -0.316994        -8.6258
 245   2.0000      -0.311326        -8.4716
 246   2.0000      -0.305536        -8.3141
 247   2.0000      -0.296609        -8.0711
 248   2.0000      -0.284980        -7.7547
 249   2.0000      -0.279866        -7.6156
 250   2.0000      -0.252301        -6.8655
 251   0.0000      -0.090025        -2.4497
 252   0.0000      -0.085460        -2.3255
 253   0.0000      -0.066770        -1.8169
 254   0.0000      -0.062819        -1.7094
 255   0.0000      -0.044710        -1.2166

MULLIKEN ATOMIC CHARGES
-----------------------
   0 C :    0.144024
   1 O :   -0.142163
   2 C :   -0.026113
   3 C :    0.036469
   4 C :   -0.025409
   5 C :    0.049230
   6 C :   -0.003488
   7 C :   -0.013197
   8 Br:   -0.020086
   9 C :    0.300058
  10 C :   -0.345889
  11 C :   -0.186646
  12 N :    0.152321
  13 C :   -0.188056
  14 N :    0.158040
  15 C :   -0.047222
  16 C :   -0.028075
  17 C :    0.027731
  18 C :    0.171514
  19 O :   -0.319539
  20 C :    0.204734
  21 C :    0.159654
  22 O :   -0.330611
  23 C :    0.192703
  24 C :   -0.035702
  25 C :    0.001429
  26 C :   -0.011906
  27 C :   -0.111293
  28 C :    0.056319
  29 C :   -0.152994
  30 S :    0.176429
  31 C :   -0.138486
  32 C :    0.050822
  33 C :    0.050846
  34 C :    0.067830
  35 C :   -0.036490
  36 C :   -0.066658
  37 C :   -0.021550
  38 C :    0.065154
  39 C :    0.071893
  40 O :   -0.363337
  41 C :    0.189405
  42 C :    0.153546
  43 O :   -0.311145
  44 C :    0.200594
  45 C :    0.047603
  46 C :    0.004884
  47 C :   -0.029303
  48 C :    0.001249
  49 C :   -0.105791
  50 C :    0.130809
  51 O :   -0.140242
  52 C :   -0.004853
  53 C :    0.022426
  54 C :    0.318510
  55 C :   -0.345591
  56 C :   -0.196798
  57 N :    0.155375
  58 C :   -0.171247
  59 N :    0.151781
  60 C :   -0.034149
  61 C :    0.049686
  62 C :   -0.006461
  63 C :   -0.012822
  64 Br:   -0.022519
  65 H :    0.008240
  66 H :    0.006033
  67 H :   -0.001157
  68 H :    0.034340
  69 H :    0.020653
  70 H :    0.024559
  71 H :    0.032940
  72 H :    0.028748
  73 H :    0.035555
  74 H :    0.039538
  75 H :   -0.017705
  76 H :   -0.014642
  77 H :   -0.004965
  78 H :   -0.005577
  79 H :    0.033722
  80 H :    0.023284
  81 H :    0.030509
  82 H :    0.029205
  83 H :    0.031500
  84 H :    0.030949
  85 H :    0.040704
  86 H :    0.025564
  87 H :   -0.015568
  88 H :   -0.023382
  89 H :    0.025089
  90 H :    0.006797
  91 H :    0.004630
  92 H :    0.003200
Sum of atomic charges:   -0.0000000

LOEWDIN ATOMIC CHARGES
----------------------
   0 C :    0.087582
   1 O :   -0.130259
   2 C :   -0.036975
   3 C :   -0.016053
   4 C :    0.008735
   5 C :   -0.013282
   6 C :   -0.097790
   7 C :   -0.002022
   8 Br:    0.114894
   9 C :    0.075619
  10 C :   -0.134046
  11 C :   -0.017980
  12 N :   -0.050342
  13 C :   -0.021525
  14 N :   -0.046021
  15 C :   -0.086282
  16 C :    0.094212
  17 C :   -0.054666
  18 C :    0.070710
  19 O :   -0.090906
  20 C :    0.076401
  21 C :    0.040838
  22 O :   -0.097976
  23 C :    0.080381
  24 C :   -0.060305
  25 C :   -0.012763
  26 C :   -0.009593
  27 C :   -0.019531
  28 C :   -0.058743
  29 C :   -0.184073
  30 S :    0.454381
  31 C :   -0.183285
  32 C :   -0.033249
  33 C :   -0.036183
  34 C :   -0.056072
  35 C :   -0.023263
  36 C :   -0.031840
  37 C :    0.005894
  38 C :   -0.017612
  39 C :    0.017755
  40 O :   -0.135852
  41 C :    0.077583
  42 C :    0.064267
  43 O :   -0.072448
  44 C :    0.083179
  45 C :   -0.060970
  46 C :    0.008060
  47 C :   -0.027240
  48 C :    0.078845
  49 C :   -0.093545
  50 C :    0.086544
  51 O :   -0.136444
  52 C :   -0.041453
  53 C :   -0.011242
  54 C :    0.070383
  55 C :   -0.134215
  56 C :   -0.020937
  57 N :   -0.055500
  58 C :   -0.009995
  59 N :   -0.055200
  60 C :    0.001707
  61 C :   -0.012646
  62 C :   -0.101112
  63 C :    0.001119
  64 Br:    0.112765
  65 H :    0.042958
  66 H :    0.040524
  67 H :    0.042508
  68 H :    0.046955
  69 H :    0.019444
  70 H :    0.016722
  71 H :    0.015564
  72 H :    0.026000
  73 H :    0.021177
  74 H :    0.020453
  75 H :    0.036197
  76 H :    0.034266
  77 H :    0.037214
  78 H :    0.036777
  79 H :    0.044250
  80 H :    0.038190
  81 H :    0.016634
  82 H :    0.015659
  83 H :    0.023591
  84 H :    0.023837
  85 H :    0.023967
  86 H :    0.019137
  87 H :    0.034763
  88 H :    0.029930
  89 H :    0.047394
  90 H :    0.041543
  91 H :    0.039766
  92 H :    0.044163

  Mayer bond orders larger than 0.100000
B(  0-C ,  1-O ) :   2.2187 B(  0-C ,  2-C ) :   0.9404 B(  0-C , 15-C ) :   0.9367
B(  2-C ,  3-C ) :   1.3318 B(  2-C ,  7-C ) :   1.3775 B(  3-C ,  4-C ) :   1.3577
B(  3-C ,  9-C ) :   0.9957 B(  4-C ,  5-C ) :   1.3871 B(  4-C , 65-H ) :   0.9835
B(  5-C ,  6-C ) :   1.3855 B(  5-C , 66-H ) :   0.9851 B(  6-C ,  7-C ) :   1.3390
B(  6-C ,  8-Br) :   0.9924 B(  7-C , 67-H ) :   1.0074 B(  9-C , 10-C ) :   1.6486
B(  9-C , 15-C ) :   1.0657 B( 10-C , 11-C ) :   1.1393 B( 10-C , 13-C ) :   1.1393
B( 11-C , 12-N ) :   2.9751 B( 13-C , 14-N ) :   2.9753 B( 15-C , 16-C ) :   1.6721
B( 16-C , 17-C ) :   1.0643 B( 16-C , 68-H ) :   0.9390 B( 17-C , 18-C ) :   1.3826
B( 17-C , 26-C ) :   1.2854 B( 18-C , 19-O ) :   1.2020 B( 18-C , 21-C ) :   1.2782
B( 19-O , 20-C ) :   0.9176 B( 20-C , 69-H ) :   0.9768 B( 20-C , 70-H ) :   0.9736
B( 20-C , 71-H ) :   0.9747 B( 21-C , 22-O ) :   1.1755 B( 21-C , 24-C ) :   1.3004
B( 22-O , 23-C ) :   0.9373 B( 23-C , 72-H ) :   0.9723 B( 23-C , 73-H ) :   0.9681
B( 23-C , 74-H ) :   0.9706 B( 24-C , 25-C ) :   1.3092 B( 24-C , 27-C ) :   0.9296
B( 25-C , 26-C ) :   1.3930 B( 25-C , 75-H ) :   1.0064 B( 26-C , 76-H ) :   1.0044
B( 27-C , 28-C ) :   2.3692 B( 28-C , 29-C ) :   0.9714 B( 29-C , 30-S ) :   1.1082
B( 29-C , 31-C ) :   0.1084 B( 29-C , 33-C ) :   1.4989 B( 30-S , 31-C ) :   1.1018
B( 31-C , 32-C ) :   1.5076 B( 31-C , 34-C ) :   0.9652 B( 32-C , 33-C ) :   1.2646
B( 32-C , 77-H ) :   0.9998 B( 33-C , 78-H ) :   1.0010 B( 34-C , 35-C ) :   2.2973
B( 35-C , 36-C ) :   1.0074 B( 36-C , 37-C ) :   1.7173 B( 36-C , 79-H ) :   0.9520
B( 37-C , 38-C ) :   1.0628 B( 37-C , 80-H ) :   0.9782 B( 38-C , 39-C ) :   1.3509
B( 38-C , 47-C ) :   1.2997 B( 39-C , 40-O ) :   1.1233 B( 39-C , 42-C ) :   1.3000
B( 40-O , 41-C ) :   0.9252 B( 41-C , 81-H ) :   0.9666 B( 41-C , 82-H ) :   0.9586
B( 41-C , 83-H ) :   0.9789 B( 42-C , 43-O ) :   1.2050 B( 42-C , 45-C ) :   1.2935
B( 43-O , 44-C ) :   0.9151 B( 44-C , 84-H ) :   0.9761 B( 44-C , 85-H ) :   0.9746
B( 44-C , 86-H ) :   0.9758 B( 45-C , 46-C ) :   1.2950 B( 45-C , 48-C ) :   1.1031
B( 46-C , 47-C ) :   1.4009 B( 46-C , 87-H ) :   1.0006 B( 47-C , 88-H ) :   0.9941
B( 48-C , 49-C ) :   1.6540 B( 48-C , 89-H ) :   0.9314 B( 49-C , 50-C ) :   0.9450
B( 49-C , 54-C ) :   1.0403 B( 50-C , 51-O ) :   2.2531 B( 50-C , 52-C ) :   0.9229
B( 52-C , 53-C ) :   1.3314 B( 52-C , 63-C ) :   1.3804 B( 53-C , 54-C ) :   1.0071
B( 53-C , 60-C ) :   1.3654 B( 54-C , 55-C ) :   1.6389 B( 55-C , 56-C ) :   1.1368
B( 55-C , 58-C ) :   1.1852 B( 56-C , 57-N ) :   2.9856 B( 58-C , 59-N ) :   2.9244
B( 60-C , 61-C ) :   1.3794 B( 60-C , 90-H ) :   0.9861 B( 61-C , 62-C ) :   1.3915
B( 61-C , 91-H ) :   0.9859 B( 62-C , 63-C ) :   1.3398 B( 62-C , 64-Br) :   0.9906
B( 63-C , 92-H ) :   1.0079

-----------------------------------------------------------------------------
         ABSORPTION SPECTRUM VIA TRANSITION ELECTRIC DIPOLE MOMENTS
-----------------------------------------------------------------------------
State   Energy  Wavelength   fosc         T2         TX        TY        TZ
        (cm-1)    (nm)                  (au**2)     (au)      (au)      (au)
-----------------------------------------------------------------------------
   0   21213.2    471.4   1.876644805  29.12400   0.11953  -5.37204  -0.50094
   1   22518.2    444.1   0.366073589   5.35192  -0.94261   1.90027   0.92324
   2   23614.1    423.5   0.151416632   2.11095  -1.44773  -0.03126   0.11854
   3   25979.0    384.9   0.017237217   0.21843  -0.12856  -0.37589   0.24620
   4   26234.2    381.2   0.034362473   0.43121  -0.59205  -0.26271   0.10801
   5   27930.4    358.0   0.480379027   5.66217   0.13454  -2.34954   0.35175
   6   28850.4    346.6   0.064917792   0.74078   0.57018  -0.58175   0.27792
   7   29829.3    335.2   0.011295258   0.12466   0.24426  -0.11367  -0.22821
   8   30138.7    331.8   0.061656954   0.67349  -0.40988  -0.19730   0.68306
   9   30779.9    324.9   0.103307074   1.10494  -0.37494   0.93617   0.29654
  10   31267.7    319.8   0.040848091   0.43008   0.55071  -0.16121  -0.31751
  11   31611.6    316.3   0.366108709   3.81276   1.36730  -1.30176  -0.49868
  12   32039.3    312.1   0.215134982   2.21057  -1.22197  -0.83185  -0.15929
  13   32557.3    307.2   0.033180412   0.33551  -0.31088   0.44221  -0.20813
  14   32747.0    305.4   0.026155317   0.26294  -0.26783   0.03467  -0.43590
  15   32775.7    305.1   0.236335851   2.37385   1.05487  -1.04785   0.40389
  16   33537.3    298.2   0.010022657   0.09839   0.19500   0.21514  -0.11864
  17   33982.7    294.3   0.022754870   0.22044  -0.28315   0.32469  -0.18666
  18   34839.6    287.0   0.471890146   4.45906  -1.29674   1.64192  -0.28570
  19   35581.8    281.0   0.406657416   3.76250  -1.50663  -0.47214   1.12679
  20   36110.7    276.9   0.375156812   3.42021   0.74937  -1.60234   0.53958
  21   36529.5    273.8   0.086421974   0.77885  -0.44710   0.48513   0.58618
  22   36999.1    270.3   0.020361874   0.18118   0.33721  -0.17599   0.19103
  23   37200.4    268.8   0.023275945   0.20599  -0.05364   0.35446   0.27833
  24   37493.5    266.7   0.059119400   0.51910  -0.55694   0.45695  -0.01030
  25   37938.8    263.6   0.085215669   0.73945  -0.71025  -0.48475   0.00495
  26   38536.7    259.5   0.019525324   0.16680   0.13557   0.27083  -0.27400
  27   38908.0    257.0   0.000791178   0.00669  -0.00525  -0.03529  -0.07363
  28   39418.4    253.7   0.036588879   0.30558  -0.27500   0.47368   0.07471
  29   39613.7    252.4   0.053697365   0.44626  -0.62373   0.21135   0.11200
  30   40308.5    248.1   0.017346628   0.14168  -0.20823   0.13973  -0.28070

FINAL SINGLE POINT ENERGY     -8211.112369436407

DIPOLE MOMENT
-------------
                                X             Y             Z
Electronic contribution:     97.70765     -26.46651     -15.41882
Nuclear contribution   :    -96.42166      24.92096      15.59130
                        -----------------------------------------
Total Dipole Moment    :      1.28599      -1.54555       0.17248
                        -----------------------------------------
Magnitude (a.u.)       :      2.01798
Magnitude (Debye)      :      5.12930

Rotational constants in cm-1:     0.001888     0.000153     0.000144
Rotational constants in MHz :    56.614830     4.577646     4.312324

                             ****ORCA TERMINATED NORMALLY****
TOTAL RUN TIME: 0 days 0 hours 8 minutes 16 seconds 620 msec
