                         Program Version 4.2.0 -  RELEASE  -
|  1> # ORCA input file
|  2> # SCF done       -160.671270491729          0.000286484354
|  3> ! CAM-B3LYP def2-SVP def2/J RIJCOSX Grid4 TightSCF
|  4> %maxcore 5000
|  5> %tddft
|  6>     Mode sTDDFT
|  7>     Ethresh 5.0
|  8>     maxcore 5000
|  9> end
| 10>
| 11> %pal
| 12>   nprocs 6
| 13>   end
| 14> * xyz 0 1
| 15>    C        1.11637        -0.72577         1.61570
| 16>    C        0.93450         0.34836         0.81251
| 17>    C        0.52558         0.25744        -0.53277
| 18>    C        0.36223        -1.06534        -1.15379
| 19>    C        0.48768        -2.24650        -0.50595
| 20>    S        0.88273        -2.37600         1.15611
| 21>    C        0.05890        -0.81208        -2.52006
| 22>    C        0.03148         0.56138        -2.74222
| 23>    C       -0.26842         0.87758        -4.08481
| 24>    C       -0.45317        -0.24347        -4.83135
| 25>    S       -0.27700        -1.71774        -3.94308
| 26>    C        0.29994         1.24852        -1.49946
| 27>    C        0.30114         2.66324        -1.40839
| 28>    C        0.22570         3.41513        -0.28046
| 29>    C        0.24864         4.83937        -0.22950
| 30>    C        0.39407         5.71615        -1.29716
| 31>    C        0.41405         7.10362        -1.15366
| 32>    C        0.29351         7.76523         0.06311
| 33>    C        0.14291         6.91201         1.19390
| 34>    C        0.12471         5.47686         1.03841
| 35>    N       -0.01346         4.94979         2.23646
| 36>    O       -0.08041         5.96828         3.08928
| 37>    N        0.01135         7.15601         2.48402
| 38>    C        0.32539         9.20030         0.18014
| 39>    C        0.17215         9.85515         1.39446
| 40>    C        0.21000        11.24355         1.53524
| 41>    C        0.40938        12.11604         0.47787
| 42>    C        0.56742        11.49699        -0.79169
| 43>    C        0.52283        10.05884        -0.94171
| 44>    N        0.69680         9.80641        -2.22422
| 45>    O        0.83849        10.98297        -2.83117
| 46>    N        0.76408        12.01062        -1.98892
| 47>    C        0.46207        13.53514         0.63381
| 48>    C        0.69245        14.48404        -0.33812
| 49>    C        0.68895        15.78502         0.16608
| 50>   Cl        0.95240        17.15874        -0.82009
| 51>    C        0.45073        15.87217         1.53383
| 52>    S        0.22964        14.27459         2.18929
| 53>    C        0.39040        17.03141         2.34153
| 54>    C        0.11229        17.11746         3.70592
| 55>   Cl       -0.26090        15.75841         4.67871
| 56>    C        0.16704        18.40594         4.22263
| 57>    C        0.48137        19.36028         3.27071
| 58>    S        0.68562        18.61676         1.70647
| 59>    C        0.57347        20.76234         3.38390
| 60>    C        0.70720        21.53578         4.50017
| 61>    C        0.33052        22.97255         4.42644
| 62>    O        0.11683        23.61985         3.42901
| 63>    C        0.22219        23.41331         5.83611
| 64>    C        0.62843        22.36883         6.68667
| 65>    C        1.07530        21.24297         5.86713
| 66>    C        1.91338        20.24523         6.29344
| 67>    C        2.55513        19.34168         5.42229
| 68>    N        3.13132        18.61512         4.74617
| 69>    C        2.30149        20.06618         7.63675
| 70>    N        2.62852        19.86597         8.71857
| 71>    C        0.57923        22.54190         8.06159
| 72>    C        0.13344        23.75482         8.56488
| 73>    C       -0.24845        24.77858         7.70761
| 74>    C       -0.21301        24.62641         6.32762
| 75>   Br       -0.84032        26.42632         8.44419
| 76>    H        1.43216        -0.62652         2.64040
| 77>    H        1.14150         1.32035         1.23337
| 78>    H        0.34207        -3.19305        -1.00201
| 79>    H       -0.34540         1.87203        -4.48569
| 80>    H       -0.68889        -0.30498        -5.87587
| 81>    H        0.32740         3.16920        -2.36520
| 82>    H        0.10478         2.94255         0.68201
| 83>    H        0.50012         5.31825        -2.29428
| 84>    H        0.53254         7.70400        -2.04191
| 85>    H        0.01899         9.25630         2.27801
| 86>    H        0.08136        11.66030         2.52383
| 87>    H        0.85819        14.23593        -1.36982
| 88>    H       -0.06409        18.63024         5.24782
| 89>    H        0.44787        21.31908         2.46003
| 90>    H        0.86679        21.75643         8.74153
| 91>    H        0.08306        23.90676         9.63211
| 92>    H       -0.51128        25.41891         5.65901
| 93> *
| 94>
| 95>                          ****END OF INPUT****

CARTESIAN COORDINATES (ANGSTROEM)
---------------------------------
  C      1.116370   -0.725770    1.615700
  C      0.934500    0.348360    0.812510
  C      0.525580    0.257440   -0.532770
  C      0.362230   -1.065340   -1.153790
  C      0.487680   -2.246500   -0.505950
  S      0.882730   -2.376000    1.156110
  C      0.058900   -0.812080   -2.520060
  C      0.031480    0.561380   -2.742220
  C     -0.268420    0.877580   -4.084810
  C     -0.453170   -0.243470   -4.831350
  S     -0.277000   -1.717740   -3.943080
  C      0.299940    1.248520   -1.499460
  C      0.301140    2.663240   -1.408390
  C      0.225700    3.415130   -0.280460
  C      0.248640    4.839370   -0.229500
  C      0.394070    5.716150   -1.297160
  C      0.414050    7.103620   -1.153660
  C      0.293510    7.765230    0.063110
  C      0.142910    6.912010    1.193900
  C      0.124710    5.476860    1.038410
  N     -0.013460    4.949790    2.236460
  O     -0.080410    5.968280    3.089280
  N      0.011350    7.156010    2.484020
  C      0.325390    9.200300    0.180140
  C      0.172150    9.855150    1.394460
  C      0.210000   11.243550    1.535240
  C      0.409380   12.116040    0.477870
  C      0.567420   11.496990   -0.791690
  C      0.522830   10.058840   -0.941710
  N      0.696800    9.806410   -2.224220
  O      0.838490   10.982970   -2.831170
  N      0.764080   12.010620   -1.988920
  C      0.462070   13.535140    0.633810
  C      0.692450   14.484040   -0.338120
  C      0.688950   15.785020    0.166080
  Cl     0.952400   17.158740   -0.820090
  C      0.450730   15.872170    1.533830
  S      0.229640   14.274590    2.189290
  C      0.390400   17.031410    2.341530
  C      0.112290   17.117460    3.705920
  Cl    -0.260900   15.758410    4.678710
  C      0.167040   18.405940    4.222630
  C      0.481370   19.360280    3.270710
  S      0.685620   18.616760    1.706470
  C      0.573470   20.762340    3.383900
  C      0.707200   21.535780    4.500170
  C      0.330520   22.972550    4.426440
  O      0.116830   23.619850    3.429010
  C      0.222190   23.413310    5.836110
  C      0.628430   22.368830    6.686670
  C      1.075300   21.242970    5.867130
  C      1.913380   20.245230    6.293440
  C      2.555130   19.341680    5.422290
  N      3.131320   18.615120    4.746170
  C      2.301490   20.066180    7.636750
  N      2.628520   19.865970    8.718570
  C      0.579230   22.541900    8.061590
  C      0.133440   23.754820    8.564880
  C     -0.248450   24.778580    7.707610
  C     -0.213010   24.626410    6.327620
  Br    -0.840320   26.426320    8.444190
  H      1.432160   -0.626520    2.640400
  H      1.141500    1.320350    1.233370
  H      0.342070   -3.193050   -1.002010
  H     -0.345400    1.872030   -4.485690
  H     -0.688890   -0.304980   -5.875870
  H      0.327400    3.169200   -2.365200
  H      0.104780    2.942550    0.682010
  H      0.500120    5.318250   -2.294280
  H      0.532540    7.704000   -2.041910
  H      0.018990    9.256300    2.278010
  H      0.081360   11.660300    2.523830
  H      0.858190   14.235930   -1.369820
  H     -0.064090   18.630240    5.247820
  H      0.447870   21.319080    2.460030
  H      0.866790   21.756430    8.741530
  H      0.083060   23.906760    9.632110
  H     -0.511280   25.418910    5.659010

 Total Charge           Charge          ....    0
 Multiplicity           Mult            ....    1
 Number of Electrons    NEL             ....  486
 Basis Dimension        Dim             ....  981

ORBITAL ENERGIES
----------------

  NO   OCC          E(Eh)            E(eV)
   0   2.0000    -482.872150    -13139.6192
   1   2.0000    -101.604173     -2764.7901
   2   2.0000    -101.603363     -2764.7681
   3   2.0000     -88.980602     -2421.2853
   4   2.0000     -88.976103     -2421.1628
   5   2.0000     -88.970812     -2421.0189
   6   2.0000     -88.956412     -2420.6270
   7   2.0000     -62.549858     -1702.0682
   8   2.0000     -56.383694     -1534.2783
   9   2.0000     -56.381168     -1534.2096
  10   2.0000     -56.381166     -1534.2095
  11   2.0000     -19.358295      -526.7660
  12   2.0000     -19.351641      -526.5849
  13   2.0000     -19.219211      -522.9813
  14   2.0000     -14.484647      -394.1473
  15   2.0000     -14.484206      -394.1353
  16   2.0000     -14.479609      -394.0102
  17   2.0000     -14.476061      -393.9137
  18   2.0000     -14.417655      -392.3243
  19   2.0000     -14.416472      -392.2921
  20   2.0000     -10.370138      -282.1858
  21   2.0000     -10.346406      -281.5400
  22   2.0000     -10.345198      -281.5072
  23   2.0000     -10.345152      -281.5059
  24   2.0000     -10.341144      -281.3968
  25   2.0000     -10.339956      -281.3645
  26   2.0000     -10.337405      -281.2951
  27   2.0000     -10.330411      -281.1048
  28   2.0000     -10.330113      -281.0967
  29   2.0000     -10.329828      -281.0889
  30   2.0000     -10.327488      -281.0252
  31   2.0000     -10.324815      -280.9525
  32   2.0000     -10.323667      -280.9213
  33   2.0000     -10.320716      -280.8410
  34   2.0000     -10.320137      -280.8252
  35   2.0000     -10.318202      -280.7726
  36   2.0000     -10.317852      -280.7630
  37   2.0000     -10.317321      -280.7486
  38   2.0000     -10.317015      -280.7403
  39   2.0000     -10.313558      -280.6462
  40   2.0000     -10.312173      -280.6085
  41   2.0000     -10.309580      -280.5379
  42   2.0000     -10.305130      -280.4168
  43   2.0000     -10.304741      -280.4063
  44   2.0000     -10.303753      -280.3794
  45   2.0000     -10.303632      -280.3761
  46   2.0000     -10.303166      -280.3634
  47   2.0000     -10.301284      -280.3122
  48   2.0000     -10.300746      -280.2975
  49   2.0000     -10.300425      -280.2888
  50   2.0000     -10.299730      -280.2699
  51   2.0000     -10.298426      -280.2344
  52   2.0000     -10.297307      -280.2040
  53   2.0000     -10.296987      -280.1953
  54   2.0000     -10.290289      -280.0130
  55   2.0000     -10.288674      -279.9690
  56   2.0000     -10.288666      -279.9688
  57   2.0000     -10.287230      -279.9298
  58   2.0000     -10.286426      -279.9079
  59   2.0000     -10.285251      -279.8759
  60   2.0000     -10.284632      -279.8591
  61   2.0000     -10.275365      -279.6069
  62   2.0000     -10.274728      -279.5896
  63   2.0000     -10.274255      -279.5767
  64   2.0000     -10.272701      -279.5344
  65   2.0000      -9.558893      -260.1107
  66   2.0000      -9.558107      -260.0893
  67   2.0000      -8.779141      -238.8926
  68   2.0000      -8.076423      -219.7707
  69   2.0000      -8.070939      -219.6214
  70   2.0000      -8.065606      -219.4763
  71   2.0000      -8.051801      -219.1007
  72   2.0000      -7.329053      -199.4337
  73   2.0000      -7.328175      -199.4098
  74   2.0000      -7.318946      -199.1586
  75   2.0000      -7.318868      -199.1565
  76   2.0000      -7.318223      -199.1390
  77   2.0000      -7.318109      -199.1359
  78   2.0000      -6.614978      -180.0027
  79   2.0000      -6.601249      -179.6291
  80   2.0000      -6.600827      -179.6176
  81   2.0000      -6.045831      -164.5154
  82   2.0000      -6.041169      -164.3886
  83   2.0000      -6.040373      -164.3669
  84   2.0000      -6.038703      -164.3215
  85   2.0000      -6.036057      -164.2495
  86   2.0000      -6.035117      -164.2239
  87   2.0000      -6.032817      -164.1613
  88   2.0000      -6.030810      -164.1067
  89   2.0000      -6.027356      -164.0127
  90   2.0000      -6.021280      -163.8474
  91   2.0000      -6.017028      -163.7317
  92   2.0000      -6.013774      -163.6431
  93   2.0000      -2.730941       -74.3127
  94   2.0000      -2.727138       -74.2092
  95   2.0000      -2.726825       -74.2007
  96   2.0000      -2.715920       -73.9040
  97   2.0000      -2.715901       -73.9034
  98   2.0000      -1.311875       -35.6979
  99   2.0000      -1.304048       -35.4850
 100   2.0000      -1.134762       -30.8784
 101   2.0000      -1.033110       -28.1124
 102   2.0000      -1.021905       -27.8074
 103   2.0000      -1.017339       -27.6832
 104   2.0000      -1.012891       -27.5622
 105   2.0000      -1.008394       -27.4398
 106   2.0000      -1.006233       -27.3810
 107   2.0000      -1.002766       -27.2866
 108   2.0000      -1.002508       -27.2796
 109   2.0000      -0.995144       -27.0793
 110   2.0000      -0.992081       -26.9959
 111   2.0000      -0.970547       -26.4099
 112   2.0000      -0.969526       -26.3821
 113   2.0000      -0.962727       -26.1971
 114   2.0000      -0.955493       -26.0003
 115   2.0000      -0.929423       -25.2909
 116   2.0000      -0.921707       -25.0809
 117   2.0000      -0.916654       -24.9434
 118   2.0000      -0.913005       -24.8441
 119   2.0000      -0.910688       -24.7811
 120   2.0000      -0.905244       -24.6329
 121   2.0000      -0.889481       -24.2040
 122   2.0000      -0.883574       -24.0433
 123   2.0000      -0.874996       -23.8099
 124   2.0000      -0.864316       -23.5192
 125   2.0000      -0.853765       -23.2321
 126   2.0000      -0.848252       -23.0821
 127   2.0000      -0.834125       -22.6977
 128   2.0000      -0.828378       -22.5413
 129   2.0000      -0.822572       -22.3833
 130   2.0000      -0.806324       -21.9412
 131   2.0000      -0.803273       -21.8582
 132   2.0000      -0.785450       -21.3732
 133   2.0000      -0.772403       -21.0181
 134   2.0000      -0.768866       -20.9219
 135   2.0000      -0.764296       -20.7976
 136   2.0000      -0.762471       -20.7479
 137   2.0000      -0.753915       -20.5151
 138   2.0000      -0.737060       -20.0564
 139   2.0000      -0.733895       -19.9703
 140   2.0000      -0.720773       -19.6132
 141   2.0000      -0.714355       -19.4386
 142   2.0000      -0.710422       -19.3316
 143   2.0000      -0.700513       -19.0619
 144   2.0000      -0.685634       -18.6570
 145   2.0000      -0.680958       -18.5298
 146   2.0000      -0.669769       -18.2253
 147   2.0000      -0.664649       -18.0860
 148   2.0000      -0.652346       -17.7512
 149   2.0000      -0.649519       -17.6743
 150   2.0000      -0.645742       -17.5715
 151   2.0000      -0.636915       -17.3313
 152   2.0000      -0.634012       -17.2523
 153   2.0000      -0.630603       -17.1596
 154   2.0000      -0.618537       -16.8312
 155   2.0000      -0.616578       -16.7779
 156   2.0000      -0.614564       -16.7231
 157   2.0000      -0.610174       -16.6037
 158   2.0000      -0.603112       -16.4115
 159   2.0000      -0.601419       -16.3655
 160   2.0000      -0.597979       -16.2718
 161   2.0000      -0.592810       -16.1312
 162   2.0000      -0.587805       -15.9950
 163   2.0000      -0.587102       -15.9759
 164   2.0000      -0.574553       -15.6344
 165   2.0000      -0.573240       -15.5987
 166   2.0000      -0.566428       -15.4133
 167   2.0000      -0.561498       -15.2791
 168   2.0000      -0.555738       -15.1224
 169   2.0000      -0.553461       -15.0604
 170   2.0000      -0.546256       -14.8644
 171   2.0000      -0.544349       -14.8125
 172   2.0000      -0.542441       -14.7606
 173   2.0000      -0.539380       -14.6773
 174   2.0000      -0.531993       -14.4763
 175   2.0000      -0.530275       -14.4295
 176   2.0000      -0.529743       -14.4151
 177   2.0000      -0.525416       -14.2973
 178   2.0000      -0.524413       -14.2700
 179   2.0000      -0.515236       -14.0203
 180   2.0000      -0.510760       -13.8985
 181   2.0000      -0.510282       -13.8855
 182   2.0000      -0.507736       -13.8162
 183   2.0000      -0.506427       -13.7806
 184   2.0000      -0.502605       -13.6766
 185   2.0000      -0.498785       -13.5726
 186   2.0000      -0.494237       -13.4489
 187   2.0000      -0.489580       -13.3222
 188   2.0000      -0.486262       -13.2319
 189   2.0000      -0.483181       -13.1480
 190   2.0000      -0.482477       -13.1289
 191   2.0000      -0.476352       -12.9622
 192   2.0000      -0.470704       -12.8085
 193   2.0000      -0.469973       -12.7886
 194   2.0000      -0.467649       -12.7254
 195   2.0000      -0.466868       -12.7041
 196   2.0000      -0.464402       -12.6370
 197   2.0000      -0.462726       -12.5914
 198   2.0000      -0.460943       -12.5429
 199   2.0000      -0.457389       -12.4462
 200   2.0000      -0.454652       -12.3717
 201   2.0000      -0.452116       -12.3027
 202   2.0000      -0.449183       -12.2229
 203   2.0000      -0.447661       -12.1815
 204   2.0000      -0.444738       -12.1019
 205   2.0000      -0.442954       -12.0534
 206   2.0000      -0.440836       -11.9958
 207   2.0000      -0.439428       -11.9574
 208   2.0000      -0.435134       -11.8406
 209   2.0000      -0.428780       -11.6677
 210   2.0000      -0.425282       -11.5725
 211   2.0000      -0.424109       -11.5406
 212   2.0000      -0.421653       -11.4738
 213   2.0000      -0.419482       -11.4147
 214   2.0000      -0.414949       -11.2913
 215   2.0000      -0.413223       -11.2444
 216   2.0000      -0.412746       -11.2314
 217   2.0000      -0.411160       -11.1882
 218   2.0000      -0.407928       -11.1003
 219   2.0000      -0.399910       -10.8821
 220   2.0000      -0.394765       -10.7421
 221   2.0000      -0.392702       -10.6860
 222   2.0000      -0.388341       -10.5673
 223   2.0000      -0.386355       -10.5133
 224   2.0000      -0.385101       -10.4791
 225   2.0000      -0.373613       -10.1665
 226   2.0000      -0.372265       -10.1298
 227   2.0000      -0.368587       -10.0298
 228   2.0000      -0.367009        -9.9868
 229   2.0000      -0.365233        -9.9385
 230   2.0000      -0.359010        -9.7692
 231   2.0000      -0.351904        -9.5758
 232   2.0000      -0.348842        -9.4925
 233   2.0000      -0.339367        -9.2346
 234   2.0000      -0.334715        -9.1081
 235   2.0000      -0.330740        -8.9999
 236   2.0000      -0.321694        -8.7537
 237   2.0000      -0.317267        -8.6333
 238   2.0000      -0.309005        -8.4084
 239   2.0000      -0.289421        -7.8755
 240   2.0000      -0.281116        -7.6496
 241   2.0000      -0.257137        -6.9970
 242   2.0000      -0.230255        -6.2656
 243   0.0000      -0.101501        -2.7620
 244   0.0000      -0.086316        -2.3488
 245   0.0000      -0.065491        -1.7821
 246   0.0000      -0.055014        -1.4970
 247   0.0000      -0.037974        -1.0333

MULLIKEN ATOMIC CHARGES
-----------------------
   0 C :   -0.098989
   1 C :    0.028459
   2 C :    0.021525
   3 C :    0.060999
   4 C :   -0.145285
   5 S :    0.141576
   6 C :   -0.112181
   7 C :    0.054818
   8 C :    0.002262
   9 C :   -0.067034
  10 S :    0.125644
  11 C :    0.074030
  12 C :    0.016173
  13 C :   -0.064044
  14 C :    0.117983
  15 C :   -0.054280
  16 C :   -0.040946
  17 C :    0.068798
  18 C :   -0.032316
  19 C :   -0.059296
  20 N :    0.045462
  21 O :   -0.095404
  22 N :    0.026934
  23 C :    0.092013
  24 C :   -0.062526
  25 C :   -0.057999
  26 C :    0.170860
  27 C :   -0.061060
  28 C :   -0.044182
  29 N :    0.037564
  30 O :   -0.087349
  31 N :    0.038983
  32 C :   -0.089213
  33 C :   -0.010952
  34 C :    0.076996
  35 Cl:   -0.052781
  36 C :   -0.080069
  37 S :    0.136844
  38 C :   -0.077428
  39 C :    0.050177
  40 Cl:   -0.055168
  41 C :    0.053917
  42 C :   -0.107541
  43 S :    0.182521
  44 C :    0.103396
  45 C :   -0.135680
  46 C :    0.137861
  47 O :   -0.137619
  48 C :   -0.006239
  49 C :    0.017210
  50 C :    0.257855
  51 C :   -0.334273
  52 C :   -0.206328
  53 N :    0.177831
  54 C :   -0.174580
  55 N :    0.157347
  56 C :   -0.024328
  57 C :    0.044851
  58 C :   -0.004494
  59 C :   -0.010757
  60 Br:   -0.019524
  61 H :    0.049906
  62 H :   -0.002160
  63 H :    0.036727
  64 H :   -0.019103
  65 H :    0.026598
  66 H :   -0.025097
  67 H :   -0.009083
  68 H :   -0.020086
  69 H :   -0.000484
  70 H :    0.004161
  71 H :   -0.000072
  72 H :    0.002994
  73 H :   -0.002476
  74 H :    0.024234
  75 H :    0.010386
  76 H :    0.007683
  77 H :    0.004847
Sum of atomic charges:   -0.0000000

LOEWDIN ATOMIC CHARGES
----------------------
   0 C :   -0.178182
   1 C :   -0.025750
   2 C :   -0.010753
   3 C :   -0.042716
   4 C :   -0.144128
   5 S :    0.466596
   6 C :   -0.210046
   7 C :   -0.038403
   8 C :   -0.066458
   9 C :   -0.164915
  10 S :    0.419000
  11 C :   -0.063294
  12 C :    0.016662
  13 C :   -0.047713
  14 C :   -0.008858
  15 C :   -0.024243
  16 C :    0.012113
  17 C :   -0.047483
  18 C :   -0.039591
  19 C :   -0.050548
  20 N :   -0.021603
  21 O :    0.070333
  22 N :   -0.036566
  23 C :   -0.019087
  24 C :   -0.004625
  25 C :   -0.005458
  26 C :   -0.044591
  27 C :   -0.041864
  28 C :   -0.039097
  29 N :   -0.024951
  30 O :    0.075488
  31 N :   -0.022311
  32 C :   -0.159607
  33 C :   -0.060075
  34 C :   -0.159979
  35 Cl:    0.169274
  36 C :   -0.211881
  37 S :    0.456604
  38 C :   -0.182568
  39 C :   -0.170410
  40 Cl:    0.165087
  41 C :   -0.027930
  42 C :   -0.191197
  43 S :    0.478459
  44 C :    0.052598
  45 C :   -0.098168
  46 C :    0.083964
  47 O :   -0.136510
  48 C :   -0.039471
  49 C :   -0.013402
  50 C :    0.064456
  51 C :   -0.138745
  52 C :   -0.019927
  53 N :   -0.037356
  54 C :   -0.021290
  55 N :   -0.048813
  56 C :    0.005103
  57 C :   -0.012457
  58 C :   -0.099301
  59 C :    0.000897
  60 Br:    0.115547
  61 H :    0.033754
  62 H :    0.042209
  63 H :    0.035894
  64 H :    0.028922
  65 H :    0.023406
  66 H :    0.028455
  67 H :    0.028562
  68 H :    0.030823
  69 H :    0.033770
  70 H :    0.035235
  71 H :    0.030077
  72 H :    0.036985
  73 H :    0.036720
  74 H :    0.047187
  75 H :    0.042779
  76 H :    0.040644
  77 H :    0.044716

  Mayer bond orders larger than 0.100000
B(  0-C ,  1-C ) :   1.6450 B(  0-C ,  5-S ) :   1.1134 B(  0-C , 61-H ) :   0.9390
B(  1-C ,  2-C ) :   1.2067 B(  1-C , 62-H ) :   0.9724 B(  2-C ,  3-C ) :   1.0653
B(  2-C , 11-C ) :   1.4138 B(  3-C ,  4-C ) :   1.5907 B(  3-C ,  6-C ) :   1.1838
B(  4-C ,  5-S ) :   1.1522 B(  4-C , 63-H ) :   0.9426 B(  6-C ,  7-C ) :   1.4536
B(  6-C , 10-S ) :   1.0691 B(  7-C ,  8-C ) :   1.2204 B(  7-C , 11-C ) :   1.0919
B(  8-C ,  9-C ) :   1.5841 B(  8-C , 64-H ) :   0.9983 B(  9-C , 10-S ) :   1.1590
B(  9-C , 65-H ) :   0.9658 B( 11-C , 12-C ) :   1.1652 B( 12-C , 13-C ) :   1.5741
B( 12-C , 66-H ) :   0.9619 B( 13-C , 14-C ) :   1.1536 B( 13-C , 67-H ) :   0.9851
B( 14-C , 15-C ) :   1.4196 B( 14-C , 17-C ) :   0.1071 B( 14-C , 19-C ) :   1.1050
B( 15-C , 16-C ) :   1.2351 B( 15-C , 68-H ) :   0.9898 B( 16-C , 17-C ) :   1.4691
B( 16-C , 69-H ) :   0.9673 B( 17-C , 18-C ) :   1.1350 B( 17-C , 23-C ) :   1.1075
B( 18-C , 19-C ) :   1.1441 B( 18-C , 22-N ) :   1.5880 B( 19-C , 20-N ) :   1.6244
B( 20-N , 21-O ) :   1.0695 B( 20-N , 22-N ) :   0.1782 B( 21-O , 22-N ) :   1.0487
B( 23-C , 24-C ) :   1.4889 B( 23-C , 26-C ) :   0.1137 B( 23-C , 28-C ) :   1.1177
B( 24-C , 25-C ) :   1.2135 B( 24-C , 70-H ) :   0.9669 B( 25-C , 26-C ) :   1.4553
B( 25-C , 71-H ) :   0.9887 B( 26-C , 27-C ) :   1.1398 B( 26-C , 32-C ) :   1.1286
B( 27-C , 28-C ) :   1.1466 B( 27-C , 31-N ) :   1.6062 B( 28-C , 29-N ) :   1.5945
B( 29-N , 30-O ) :   1.0611 B( 29-N , 31-N ) :   0.1781 B( 30-O , 31-N ) :   1.0625
B( 32-C , 33-C ) :   1.4842 B( 32-C , 37-S ) :   1.1066 B( 33-C , 34-C ) :   1.2462
B( 33-C , 72-H ) :   0.9941 B( 34-C , 35-Cl) :   1.0405 B( 34-C , 36-C ) :   1.4594
B( 36-C , 37-S ) :   1.1178 B( 36-C , 38-C ) :   1.1916 B( 38-C , 39-C ) :   1.4231
B( 38-C , 43-S ) :   1.1623 B( 39-C , 40-Cl) :   1.0399 B( 39-C , 41-C ) :   1.3418
B( 41-C , 42-C ) :   1.4085 B( 41-C , 73-H ) :   0.9944 B( 42-C , 43-S ) :   1.0861
B( 42-C , 44-C ) :   1.1459 B( 44-C , 45-C ) :   1.6485 B( 44-C , 74-H ) :   0.9304
B( 45-C , 46-C ) :   0.9496 B( 45-C , 50-C ) :   1.0462 B( 46-C , 47-O ) :   2.2683
B( 46-C , 48-C ) :   0.9169 B( 48-C , 49-C ) :   1.3356 B( 48-C , 59-C ) :   1.3835
B( 49-C , 50-C ) :   1.0034 B( 49-C , 56-C ) :   1.3692 B( 50-C , 51-C ) :   1.6494
B( 51-C , 52-C ) :   1.1649 B( 51-C , 54-C ) :   1.1262 B( 52-C , 53-N ) :   3.0078
B( 54-C , 55-N ) :   2.9931 B( 56-C , 57-C ) :   1.3791 B( 56-C , 75-H ) :   0.9865
B( 57-C , 58-C ) :   1.3910 B( 57-C , 76-H ) :   0.9860 B( 58-C , 59-C ) :   1.3393
B( 58-C , 60-Br) :   0.9932 B( 59-C , 77-H ) :   1.0067

-----------------------------------------------------------------------------
         ABSORPTION SPECTRUM VIA TRANSITION ELECTRIC DIPOLE MOMENTS
-----------------------------------------------------------------------------
State   Energy  Wavelength   fosc         T2         TX        TY        TZ
        (cm-1)    (nm)                  (au**2)     (au)      (au)      (au)
-----------------------------------------------------------------------------
   0   14823.3    674.6   2.006405811  44.56036   0.06762   6.52027   1.42896
   1   18613.6    537.2   0.277011487   4.89941  -0.47533  -0.85901  -1.98383
   2   21985.2    454.9   0.163601666   2.44981  -0.00649   1.51003   0.41180
   3   22304.6    448.3   0.003902321   0.05760   0.03897   0.12044   0.20390
   4   23797.7    420.2   0.050047332   0.69234   0.25508   0.01674   0.79183
   5   25290.1    395.4   0.048785818   0.63507  -0.18054   0.77200  -0.08056
   6   25974.1    385.0   0.074521695   0.94453  -0.00927   0.72359   0.64874
   7   26899.6    371.8   0.075108567   0.91922   0.05752   0.94853   0.12726
   8   28332.9    352.9   0.043792848   0.50885   0.26790  -0.57684   0.32301
   9   29192.2    342.6   0.092895310   1.04762  -0.62033   0.73382   0.35258
  10   30031.1    333.0   0.097208985   1.06564  -0.06238  -0.99163  -0.28004
  11   30232.0    330.8   0.153258583   1.66891   0.24805  -1.21536   0.36096
  12   30948.0    323.1   0.046355670   0.49311   0.10038  -0.69242  -0.05988
  13   31283.3    319.7   0.060513414   0.63682  -0.53067   0.29656   0.51697
  14   31603.3    316.4   0.103229796   1.07534  -0.02439  -0.98106  -0.33506
  15   31905.4    313.4   0.023462780   0.24210   0.22605  -0.18066   0.39794
  16   32749.0    305.4   0.177342450   1.78275  -0.45893   1.23323   0.22645
  17   32973.3    303.3   0.044036455   0.43967   0.10242  -0.59128  -0.28208
  18   33315.1    300.2   0.201315355   1.98935  -0.18227   1.17051   0.76553
  19   33797.6    295.9   0.080181485   0.78102  -0.06229   0.69953  -0.53647
  20   34281.7    291.7   0.015950236   0.15317  -0.00231   0.38472  -0.07184
  21   34735.5    287.9   0.304744532   2.88827  -0.87390   1.45309   0.11452
  22   35553.9    281.3   0.015597639   0.14443  -0.04914  -0.35775  -0.11844
  23   35873.8    278.8   0.013689139   0.12562  -0.01280   0.14861  -0.32152
  24   36558.4    273.5   0.010607757   0.09552  -0.00084  -0.14246  -0.27428
  25   36975.1    270.5   0.071016528   0.63230  -0.20326   0.62486  -0.44782
  26   37476.1    266.8   0.055162261   0.48458  -0.42098   0.54057   0.12302
  27   37694.0    265.3   0.085111585   0.74335  -0.25940   0.78436  -0.24665
  28   37975.4    263.3   0.053974856   0.46791  -0.14939  -0.43968  -0.50227
  29   38103.2    262.4   0.229048474   1.97898   0.20932  -1.27934   0.54632
  30   38563.2    259.3   0.033467007   0.28571   0.08470  -0.51354   0.12170
  31   38809.5    257.7   0.067637140   0.57375  -0.11753  -0.27394  -0.69634
  32   39219.5    255.0   0.020528312   0.17232  -0.00286  -0.37139  -0.18540
  33   39396.9    253.8   0.047928627   0.40051  -0.04884   0.36060  -0.51777
  34   39575.7    252.7   0.083377241   0.69358  -0.12163   0.60257  -0.56186
  35   40211.4    248.7   0.050620480   0.41443   0.07206  -0.25861  -0.58511

FINAL SINGLE POINT ENERGY     -7362.463599196310

DIPOLE MOMENT
-------------
                                X             Y             Z
Electronic contribution:    -11.23284     182.50596      70.92472
Nuclear contribution   :     10.13056    -185.36762     -71.66933
                        -----------------------------------------
Total Dipole Moment    :     -1.10228      -2.86166      -0.74461
                        -----------------------------------------
Magnitude (a.u.)       :      3.15572
Magnitude (Debye)      :      8.02120

Rotational constants in cm-1:     0.003441     0.000189     0.000181
Rotational constants in MHz :   103.146445     5.670393     5.438602

                             ****ORCA TERMINATED NORMALLY****
TOTAL RUN TIME: 0 days 0 hours 6 minutes 51 seconds 598 msec
