                         Program Version 4.2.0 -  RELEASE  -
|  1> # ORCA input file
|  2> # SCF done       -171.821707164345          0.000661529097
|  3> ! CAM-B3LYP def2-SVP def2/J RIJCOSX Grid4 TightSCF
|  4> %maxcore 5000
|  5> %tddft
|  6>     Mode sTDDFT
|  7>     Ethresh 5.0
|  8>     maxcore 5000
|  9> end
| 10>
| 11> %pal
| 12>   nprocs 6
| 13>   end
| 14> * xyz 0 1
| 15>    C       -0.65271         0.06179        -1.01982
| 16>    C       -1.03889         1.28794        -0.60260
| 17>    C       -2.34542         1.59458        -0.16827
| 18>    C       -3.34509         0.51824        -0.06346
| 19>    C       -3.14864        -0.76213        -0.44794
| 20>    S       -1.67196        -1.33821        -1.10643
| 21>    C       -4.49809         1.12583         0.50524
| 22>    C       -4.24618         2.47474         0.73465
| 23>    C       -5.35893         3.13776         1.29604
| 24>    C       -6.40497         2.28912         1.47747
| 25>    S       -6.08792         0.66327         0.97410
| 26>    C       -2.90605         2.78860         0.29497
| 27>    C       -2.38641         4.10914         0.36146
| 28>    C       -1.32262         4.61425        -0.30889
| 29>    C       -0.85041         5.95486        -0.20752
| 30>    C        0.20787         6.40275        -0.96240
| 31>    C        0.73312         7.69509        -0.93653
| 32>    C        0.15604         8.72550        -0.06703
| 33>    C       -0.88440         8.51576         0.76651
| 34>    S       -1.68775         7.00849         0.93075
| 35>    C        0.91990         9.89668        -0.31939
| 36>    C        1.90176         9.63215        -1.27606
| 37>    C        2.69776        10.77315        -1.52944
| 38>    C        2.30382        11.84049        -0.78697
| 39>    S        0.95971        11.51717         0.25303
| 40>    C        1.79451         8.24909        -1.67540
| 41>    C        2.58216         7.53532        -2.61038
| 42>    C        3.49841         8.06085        -3.46061
| 43>    C        4.27788         7.29266        -4.36878
| 44>    C        4.39552         5.93414        -4.49868
| 45>    C        5.28086         5.52913        -5.52297
| 46>    C        5.85510         6.63602        -6.20497
| 47>    S        5.28538         8.14019        -5.53740
| 48>    C        6.73876         6.48773        -7.24892
| 49>    C        7.08098         5.19122        -7.63666
| 50>    C        6.51909         4.08634        -6.94492
| 51>    C        5.63038         4.23272        -5.90600
| 52>    S        7.10372         2.57618        -7.58916
| 53>    C        8.08418         3.42493        -8.78091
| 54>    C        7.95582         4.78072        -8.67131
| 55>    C        8.87226         2.67895        -9.71141
| 56>    C        8.99751         1.31721        -9.64203
| 57>    C        9.74556         0.52644       -10.51823
| 58>    C       10.55642         1.15684       -11.57285
| 59>    C       10.57614         2.48155       -11.82974
| 60>    S        9.66059         3.64282       -10.95742
| 61>    C       11.26878         0.09264       -12.18961
| 62>    C       10.93512        -1.11069       -11.57189
| 63>    C       11.61393        -2.20873       -12.14499
| 64>    C       12.42974        -1.81820       -13.15876
| 65>    S       12.40704        -0.11289       -13.46278
| 66>    C        9.96414        -0.85994       -10.53573
| 67>    C        9.41311        -1.89556        -9.73566
| 68>    C        8.26957        -1.83581        -9.00883
| 69>    C        7.75459        -2.85944        -8.15835
| 70>    C        8.38148        -4.03711        -7.84043
| 71>    C        7.87533        -5.01478        -6.97817
| 72>    C        6.57534        -4.83523        -6.31272
| 73>    C        5.77857        -3.75798        -6.47613
| 74>    S        6.17636        -2.43400        -7.48877
| 75>    C        6.40396        -5.99647        -5.51746
| 76>    C        7.50520        -6.84507        -5.66555
| 77>    C        7.36173        -8.01491        -4.88215
| 78>    C        6.19737        -8.02000        -4.18385
| 79>    S        5.21732        -6.61583        -4.43730
| 80>    C        8.43424        -6.23631        -6.58155
| 81>    C        9.69804        -6.74140        -7.03262
| 82>    C       10.29153        -7.87370        -6.65213
| 83>    H        0.35403        -0.14777        -1.33923
| 84>    H       -0.28700         2.06246        -0.57544
| 85>    H       -3.91804        -1.51363        -0.36805
| 86>    H       -5.39153         4.18082         1.55449
| 87>    H       -7.37139         2.51450         1.88455
| 88>    H       -2.95092         4.78386         0.99443
| 89>    H       -0.78489         3.99805        -1.01448
| 90>    H        0.65661         5.68167        -1.63295
| 91>    H       -1.29096         9.29007         1.39777
| 92>    H        3.52690        10.82158        -2.21088
| 93>    H        2.72744        12.82590        -0.77941
| 94>    H        2.41105         6.46783        -2.64593
| 95>    H        3.65320         9.12776        -3.49509
| 96>    H        3.87518         5.23118        -3.87355
| 97>    H        7.15898         7.34163        -7.75630
| 98>    H        5.21274         3.37722        -5.39904
| 99>    H        8.47636         5.47274        -9.30991
|100>    H        8.49541         0.83897        -8.81332
|101>    H       11.17516         2.91095       -12.61735
|102>    H       11.51008        -3.23195       -11.83163
|103>    H       13.06220        -2.43363       -13.76841
|104>    H        9.97084        -2.82295        -9.75920
|105>    H        7.64697        -0.95550        -9.07749
|106>    H        9.35010        -4.20958        -8.28720
|107>    H        4.82889        -3.65502        -5.97480
|108>    H        8.06823        -8.82214        -4.82505
|109>    H        5.83670        -8.77742        -3.51521
|110>    H       10.20479        -6.11703        -7.75831
|111>    H        9.85598        -8.54353        -5.93421
|112>    H       11.24665        -8.16428        -7.05475
|113> *
|114>
|115>                          ****END OF INPUT****

CARTESIAN COORDINATES (ANGSTROEM)
---------------------------------
  C     -0.652710    0.061790   -1.019820
  C     -1.038890    1.287940   -0.602600
  C     -2.345420    1.594580   -0.168270
  C     -3.345090    0.518240   -0.063460
  C     -3.148640   -0.762130   -0.447940
  S     -1.671960   -1.338210   -1.106430
  C     -4.498090    1.125830    0.505240
  C     -4.246180    2.474740    0.734650
  C     -5.358930    3.137760    1.296040
  C     -6.404970    2.289120    1.477470
  S     -6.087920    0.663270    0.974100
  C     -2.906050    2.788600    0.294970
  C     -2.386410    4.109140    0.361460
  C     -1.322620    4.614250   -0.308890
  C     -0.850410    5.954860   -0.207520
  C      0.207870    6.402750   -0.962400
  C      0.733120    7.695090   -0.936530
  C      0.156040    8.725500   -0.067030
  C     -0.884400    8.515760    0.766510
  S     -1.687750    7.008490    0.930750
  C      0.919900    9.896680   -0.319390
  C      1.901760    9.632150   -1.276060
  C      2.697760   10.773150   -1.529440
  C      2.303820   11.840490   -0.786970
  S      0.959710   11.517170    0.253030
  C      1.794510    8.249090   -1.675400
  C      2.582160    7.535320   -2.610380
  C      3.498410    8.060850   -3.460610
  C      4.277880    7.292660   -4.368780
  C      4.395520    5.934140   -4.498680
  C      5.280860    5.529130   -5.522970
  C      5.855100    6.636020   -6.204970
  S      5.285380    8.140190   -5.537400
  C      6.738760    6.487730   -7.248920
  C      7.080980    5.191220   -7.636660
  C      6.519090    4.086340   -6.944920
  C      5.630380    4.232720   -5.906000
  S      7.103720    2.576180   -7.589160
  C      8.084180    3.424930   -8.780910
  C      7.955820    4.780720   -8.671310
  C      8.872260    2.678950   -9.711410
  C      8.997510    1.317210   -9.642030
  C      9.745560    0.526440  -10.518230
  C     10.556420    1.156840  -11.572850
  C     10.576140    2.481550  -11.829740
  S      9.660590    3.642820  -10.957420
  C     11.268780    0.092640  -12.189610
  C     10.935120   -1.110690  -11.571890
  C     11.613930   -2.208730  -12.144990
  C     12.429740   -1.818200  -13.158760
  S     12.407040   -0.112890  -13.462780
  C      9.964140   -0.859940  -10.535730
  C      9.413110   -1.895560   -9.735660
  C      8.269570   -1.835810   -9.008830
  C      7.754590   -2.859440   -8.158350
  C      8.381480   -4.037110   -7.840430
  C      7.875330   -5.014780   -6.978170
  C      6.575340   -4.835230   -6.312720
  C      5.778570   -3.757980   -6.476130
  S      6.176360   -2.434000   -7.488770
  C      6.403960   -5.996470   -5.517460
  C      7.505200   -6.845070   -5.665550
  C      7.361730   -8.014910   -4.882150
  C      6.197370   -8.020000   -4.183850
  S      5.217320   -6.615830   -4.437300
  C      8.434240   -6.236310   -6.581550
  C      9.698040   -6.741400   -7.032620
  C     10.291530   -7.873700   -6.652130
  H      0.354030   -0.147770   -1.339230
  H     -0.287000    2.062460   -0.575440
  H     -3.918040   -1.513630   -0.368050
  H     -5.391530    4.180820    1.554490
  H     -7.371390    2.514500    1.884550
  H     -2.950920    4.783860    0.994430
  H     -0.784890    3.998050   -1.014480
  H      0.656610    5.681670   -1.632950
  H     -1.290960    9.290070    1.397770
  H      3.526900   10.821580   -2.210880
  H      2.727440   12.825900   -0.779410
  H      2.411050    6.467830   -2.645930
  H      3.653200    9.127760   -3.495090
  H      3.875180    5.231180   -3.873550
  H      7.158980    7.341630   -7.756300
  H      5.212740    3.377220   -5.399040
  H      8.476360    5.472740   -9.309910
  H      8.495410    0.838970   -8.813320
  H     11.175160    2.910950  -12.617350
  H     11.510080   -3.231950  -11.831630
  H     13.062200   -2.433630  -13.768410
  H      9.970840   -2.822950   -9.759200
  H      7.646970   -0.955500   -9.077490
  H      9.350100   -4.209580   -8.287200
  H      4.828890   -3.655020   -5.974800
  H      8.068230   -8.822140   -4.825050
  H      5.836700   -8.777420   -3.515210
  H     10.204790   -6.117030   -7.758310
  H      9.855980   -8.543530   -5.934210
  H     11.246650   -8.164280   -7.054750

 Total Charge           Charge          ....    0
 Multiplicity           Mult            ....    1
 Number of Electrons    NEL             ....  538
 Basis Dimension        Dim             .... 1142

ORBITAL ENERGIES
----------------

  NO   OCC          E(Eh)            E(eV)
   0   2.0000     -88.972396     -2421.0620
   1   2.0000     -88.967197     -2420.9205
   2   2.0000     -88.963897     -2420.8307
   3   2.0000     -88.956345     -2420.6252
   4   2.0000     -88.951723     -2420.4994
   5   2.0000     -88.949466     -2420.4380
   6   2.0000     -88.949246     -2420.4320
   7   2.0000     -88.943524     -2420.2763
   8   2.0000     -88.942223     -2420.2409
   9   2.0000     -88.936543     -2420.0864
  10   2.0000     -10.322969      -280.9023
  11   2.0000     -10.319875      -280.8181
  12   2.0000     -10.318846      -280.7901
  13   2.0000     -10.316927      -280.7379
  14   2.0000     -10.312415      -280.6151
  15   2.0000     -10.311160      -280.5809
  16   2.0000     -10.310326      -280.5582
  17   2.0000     -10.305981      -280.4400
  18   2.0000     -10.304036      -280.3871
  19   2.0000     -10.295109      -280.1442
  20   2.0000     -10.294453      -280.1263
  21   2.0000     -10.293688      -280.1055
  22   2.0000     -10.292275      -280.0670
  23   2.0000     -10.292184      -280.0646
  24   2.0000     -10.290359      -280.0149
  25   2.0000     -10.289844      -280.0009
  26   2.0000     -10.289725      -279.9977
  27   2.0000     -10.288509      -279.9646
  28   2.0000     -10.288261      -279.9578
  29   2.0000     -10.286283      -279.9040
  30   2.0000     -10.284509      -279.8557
  31   2.0000     -10.282430      -279.7991
  32   2.0000     -10.281094      -279.7628
  33   2.0000     -10.280191      -279.7382
  34   2.0000     -10.279491      -279.7192
  35   2.0000     -10.278532      -279.6931
  36   2.0000     -10.278064      -279.6803
  37   2.0000     -10.277935      -279.6768
  38   2.0000     -10.276900      -279.6487
  39   2.0000     -10.276745      -279.6445
  40   2.0000     -10.276521      -279.6384
  41   2.0000     -10.275547      -279.6119
  42   2.0000     -10.275285      -279.6047
  43   2.0000     -10.274066      -279.5716
  44   2.0000     -10.273697      -279.5615
  45   2.0000     -10.273439      -279.5545
  46   2.0000     -10.272774      -279.5364
  47   2.0000     -10.272250      -279.5221
  48   2.0000     -10.272074      -279.5173
  49   2.0000     -10.271664      -279.5062
  50   2.0000     -10.270467      -279.4736
  51   2.0000     -10.270214      -279.4667
  52   2.0000     -10.269421      -279.4452
  53   2.0000     -10.268155      -279.4107
  54   2.0000     -10.267722      -279.3989
  55   2.0000     -10.267185      -279.3843
  56   2.0000     -10.267174      -279.3840
  57   2.0000     -10.267013      -279.3796
  58   2.0000     -10.266669      -279.3703
  59   2.0000     -10.266364      -279.3620
  60   2.0000     -10.265756      -279.3454
  61   2.0000     -10.264605      -279.3141
  62   2.0000     -10.260880      -279.2127
  63   2.0000     -10.259751      -279.1820
  64   2.0000     -10.258458      -279.1468
  65   2.0000     -10.257274      -279.1146
  66   2.0000     -10.253900      -279.0228
  67   2.0000     -10.243127      -278.7297
  68   2.0000      -8.068116      -219.5446
  69   2.0000      -8.062385      -219.3887
  70   2.0000      -8.059220      -219.3025
  71   2.0000      -8.051966      -219.1051
  72   2.0000      -8.046980      -218.9695
  73   2.0000      -8.044788      -218.9098
  74   2.0000      -8.044730      -218.9082
  75   2.0000      -8.039060      -218.7539
  76   2.0000      -8.037698      -218.7169
  77   2.0000      -8.032602      -218.5782
  78   2.0000      -6.037646      -164.2927
  79   2.0000      -6.032952      -164.1650
  80   2.0000      -6.032028      -164.1398
  81   2.0000      -6.030242      -164.0912
  82   2.0000      -6.028732      -164.0501
  83   2.0000      -6.027447      -164.0152
  84   2.0000      -6.024312      -163.9299
  85   2.0000      -6.024201      -163.9268
  86   2.0000      -6.021450      -163.8520
  87   2.0000      -6.021115      -163.8429
  88   2.0000      -6.017063      -163.7326
  89   2.0000      -6.016466      -163.7164
  90   2.0000      -6.014234      -163.6556
  91   2.0000      -6.014126      -163.6527
  92   2.0000      -6.013850      -163.6452
  93   2.0000      -6.012217      -163.6007
  94   2.0000      -6.010029      -163.5412
  95   2.0000      -6.009941      -163.5388
  96   2.0000      -6.009003      -163.5133
  97   2.0000      -6.008728      -163.5058
  98   2.0000      -6.007120      -163.4620
  99   2.0000      -6.006805      -163.4535
 100   2.0000      -6.006787      -163.4530
 101   2.0000      -6.004842      -163.4001
 102   2.0000      -6.002958      -163.3488
 103   2.0000      -6.002136      -163.3264
 104   2.0000      -6.000156      -163.2725
 105   2.0000      -5.999708      -163.2604
 106   2.0000      -5.998279      -163.2215
 107   2.0000      -5.993883      -163.1019
 108   2.0000      -1.000118       -27.2146
 109   2.0000      -0.999200       -27.1896
 110   2.0000      -0.996827       -27.1250
 111   2.0000      -0.991038       -26.9675
 112   2.0000      -0.988441       -26.8968
 113   2.0000      -0.972711       -26.4688
 114   2.0000      -0.963740       -26.2247
 115   2.0000      -0.963539       -26.2192
 116   2.0000      -0.955941       -26.0125
 117   2.0000      -0.955514       -26.0009
 118   2.0000      -0.925382       -25.1809
 119   2.0000      -0.921646       -25.0793
 120   2.0000      -0.917597       -24.9691
 121   2.0000      -0.911586       -24.8055
 122   2.0000      -0.905413       -24.6375
 123   2.0000      -0.895330       -24.3632
 124   2.0000      -0.888246       -24.1704
 125   2.0000      -0.878873       -23.9153
 126   2.0000      -0.875961       -23.8361
 127   2.0000      -0.866155       -23.5693
 128   2.0000      -0.860607       -23.4183
 129   2.0000      -0.855835       -23.2885
 130   2.0000      -0.853226       -23.2175
 131   2.0000      -0.844782       -22.9877
 132   2.0000      -0.833973       -22.6935
 133   2.0000      -0.830730       -22.6053
 134   2.0000      -0.829890       -22.5825
 135   2.0000      -0.822751       -22.3882
 136   2.0000      -0.816505       -22.2182
 137   2.0000      -0.807709       -21.9789
 138   2.0000      -0.800728       -21.7889
 139   2.0000      -0.796541       -21.6750
 140   2.0000      -0.795997       -21.6602
 141   2.0000      -0.791009       -21.5244
 142   2.0000      -0.778484       -21.1836
 143   2.0000      -0.770099       -20.9555
 144   2.0000      -0.767045       -20.8723
 145   2.0000      -0.759011       -20.6537
 146   2.0000      -0.750410       -20.4197
 147   2.0000      -0.734127       -19.9766
 148   2.0000      -0.725762       -19.7490
 149   2.0000      -0.722450       -19.6589
 150   2.0000      -0.709007       -19.2931
 151   2.0000      -0.706779       -19.2324
 152   2.0000      -0.704220       -19.1628
 153   2.0000      -0.688194       -18.7267
 154   2.0000      -0.678350       -18.4588
 155   2.0000      -0.675032       -18.3685
 156   2.0000      -0.668716       -18.1967
 157   2.0000      -0.657196       -17.8832
 158   2.0000      -0.654595       -17.8124
 159   2.0000      -0.650324       -17.6962
 160   2.0000      -0.644026       -17.5248
 161   2.0000      -0.641849       -17.4656
 162   2.0000      -0.634865       -17.2756
 163   2.0000      -0.632591       -17.2137
 164   2.0000      -0.628433       -17.1005
 165   2.0000      -0.624750       -17.0003
 166   2.0000      -0.621767       -16.9191
 167   2.0000      -0.618129       -16.8201
 168   2.0000      -0.613033       -16.6815
 169   2.0000      -0.607890       -16.5415
 170   2.0000      -0.602971       -16.4077
 171   2.0000      -0.597255       -16.2521
 172   2.0000      -0.590789       -16.0762
 173   2.0000      -0.584861       -15.9149
 174   2.0000      -0.579981       -15.7821
 175   2.0000      -0.568682       -15.4746
 176   2.0000      -0.567167       -15.4334
 177   2.0000      -0.563520       -15.3342
 178   2.0000      -0.561334       -15.2747
 179   2.0000      -0.557237       -15.1632
 180   2.0000      -0.556618       -15.1463
 181   2.0000      -0.551307       -15.0018
 182   2.0000      -0.547943       -14.9103
 183   2.0000      -0.544779       -14.8242
 184   2.0000      -0.541702       -14.7405
 185   2.0000      -0.539035       -14.6679
 186   2.0000      -0.537236       -14.6189
 187   2.0000      -0.534779       -14.5521
 188   2.0000      -0.526856       -14.3365
 189   2.0000      -0.523445       -14.2437
 190   2.0000      -0.515974       -14.0404
 191   2.0000      -0.514320       -13.9954
 192   2.0000      -0.511052       -13.9064
 193   2.0000      -0.506004       -13.7691
 194   2.0000      -0.505766       -13.7626
 195   2.0000      -0.505084       -13.7440
 196   2.0000      -0.502803       -13.6820
 197   2.0000      -0.501436       -13.6448
 198   2.0000      -0.500769       -13.6266
 199   2.0000      -0.497605       -13.5405
 200   2.0000      -0.495671       -13.4879
 201   2.0000      -0.494609       -13.4590
 202   2.0000      -0.493306       -13.4236
 203   2.0000      -0.492403       -13.3990
 204   2.0000      -0.490751       -13.3540
 205   2.0000      -0.484559       -13.1855
 206   2.0000      -0.479390       -13.0449
 207   2.0000      -0.470567       -12.8048
 208   2.0000      -0.469262       -12.7693
 209   2.0000      -0.465947       -12.6791
 210   2.0000      -0.460576       -12.5329
 211   2.0000      -0.459124       -12.4934
 212   2.0000      -0.455816       -12.4034
 213   2.0000      -0.454795       -12.3756
 214   2.0000      -0.452980       -12.3262
 215   2.0000      -0.451994       -12.2994
 216   2.0000      -0.448998       -12.2178
 217   2.0000      -0.447135       -12.1672
 218   2.0000      -0.444915       -12.1068
 219   2.0000      -0.442813       -12.0496
 220   2.0000      -0.441630       -12.0174
 221   2.0000      -0.439134       -11.9494
 222   2.0000      -0.435686       -11.8556
 223   2.0000      -0.432837       -11.7781
 224   2.0000      -0.429394       -11.6844
 225   2.0000      -0.428819       -11.6688
 226   2.0000      -0.423143       -11.5143
 227   2.0000      -0.422048       -11.4845
 228   2.0000      -0.421190       -11.4612
 229   2.0000      -0.419568       -11.4170
 230   2.0000      -0.418336       -11.3835
 231   2.0000      -0.416109       -11.3229
 232   2.0000      -0.415574       -11.3083
 233   2.0000      -0.413908       -11.2630
 234   2.0000      -0.413021       -11.2389
 235   2.0000      -0.409405       -11.1405
 236   2.0000      -0.408375       -11.1124
 237   2.0000      -0.407280       -11.0826
 238   2.0000      -0.400589       -10.9006
 239   2.0000      -0.400177       -10.8894
 240   2.0000      -0.399256       -10.8643
 241   2.0000      -0.397704       -10.8221
 242   2.0000      -0.396771       -10.7967
 243   2.0000      -0.394673       -10.7396
 244   2.0000      -0.391756       -10.6602
 245   2.0000      -0.391206       -10.6453
 246   2.0000      -0.384964       -10.4754
 247   2.0000      -0.378961       -10.3121
 248   2.0000      -0.374520       -10.1912
 249   2.0000      -0.364144        -9.9089
 250   2.0000      -0.346039        -9.4162
 251   2.0000      -0.343911        -9.3583
 252   2.0000      -0.341404        -9.2901
 253   2.0000      -0.336485        -9.1562
 254   2.0000      -0.323967        -8.8156
 255   2.0000      -0.319268        -8.6877
 256   2.0000      -0.316337        -8.6080
 257   2.0000      -0.311853        -8.4860
 258   2.0000      -0.310181        -8.4405
 259   2.0000      -0.286809        -7.8045
 260   2.0000      -0.279160        -7.5963
 261   2.0000      -0.273763        -7.4495
 262   2.0000      -0.272249        -7.4083
 263   2.0000      -0.265565        -7.2264
 264   2.0000      -0.257131        -6.9969
 265   2.0000      -0.244186        -6.6446
 266   2.0000      -0.235086        -6.3970
 267   2.0000      -0.212183        -5.7738
 268   2.0000      -0.204263        -5.5583
 269   0.0000      -0.067604        -1.8396
 270   0.0000      -0.057744        -1.5713
 271   0.0000      -0.036316        -0.9882
 272   0.0000      -0.026334        -0.7166
 273   0.0000      -0.022531        -0.6131

MULLIKEN ATOMIC CHARGES
-----------------------
   0 C :   -0.103948
   1 C :    0.030019
   2 C :    0.010874
   3 C :    0.066784
   4 C :   -0.149770
   5 S :    0.128367
   6 C :   -0.112005
   7 C :    0.046956
   8 C :    0.007264
   9 C :   -0.069560
  10 S :    0.121892
  11 C :    0.078128
  12 C :   -0.017008
  13 C :   -0.037275
  14 C :   -0.017260
  15 C :   -0.059143
  16 C :    0.062031
  17 C :    0.065137
  18 C :   -0.121099
  19 S :    0.100359
  20 C :   -0.116492
  21 C :    0.055594
  22 C :   -0.009303
  23 C :   -0.069468
  24 S :    0.121351
  25 C :    0.084775
  26 C :   -0.010744
  27 C :    0.042453
  28 C :   -0.051399
  29 C :   -0.046343
  30 C :    0.120066
  31 C :   -0.049387
  32 S :    0.095271
  33 C :   -0.056475
  34 C :    0.121742
  35 C :   -0.037994
  36 C :   -0.060907
  37 S :    0.083324
  38 C :   -0.044300
  39 C :   -0.053594
  40 C :   -0.013176
  41 C :   -0.097429
  42 C :    0.050849
  43 C :    0.060363
  44 C :   -0.130292
  45 S :    0.121186
  46 C :   -0.108630
  47 C :    0.048240
  48 C :    0.006933
  49 C :   -0.071433
  50 S :    0.122866
  51 C :    0.077612
  52 C :   -0.008778
  53 C :    0.019560
  54 C :   -0.078908
  55 C :   -0.038927
  56 C :    0.055407
  57 C :    0.065724
  58 C :   -0.132501
  59 S :    0.116683
  60 C :   -0.123041
  61 C :    0.059935
  62 C :   -0.005835
  63 C :   -0.073154
  64 S :    0.111284
  65 C :    0.049354
  66 C :   -0.013119
  67 C :   -0.030803
  68 H :    0.042362
  69 H :   -0.012569
  70 H :    0.035388
  71 H :   -0.018244
  72 H :    0.023564
  73 H :   -0.009046
  74 H :   -0.018284
  75 H :   -0.030774
  76 H :    0.032068
  77 H :   -0.013070
  78 H :    0.022265
  79 H :   -0.036357
  80 H :   -0.042228
  81 H :   -0.034857
  82 H :   -0.035067
  83 H :   -0.038099
  84 H :   -0.012868
  85 H :   -0.002967
  86 H :    0.033056
  87 H :   -0.018619
  88 H :    0.024634
  89 H :   -0.023922
  90 H :   -0.015845
  91 H :   -0.030887
  92 H :    0.025848
  93 H :   -0.017961
  94 H :    0.019048
  95 H :   -0.037536
  96 H :   -0.007880
  97 H :    0.009966
Sum of atomic charges:   -0.0000000

LOEWDIN ATOMIC CHARGES
----------------------
   0 C :   -0.184482
   1 C :   -0.029942
   2 C :   -0.023169
   3 C :   -0.043357
   4 C :   -0.145471
   5 S :    0.450701
   6 C :   -0.208521
   7 C :   -0.039293
   8 C :   -0.066002
   9 C :   -0.166832
  10 S :    0.416078
  11 C :   -0.058378
  12 C :   -0.021551
  13 C :   -0.059424
  14 C :   -0.155476
  15 C :   -0.032135
  16 C :   -0.017749
  17 C :   -0.051941
  18 C :   -0.141761
  19 S :    0.442778
  20 C :   -0.201910
  21 C :   -0.037779
  22 C :   -0.066441
  23 C :   -0.169449
  24 S :    0.418239
  25 C :   -0.055584
  26 C :    0.000284
  27 C :   -0.066810
  28 C :   -0.139480
  29 C :   -0.072129
  30 C :   -0.038339
  31 C :   -0.156079
  32 S :    0.382763
  33 C :   -0.036528
  34 C :   -0.049241
  35 C :   -0.149757
  36 C :   -0.044707
  37 S :    0.387240
  38 C :   -0.169149
  39 C :   -0.061521
  40 C :   -0.176967
  41 C :   -0.031300
  42 C :   -0.022326
  43 C :   -0.047317
  44 C :   -0.141955
  45 S :    0.449281
  46 C :   -0.205181
  47 C :   -0.040597
  48 C :   -0.065424
  49 C :   -0.167480
  50 S :    0.416561
  51 C :   -0.052371
  52 C :   -0.008426
  53 C :   -0.061606
  54 C :   -0.163516
  55 C :   -0.027341
  56 C :   -0.020028
  57 C :   -0.051923
  58 C :   -0.147784
  59 S :    0.436947
  60 C :   -0.204615
  61 C :   -0.034907
  62 C :   -0.065806
  63 C :   -0.171262
  64 S :    0.408514
  65 C :   -0.060059
  66 C :   -0.021396
  67 C :   -0.067750
  68 H :    0.030330
  69 H :    0.037220
  70 H :    0.034823
  71 H :    0.029371
  72 H :    0.022267
  73 H :    0.019911
  74 H :    0.028590
  75 H :    0.032585
  76 H :    0.034645
  77 H :    0.028452
  78 H :    0.022211
  79 H :    0.024861
  80 H :    0.022720
  81 H :    0.023854
  82 H :    0.029439
  83 H :    0.028027
  84 H :    0.024578
  85 H :    0.027196
  86 H :    0.035195
  87 H :    0.029153
  88 H :    0.022336
  89 H :    0.027137
  90 H :    0.021163
  91 H :    0.031987
  92 H :    0.032291
  93 H :    0.027820
  94 H :    0.020757
  95 H :    0.023902
  96 H :    0.015073
  97 H :    0.020445

  Mayer bond orders larger than 0.100000
B(  0-C ,  1-C ) :   1.6549 B(  0-C ,  5-S ) :   1.1018 B(  0-C , 68-H ) :   0.9407
B(  1-C ,  2-C ) :   1.1981 B(  1-C , 69-H ) :   0.9697 B(  2-C ,  3-C ) :   1.0563
B(  2-C , 11-C ) :   1.4379 B(  3-C ,  4-C ) :   1.6043 B(  3-C ,  6-C ) :   1.1834
B(  4-C ,  5-S ) :   1.1416 B(  4-C , 70-H ) :   0.9419 B(  6-C ,  7-C ) :   1.4553
B(  6-C , 10-S ) :   1.0685 B(  7-C ,  8-C ) :   1.2229 B(  7-C , 11-C ) :   1.0960
B(  8-C ,  9-C ) :   1.5830 B(  8-C , 71-H ) :   0.9966 B(  9-C , 10-S ) :   1.1583
B(  9-C , 72-H ) :   0.9662 B( 11-C , 12-C ) :   1.1583 B( 12-C , 13-C ) :   1.6118
B( 12-C , 73-H ) :   0.9480 B( 13-C , 14-C ) :   1.1500 B( 13-C , 74-H ) :   0.9878
B( 14-C , 15-C ) :   1.5233 B( 14-C , 19-S ) :   1.0394 B( 15-C , 16-C ) :   1.2062
B( 15-C , 75-H ) :   0.9769 B( 16-C , 17-C ) :   1.0516 B( 16-C , 25-C ) :   1.3834
B( 17-C , 18-C ) :   1.6127 B( 17-C , 20-C ) :   1.1747 B( 18-C , 19-S ) :   1.1343
B( 18-C , 76-H ) :   0.9411 B( 20-C , 21-C ) :   1.4572 B( 20-C , 24-S ) :   1.0761
B( 21-C , 22-C ) :   1.2114 B( 21-C , 25-C ) :   1.0723 B( 22-C , 23-C ) :   1.5853
B( 22-C , 77-H ) :   1.0007 B( 23-C , 24-S ) :   1.1545 B( 23-C , 78-H ) :   0.9652
B( 25-C , 26-C ) :   1.1838 B( 26-C , 27-C ) :   1.6527 B( 26-C , 79-H ) :   0.9569
B( 27-C , 28-C ) :   1.1070 B( 27-C , 80-H ) :   0.9650 B( 28-C , 29-C ) :   1.5603
B( 28-C , 32-S ) :   1.0696 B( 29-C , 30-C ) :   1.1671 B( 29-C , 81-H ) :   0.9943
B( 30-C , 31-C ) :   1.2772 B( 30-C , 36-C ) :   1.3080 B( 31-C , 32-S ) :   1.0400
B( 31-C , 33-C ) :   1.3914 B( 33-C , 34-C ) :   1.3168 B( 33-C , 82-H ) :   1.0010
B( 34-C , 35-C ) :   1.2837 B( 34-C , 39-C ) :   1.1567 B( 35-C , 36-C ) :   1.3920
B( 35-C , 37-S ) :   1.0365 B( 36-C , 83-H ) :   1.0001 B( 37-S , 38-C ) :   1.0684
B( 38-C , 39-C ) :   1.5711 B( 38-C , 40-C ) :   1.1492 B( 39-C , 84-H ) :   0.9875
B( 40-C , 41-C ) :   1.5463 B( 40-C , 45-S ) :   1.0497 B( 41-C , 42-C ) :   1.2219
B( 41-C , 85-H ) :   0.9606 B( 42-C , 43-C ) :   1.0536 B( 42-C , 51-C ) :   1.4032
B( 43-C , 44-C ) :   1.6141 B( 43-C , 46-C ) :   1.1730 B( 44-C , 45-S ) :   1.1330
B( 44-C , 86-H ) :   0.9411 B( 46-C , 47-C ) :   1.4500 B( 46-C , 50-S ) :   1.0716
B( 47-C , 48-C ) :   1.2175 B( 47-C , 51-C ) :   1.0964 B( 48-C , 49-C ) :   1.5854
B( 48-C , 87-H ) :   0.9975 B( 49-C , 50-S ) :   1.1544 B( 49-C , 88-H ) :   0.9661
B( 51-C , 52-C ) :   1.1593 B( 52-C , 53-C ) :   1.6687 B( 52-C , 89-H ) :   0.9526
B( 53-C , 54-C ) :   1.0962 B( 53-C , 90-H ) :   0.9587 B( 54-C , 55-C ) :   1.5642
B( 54-C , 59-S ) :   1.0472 B( 55-C , 56-C ) :   1.2231 B( 55-C , 91-H ) :   0.9626
B( 56-C , 57-C ) :   1.0406 B( 56-C , 65-C ) :   1.4262 B( 57-C , 58-C ) :   1.6149
B( 57-C , 60-C ) :   1.1884 B( 58-C , 59-S ) :   1.1337 B( 58-C , 92-H ) :   0.9400
B( 60-C , 61-C ) :   1.4473 B( 60-C , 64-S ) :   1.0689 B( 61-C , 62-C ) :   1.2049
B( 61-C , 65-C ) :   1.0912 B( 62-C , 63-C ) :   1.5906 B( 62-C , 93-H ) :   1.0008
B( 63-C , 64-S ) :   1.1507 B( 63-C , 94-H ) :   0.9650 B( 65-C , 66-C ) :   1.1428
B( 66-C , 67-C ) :   1.9074 B( 66-C , 95-H ) :   0.9501 B( 67-C , 96-H ) :   0.9568
B( 67-C , 97-H ) :   0.9428

-----------------------------------------------------------------------------
         ABSORPTION SPECTRUM VIA TRANSITION ELECTRIC DIPOLE MOMENTS
-----------------------------------------------------------------------------
State   Energy  Wavelength   fosc         T2         TX        TY        TZ
        (cm-1)    (nm)                  (au**2)     (au)      (au)      (au)
-----------------------------------------------------------------------------
   0   16163.9    618.7   0.635404633  12.94133   2.73526  -1.72159  -1.57981
   1   18022.2    554.9   1.414263353  25.83434   1.58943   4.57153  -1.55215
   2   21003.3    476.1   0.022879051   0.35861  -0.06229   0.58379   0.11799
   3   21303.6    469.4   0.053924440   0.83331   0.46625   0.02651  -0.78436
   4   21540.5    464.2   0.089164263   1.36273   0.20162   0.96647  -0.62292
   5   22217.1    450.1   0.689598896  10.21847  -1.65693   1.57746   2.23264
   6   23062.7    433.6   0.070283422   1.00327  -0.53105  -0.13434   0.83858
   7   24041.5    415.9   0.165885510   2.27155   1.23805   0.76585  -0.39019
   8   24527.4    407.7   0.148641772   1.99510  -0.06551  -1.39105   0.23621
   9   24955.7    400.7   0.040787593   0.53806   0.12412   0.68939   0.21772
  10   26955.8    371.0   0.481898882   5.88544   1.26108  -0.86963  -1.88118
  11   27011.0    370.2   0.092919555   1.13251  -0.48623   0.18752   0.92786
  12   28320.6    353.1   0.513762599   5.97221   0.56778  -2.24589  -0.77833
  13   28521.0    350.6   0.115660374   1.33504   0.76509  -0.42984  -0.75161
  14   29013.6    344.7   0.361891271   4.10632   1.20556   0.84606  -1.39181
  15   29531.1    338.6   0.010349157   0.11537  -0.28293  -0.14670   0.11749
  16   29746.7    336.2   0.068981962   0.76343   0.24703   0.80820  -0.22187
  17   30387.2    329.1   0.015179070   0.16445   0.14275  -0.17935  -0.33452
  18   30647.4    326.3   0.035676151   0.38323  -0.25446   0.50617  -0.24954
  19   30831.1    324.3   0.023466387   0.25057  -0.39732  -0.28872  -0.09669
  20   31030.4    322.3   0.107190582   1.13722   0.22107  -1.00138  -0.29255
  21   31134.6    321.2   0.079619867   0.84189  -0.44539  -0.73049   0.33151
  22   31838.4    314.1   0.017781103   0.18386  -0.16088  -0.24789  -0.31069
  23   32078.8    311.7   0.017637609   0.18101   0.13960  -0.36642   0.16509
  24   32590.7    306.8   0.441775625   4.46256   0.48113   1.92032  -0.73719
  25   32887.4    304.1   0.071836580   0.71910   0.78439   0.06307  -0.31601
  26   33182.3    301.4   0.074854517   0.74266   0.43612  -0.56017  -0.48853
  27   33557.1    298.0   0.073259285   0.71871   0.56119   0.63234  -0.06263
  28   34031.1    293.8   0.203585727   1.96946  -0.80745   0.39524   1.07762
  29   34570.4    289.3   0.003813093   0.03631   0.07974  -0.16294   0.05834
  30   34926.1    286.3   0.059488018   0.56073  -0.57051   0.28609   0.39166
  31   35318.9    283.1   0.102382831   0.95432  -0.29987   0.89824  -0.23993
  32   35449.7    282.1   0.245982853   2.28438   0.66903   1.30219  -0.37559
  33   35663.3    280.4   0.054491799   0.50302  -0.01034   0.69859  -0.12198
  34   35887.0    278.7   0.089408335   0.82019  -0.20919   0.71335   0.51727
  35   36213.9    276.1   0.482683210   4.38795   0.04523  -1.98624   0.66389
  36   36522.0    273.8   0.047624685   0.42929   0.08582   0.62657  -0.17128
  37   36702.7    272.5   0.044263146   0.39703   0.43426   0.41478   0.19080
  38   37105.1    269.5   0.140817169   1.24939   0.56119  -0.26285  -0.93025
  39   37191.6    268.9   0.050597407   0.44788  -0.61613  -0.12541   0.22921
  40   37473.1    266.9   0.122023326   1.07201   0.45443   0.11944  -0.92262
  41   37577.3    266.1   0.033485007   0.29336   0.38770   0.34113  -0.16334
  42   38036.1    262.9   0.065708261   0.56872   0.60194   0.34410  -0.29662
  43   38236.2    261.5   0.087692078   0.75502   0.39698  -0.77191  -0.03981
  44   38478.2    259.9   0.228414497   1.95427   1.26107   0.43283  -0.42028
  45   38566.1    259.3   0.103848803   0.88648   0.32321  -0.88431   0.00435
  46   38673.1    258.6   0.136235804   1.15973  -0.86130   0.38245   0.52118
  47   39072.7    255.9   0.296816274   2.50086  -0.97429   0.67166   1.04905
  48   39563.4    252.8   0.031811355   0.26471  -0.34415  -0.31988   0.20964
  49   39788.9    251.3   0.016046574   0.13277  -0.22088   0.28878   0.02420
  50   40105.7    249.3   0.046755519   0.38380   0.10028   0.59186   0.15312
  51   40175.9    248.9   0.064337373   0.52720   0.19039  -0.65377  -0.25205

FINAL SINGLE POINT ENERGY     -6205.928344440863

DIPOLE MOMENT
-------------
                                X             Y             Z
Electronic contribution:    -12.03252      21.14785      -2.07100
Nuclear contribution   :     11.03375     -20.73766       2.57606
                        -----------------------------------------
Total Dipole Moment    :     -0.99877       0.41019       0.50506
                        -----------------------------------------
Magnitude (a.u.)       :      1.19201
Magnitude (Debye)      :      3.02985

Rotational constants in cm-1:     0.000732     0.000303     0.000221
Rotational constants in MHz :    21.959328     9.072407     6.624900

                             ****ORCA TERMINATED NORMALLY****
TOTAL RUN TIME: 0 days 0 hours 8 minutes 58 seconds 366 msec
