                         Program Version 4.2.0 -  RELEASE  -
|  1> # ORCA input file
|  2> # SCF done       -174.933743428146          0.000553182185
|  3> ! CAM-B3LYP def2-SVP def2/J RIJCOSX Grid4 TightSCF
|  4> %maxcore 5000
|  5> %tddft
|  6>     Mode sTDDFT
|  7>     Ethresh 5.0
|  8>     maxcore 5000
|  9> end
| 10>
| 11> %pal
| 12>   nprocs 6
| 13>   end
| 14> * xyz 0 1
| 15>    C       -6.46373         0.97752         3.21500
| 16>    C       -6.29696         2.33581         3.07364
| 17>    C       -5.39475         3.10672         3.83486
| 18>    N       -4.67724         3.79308         4.41176
| 19>    C       -7.02341         3.16551         2.20057
| 20>    N       -7.59560         3.91297         1.53908
| 21>    C       -5.77413         0.14948         4.19870
| 22>    C       -6.29664        -1.16434         4.13134
| 23>    C       -5.86842        -2.17622         4.95351
| 24>    C       -4.86108        -1.88273         5.87964
| 25>    C       -4.33790        -0.56942         5.93458
| 26>    C       -4.78024         0.45735         5.10951
| 27>    S       -3.10517        -0.42322         7.15124
| 28>    C       -3.30788        -2.10493         7.56338
| 29>    C       -4.24875        -2.74520         6.82908
| 30>   Br       -2.26012        -2.85725         8.92494
| 31>    C       -7.35196        -1.22113         3.09564
| 32>    O       -8.12038        -2.13942         2.91618
| 33>    C       -7.34416         0.11633         2.45252
| 34>    C       -8.06516         0.51703         1.35671
| 35>    C       -8.76637        -0.29751         0.43800
| 36>    C       -9.70338         0.21583        -0.45074
| 37>    O      -10.40434        -0.58744        -1.30483
| 38>    C      -10.16078        -1.92890        -1.21412
| 39>    C       -9.17790        -2.44708        -0.32508
| 40>    C       -9.08584        -3.79824        -0.37402
| 41>    S      -10.20050        -4.45599        -1.51400
| 42>    C      -10.79697        -2.89385        -1.92453
| 43>    O       -8.42614        -1.62863         0.45354
| 44>    C      -10.05850         1.59872        -0.53829
| 45>    C      -11.01537         2.04748        -1.38650
| 46>    C      -11.45126         3.39831        -1.57534
| 47>    C      -11.32644         4.45930        -0.75477
| 48>    C      -10.74237         4.44479         0.61530
| 49>    C      -11.86719         5.79738        -1.18833
| 50>    N      -12.84084         6.27060        -0.23058
| 51>    C      -13.21832         7.58438        -0.16341
| 52>    C      -14.32251         8.01203         0.47135
| 53>    C      -14.73274         9.37867         0.62337
| 54>    N      -14.15796        10.41475        -0.07892
| 55>    C      -14.75523        11.57479         0.23591
| 56>    C      -15.76166        11.31979         1.16595
| 57>    C      -15.73483         9.91011         1.41287
| 58>    C      -16.56576         9.16114         2.39576
| 59>    C      -16.57340        12.34922         1.71152
| 60>    C      -17.68189        12.21006         2.48799
| 61>    C      -18.47604        13.27416         2.96531
| 62>    C      -18.21001        14.61097         3.10670
| 63>    C      -16.99988        15.39568         3.11965
| 64>    C      -15.74570        14.98191         3.50022
| 65>    C      -14.62248        15.82742         3.56349
| 66>    N      -13.66989        16.46808         3.60739
| 67>    C      -15.45271        13.67704         3.93877
| 68>    N      -15.16997        12.63620         4.33267
| 69>    C      -17.38170        16.79184         2.90810
| 70>    C      -18.79170        16.89316         2.99330
| 71>    C      -19.35886        15.54382         3.20101
| 72>    O      -20.52333        15.25351         3.37024
| 73>    C      -19.45566        18.08827         2.86911
| 74>    C      -18.69206        19.23722         2.63505
| 75>    C      -17.28613        19.12335         2.53628
| 76>    C      -16.61287        17.91485         2.67332
| 77>    S      -16.54078        20.66324         2.22728
| 78>    C      -18.10768        21.42831         2.24107
| 79>    C      -19.13657        20.57743         2.46248
| 80>   Br      -18.23689        23.27804         1.95354
| 81>    H       -6.29480        -3.16463         4.88419
| 82>    H       -4.35201         1.44184         5.19483
| 83>    H       -4.50257        -3.78227         6.95182
| 84>    H       -8.06525         1.57048         1.13324
| 85>    H       -8.43682        -4.43246         0.19128
| 86>    H      -11.56909        -2.77674        -2.65562
| 87>    H       -9.50670         2.29145         0.06788
| 88>    H      -11.50193         1.31897        -2.02207
| 89>    H      -11.97933         3.55730        -2.50865
| 90>    H      -10.98188         3.52069         1.13684
| 91>    H      -11.12491         5.28680         1.18791
| 92>    H       -9.65712         4.53841         0.57406
| 93>    H      -12.28862         5.72936        -2.20366
| 94>    H      -11.04384         6.52078        -1.21085
| 95>    H      -13.55315         5.60002         0.02053
| 96>    H      -12.51041         8.26781        -0.61252
| 97>    H      -14.97213         7.27751         0.92432
| 98>    H      -13.39923        10.30882        -0.73083
| 99>    H      -14.45871        12.50763        -0.20260
|100>    H      -17.60159         9.08626         2.06211
|101>    H      -16.54419         9.66726         3.35937
|102>    H      -16.17868         8.15493         2.53063
|103>    H      -16.28874        13.34908         1.40321
|104>    H      -18.06020        11.22139         2.69076
|105>    H      -19.50647        13.01958         3.19991
|106>    H      -20.53032        18.13702         2.94810
|107>    H      -15.53964        17.87709         2.58600
|108>    H      -20.16746        20.87869         2.50180
|109> *
|110>
|111>                          ****END OF INPUT****

CARTESIAN COORDINATES (ANGSTROEM)
---------------------------------
  C     -6.463730    0.977520    3.215000
  C     -6.296960    2.335810    3.073640
  C     -5.394750    3.106720    3.834860
  N     -4.677240    3.793080    4.411760
  C     -7.023410    3.165510    2.200570
  N     -7.595600    3.912970    1.539080
  C     -5.774130    0.149480    4.198700
  C     -6.296640   -1.164340    4.131340
  C     -5.868420   -2.176220    4.953510
  C     -4.861080   -1.882730    5.879640
  C     -4.337900   -0.569420    5.934580
  C     -4.780240    0.457350    5.109510
  S     -3.105170   -0.423220    7.151240
  C     -3.307880   -2.104930    7.563380
  C     -4.248750   -2.745200    6.829080
  Br    -2.260120   -2.857250    8.924940
  C     -7.351960   -1.221130    3.095640
  O     -8.120380   -2.139420    2.916180
  C     -7.344160    0.116330    2.452520
  C     -8.065160    0.517030    1.356710
  C     -8.766370   -0.297510    0.438000
  C     -9.703380    0.215830   -0.450740
  O    -10.404340   -0.587440   -1.304830
  C    -10.160780   -1.928900   -1.214120
  C     -9.177900   -2.447080   -0.325080
  C     -9.085840   -3.798240   -0.374020
  S    -10.200500   -4.455990   -1.514000
  C    -10.796970   -2.893850   -1.924530
  O     -8.426140   -1.628630    0.453540
  C    -10.058500    1.598720   -0.538290
  C    -11.015370    2.047480   -1.386500
  C    -11.451260    3.398310   -1.575340
  C    -11.326440    4.459300   -0.754770
  C    -10.742370    4.444790    0.615300
  C    -11.867190    5.797380   -1.188330
  N    -12.840840    6.270600   -0.230580
  C    -13.218320    7.584380   -0.163410
  C    -14.322510    8.012030    0.471350
  C    -14.732740    9.378670    0.623370
  N    -14.157960   10.414750   -0.078920
  C    -14.755230   11.574790    0.235910
  C    -15.761660   11.319790    1.165950
  C    -15.734830    9.910110    1.412870
  C    -16.565760    9.161140    2.395760
  C    -16.573400   12.349220    1.711520
  C    -17.681890   12.210060    2.487990
  C    -18.476040   13.274160    2.965310
  C    -18.210010   14.610970    3.106700
  C    -16.999880   15.395680    3.119650
  C    -15.745700   14.981910    3.500220
  C    -14.622480   15.827420    3.563490
  N    -13.669890   16.468080    3.607390
  C    -15.452710   13.677040    3.938770
  N    -15.169970   12.636200    4.332670
  C    -17.381700   16.791840    2.908100
  C    -18.791700   16.893160    2.993300
  C    -19.358860   15.543820    3.201010
  O    -20.523330   15.253510    3.370240
  C    -19.455660   18.088270    2.869110
  C    -18.692060   19.237220    2.635050
  C    -17.286130   19.123350    2.536280
  C    -16.612870   17.914850    2.673320
  S    -16.540780   20.663240    2.227280
  C    -18.107680   21.428310    2.241070
  C    -19.136570   20.577430    2.462480
  Br   -18.236890   23.278040    1.953540
  H     -6.294800   -3.164630    4.884190
  H     -4.352010    1.441840    5.194830
  H     -4.502570   -3.782270    6.951820
  H     -8.065250    1.570480    1.133240
  H     -8.436820   -4.432460    0.191280
  H    -11.569090   -2.776740   -2.655620
  H     -9.506700    2.291450    0.067880
  H    -11.501930    1.318970   -2.022070
  H    -11.979330    3.557300   -2.508650
  H    -10.981880    3.520690    1.136840
  H    -11.124910    5.286800    1.187910
  H     -9.657120    4.538410    0.574060
  H    -12.288620    5.729360   -2.203660
  H    -11.043840    6.520780   -1.210850
  H    -13.553150    5.600020    0.020530
  H    -12.510410    8.267810   -0.612520
  H    -14.972130    7.277510    0.924320
  H    -13.399230   10.308820   -0.730830
  H    -14.458710   12.507630   -0.202600
  H    -17.601590    9.086260    2.062110
  H    -16.544190    9.667260    3.359370
  H    -16.178680    8.154930    2.530630
  H    -16.288740   13.349080    1.403210
  H    -18.060200   11.221390    2.690760
  H    -19.506470   13.019580    3.199910
  H    -20.530320   18.137020    2.948100
  H    -15.539640   17.877090    2.586000
  H    -20.167460   20.878690    2.501800

 Total Charge           Charge          ....    0
 Multiplicity           Mult            ....    1
 Number of Electrons    NEL             ....  526
 Basis Dimension        Dim             .... 1112

ORBITAL ENERGIES
----------------

  NO   OCC          E(Eh)            E(eV)
   0   2.0000    -482.885056    -13139.9704
   1   2.0000    -482.877981    -13139.7779
   2   2.0000     -88.974582     -2421.1215
   3   2.0000     -88.965922     -2420.8858
   4   2.0000     -88.964460     -2420.8460
   5   2.0000     -62.562802     -1702.4204
   6   2.0000     -62.555677     -1702.2265
   7   2.0000     -56.396749     -1534.6336
   8   2.0000     -56.394034     -1534.5597
   9   2.0000     -56.394002     -1534.5588
  10   2.0000     -56.389620     -1534.4396
  11   2.0000     -56.386924     -1534.3662
  12   2.0000     -56.386884     -1534.3651
  13   2.0000     -19.298624      -525.1422
  14   2.0000     -19.275338      -524.5086
  15   2.0000     -19.207951      -522.6749
  16   2.0000     -19.197218      -522.3829
  17   2.0000     -14.464045      -393.5867
  18   2.0000     -14.428433      -392.6176
  19   2.0000     -14.424925      -392.5222
  20   2.0000     -14.413718      -392.2172
  21   2.0000     -14.401682      -391.8897
  22   2.0000     -14.400029      -391.8447
  23   2.0000     -10.379967      -282.4533
  24   2.0000     -10.361293      -281.9451
  25   2.0000     -10.360089      -281.9124
  26   2.0000     -10.358346      -281.8649
  27   2.0000     -10.349652      -281.6283
  28   2.0000     -10.349281      -281.6182
  29   2.0000     -10.348302      -281.5916
  30   2.0000     -10.345520      -281.5159
  31   2.0000     -10.343272      -281.4547
  32   2.0000     -10.340274      -281.3732
  33   2.0000     -10.329793      -281.0879
  34   2.0000     -10.326975      -281.0113
  35   2.0000     -10.324311      -280.9388
  36   2.0000     -10.323987      -280.9300
  37   2.0000     -10.320198      -280.8269
  38   2.0000     -10.317509      -280.7537
  39   2.0000     -10.315936      -280.7109
  40   2.0000     -10.314847      -280.6813
  41   2.0000     -10.312096      -280.6064
  42   2.0000     -10.306585      -280.4564
  43   2.0000     -10.306449      -280.4527
  44   2.0000     -10.305592      -280.4294
  45   2.0000     -10.304593      -280.4022
  46   2.0000     -10.304203      -280.3916
  47   2.0000     -10.302768      -280.3526
  48   2.0000     -10.301354      -280.3141
  49   2.0000     -10.298514      -280.2368
  50   2.0000     -10.298304      -280.2311
  51   2.0000     -10.297890      -280.2198
  52   2.0000     -10.297628      -280.2127
  53   2.0000     -10.297123      -280.1990
  54   2.0000     -10.296210      -280.1741
  55   2.0000     -10.296122      -280.1717
  56   2.0000     -10.295858      -280.1645
  57   2.0000     -10.295776      -280.1623
  58   2.0000     -10.293906      -280.1114
  59   2.0000     -10.293326      -280.0956
  60   2.0000     -10.293234      -280.0931
  61   2.0000     -10.292781      -280.0808
  62   2.0000     -10.289696      -279.9968
  63   2.0000     -10.289386      -279.9884
  64   2.0000     -10.287599      -279.9398
  65   2.0000     -10.279220      -279.7118
  66   2.0000     -10.278562      -279.6939
  67   2.0000     -10.274020      -279.5703
  68   2.0000     -10.264447      -279.3098
  69   2.0000     -10.259998      -279.1887
  70   2.0000     -10.259303      -279.1698
  71   2.0000     -10.258717      -279.1539
  72   2.0000     -10.255221      -279.0588
  73   2.0000     -10.255042      -279.0539
  74   2.0000      -8.792254      -239.2494
  75   2.0000      -8.785082      -239.0542
  76   2.0000      -8.070495      -219.6093
  77   2.0000      -8.061944      -219.3767
  78   2.0000      -8.060222      -219.3298
  79   2.0000      -6.628561      -180.3723
  80   2.0000      -6.621339      -180.1758
  81   2.0000      -6.613986      -179.9757
  82   2.0000      -6.613783      -179.9702
  83   2.0000      -6.606822      -179.7808
  84   2.0000      -6.606663      -179.7764
  85   2.0000      -6.040210      -164.3625
  86   2.0000      -6.035905      -164.2453
  87   2.0000      -6.031723      -164.1315
  88   2.0000      -6.031661      -164.1298
  89   2.0000      -6.029703      -164.0766
  90   2.0000      -6.027370      -164.0131
  91   2.0000      -6.025527      -163.9629
  92   2.0000      -6.023137      -163.8979
  93   2.0000      -6.021959      -163.8658
  94   2.0000      -2.744408       -74.6791
  95   2.0000      -2.740357       -74.5689
  96   2.0000      -2.740197       -74.5646
  97   2.0000      -2.737213       -74.4834
  98   2.0000      -2.733124       -74.3721
  99   2.0000      -2.733037       -74.3697
 100   2.0000      -2.728611       -74.2493
 101   2.0000      -2.728597       -74.2489
 102   2.0000      -2.721480       -74.0552
 103   2.0000      -2.721468       -74.0549
 104   2.0000      -1.218970       -33.1698
 105   2.0000      -1.177815       -32.0500
 106   2.0000      -1.122700       -30.5502
 107   2.0000      -1.111960       -30.2580
 108   2.0000      -1.078301       -29.3421
 109   2.0000      -1.031780       -28.0762
 110   2.0000      -1.023792       -27.8588
 111   2.0000      -1.015882       -27.6435
 112   2.0000      -1.010817       -27.5057
 113   2.0000      -0.999904       -27.2088
 114   2.0000      -0.998032       -27.1578
 115   2.0000      -0.995735       -27.0953
 116   2.0000      -0.988423       -26.8964
 117   2.0000      -0.979711       -26.6593
 118   2.0000      -0.975435       -26.5429
 119   2.0000      -0.946069       -25.7439
 120   2.0000      -0.937884       -25.5211
 121   2.0000      -0.931720       -25.3534
 122   2.0000      -0.920936       -25.0599
 123   2.0000      -0.912513       -24.8307
 124   2.0000      -0.908024       -24.7086
 125   2.0000      -0.897719       -24.4282
 126   2.0000      -0.896340       -24.3906
 127   2.0000      -0.884821       -24.0772
 128   2.0000      -0.884545       -24.0697
 129   2.0000      -0.878568       -23.9071
 130   2.0000      -0.874428       -23.7944
 131   2.0000      -0.869583       -23.6626
 132   2.0000      -0.859088       -23.3770
 133   2.0000      -0.845266       -23.0009
 134   2.0000      -0.832919       -22.6649
 135   2.0000      -0.827979       -22.5304
 136   2.0000      -0.824987       -22.4490
 137   2.0000      -0.821004       -22.3407
 138   2.0000      -0.817601       -22.2480
 139   2.0000      -0.801933       -21.8217
 140   2.0000      -0.792629       -21.5685
 141   2.0000      -0.782950       -21.3052
 142   2.0000      -0.771081       -20.9822
 143   2.0000      -0.764699       -20.8085
 144   2.0000      -0.758147       -20.6302
 145   2.0000      -0.753073       -20.4922
 146   2.0000      -0.742717       -20.2104
 147   2.0000      -0.732307       -19.9271
 148   2.0000      -0.711841       -19.3702
 149   2.0000      -0.708714       -19.2851
 150   2.0000      -0.703150       -19.1337
 151   2.0000      -0.702247       -19.1091
 152   2.0000      -0.694022       -18.8853
 153   2.0000      -0.687003       -18.6943
 154   2.0000      -0.684418       -18.6240
 155   2.0000      -0.678805       -18.4712
 156   2.0000      -0.674405       -18.3515
 157   2.0000      -0.667757       -18.1706
 158   2.0000      -0.655814       -17.8456
 159   2.0000      -0.654474       -17.8091
 160   2.0000      -0.644850       -17.5473
 161   2.0000      -0.637938       -17.3592
 162   2.0000      -0.630804       -17.1650
 163   2.0000      -0.623506       -16.9665
 164   2.0000      -0.617297       -16.7975
 165   2.0000      -0.613830       -16.7032
 166   2.0000      -0.610253       -16.6058
 167   2.0000      -0.607303       -16.5256
 168   2.0000      -0.600937       -16.3523
 169   2.0000      -0.598268       -16.2797
 170   2.0000      -0.587480       -15.9861
 171   2.0000      -0.586865       -15.9694
 172   2.0000      -0.582428       -15.8487
 173   2.0000      -0.578560       -15.7434
 174   2.0000      -0.576245       -15.6804
 175   2.0000      -0.568053       -15.4575
 176   2.0000      -0.563844       -15.3430
 177   2.0000      -0.561735       -15.2856
 178   2.0000      -0.558056       -15.1855
 179   2.0000      -0.551845       -15.0165
 180   2.0000      -0.546489       -14.8707
 181   2.0000      -0.540075       -14.6962
 182   2.0000      -0.539378       -14.6772
 183   2.0000      -0.535619       -14.5749
 184   2.0000      -0.531260       -14.4563
 185   2.0000      -0.526513       -14.3271
 186   2.0000      -0.524879       -14.2827
 187   2.0000      -0.522517       -14.2184
 188   2.0000      -0.520974       -14.1764
 189   2.0000      -0.519430       -14.1344
 190   2.0000      -0.518967       -14.1218
 191   2.0000      -0.517841       -14.0912
 192   2.0000      -0.515409       -14.0250
 193   2.0000      -0.512143       -13.9361
 194   2.0000      -0.508123       -13.8267
 195   2.0000      -0.507427       -13.8078
 196   2.0000      -0.503071       -13.6892
 197   2.0000      -0.501307       -13.6412
 198   2.0000      -0.498997       -13.5784
 199   2.0000      -0.495688       -13.4884
 200   2.0000      -0.492978       -13.4146
 201   2.0000      -0.491892       -13.3851
 202   2.0000      -0.489905       -13.3310
 203   2.0000      -0.488070       -13.2810
 204   2.0000      -0.485671       -13.2158
 205   2.0000      -0.482810       -13.1379
 206   2.0000      -0.481448       -13.1009
 207   2.0000      -0.476848       -12.9757
 208   2.0000      -0.474118       -12.9014
 209   2.0000      -0.473173       -12.8757
 210   2.0000      -0.472064       -12.8455
 211   2.0000      -0.471135       -12.8202
 212   2.0000      -0.464054       -12.6275
 213   2.0000      -0.458134       -12.4665
 214   2.0000      -0.457652       -12.4533
 215   2.0000      -0.456736       -12.4284
 216   2.0000      -0.453273       -12.3342
 217   2.0000      -0.448479       -12.2037
 218   2.0000      -0.447200       -12.1689
 219   2.0000      -0.445379       -12.1194
 220   2.0000      -0.442621       -12.0443
 221   2.0000      -0.441340       -12.0095
 222   2.0000      -0.440033       -11.9739
 223   2.0000      -0.438315       -11.9271
 224   2.0000      -0.437318       -11.9000
 225   2.0000      -0.434783       -11.8310
 226   2.0000      -0.432920       -11.7803
 227   2.0000      -0.431396       -11.7389
 228   2.0000      -0.430197       -11.7063
 229   2.0000      -0.429525       -11.6880
 230   2.0000      -0.426504       -11.6058
 231   2.0000      -0.424607       -11.5542
 232   2.0000      -0.423239       -11.5169
 233   2.0000      -0.414408       -11.2766
 234   2.0000      -0.413739       -11.2584
 235   2.0000      -0.412358       -11.2208
 236   2.0000      -0.410630       -11.1738
 237   2.0000      -0.409795       -11.1511
 238   2.0000      -0.408386       -11.1128
 239   2.0000      -0.405969       -11.0470
 240   2.0000      -0.396549       -10.7906
 241   2.0000      -0.389203       -10.5908
 242   2.0000      -0.381649       -10.3852
 243   2.0000      -0.381427       -10.3792
 244   2.0000      -0.374856       -10.2003
 245   2.0000      -0.374454       -10.1894
 246   2.0000      -0.367605       -10.0030
 247   2.0000      -0.359674        -9.7872
 248   2.0000      -0.353812        -9.6277
 249   2.0000      -0.333560        -9.0766
 250   2.0000      -0.332610        -9.0508
 251   2.0000      -0.329942        -8.9782
 252   2.0000      -0.323585        -8.8052
 253   2.0000      -0.316987        -8.6257
 254   2.0000      -0.313494        -8.5306
 255   2.0000      -0.308226        -8.3872
 256   2.0000      -0.304247        -8.2790
 257   2.0000      -0.302011        -8.2181
 258   2.0000      -0.293433        -7.9847
 259   2.0000      -0.283843        -7.7238
 260   2.0000      -0.264661        -7.2018
 261   2.0000      -0.256652        -6.9838
 262   2.0000      -0.231474        -6.2987
 263   0.0000      -0.097751        -2.6599
 264   0.0000      -0.073547        -2.0013
 265   0.0000      -0.059152        -1.6096
 266   0.0000      -0.042720        -1.1625
 267   0.0000      -0.023463        -0.6385

MULLIKEN ATOMIC CHARGES
-----------------------
   0 C :    0.306527
   1 C :   -0.366281
   2 C :   -0.183990
   3 N :    0.147411
   4 C :   -0.162183
   5 N :    0.134763
   6 C :    0.016297
   7 C :   -0.008298
   8 C :   -0.074337
   9 C :    0.119007
  10 C :   -0.095738
  11 C :   -0.018485
  12 S :    0.185828
  13 C :   -0.122750
  14 C :    0.038133
  15 Br:    0.023177
  16 C :    0.126490
  17 O :   -0.134442
  18 C :   -0.056670
  19 C :   -0.075223
  20 C :    0.158891
  21 C :    0.186043
  22 O :   -0.238176
  23 C :    0.207374
  24 C :    0.232048
  25 C :   -0.165286
  26 S :    0.116312
  27 C :   -0.171236
  28 O :   -0.227733
  29 C :   -0.065956
  30 C :    0.052208
  31 C :    0.002070
  32 C :   -0.213352
  33 C :    0.091262
  34 C :    0.228420
  35 N :   -0.196607
  36 C :    0.039889
  37 C :   -0.019415
  38 C :    0.019731
  39 N :   -0.028049
  40 C :    0.013557
  41 C :    0.041321
  42 C :   -0.149182
  43 C :    0.119220
  44 C :    0.038074
  45 C :   -0.007501
  46 C :    0.051780
  47 C :   -0.137748
  48 C :    0.273459
  49 C :   -0.353933
  50 C :   -0.176153
  51 N :    0.140277
  52 C :   -0.208797
  53 N :    0.172893
  54 C :   -0.003296
  55 C :    0.009485
  56 C :    0.128581
  57 O :   -0.155603
  58 C :   -0.077635
  59 C :    0.113146
  60 C :   -0.089642
  61 C :   -0.027223
  62 S :    0.177007
  63 C :   -0.124532
  64 C :    0.039115
  65 Br:    0.014823
  66 H :   -0.012531
  67 H :   -0.006893
  68 H :   -0.003254
  69 H :    0.009360
  70 H :    0.031957
  71 H :    0.027662
  72 H :   -0.004259
  73 H :    0.009258
  74 H :   -0.019743
  75 H :    0.020961
  76 H :    0.019891
  77 H :    0.064316
  78 H :    0.000710
  79 H :    0.023344
  80 H :    0.116156
  81 H :   -0.024367
  82 H :   -0.031974
  83 H :    0.121008
  84 H :   -0.002575
  85 H :    0.025112
  86 H :    0.041536
  87 H :   -0.002999
  88 H :   -0.003702
  89 H :   -0.023719
  90 H :    0.019803
  91 H :   -0.011799
  92 H :   -0.007430
  93 H :   -0.004993
Sum of atomic charges:   -0.0000000

LOEWDIN ATOMIC CHARGES
----------------------
   0 C :    0.083084
   1 C :   -0.155473
   2 C :   -0.019774
   3 N :   -0.057371
   4 C :   -0.002730
   5 N :   -0.065157
   6 C :   -0.023872
   7 C :   -0.046171
   8 C :    0.018103
   9 C :   -0.031135
  10 C :   -0.145830
  11 C :   -0.009070
  12 S :    0.431702
  13 C :   -0.271179
  14 C :   -0.071167
  15 Br:    0.136452
  16 C :    0.073234
  17 O :   -0.135538
  18 C :   -0.093321
  19 C :    0.046063
  20 C :    0.003130
  21 C :    0.081961
  22 O :   -0.031515
  23 C :   -0.012725
  24 C :   -0.004163
  25 C :   -0.201347
  26 S :    0.444211
  27 C :   -0.205473
  28 O :   -0.035076
  29 C :   -0.053380
  30 C :    0.017728
  31 C :   -0.068149
  32 C :    0.002487
  33 C :   -0.062393
  34 C :    0.045272
  35 N :   -0.030094
  36 C :    0.019774
  37 C :   -0.116854
  38 C :   -0.012864
  39 N :    0.100534
  40 C :    0.019478
  41 C :   -0.081819
  42 C :   -0.062095
  43 C :   -0.048930
  44 C :    0.066039
  45 C :   -0.074304
  46 C :    0.076001
  47 C :   -0.117133
  48 C :    0.066881
  49 C :   -0.156478
  50 C :   -0.021123
  51 N :   -0.067191
  52 C :   -0.016534
  53 N :   -0.048643
  54 C :   -0.017118
  55 C :   -0.050866
  56 C :    0.081260
  57 O :   -0.154865
  58 C :    0.019063
  59 C :   -0.036453
  60 C :   -0.145013
  61 C :   -0.016484
  62 S :    0.425573
  63 C :   -0.274783
  64 C :   -0.070432
  65 Br:    0.130027
  66 H :    0.039814
  67 H :    0.040733
  68 H :    0.038700
  69 H :    0.042980
  70 H :    0.033267
  71 H :    0.030217
  72 H :    0.036633
  73 H :    0.034095
  74 H :    0.027180
  75 H :    0.034193
  76 H :    0.032046
  77 H :    0.043609
  78 H :    0.013293
  79 H :    0.033887
  80 H :    0.075757
  81 H :    0.015182
  82 H :    0.026638
  83 H :    0.087364
  84 H :    0.022670
  85 H :    0.030117
  86 H :    0.040885
  87 H :    0.027984
  88 H :    0.033651
  89 H :    0.031242
  90 H :    0.044576
  91 H :    0.040002
  92 H :    0.039350
  93 H :    0.037962

  Mayer bond orders larger than 0.100000
B(  0-C ,  1-C ) :   1.5928 B(  0-C ,  6-C ) :   1.0069 B(  0-C , 18-C ) :   1.0984
B(  1-C ,  2-C ) :   1.1436 B(  1-C ,  4-C ) :   1.1541 B(  2-C ,  3-N ) :   2.9683
B(  4-C ,  5-N ) :   2.9320 B(  6-C ,  7-C ) :   1.2725 B(  6-C , 11-C ) :   1.4067
B(  7-C ,  8-C ) :   1.4326 B(  7-C , 16-C ) :   0.9237 B(  8-C ,  9-C ) :   1.2430
B(  8-C , 66-H ) :   1.0158 B(  9-C , 10-C ) :   1.3060 B(  9-C , 14-C ) :   1.1659
B( 10-C , 11-C ) :   1.3348 B( 10-C , 12-S ) :   1.0840 B( 11-C , 67-H ) :   0.9789
B( 12-S , 13-C ) :   1.0875 B( 13-C , 14-C ) :   1.6167 B( 13-C , 15-Br) :   1.0182
B( 14-C , 68-H ) :   0.9994 B( 16-C , 17-O ) :   2.2710 B( 16-C , 18-C ) :   0.9260
B( 18-C , 19-C ) :   1.5468 B( 19-C , 20-C ) :   1.2389 B( 19-C , 69-H ) :   0.9213
B( 20-C , 21-C ) :   1.3684 B( 20-C , 28-O ) :   1.0825 B( 21-C , 22-O ) :   1.1160
B( 21-C , 29-C ) :   1.1887 B( 22-O , 23-C ) :   1.0201 B( 23-C , 24-C ) :   1.2082
B( 23-C , 27-C ) :   1.5677 B( 24-C , 25-C ) :   1.5758 B( 24-C , 28-O ) :   1.0556
B( 25-C , 26-S ) :   1.1385 B( 25-C , 70-H ) :   0.9703 B( 26-S , 27-C ) :   1.1524
B( 27-C , 71-H ) :   0.9742 B( 29-C , 30-C ) :   1.6810 B( 29-C , 72-H ) :   0.9378
B( 30-C , 31-C ) :   1.1095 B( 30-C , 73-H ) :   0.9615 B( 31-C , 32-C ) :   1.7772
B( 31-C , 74-H ) :   0.9520 B( 32-C , 33-C ) :   1.0836 B( 32-C , 34-C ) :   1.0530
B( 33-C , 75-H ) :   0.9393 B( 33-C , 76-H ) :   0.9326 B( 33-C , 77-H ) :   0.9134
B( 34-C , 35-N ) :   0.9793 B( 34-C , 78-H ) :   0.9344 B( 34-C , 79-H ) :   0.9222
B( 35-N , 36-C ) :   1.1699 B( 35-N , 80-H ) :   0.9411 B( 36-C , 37-C ) :   1.6704
B( 36-C , 81-H ) :   0.9714 B( 37-C , 38-C ) :   1.1250 B( 37-C , 82-H ) :   0.9482
B( 38-C , 39-N ) :   1.1874 B( 38-C , 42-C ) :   1.4961 B( 39-N , 40-C ) :   1.2689
B( 39-N , 83-H ) :   0.9334 B( 40-C , 41-C ) :   1.3506 B( 40-C , 84-H ) :   0.9921
B( 41-C , 42-C ) :   1.2625 B( 41-C , 44-C ) :   1.1960 B( 42-C , 43-C ) :   1.1256
B( 43-C , 85-H ) :   0.9366 B( 43-C , 86-H ) :   0.9400 B( 43-C , 87-H ) :   0.9349
B( 44-C , 45-C ) :   1.5551 B( 44-C , 88-H ) :   0.9545 B( 45-C , 46-C ) :   1.2198
B( 45-C , 89-H ) :   0.9592 B( 46-C , 47-C ) :   1.5771 B( 46-C , 90-H ) :   0.9292
B( 47-C , 48-C ) :   1.0676 B( 47-C , 56-C ) :   0.9643 B( 48-C , 49-C ) :   1.6155
B( 48-C , 54-C ) :   1.0046 B( 49-C , 50-C ) :   1.1305 B( 49-C , 52-C ) :   1.1756
B( 50-C , 51-N ) :   2.9825 B( 52-C , 53-N ) :   2.9968 B( 54-C , 55-C ) :   1.2814
B( 54-C , 61-C ) :   1.4191 B( 55-C , 56-C ) :   0.9153 B( 55-C , 58-C ) :   1.4298
B( 56-C , 57-O ) :   2.2500 B( 58-C , 59-C ) :   1.2463 B( 58-C , 91-H ) :   1.0165
B( 59-C , 60-C ) :   1.3162 B( 59-C , 64-C ) :   1.1602 B( 60-C , 61-C ) :   1.3226
B( 60-C , 62-S ) :   1.0800 B( 61-C , 92-H ) :   0.9839 B( 62-S , 63-C ) :   1.0850
B( 63-C , 64-C ) :   1.6215 B( 63-C , 65-Br) :   1.0136 B( 64-C , 93-H ) :   1.0005

-----------------------------------------------------------------------------
         ABSORPTION SPECTRUM VIA TRANSITION ELECTRIC DIPOLE MOMENTS
-----------------------------------------------------------------------------
State   Energy  Wavelength   fosc         T2         TX        TY        TZ
        (cm-1)    (nm)                  (au**2)     (au)      (au)      (au)
-----------------------------------------------------------------------------
   0   17226.0    580.5   0.550374196  10.51840  -2.38889   0.65276  -2.09416
   1   18115.6    552.0   0.000094829   0.00172  -0.01326  -0.03743  -0.01211
   2   18440.8    542.3   0.388814739   6.94127  -0.45420   2.16825   1.42607
   3   23339.2    428.5   0.174910258   2.46720   0.26779   1.45386   0.53084
   4   24375.2    410.3   0.013535998   0.18282  -0.02871  -0.41869   0.08179
   5   26192.4    381.8   0.083470168   1.04913   0.87321  -0.53006  -0.07536
   6   26314.8    380.0   0.202385493   2.53194   0.78552  -1.16052  -0.75371
   7   27041.3    369.8   0.402714502   4.90281  -1.12079   1.23054  -1.46028
   8   27596.8    362.4   0.188310928   2.24643   0.36631  -1.43653   0.22051
   9   27693.3    361.1   0.045768879   0.54409   0.20964  -0.69441   0.13394
  10   28484.0    351.1   0.000134199   0.00155   0.01115  -0.03665   0.00916
  11   28974.2    345.1   0.397094912   4.51189   0.97899  -1.85477   0.33660
  12   28996.5    344.9   0.158543468   1.80003  -0.77050  -0.52334  -0.96565
  13   29385.8    340.3   0.112302059   1.25813   0.52133  -0.54779   0.82842
  14   30407.2    328.9   0.065134742   0.70520   0.00446  -0.82823   0.13860
  15   30761.0    325.1   0.039196477   0.41949  -0.34210   0.40488  -0.37220
  16   31232.9    320.2   0.050985896   0.53742  -0.35943   0.61249   0.18190
  17   31682.9    315.6   0.275223868   2.85980  -0.80904   1.48345   0.06812
  18   32208.5    310.5   0.174044590   1.77896  -0.93575   0.94741  -0.07572
  19   33146.3    301.7   0.653925316   6.49484   0.88253  -2.12571   1.09423
  20   33156.8    301.6   0.052486025   0.52113   0.24982  -0.59645   0.32089
  21   33792.5    295.9   0.069484802   0.67693  -0.00965   0.32017   0.75785
  22   33850.1    295.4   0.003061441   0.02977  -0.03014   0.07919   0.15031
  23   34477.3    290.0   0.491947753   4.69744   1.25709  -1.75676   0.17592
  24   35003.4    285.7   0.001651751   0.01553  -0.03760  -0.08430  -0.08376
  25   35156.9    284.4   0.158123613   1.48068  -0.38534  -0.80501  -0.82714
  26   36921.7    270.8   0.103148558   0.91972  -0.42543   0.76030  -0.40085
  27   37400.2    267.4   0.057035030   0.50205   0.22186   0.13873  -0.65847
  28   37501.6    266.7   0.000110064   0.00097  -0.01345  -0.02566   0.01127
  29   38070.0    262.7   0.032867977   0.28423   0.30170  -0.42495  -0.11235
  30   38227.4    261.6   0.002943017   0.02535   0.14126   0.03673   0.06358
  31   38422.0    260.3   0.015434624   0.13225  -0.29475   0.18696  -0.10206
  32   38868.9    257.3   0.297156922   2.51686   0.98353   0.90167   0.85820
  33   39344.9    254.2   0.064861563   0.54272  -0.43963  -0.59076   0.02133
  34   39649.3    252.2   0.000012049   0.00010   0.00838   0.00159   0.00523

FINAL SINGLE POINT ENERGY     -8928.392986517090

DIPOLE MOMENT
-------------
                                X             Y             Z
Electronic contribution:     59.25511      66.23465      87.01709
Nuclear contribution   :    -59.28019     -69.54887     -90.06377
                        -----------------------------------------
Total Dipole Moment    :     -0.02508      -3.31423      -3.04668
                        -----------------------------------------
Magnitude (a.u.)       :      4.50189
Magnitude (Debye)      :     11.44288

Rotational constants in cm-1:     0.001248     0.000147     0.000136
Rotational constants in MHz :    37.408401     4.417962     4.071064

                             ****ORCA TERMINATED NORMALLY****
TOTAL RUN TIME: 0 days 0 hours 7 minutes 35 seconds 685 msec
