                         Program Version 4.2.0 -  RELEASE  -
|  1> # ORCA input file
|  2> # SCF done       -196.713583147127          0.000695026787
|  3> ! CAM-B3LYP def2-SVP def2/J RIJCOSX Grid4 TightSCF
|  4> %maxcore 5000
|  5> %tddft
|  6>     Mode sTDDFT
|  7>     Ethresh 5.0
|  8>     maxcore 5000
|  9> end
| 10>
| 11> %pal
| 12>   nprocs 6
| 13>   end
| 14> * xyz 0 1
| 15>    C       -5.56209         2.31904         5.57517
| 16>    C       -6.80711         2.57820         6.08504
| 17>    C       -7.22469         2.21214         7.38277
| 18>    N       -7.62353         1.94793         8.42573
| 19>    C       -7.84430         3.24813         5.40206
| 20>    N       -8.73521         3.78066         4.91139
| 21>    C       -4.49688         1.59711         6.25865
| 22>    C       -3.36126         1.53852         5.41269
| 23>    C       -2.19577         0.90921         5.77750
| 24>    C       -2.15102         0.29596         7.03337
| 25>    C       -3.28956         0.36055         7.87397
| 26>    C       -4.46438         1.00466         7.50868
| 27>    S       -3.01853        -0.45956         9.38085
| 28>    C       -1.40441        -0.87568         8.86894
| 29>    C       -1.08213        -0.42341         7.63330
| 30>   Br       -0.29853        -1.86612        10.01285
| 31>    C       -3.64852         2.24033         4.15104
| 32>    O       -2.85536         2.53659         3.28851
| 33>    C       -5.08160         2.65727         4.24577
| 34>    C       -5.74888         3.33929         3.27859
| 35>    C       -5.32428         3.41477         1.92465
| 36>    O       -5.74669         4.45195         1.14897
| 37>    C       -4.60524         2.54727         1.12610
| 38>    C       -3.96309         1.22327         1.08214
| 39>    O       -3.86102         0.36211         1.91353
| 40>    N       -3.52095         1.12269        -0.23434
| 41>    C       -3.84989         2.19398        -1.05760
| 42>    O       -3.58016         2.27821        -2.22924
| 43>    C       -4.57478         3.10722        -0.17082
| 44>    C       -5.28818         4.29473        -0.11421
| 45>    C       -5.59980         5.27006        -1.10425
| 46>    C       -5.12612         5.17888        -2.36330
| 47>    C       -5.38764         6.12379        -3.43163
| 48>    C       -5.30034         5.73165        -4.78060
| 49>    C       -5.00702         4.30202        -5.14270
| 50>    C       -3.52508         4.11353        -5.47693
| 51>    C       -5.46196         6.70238        -5.78738
| 52>    C       -5.76690         8.02117        -5.43213
| 53>    C       -5.88754         8.39056        -4.10854
| 54>    C       -5.68864         7.45285        -3.11581
| 55>    C       -5.31615         6.35813        -7.18752
| 56>    C       -5.01502         7.21944        -8.17914
| 57>    C       -4.86943         6.81157        -9.53646
| 58>    O       -4.99126         5.50815        -9.90091
| 59>    C       -4.58865         7.55215       -10.66874
| 60>    C       -4.34986         8.90688       -11.17279
| 61>    O       -4.30251         9.96773       -10.60958
| 62>    N       -4.16953         8.71674       -12.54555
| 63>    C       -4.25962         7.40299       -12.98085
| 64>    O       -4.11513         7.03303       -14.12002
| 65>    C       -4.53976         6.64665       -11.75556
| 66>    C       -4.79597         5.38844       -11.24204
| 67>    C       -4.90163         4.12092       -11.86981
| 68>    C       -4.72656         3.98297       -13.20664
| 69>    C       -4.86192         2.75598       -13.90055
| 70>    C       -4.92690         2.62356       -15.25220
| 71>    C       -5.04938         3.62764       -16.29260
| 72>    C       -5.70366         4.82612       -16.19560
| 73>    C       -5.83389         5.73342       -17.26866
| 74>    N       -5.96315         6.49862       -18.11373
| 75>    C       -6.43831         5.24522       -15.06449
| 76>    N       -7.11476         5.60155       -14.20888
| 77>    C       -4.55584         3.02360       -17.52602
| 78>    C       -4.37006         1.63312       -17.31113
| 79>    C       -4.67382         1.30913       -15.90332
| 80>    O       -4.66844         0.22428       -15.36980
| 81>    C       -3.95056         0.78329       -18.30621
| 82>    C       -3.69234         1.33064       -19.56699
| 83>    C       -3.86686         2.72172       -19.76689
| 84>    C       -4.29851         3.58108       -18.76392
| 85>    S       -3.47976         3.18637       -21.39495
| 86>    C       -3.09870         1.52911       -21.78212
| 87>    C       -3.25047         0.67034       -20.74612
| 88>   Br       -2.53378         1.09037       -23.51525
| 89>    H       -1.35062         0.88184         5.10825
| 90>    H       -5.30180         1.02747         8.18573
| 91>    H       -0.13041        -0.59010         7.16287
| 92>    H       -6.67280         3.85710         3.49954
| 93>    H       -3.02041         0.31354        -0.57416
| 94>    H       -6.25682         6.06523        -0.78428
| 95>    H       -4.48587         4.34021        -2.59507
| 96>    H       -5.61303         4.00283        -5.99948
| 97>    H       -5.27432         3.63635        -4.32402
| 98>    H       -3.22994         4.75676        -6.30341
| 99>    H       -3.33367         3.07909        -5.74925
|100>    H       -2.90992         4.35648        -4.61443
|101>    H       -5.92999         8.75402        -6.20614
|102>    H       -6.12482         9.41140        -3.85053
|103>    H       -5.73590         7.75418        -2.08132
|104>    H       -5.43996         5.32106        -7.46321
|105>    H       -4.84143         8.27125        -8.01003
|106>    H       -3.99321         9.48456       -13.17815
|107>    H       -5.17624         3.28324       -11.24470
|108>    H       -4.45487         4.85759       -13.78085
|109>    H       -4.85039         1.83538       -13.32747
|110>    H       -3.82456        -0.27136       -18.11794
|111>    H       -4.41087         4.63487       -18.95824
|112>    H       -3.05885        -0.38527       -20.80852
|113> *
|114>
|115>                          ****END OF INPUT****

CARTESIAN COORDINATES (ANGSTROEM)
---------------------------------
  C     -5.562090    2.319040    5.575170
  C     -6.807110    2.578200    6.085040
  C     -7.224690    2.212140    7.382770
  N     -7.623530    1.947930    8.425730
  C     -7.844300    3.248130    5.402060
  N     -8.735210    3.780660    4.911390
  C     -4.496880    1.597110    6.258650
  C     -3.361260    1.538520    5.412690
  C     -2.195770    0.909210    5.777500
  C     -2.151020    0.295960    7.033370
  C     -3.289560    0.360550    7.873970
  C     -4.464380    1.004660    7.508680
  S     -3.018530   -0.459560    9.380850
  C     -1.404410   -0.875680    8.868940
  C     -1.082130   -0.423410    7.633300
  Br    -0.298530   -1.866120   10.012850
  C     -3.648520    2.240330    4.151040
  O     -2.855360    2.536590    3.288510
  C     -5.081600    2.657270    4.245770
  C     -5.748880    3.339290    3.278590
  C     -5.324280    3.414770    1.924650
  O     -5.746690    4.451950    1.148970
  C     -4.605240    2.547270    1.126100
  C     -3.963090    1.223270    1.082140
  O     -3.861020    0.362110    1.913530
  N     -3.520950    1.122690   -0.234340
  C     -3.849890    2.193980   -1.057600
  O     -3.580160    2.278210   -2.229240
  C     -4.574780    3.107220   -0.170820
  C     -5.288180    4.294730   -0.114210
  C     -5.599800    5.270060   -1.104250
  C     -5.126120    5.178880   -2.363300
  C     -5.387640    6.123790   -3.431630
  C     -5.300340    5.731650   -4.780600
  C     -5.007020    4.302020   -5.142700
  C     -3.525080    4.113530   -5.476930
  C     -5.461960    6.702380   -5.787380
  C     -5.766900    8.021170   -5.432130
  C     -5.887540    8.390560   -4.108540
  C     -5.688640    7.452850   -3.115810
  C     -5.316150    6.358130   -7.187520
  C     -5.015020    7.219440   -8.179140
  C     -4.869430    6.811570   -9.536460
  O     -4.991260    5.508150   -9.900910
  C     -4.588650    7.552150  -10.668740
  C     -4.349860    8.906880  -11.172790
  O     -4.302510    9.967730  -10.609580
  N     -4.169530    8.716740  -12.545550
  C     -4.259620    7.402990  -12.980850
  O     -4.115130    7.033030  -14.120020
  C     -4.539760    6.646650  -11.755560
  C     -4.795970    5.388440  -11.242040
  C     -4.901630    4.120920  -11.869810
  C     -4.726560    3.982970  -13.206640
  C     -4.861920    2.755980  -13.900550
  C     -4.926900    2.623560  -15.252200
  C     -5.049380    3.627640  -16.292600
  C     -5.703660    4.826120  -16.195600
  C     -5.833890    5.733420  -17.268660
  N     -5.963150    6.498620  -18.113730
  C     -6.438310    5.245220  -15.064490
  N     -7.114760    5.601550  -14.208880
  C     -4.555840    3.023600  -17.526020
  C     -4.370060    1.633120  -17.311130
  C     -4.673820    1.309130  -15.903320
  O     -4.668440    0.224280  -15.369800
  C     -3.950560    0.783290  -18.306210
  C     -3.692340    1.330640  -19.566990
  C     -3.866860    2.721720  -19.766890
  C     -4.298510    3.581080  -18.763920
  S     -3.479760    3.186370  -21.394950
  C     -3.098700    1.529110  -21.782120
  C     -3.250470    0.670340  -20.746120
  Br    -2.533780    1.090370  -23.515250
  H     -1.350620    0.881840    5.108250
  H     -5.301800    1.027470    8.185730
  H     -0.130410   -0.590100    7.162870
  H     -6.672800    3.857100    3.499540
  H     -3.020410    0.313540   -0.574160
  H     -6.256820    6.065230   -0.784280
  H     -4.485870    4.340210   -2.595070
  H     -5.613030    4.002830   -5.999480
  H     -5.274320    3.636350   -4.324020
  H     -3.229940    4.756760   -6.303410
  H     -3.333670    3.079090   -5.749250
  H     -2.909920    4.356480   -4.614430
  H     -5.929990    8.754020   -6.206140
  H     -6.124820    9.411400   -3.850530
  H     -5.735900    7.754180   -2.081320
  H     -5.439960    5.321060   -7.463210
  H     -4.841430    8.271250   -8.010030
  H     -3.993210    9.484560  -13.178150
  H     -5.176240    3.283240  -11.244700
  H     -4.454870    4.857590  -13.780850
  H     -4.850390    1.835380  -13.327470
  H     -3.824560   -0.271360  -18.117940
  H     -4.410870    4.634870  -18.958240
  H     -3.058850   -0.385270  -20.808520

 Total Charge           Charge          ....    0
 Multiplicity           Mult            ....    1
 Number of Electrons    NEL             ....  568
 Basis Dimension        Dim             .... 1200

ORBITAL ENERGIES
----------------

  NO   OCC          E(Eh)            E(eV)
   0   2.0000    -482.888466    -13140.0632
   1   2.0000    -482.885934    -13139.9943
   2   2.0000     -88.978574     -2421.2301
   3   2.0000     -88.976086     -2421.1624
   4   2.0000     -62.566152     -1702.5116
   5   2.0000     -62.563628     -1702.4429
   6   2.0000     -56.400105     -1534.7249
   7   2.0000     -56.397579     -1534.6561
   8   2.0000     -56.397385     -1534.6509
   9   2.0000     -56.397357     -1534.6501
  10   2.0000     -56.394863     -1534.5822
  11   2.0000     -56.394832     -1534.5814
  12   2.0000     -19.322503      -525.7920
  13   2.0000     -19.318130      -525.6731
  14   2.0000     -19.224954      -523.1376
  15   2.0000     -19.221443      -523.0421
  16   2.0000     -19.220222      -523.0088
  17   2.0000     -19.219085      -522.9779
  18   2.0000     -19.216359      -522.9037
  19   2.0000     -19.214380      -522.8499
  20   2.0000     -14.464610      -393.6020
  21   2.0000     -14.459140      -393.4532
  22   2.0000     -14.421934      -392.4408
  23   2.0000     -14.420201      -392.3936
  24   2.0000     -14.414974      -392.2514
  25   2.0000     -14.411211      -392.1490
  26   2.0000     -10.412247      -283.3316
  27   2.0000     -10.409145      -283.2472
  28   2.0000     -10.406730      -283.1815
  29   2.0000     -10.403662      -283.0980
  30   2.0000     -10.377333      -282.3816
  31   2.0000     -10.372800      -282.2582
  32   2.0000     -10.368046      -282.1289
  33   2.0000     -10.367201      -282.1059
  34   2.0000     -10.367144      -282.1043
  35   2.0000     -10.366676      -282.0916
  36   2.0000     -10.362256      -281.9713
  37   2.0000     -10.359173      -281.8874
  38   2.0000     -10.349123      -281.6140
  39   2.0000     -10.347660      -281.5742
  40   2.0000     -10.344783      -281.4959
  41   2.0000     -10.340861      -281.3891
  42   2.0000     -10.329223      -281.0724
  43   2.0000     -10.328163      -281.0436
  44   2.0000     -10.326576      -281.0004
  45   2.0000     -10.324203      -280.9358
  46   2.0000     -10.322666      -280.8940
  47   2.0000     -10.316980      -280.7393
  48   2.0000     -10.314672      -280.6765
  49   2.0000     -10.314416      -280.6695
  50   2.0000     -10.312767      -280.6247
  51   2.0000     -10.311294      -280.5846
  52   2.0000     -10.311282      -280.5842
  53   2.0000     -10.311161      -280.5810
  54   2.0000     -10.309609      -280.5387
  55   2.0000     -10.309412      -280.5334
  56   2.0000     -10.307907      -280.4924
  57   2.0000     -10.307665      -280.4858
  58   2.0000     -10.305785      -280.4347
  59   2.0000     -10.304206      -280.3917
  60   2.0000     -10.302069      -280.3336
  61   2.0000     -10.300664      -280.2953
  62   2.0000     -10.299671      -280.2683
  63   2.0000     -10.299509      -280.2639
  64   2.0000     -10.298558      -280.2380
  65   2.0000     -10.298450      -280.2351
  66   2.0000     -10.297673      -280.2139
  67   2.0000     -10.297187      -280.2007
  68   2.0000     -10.296987      -280.1952
  69   2.0000     -10.296776      -280.1895
  70   2.0000     -10.296017      -280.1689
  71   2.0000     -10.295823      -280.1636
  72   2.0000     -10.293910      -280.1115
  73   2.0000     -10.293736      -280.1068
  74   2.0000     -10.293289      -280.0946
  75   2.0000     -10.290633      -280.0224
  76   2.0000     -10.290384      -280.0156
  77   2.0000     -10.284448      -279.8540
  78   2.0000     -10.283648      -279.8323
  79   2.0000     -10.279422      -279.7173
  80   2.0000     -10.273965      -279.5688
  81   2.0000     -10.260411      -279.2000
  82   2.0000      -8.795574      -239.3397
  83   2.0000      -8.793051      -239.2711
  84   2.0000      -8.074588      -219.7207
  85   2.0000      -8.072006      -219.6505
  86   2.0000      -6.631856      -180.4620
  87   2.0000      -6.629330      -180.3932
  88   2.0000      -6.617325      -180.0666
  89   2.0000      -6.617101      -180.0605
  90   2.0000      -6.614797      -179.9978
  91   2.0000      -6.614591      -179.9922
  92   2.0000      -6.044286      -164.4734
  93   2.0000      -6.041713      -164.4034
  94   2.0000      -6.039991      -164.3565
  95   2.0000      -6.037411      -164.2863
  96   2.0000      -6.035810      -164.2427
  97   2.0000      -6.033252      -164.1731
  98   2.0000      -2.747774       -74.7707
  99   2.0000      -2.745234       -74.7016
 100   2.0000      -2.743633       -74.6580
 101   2.0000      -2.743477       -74.6538
 102   2.0000      -2.741110       -74.5894
 103   2.0000      -2.740967       -74.5855
 104   2.0000      -2.731917       -74.3392
 105   2.0000      -2.731913       -74.3391
 106   2.0000      -2.729405       -74.2709
 107   2.0000      -2.729393       -74.2706
 108   2.0000      -1.239434       -33.7267
 109   2.0000      -1.233745       -33.5719
 110   2.0000      -1.167341       -31.7650
 111   2.0000      -1.160745       -31.5855
 112   2.0000      -1.147750       -31.2319
 113   2.0000      -1.140171       -31.0256
 114   2.0000      -1.135980       -30.9116
 115   2.0000      -1.131428       -30.7877
 116   2.0000      -1.053741       -28.6738
 117   2.0000      -1.047885       -28.5144
 118   2.0000      -1.027359       -27.9559
 119   2.0000      -1.023090       -27.8397
 120   2.0000      -1.018073       -27.7032
 121   2.0000      -1.012215       -27.5438
 122   2.0000      -0.999682       -27.2027
 123   2.0000      -0.994626       -27.0651
 124   2.0000      -0.992060       -26.9953
 125   2.0000      -0.989219       -26.9180
 126   2.0000      -0.976980       -26.5850
 127   2.0000      -0.951074       -25.8800
 128   2.0000      -0.948943       -25.8220
 129   2.0000      -0.940670       -25.5969
 130   2.0000      -0.936827       -25.4924
 131   2.0000      -0.933795       -25.4098
 132   2.0000      -0.929066       -25.2812
 133   2.0000      -0.917069       -24.9547
 134   2.0000      -0.912737       -24.8368
 135   2.0000      -0.908486       -24.7212
 136   2.0000      -0.905259       -24.6334
 137   2.0000      -0.892358       -24.2823
 138   2.0000      -0.889589       -24.2070
 139   2.0000      -0.888101       -24.1665
 140   2.0000      -0.886247       -24.1160
 141   2.0000      -0.878504       -23.9053
 142   2.0000      -0.865512       -23.5518
 143   2.0000      -0.849848       -23.1255
 144   2.0000      -0.833971       -22.6935
 145   2.0000      -0.831999       -22.6398
 146   2.0000      -0.829071       -22.5602
 147   2.0000      -0.813982       -22.1496
 148   2.0000      -0.808213       -21.9926
 149   2.0000      -0.783872       -21.3302
 150   2.0000      -0.781795       -21.2737
 151   2.0000      -0.776879       -21.1400
 152   2.0000      -0.771505       -20.9937
 153   2.0000      -0.770852       -20.9759
 154   2.0000      -0.766367       -20.8539
 155   2.0000      -0.762913       -20.7599
 156   2.0000      -0.757428       -20.6107
 157   2.0000      -0.742476       -20.2038
 158   2.0000      -0.733326       -19.9548
 159   2.0000      -0.719810       -19.5870
 160   2.0000      -0.713584       -19.4176
 161   2.0000      -0.711242       -19.3539
 162   2.0000      -0.708034       -19.2666
 163   2.0000      -0.699463       -19.0333
 164   2.0000      -0.696260       -18.9462
 165   2.0000      -0.694705       -18.9039
 166   2.0000      -0.683967       -18.6117
 167   2.0000      -0.678092       -18.4518
 168   2.0000      -0.665950       -18.1214
 169   2.0000      -0.664430       -18.0801
 170   2.0000      -0.661922       -18.0118
 171   2.0000      -0.649314       -17.6687
 172   2.0000      -0.644185       -17.5292
 173   2.0000      -0.631544       -17.1852
 174   2.0000      -0.629836       -17.1387
 175   2.0000      -0.626556       -17.0494
 176   2.0000      -0.623183       -16.9577
 177   2.0000      -0.616411       -16.7734
 178   2.0000      -0.610341       -16.6082
 179   2.0000      -0.606108       -16.4930
 180   2.0000      -0.605435       -16.4747
 181   2.0000      -0.599771       -16.3206
 182   2.0000      -0.599603       -16.3160
 183   2.0000      -0.599366       -16.3096
 184   2.0000      -0.597048       -16.2465
 185   2.0000      -0.593402       -16.1473
 186   2.0000      -0.590069       -16.0566
 187   2.0000      -0.589165       -16.0320
 188   2.0000      -0.580323       -15.7914
 189   2.0000      -0.578211       -15.7339
 190   2.0000      -0.573814       -15.6143
 191   2.0000      -0.563526       -15.3343
 192   2.0000      -0.559964       -15.2374
 193   2.0000      -0.557341       -15.1660
 194   2.0000      -0.552805       -15.0426
 195   2.0000      -0.551138       -14.9972
 196   2.0000      -0.550438       -14.9782
 197   2.0000      -0.548567       -14.9273
 198   2.0000      -0.545248       -14.8369
 199   2.0000      -0.544348       -14.8125
 200   2.0000      -0.540845       -14.7171
 201   2.0000      -0.540020       -14.6947
 202   2.0000      -0.535486       -14.5713
 203   2.0000      -0.531391       -14.4599
 204   2.0000      -0.529506       -14.4086
 205   2.0000      -0.528289       -14.3755
 206   2.0000      -0.526743       -14.3334
 207   2.0000      -0.523827       -14.2540
 208   2.0000      -0.521615       -14.1939
 209   2.0000      -0.518045       -14.0967
 210   2.0000      -0.516604       -14.0575
 211   2.0000      -0.516341       -14.0504
 212   2.0000      -0.511976       -13.9316
 213   2.0000      -0.510531       -13.8923
 214   2.0000      -0.510074       -13.8798
 215   2.0000      -0.509343       -13.8599
 216   2.0000      -0.507751       -13.8166
 217   2.0000      -0.505315       -13.7503
 218   2.0000      -0.500319       -13.6144
 219   2.0000      -0.498954       -13.5772
 220   2.0000      -0.495573       -13.4852
 221   2.0000      -0.495179       -13.4745
 222   2.0000      -0.494384       -13.4529
 223   2.0000      -0.489371       -13.3165
 224   2.0000      -0.487913       -13.2768
 225   2.0000      -0.485735       -13.2175
 226   2.0000      -0.480683       -13.0801
 227   2.0000      -0.478851       -13.0302
 228   2.0000      -0.475958       -12.9515
 229   2.0000      -0.470424       -12.8009
 230   2.0000      -0.462327       -12.5806
 231   2.0000      -0.461758       -12.5651
 232   2.0000      -0.460455       -12.5296
 233   2.0000      -0.456896       -12.4328
 234   2.0000      -0.456303       -12.4166
 235   2.0000      -0.453940       -12.3523
 236   2.0000      -0.450959       -12.2712
 237   2.0000      -0.450162       -12.2495
 238   2.0000      -0.448806       -12.2126
 239   2.0000      -0.447437       -12.1754
 240   2.0000      -0.446632       -12.1535
 241   2.0000      -0.445383       -12.1195
 242   2.0000      -0.443738       -12.0747
 243   2.0000      -0.442966       -12.0537
 244   2.0000      -0.441915       -12.0251
 245   2.0000      -0.437182       -11.8963
 246   2.0000      -0.433672       -11.8008
 247   2.0000      -0.431518       -11.7422
 248   2.0000      -0.429398       -11.6845
 249   2.0000      -0.423211       -11.5162
 250   2.0000      -0.422531       -11.4977
 251   2.0000      -0.419947       -11.4273
 252   2.0000      -0.414262       -11.2726
 253   2.0000      -0.413138       -11.2420
 254   2.0000      -0.409817       -11.1517
 255   2.0000      -0.407884       -11.0991
 256   2.0000      -0.406619       -11.0647
 257   2.0000      -0.395980       -10.7752
 258   2.0000      -0.393410       -10.7052
 259   2.0000      -0.389254       -10.5921
 260   2.0000      -0.387927       -10.5560
 261   2.0000      -0.381964       -10.3938
 262   2.0000      -0.380730       -10.3602
 263   2.0000      -0.380020       -10.3409
 264   2.0000      -0.377599       -10.2750
 265   2.0000      -0.375225       -10.2104
 266   2.0000      -0.374087       -10.1794
 267   2.0000      -0.370108       -10.0712
 268   2.0000      -0.366938        -9.9849
 269   2.0000      -0.364867        -9.9285
 270   2.0000      -0.356944        -9.7129
 271   2.0000      -0.354422        -9.6443
 272   2.0000      -0.351067        -9.5530
 273   2.0000      -0.346132        -9.4187
 274   2.0000      -0.343020        -9.3341
 275   2.0000      -0.335127        -9.1193
 276   2.0000      -0.322559        -8.7773
 277   2.0000      -0.318293        -8.6612
 278   2.0000      -0.315618        -8.5884
 279   2.0000      -0.312417        -8.5013
 280   2.0000      -0.297244        -8.0884
 281   2.0000      -0.293862        -7.9964
 282   2.0000      -0.276156        -7.5146
 283   2.0000      -0.265080        -7.2132
 284   0.0000      -0.103722        -2.8224
 285   0.0000      -0.099268        -2.7012
 286   0.0000      -0.066325        -1.8048
 287   0.0000      -0.063676        -1.7327
 288   0.0000      -0.058815        -1.6004

MULLIKEN ATOMIC CHARGES
-----------------------
   0 C :    0.310203
   1 C :   -0.350713
   2 C :   -0.184370
   3 N :    0.156522
   4 C :   -0.191961
   5 N :    0.159650
   6 C :    0.022549
   7 C :   -0.009476
   8 C :   -0.065527
   9 C :    0.119109
  10 C :   -0.086004
  11 C :   -0.028047
  12 S :    0.188737
  13 C :   -0.123620
  14 C :    0.040479
  15 Br:    0.027049
  16 C :    0.156705
  17 O :   -0.146920
  18 C :   -0.068422
  19 C :   -0.036998
  20 C :    0.105786
  21 O :   -0.187945
  22 C :   -0.004795
  23 C :    0.181540
  24 O :   -0.138748
  25 N :   -0.156167
  26 C :    0.195324
  27 O :   -0.158835
  28 C :   -0.104938
  29 C :    0.132804
  30 C :    0.006638
  31 C :   -0.038197
  32 C :    0.062372
  33 C :   -0.060822
  34 C :    0.040022
  35 C :    0.034086
  36 C :    0.070464
  37 C :   -0.021645
  38 C :    0.042049
  39 C :   -0.018118
  40 C :    0.005261
  41 C :   -0.020966
  42 C :    0.078062
  43 O :   -0.206086
  44 C :   -0.030965
  45 C :    0.169213
  46 O :   -0.137967
  47 N :   -0.159151
  48 C :    0.208238
  49 O :   -0.161975
  50 C :   -0.065809
  51 C :    0.129331
  52 C :    0.015401
  53 C :    0.002947
  54 C :    0.029406
  55 C :   -0.100359
  56 C :    0.266431
  57 C :   -0.305554
  58 C :   -0.178773
  59 N :    0.152267
  60 C :   -0.204591
  61 N :    0.162067
  62 C :    0.011962
  63 C :   -0.007272
  64 C :    0.140752
  65 O :   -0.140044
  66 C :   -0.072063
  67 C :    0.113541
  68 C :   -0.087816
  69 C :   -0.023155
  70 S :    0.186194
  71 C :   -0.125701
  72 C :    0.042584
  73 Br:    0.023796
  74 H :   -0.008006
  75 H :   -0.004581
  76 H :   -0.002290
  77 H :    0.032912
  78 H :    0.140854
  79 H :   -0.005780
  80 H :    0.034472
  81 H :    0.011166
  82 H :    0.012350
  83 H :    0.010763
  84 H :    0.021760
  85 H :    0.018655
  86 H :   -0.013068
  87 H :   -0.011866
  88 H :   -0.020047
  89 H :    0.001908
  90 H :    0.013256
  91 H :    0.142041
  92 H :   -0.002500
  93 H :    0.044852
  94 H :    0.015321
  95 H :   -0.008467
  96 H :   -0.000611
  97 H :   -0.002118
Sum of atomic charges:   -0.0000000

LOEWDIN ATOMIC CHARGES
----------------------
   0 C :    0.074146
   1 C :   -0.133849
   2 C :   -0.018090
   3 N :   -0.048071
   4 C :   -0.021007
   5 N :   -0.046453
   6 C :   -0.019859
   7 C :   -0.045208
   8 C :    0.026751
   9 C :   -0.030189
  10 C :   -0.142193
  11 C :   -0.009402
  12 S :    0.434469
  13 C :   -0.270237
  14 C :   -0.069739
  15 Br:    0.139940
  16 C :    0.088836
  17 O :   -0.132226
  18 C :   -0.068327
  19 C :    0.045662
  20 C :    0.043470
  21 O :    0.027672
  22 C :   -0.051587
  23 C :    0.091306
  24 O :   -0.144214
  25 N :    0.002334
  26 C :    0.091720
  27 O :   -0.163598
  28 C :   -0.110061
  29 C :    0.089071
  30 C :   -0.051697
  31 C :    0.037022
  32 C :   -0.037614
  33 C :    0.012480
  34 C :   -0.032415
  35 C :   -0.044825
  36 C :   -0.033942
  37 C :    0.003716
  38 C :   -0.024324
  39 C :    0.001132
  40 C :    0.018353
  41 C :   -0.042724
  42 C :    0.078493
  43 O :    0.018424
  44 C :   -0.100015
  45 C :    0.087824
  46 O :   -0.155023
  47 N :    0.001141
  48 C :    0.095169
  49 O :   -0.161123
  50 C :   -0.082386
  51 C :    0.061765
  52 C :    0.001215
  53 C :   -0.002682
  54 C :    0.059742
  55 C :   -0.076449
  56 C :    0.066963
  57 C :   -0.121410
  58 C :   -0.014146
  59 N :   -0.048307
  60 C :   -0.017378
  61 N :   -0.052777
  62 C :   -0.016185
  63 C :   -0.053671
  64 C :    0.082153
  65 O :   -0.140634
  66 C :    0.022909
  67 C :   -0.033628
  68 C :   -0.142197
  69 C :   -0.011769
  70 S :    0.433236
  71 C :   -0.271988
  72 C :   -0.070238
  73 Br:    0.137268
  74 H :    0.042335
  75 H :    0.041337
  76 H :    0.039414
  77 H :    0.052247
  78 H :    0.096878
  79 H :    0.037401
  80 H :    0.034981
  81 H :    0.028501
  82 H :    0.030502
  83 H :    0.021677
  84 H :    0.028706
  85 H :    0.026908
  86 H :    0.030997
  87 H :    0.032157
  88 H :    0.028411
  89 H :    0.030827
  90 H :    0.043489
  91 H :    0.097468
  92 H :    0.041533
  93 H :    0.036493
  94 H :    0.044820
  95 H :    0.041557
  96 H :    0.041697
  97 H :    0.039135

  Mayer bond orders larger than 0.100000
B(  0-C ,  1-C ) :   1.6383 B(  0-C ,  6-C ) :   1.0115 B(  0-C , 18-C ) :   1.0735
B(  1-C ,  2-C ) :   1.1437 B(  1-C ,  4-C ) :   1.1430 B(  2-C ,  3-N ) :   2.9703
B(  4-C ,  5-N ) :   2.9738 B(  6-C ,  7-C ) :   1.2714 B(  6-C , 11-C ) :   1.4008
B(  7-C ,  8-C ) :   1.4248 B(  7-C , 16-C ) :   0.9411 B(  8-C ,  9-C ) :   1.2490
B(  8-C , 74-H ) :   1.0155 B(  9-C , 10-C ) :   1.2985 B(  9-C , 14-C ) :   1.1631
B( 10-C , 11-C ) :   1.3390 B( 10-C , 12-S ) :   1.0869 B( 11-C , 75-H ) :   0.9788
B( 12-S , 13-C ) :   1.0868 B( 13-C , 14-C ) :   1.6169 B( 13-C , 15-Br) :   1.0219
B( 14-C , 76-H ) :   1.0004 B( 16-C , 17-O ) :   2.2251 B( 16-C , 18-C ) :   0.9232
B( 18-C , 19-C ) :   1.6230 B( 19-C , 20-C ) :   1.1516 B( 19-C , 77-H ) :   0.9326
B( 20-C , 21-O ) :   1.1221 B( 20-C , 22-C ) :   1.4421 B( 21-O , 29-C ) :   1.1768
B( 22-C , 23-C ) :   0.8662 B( 22-C , 28-C ) :   1.3183 B( 23-C , 24-O ) :   2.2400
B( 23-C , 25-N ) :   1.0829 B( 25-N , 26-C ) :   1.1050 B( 25-N , 78-H ) :   0.9156
B( 26-C , 27-O ) :   2.1614 B( 26-C , 28-C ) :   0.8893 B( 28-C , 29-C ) :   1.3869
B( 29-C , 30-C ) :   1.1463 B( 30-C , 31-C ) :   1.6838 B( 30-C , 79-H ) :   0.9663
B( 31-C , 32-C ) :   1.0449 B( 31-C , 80-H ) :   0.9470 B( 32-C , 33-C ) :   1.3710
B( 32-C , 39-C ) :   1.3535 B( 33-C , 34-C ) :   1.0835 B( 33-C , 36-C ) :   1.3551
B( 34-C , 35-C ) :   1.0984 B( 34-C , 81-H ) :   0.9148 B( 34-C , 82-H ) :   0.9149
B( 35-C , 83-H ) :   0.9659 B( 35-C , 84-H ) :   0.9651 B( 35-C , 85-H ) :   0.9662
B( 36-C , 37-C ) :   1.3568 B( 36-C , 40-C ) :   1.0333 B( 37-C , 38-C ) :   1.3768
B( 37-C , 86-H ) :   0.9929 B( 38-C , 39-C ) :   1.3725 B( 38-C , 87-H ) :   0.9878
B( 39-C , 88-H ) :   0.9929 B( 40-C , 41-C ) :   1.6921 B( 40-C , 89-H ) :   0.9667
B( 41-C , 42-C ) :   1.1641 B( 41-C , 90-H ) :   0.9565 B( 42-C , 43-O ) :   1.1549
B( 42-C , 44-C ) :   1.3916 B( 43-O , 51-C ) :   1.1293 B( 44-C , 45-C ) :   0.8807
B( 44-C , 50-C ) :   1.2857 B( 45-C , 46-O ) :   2.2698 B( 45-C , 47-N ) :   1.0681
B( 47-N , 48-C ) :   1.1176 B( 47-N , 91-H ) :   0.9141 B( 48-C , 49-O ) :   2.1375
B( 48-C , 50-C ) :   0.8817 B( 50-C , 51-C ) :   1.4354 B( 51-C , 52-C ) :   1.1430
B( 52-C , 53-C ) :   1.6418 B( 52-C , 92-H ) :   0.9793 B( 53-C , 54-C ) :   1.1164
B( 53-C , 93-H ) :   0.9290 B( 54-C , 55-C ) :   1.6447 B( 54-C , 94-H ) :   0.9640
B( 55-C , 56-C ) :   1.0280 B( 55-C , 64-C ) :   0.9341 B( 56-C , 57-C ) :   1.6652
B( 56-C , 62-C ) :   1.0152 B( 57-C , 58-C ) :   1.1364 B( 57-C , 60-C ) :   1.1552
B( 58-C , 59-N ) :   2.9867 B( 60-C , 61-N ) :   2.9992 B( 62-C , 63-C ) :   1.2734
B( 62-C , 69-C ) :   1.4157 B( 63-C , 64-C ) :   0.9223 B( 63-C , 66-C ) :   1.4235
B( 64-C , 65-O ) :   2.2750 B( 66-C , 67-C ) :   1.2540 B( 66-C , 95-H ) :   1.0161
B( 67-C , 68-C ) :   1.3060 B( 67-C , 72-C ) :   1.1640 B( 68-C , 69-C ) :   1.3276
B( 68-C , 70-S ) :   1.0849 B( 69-C , 96-H ) :   0.9829 B( 70-S , 71-C ) :   1.0867
B( 71-C , 72-C ) :   1.6180 B( 71-C , 73-Br) :   1.0194 B( 72-C , 97-H ) :   0.9999

-----------------------------------------------------------------------------
         ABSORPTION SPECTRUM VIA TRANSITION ELECTRIC DIPOLE MOMENTS
-----------------------------------------------------------------------------
State   Energy  Wavelength   fosc         T2         TX        TY        TZ
        (cm-1)    (nm)                  (au**2)     (au)      (au)      (au)
-----------------------------------------------------------------------------
   0   19832.8    504.2   1.488193209  24.70301   0.04356   0.82129   4.90169
   1   20629.5    484.7   0.384302382   6.13281   0.33780   1.43000  -1.99344
   2   25709.0    389.0   0.202850799   2.59756  -1.09189   0.86201  -0.81381
   3   25929.6    385.7   0.103869690   1.31877   0.64927  -0.41204  -0.85290
   4   26345.0    379.6   0.058763958   0.73433  -0.25523  -0.36077   0.73418
   5   26832.2    372.7   0.125783244   1.54327   0.30334   0.09070  -1.20126
   6   28283.4    353.6   0.567705216   6.60796   0.11898  -0.42876  -2.53179
   7   28397.2    352.1   0.054386211   0.63051   0.06622   0.33101   0.71871
   8   28537.5    350.4   0.137543937   1.58672   0.97868  -0.75640   0.23825
   9   28550.6    350.3   0.044423885   0.51224   0.39447  -0.11532  -0.58595
  10   29278.4    341.5   0.447433989   5.03104  -0.13920   1.17893  -1.90310
  11   29591.6    337.9   0.415481356   4.62231   0.00636  -1.33433   1.68578
  12   29723.4    336.4   0.100110392   1.10881  -0.12764   0.88683  -0.55322
  13   30552.5    327.3   0.250838420   2.70285   0.81985  -1.39159  -0.30688
  14   31860.2    313.9   0.127440392   1.31684  -0.12295  -0.33121  -1.09180
  15   32336.1    309.3   0.121896883   1.24102  -0.81848   0.75509   0.03084
  16   32404.0    308.6   0.349781006   3.55364  -1.51194   0.71059  -0.87335
  17   32779.7    305.1   0.158630358   1.59315  -1.10900   0.39496  -0.45527
  18   33108.5    302.0   0.648351291   6.44683  -1.06743   1.64369   1.61422
  19   33471.2    298.8   0.018021347   0.17725   0.37438  -0.14741  -0.12396
  20   33534.1    298.2   0.002188742   0.02149   0.14193  -0.03140  -0.01888
  21   33921.1    294.8   0.006012923   0.05836  -0.21896   0.03523   0.09577
  22   33965.4    294.4   0.069073217   0.66950  -0.14356   0.11848   0.79677
  23   35250.3    283.7   0.003703130   0.03458  -0.07640  -0.16728   0.02765
  24   35856.2    278.9   0.001627381   0.01494  -0.09196  -0.03164  -0.07406
  25   36048.4    277.4   0.008263710   0.07547  -0.03444  -0.14202  -0.23262
  26   36364.4    275.0   0.000758279   0.00686  -0.00534   0.06373  -0.05267
  27   36882.7    271.1   0.089465173   0.79856  -0.51635  -0.13747   0.71627
  28   37143.2    269.2   0.137029734   1.21454   0.51915   0.01690  -0.97198
  29   37849.7    264.2   0.002116585   0.01841  -0.07103   0.04125   0.10800
  30   38025.0    263.0   0.012691485   0.10988   0.11105  -0.28019   0.13798
  31   38779.5    257.9   0.227797349   1.93385   0.01742  -0.92408   1.03904
  32   38946.1    256.8   0.018331333   0.15495   0.01210   0.05391  -0.38975
  33   39471.1    253.3   0.230699672   1.92417   0.77906  -0.18746  -1.13229
  34   39613.9    252.4   0.053606869   0.44550   0.43511  -0.00141  -0.50614
  35   39728.4    251.7   0.079259876   0.65679   0.17922   0.66039  -0.43423
  36   39910.7    250.6   0.011948837   0.09856  -0.06250  -0.24958  -0.17991
  37   40059.0    249.6   0.056154193   0.46149   0.14133  -0.42439   0.51127
  38   40238.5    248.5   0.021279774   0.17410  -0.16040   0.23668   0.30390

FINAL SINGLE POINT ENERGY     -9018.909946716720

DIPOLE MOMENT
-------------
                                X             Y             Z
Electronic contribution:     58.96594     -89.06259     -13.32072
Nuclear contribution   :    -56.23103      87.79766      13.27057
                        -----------------------------------------
Total Dipole Moment    :      2.73491      -1.26492      -0.05015
                        -----------------------------------------
Magnitude (a.u.)       :      3.01368
Magnitude (Debye)      :      7.66016

Rotational constants in cm-1:     0.001462     0.000122     0.000115
Rotational constants in MHz :    43.818964     3.645296     3.444132

                             ****ORCA TERMINATED NORMALLY****
TOTAL RUN TIME: 0 days 0 hours 8 minutes 54 seconds 105 msec
