                         Program Version 4.2.0 -  RELEASE  -
|  1> # ORCA input file
|  2> # SCF done       -149.601138616157          0.000251950692
|  3> ! CAM-B3LYP def2-SVP def2/J RIJCOSX Grid4 TightSCF
|  4> %maxcore 5000
|  5> %tddft
|  6>     Mode sTDDFT
|  7>     Ethresh 5.0
|  8>     maxcore 5000
|  9> end
| 10>
| 11> %pal
| 12>   nprocs 6
| 13>   end
| 14> * xyz 0 1
| 15>    C       -3.32848        -1.29036         2.70440
| 16>    C       -2.49365        -1.58014         1.69791
| 17>    C       -2.26219        -0.82141         0.50139
| 18>    C       -1.35707        -1.36641        -0.33959
| 19>    C       -0.79789        -2.59507         0.11496
| 20>    S       -1.47662        -3.03008         1.67092
| 21>    C        0.13387        -3.37387        -0.52582
| 22>    C        0.75329        -3.13820        -1.77986
| 23>    C        1.63012        -4.10427        -2.15486
| 24>    C        1.76470        -5.16930        -1.22464
| 25>    S        0.72142        -4.87749         0.16158
| 26>    C        2.55937        -6.27472        -1.35139
| 27>    C        2.63880        -7.29908        -0.39058
| 28>    N        3.38017        -8.33549        -0.58948
| 29>    N        3.42990        -9.28068         0.33524
| 30>    C        4.15087       -10.42867         0.16816
| 31>    C        4.88295       -10.65297        -1.00679
| 32>    C        5.58610       -11.81870        -1.17209
| 33>    C        5.58286       -12.79916        -0.16605
| 34>    C        4.85975       -12.56478         1.01352
| 35>    C        4.15433       -11.39941         1.17901
| 36>    C        6.29476       -14.02709        -0.34976
| 37>    O        6.28173       -14.96829         0.62939
| 38>    C        7.04317       -14.51341        -1.40944
| 39>    C        7.54626       -14.22436        -2.75352
| 40>    O        7.42151       -13.25789        -3.46272
| 41>    N        8.25986       -15.37179        -3.09669
| 42>    C        8.27926       -16.37353        -2.12989
| 43>    O        8.83679       -17.43481        -2.23795
| 44>    C        7.48654       -15.80591        -1.03638
| 45>    C        6.99797       -16.05824         0.23138
| 46>    C        7.13671       -17.19707         1.05775
| 47>    C        6.61168       -17.28832         2.30990
| 48>    C        6.70857       -18.40567         3.15662
| 49>    C        7.23617       -19.64808         3.00615
| 50>    C        7.11407       -20.52750         4.11977
| 51>    C        6.48513       -20.03309         5.21647
| 52>    S        6.01079       -18.33050         4.82573
| 53>    O        6.73175       -17.39455         5.64550
| 54>    O        4.58047       -18.18841         4.78007
| 55>    C        6.18067       -20.57314         6.47973
| 56>    C        6.42752       -21.84975         6.87422
| 57>    C        6.10508       -22.34869         8.16116
| 58>    O        5.54610       -21.55376         9.11441
| 59>    C        6.26417       -23.61345         8.69566
| 60>    C        6.73557       -24.97144         8.41610
| 61>    O        7.22034       -25.45601         7.42698
| 62>    N        6.49683       -25.65143         9.61015
| 63>    C        5.92595       -24.89241        10.63067
| 64>    O        5.64883       -25.30237        11.72653
| 65>    C        5.77646       -23.56359        10.02622
| 66>    C        5.34367       -22.27437        10.24623
| 67>    C        4.76813       -21.67299        11.41578
| 68>    C        4.40228       -20.39426        11.48657
| 69>    H       -3.92838        -0.39777         2.68034
| 70>    H       -3.42598        -1.93167         3.56101
| 71>    H       -2.78827         0.10043         0.32732
| 72>    H       -1.06450        -0.93306        -1.27953
| 73>    H        0.53024        -2.26380        -2.36452
| 74>    H        2.19143        -4.09704        -3.07245
| 75>    H        3.16047        -6.38346        -2.24184
| 76>    H        2.04708        -7.19001         0.52712
| 77>    H        2.89102        -9.17162         1.19992
| 78>    H        4.87165        -9.89244        -1.76998
| 79>    H        6.14263       -11.99023        -2.07979
| 80>    H        4.85970       -13.31472         1.78903
| 81>    H        3.59503       -11.22653         2.08729
| 82>    H        8.72923       -15.46693        -3.98599
| 83>    H        7.70078       -18.00903         0.62394
| 84>    H        6.06990       -16.44527         2.71729
| 85>    H        7.72195       -19.98304         2.10330
| 86>    H        7.51361       -21.52799         4.06407
| 87>    H        5.70422       -19.89005         7.17030
| 88>    H        6.88651       -22.56663         6.21027
| 89>    H        6.72243       -26.62902         9.72791
| 90>    H        4.65429       -22.34929        12.25074
| 91>    H        4.52252       -19.72998        10.64752
| 92>    H        3.97553       -19.98119        12.38308
| 93> *
| 94>
| 95>                          ****END OF INPUT****

CARTESIAN COORDINATES (ANGSTROEM)
---------------------------------
  C     -3.328480   -1.290360    2.704400
  C     -2.493650   -1.580140    1.697910
  C     -2.262190   -0.821410    0.501390
  C     -1.357070   -1.366410   -0.339590
  C     -0.797890   -2.595070    0.114960
  S     -1.476620   -3.030080    1.670920
  C      0.133870   -3.373870   -0.525820
  C      0.753290   -3.138200   -1.779860
  C      1.630120   -4.104270   -2.154860
  C      1.764700   -5.169300   -1.224640
  S      0.721420   -4.877490    0.161580
  C      2.559370   -6.274720   -1.351390
  C      2.638800   -7.299080   -0.390580
  N      3.380170   -8.335490   -0.589480
  N      3.429900   -9.280680    0.335240
  C      4.150870  -10.428670    0.168160
  C      4.882950  -10.652970   -1.006790
  C      5.586100  -11.818700   -1.172090
  C      5.582860  -12.799160   -0.166050
  C      4.859750  -12.564780    1.013520
  C      4.154330  -11.399410    1.179010
  C      6.294760  -14.027090   -0.349760
  O      6.281730  -14.968290    0.629390
  C      7.043170  -14.513410   -1.409440
  C      7.546260  -14.224360   -2.753520
  O      7.421510  -13.257890   -3.462720
  N      8.259860  -15.371790   -3.096690
  C      8.279260  -16.373530   -2.129890
  O      8.836790  -17.434810   -2.237950
  C      7.486540  -15.805910   -1.036380
  C      6.997970  -16.058240    0.231380
  C      7.136710  -17.197070    1.057750
  C      6.611680  -17.288320    2.309900
  C      6.708570  -18.405670    3.156620
  C      7.236170  -19.648080    3.006150
  C      7.114070  -20.527500    4.119770
  C      6.485130  -20.033090    5.216470
  S      6.010790  -18.330500    4.825730
  O      6.731750  -17.394550    5.645500
  O      4.580470  -18.188410    4.780070
  C      6.180670  -20.573140    6.479730
  C      6.427520  -21.849750    6.874220
  C      6.105080  -22.348690    8.161160
  O      5.546100  -21.553760    9.114410
  C      6.264170  -23.613450    8.695660
  C      6.735570  -24.971440    8.416100
  O      7.220340  -25.456010    7.426980
  N      6.496830  -25.651430    9.610150
  C      5.925950  -24.892410   10.630670
  O      5.648830  -25.302370   11.726530
  C      5.776460  -23.563590   10.026220
  C      5.343670  -22.274370   10.246230
  C      4.768130  -21.672990   11.415780
  C      4.402280  -20.394260   11.486570
  H     -3.928380   -0.397770    2.680340
  H     -3.425980   -1.931670    3.561010
  H     -2.788270    0.100430    0.327320
  H     -1.064500   -0.933060   -1.279530
  H      0.530240   -2.263800   -2.364520
  H      2.191430   -4.097040   -3.072450
  H      3.160470   -6.383460   -2.241840
  H      2.047080   -7.190010    0.527120
  H      2.891020   -9.171620    1.199920
  H      4.871650   -9.892440   -1.769980
  H      6.142630  -11.990230   -2.079790
  H      4.859700  -13.314720    1.789030
  H      3.595030  -11.226530    2.087290
  H      8.729230  -15.466930   -3.985990
  H      7.700780  -18.009030    0.623940
  H      6.069900  -16.445270    2.717290
  H      7.721950  -19.983040    2.103300
  H      7.513610  -21.527990    4.064070
  H      5.704220  -19.890050    7.170300
  H      6.886510  -22.566630    6.210270
  H      6.722430  -26.629020    9.727910
  H      4.654290  -22.349290   12.250740
  H      4.522520  -19.729980   10.647520
  H      3.975530  -19.981190   12.383080

 Total Charge           Charge          ....    0
 Multiplicity           Mult            ....    1
 Number of Electrons    NEL             ....  398
 Basis Dimension        Dim             ....  888

ORBITAL ENERGIES
----------------

  NO   OCC          E(Eh)            E(eV)
   0   2.0000     -89.137807     -2425.5630
   1   2.0000     -88.943104     -2420.2649
   2   2.0000     -88.939168     -2420.1578
   3   2.0000     -19.312402      -525.5172
   4   2.0000     -19.308244      -525.4040
   5   2.0000     -19.209942      -522.7291
   6   2.0000     -19.208856      -522.6996
   7   2.0000     -19.208229      -522.6825
   8   2.0000     -19.208161      -522.6806
   9   2.0000     -19.196595      -522.3659
  10   2.0000     -19.196333      -522.3588
  11   2.0000     -14.479030      -393.9944
  12   2.0000     -14.453086      -393.2885
  13   2.0000     -14.451503      -393.2454
  14   2.0000     -14.449107      -393.1802
  15   2.0000     -10.399357      -282.9809
  16   2.0000     -10.398671      -282.9622
  17   2.0000     -10.397192      -282.9220
  18   2.0000     -10.396947      -282.9153
  19   2.0000     -10.363024      -281.9922
  20   2.0000     -10.362460      -281.9769
  21   2.0000     -10.362265      -281.9716
  22   2.0000     -10.356471      -281.8139
  23   2.0000     -10.323682      -280.9217
  24   2.0000     -10.312007      -280.6040
  25   2.0000     -10.310981      -280.5761
  26   2.0000     -10.310783      -280.5707
  27   2.0000     -10.309461      -280.5347
  28   2.0000     -10.309113      -280.5252
  29   2.0000     -10.308820      -280.5173
  30   2.0000     -10.308681      -280.5135
  31   2.0000     -10.307339      -280.4770
  32   2.0000     -10.306323      -280.4493
  33   2.0000     -10.304510      -280.4000
  34   2.0000     -10.304173      -280.3908
  35   2.0000     -10.303904      -280.3835
  36   2.0000     -10.299921      -280.2751
  37   2.0000     -10.292844      -280.0825
  38   2.0000     -10.291554      -280.0474
  39   2.0000     -10.290525      -280.0194
  40   2.0000     -10.289963      -280.0041
  41   2.0000     -10.289549      -279.9929
  42   2.0000     -10.289421      -279.9894
  43   2.0000     -10.285738      -279.8892
  44   2.0000     -10.284746      -279.8622
  45   2.0000     -10.284212      -279.8476
  46   2.0000     -10.282948      -279.8132
  47   2.0000     -10.281197      -279.7656
  48   2.0000     -10.280681      -279.7516
  49   2.0000     -10.276428      -279.6358
  50   2.0000     -10.275021      -279.5975
  51   2.0000     -10.274054      -279.5712
  52   2.0000     -10.271042      -279.4893
  53   2.0000     -10.264674      -279.3160
  54   2.0000      -8.204304      -223.2505
  55   2.0000      -8.039549      -218.7672
  56   2.0000      -8.035878      -218.6674
  57   2.0000      -6.173052      -167.9773
  58   2.0000      -6.173023      -167.9765
  59   2.0000      -6.172334      -167.9577
  60   2.0000      -6.009320      -163.5219
  61   2.0000      -6.005698      -163.4233
  62   2.0000      -6.005423      -163.4159
  63   2.0000      -6.001820      -163.3178
  64   2.0000      -6.000240      -163.2748
  65   2.0000      -5.996386      -163.1700
  66   2.0000      -1.228736       -33.4356
  67   2.0000      -1.224203       -33.3122
  68   2.0000      -1.200256       -32.6606
  69   2.0000      -1.154056       -31.4035
  70   2.0000      -1.152607       -31.3640
  71   2.0000      -1.133641       -30.8480
  72   2.0000      -1.132065       -30.8051
  73   2.0000      -1.125397       -30.6236
  74   2.0000      -1.077661       -29.3246
  75   2.0000      -1.041187       -28.3321
  76   2.0000      -1.039580       -28.2884
  77   2.0000      -0.993263       -27.0281
  78   2.0000      -0.979577       -26.6556
  79   2.0000      -0.976622       -26.5752
  80   2.0000      -0.968600       -26.3569
  81   2.0000      -0.941796       -25.6276
  82   2.0000      -0.935741       -25.4628
  83   2.0000      -0.923691       -25.1349
  84   2.0000      -0.923145       -25.1200
  85   2.0000      -0.916474       -24.9385
  86   2.0000      -0.899523       -24.4773
  87   2.0000      -0.887577       -24.1522
  88   2.0000      -0.873946       -23.7813
  89   2.0000      -0.857785       -23.3415
  90   2.0000      -0.845594       -23.0098
  91   2.0000      -0.844998       -22.9936
  92   2.0000      -0.841171       -22.8894
  93   2.0000      -0.825286       -22.4572
  94   2.0000      -0.818336       -22.2680
  95   2.0000      -0.799946       -21.7676
  96   2.0000      -0.796646       -21.6778
  97   2.0000      -0.783666       -21.3246
  98   2.0000      -0.770708       -20.9720
  99   2.0000      -0.765992       -20.8437
 100   2.0000      -0.762694       -20.7540
 101   2.0000      -0.760160       -20.6850
 102   2.0000      -0.745293       -20.2804
 103   2.0000      -0.735450       -20.0126
 104   2.0000      -0.729557       -19.8523
 105   2.0000      -0.716226       -19.4895
 106   2.0000      -0.703971       -19.1560
 107   2.0000      -0.698838       -19.0163
 108   2.0000      -0.696471       -18.9519
 109   2.0000      -0.687232       -18.7005
 110   2.0000      -0.683922       -18.6105
 111   2.0000      -0.665825       -18.1180
 112   2.0000      -0.652326       -17.7507
 113   2.0000      -0.641825       -17.4649
 114   2.0000      -0.639495       -17.4016
 115   2.0000      -0.631269       -17.1777
 116   2.0000      -0.629451       -17.1282
 117   2.0000      -0.619984       -16.8706
 118   2.0000      -0.609735       -16.5917
 119   2.0000      -0.607939       -16.5429
 120   2.0000      -0.603757       -16.4291
 121   2.0000      -0.598193       -16.2777
 122   2.0000      -0.593855       -16.1596
 123   2.0000      -0.592035       -16.1101
 124   2.0000      -0.591263       -16.0891
 125   2.0000      -0.588033       -16.0012
 126   2.0000      -0.585081       -15.9209
 127   2.0000      -0.582596       -15.8532
 128   2.0000      -0.581764       -15.8306
 129   2.0000      -0.573691       -15.6109
 130   2.0000      -0.564452       -15.3595
 131   2.0000      -0.560907       -15.2631
 132   2.0000      -0.553971       -15.0743
 133   2.0000      -0.550740       -14.9864
 134   2.0000      -0.542940       -14.7741
 135   2.0000      -0.540986       -14.7210
 136   2.0000      -0.540241       -14.7007
 137   2.0000      -0.539398       -14.6778
 138   2.0000      -0.531759       -14.4699
 139   2.0000      -0.530146       -14.4260
 140   2.0000      -0.529244       -14.4014
 141   2.0000      -0.526235       -14.3196
 142   2.0000      -0.525504       -14.2997
 143   2.0000      -0.522860       -14.2278
 144   2.0000      -0.518474       -14.1084
 145   2.0000      -0.515203       -14.0194
 146   2.0000      -0.514110       -13.9897
 147   2.0000      -0.512392       -13.9429
 148   2.0000      -0.511077       -13.9071
 149   2.0000      -0.505823       -13.7641
 150   2.0000      -0.501446       -13.6450
 151   2.0000      -0.499307       -13.5868
 152   2.0000      -0.495359       -13.4794
 153   2.0000      -0.493223       -13.4213
 154   2.0000      -0.487379       -13.2622
 155   2.0000      -0.481715       -13.1081
 156   2.0000      -0.481640       -13.1061
 157   2.0000      -0.480632       -13.0787
 158   2.0000      -0.472782       -12.8651
 159   2.0000      -0.471852       -12.8398
 160   2.0000      -0.470797       -12.8110
 161   2.0000      -0.467677       -12.7261
 162   2.0000      -0.465716       -12.6728
 163   2.0000      -0.465271       -12.6607
 164   2.0000      -0.456351       -12.4179
 165   2.0000      -0.455375       -12.3914
 166   2.0000      -0.455290       -12.3891
 167   2.0000      -0.454560       -12.3692
 168   2.0000      -0.443625       -12.0717
 169   2.0000      -0.428610       -11.6631
 170   2.0000      -0.423500       -11.5240
 171   2.0000      -0.421035       -11.4569
 172   2.0000      -0.413519       -11.2524
 173   2.0000      -0.407578       -11.0908
 174   2.0000      -0.399875       -10.8812
 175   2.0000      -0.396925       -10.8009
 176   2.0000      -0.394247       -10.7280
 177   2.0000      -0.386690       -10.5224
 178   2.0000      -0.378002       -10.2860
 179   2.0000      -0.372399       -10.1335
 180   2.0000      -0.368362       -10.0236
 181   2.0000      -0.366911        -9.9842
 182   2.0000      -0.366537        -9.9740
 183   2.0000      -0.363694        -9.8966
 184   2.0000      -0.363096        -9.8803
 185   2.0000      -0.359728        -9.7887
 186   2.0000      -0.358550        -9.7566
 187   2.0000      -0.357346        -9.7239
 188   2.0000      -0.344217        -9.3666
 189   2.0000      -0.342923        -9.3314
 190   2.0000      -0.340876        -9.2757
 191   2.0000      -0.338457        -9.2099
 192   2.0000      -0.329258        -8.9596
 193   2.0000      -0.327202        -8.9036
 194   2.0000      -0.314773        -8.5654
 195   2.0000      -0.294692        -8.0190
 196   2.0000      -0.269529        -7.3343
 197   2.0000      -0.245695        -6.6857
 198   2.0000      -0.215691        -5.8692
 199   0.0000      -0.099050        -2.6953
 200   0.0000      -0.068141        -1.8542
 201   0.0000      -0.041466        -1.1284
 202   0.0000      -0.036632        -0.9968
 203   0.0000      -0.031005        -0.8437

MULLIKEN ATOMIC CHARGES
-----------------------
   0 C :   -0.028132
   1 C :   -0.065914
   2 C :    0.052809
   3 C :    0.031960
   4 C :   -0.067267
   5 S :    0.078319
   6 C :   -0.051001
   7 C :    0.031722
   8 C :    0.037541
   9 C :   -0.014003
  10 S :    0.058349
  11 C :   -0.003757
  12 C :   -0.036387
  13 N :   -0.016378
  14 N :   -0.034696
  15 C :    0.149007
  16 C :   -0.029193
  17 C :   -0.006530
  18 C :    0.043610
  19 C :   -0.017012
  20 C :   -0.042782
  21 C :    0.138925
  22 O :   -0.213403
  23 C :   -0.085078
  24 C :    0.184712
  25 O :   -0.154459
  26 N :   -0.159260
  27 C :    0.156339
  28 O :   -0.145400
  29 C :   -0.014774
  30 C :    0.076857
  31 C :   -0.015660
  32 C :    0.082129
  33 C :   -0.040061
  34 C :    0.008032
  35 C :    0.017409
  36 C :   -0.049354
  37 S :    0.757900
  38 O :   -0.452958
  39 O :   -0.453942
  40 C :    0.093658
  41 C :   -0.019451
  42 C :    0.079423
  43 O :   -0.207279
  44 C :   -0.028333
  45 C :    0.162869
  46 O :   -0.143434
  47 N :   -0.168273
  48 C :    0.165014
  49 O :   -0.139772
  50 C :   -0.037948
  51 C :    0.067348
  52 C :   -0.024491
  53 C :    0.020380
  54 H :    0.020819
  55 H :    0.022448
  56 H :   -0.011486
  57 H :   -0.012010
  58 H :   -0.012968
  59 H :   -0.011069
  60 H :   -0.003369
  61 H :   -0.009806
  62 H :    0.109622
  63 H :   -0.007796
  64 H :   -0.007602
  65 H :   -0.006556
  66 H :   -0.031786
  67 H :    0.137258
  68 H :    0.015436
  69 H :    0.012173
  70 H :    0.002997
  71 H :    0.003574
  72 H :    0.014666
  73 H :    0.015403
  74 H :    0.138827
  75 H :    0.018649
  76 H :    0.039764
  77 H :    0.034885
Sum of atomic charges:   -0.0000000

LOEWDIN ATOMIC CHARGES
----------------------
   0 C :   -0.075247
   1 C :   -0.139395
   2 C :   -0.030082
   3 C :   -0.026427
   4 C :   -0.176253
   5 S :    0.349716
   6 C :   -0.181064
   7 C :   -0.027624
   8 C :   -0.034377
   9 C :   -0.139975
  10 S :    0.352611
  11 C :   -0.070263
  12 C :   -0.033316
  13 N :   -0.026658
  14 N :    0.067316
  15 C :    0.034853
  16 C :   -0.044520
  17 C :    0.020229
  18 C :   -0.081060
  19 C :    0.009846
  20 C :   -0.060753
  21 C :    0.099214
  22 O :    0.016101
  23 C :   -0.119359
  24 C :    0.089694
  25 O :   -0.162016
  26 N :   -0.003775
  27 C :    0.083161
  28 O :   -0.162998
  29 C :   -0.083605
  30 C :    0.054373
  31 C :   -0.006731
  32 C :   -0.028953
  33 C :   -0.149837
  34 C :   -0.024140
  35 C :   -0.012293
  36 C :   -0.160491
  37 S :    1.172143
  38 O :   -0.495342
  39 O :   -0.495738
  40 C :   -0.015977
  41 C :   -0.016679
  42 C :    0.065328
  43 O :    0.019452
  44 C :   -0.093489
  45 C :    0.083676
  46 O :   -0.161609
  47 N :   -0.006679
  48 C :    0.084781
  49 O :   -0.157719
  50 C :   -0.100137
  51 C :    0.075107
  52 C :   -0.040777
  53 C :   -0.003187
  54 H :    0.029067
  55 H :    0.026642
  56 H :    0.033636
  57 H :    0.032285
  58 H :    0.032011
  59 H :    0.034479
  60 H :    0.038693
  61 H :   -0.000161
  62 H :    0.070703
  63 H :    0.033131
  64 H :    0.034492
  65 H :    0.033344
  66 H :    0.026095
  67 H :    0.094580
  68 H :    0.046016
  69 H :    0.038462
  70 H :    0.037651
  71 H :    0.038281
  72 H :    0.039698
  73 H :    0.045640
  74 H :    0.094683
  75 H :    0.047554
  76 H :    0.031166
  77 H :    0.032792

  Mayer bond orders larger than 0.100000
B(  0-C ,  1-C ) :   1.8682 B(  0-C , 54-H ) :   0.9506 B(  0-C , 55-H ) :   0.9412
B(  1-C ,  2-C ) :   1.0780 B(  1-C ,  5-S ) :   1.0068 B(  2-C ,  3-C ) :   1.6661
B(  2-C , 56-H ) :   0.9930 B(  3-C ,  4-C ) :   1.1492 B(  3-C , 57-H ) :   0.9916
B(  4-C ,  5-S ) :   1.0447 B(  4-C ,  6-C ) :   1.5657 B(  6-C ,  7-C ) :   1.1675
B(  6-C , 10-S ) :   1.0329 B(  7-C ,  8-C ) :   1.6187 B(  7-C , 58-H ) :   0.9925
B(  8-C ,  9-C ) :   1.1288 B(  8-C , 59-H ) :   0.9989 B(  9-C , 10-S ) :   1.0254
B(  9-C , 11-C ) :   1.5902 B( 11-C , 12-C ) :   1.1376 B( 11-C , 60-H ) :   0.9817
B( 12-C , 13-N ) :   1.7486 B( 12-C , 61-H ) :   0.9481 B( 13-N , 14-N ) :   1.0613
B( 14-N , 15-C ) :   1.1502 B( 14-N , 62-H ) :   0.9142 B( 15-C , 16-C ) :   1.3218
B( 15-C , 20-C ) :   1.2928 B( 16-C , 17-C ) :   1.4097 B( 16-C , 63-H ) :   0.9897
B( 17-C , 18-C ) :   1.3122 B( 17-C , 64-H ) :   0.9754 B( 18-C , 19-C ) :   1.2970
B( 18-C , 21-C ) :   1.1145 B( 19-C , 20-C ) :   1.4132 B( 19-C , 65-H ) :   0.9994
B( 20-C , 66-H ) :   0.9944 B( 21-C , 22-O ) :   1.1825 B( 21-C , 23-C ) :   1.3975
B( 22-O , 30-C ) :   1.1276 B( 23-C , 24-C ) :   0.8895 B( 23-C , 29-C ) :   1.2714
B( 24-C , 25-O ) :   2.1756 B( 24-C , 26-N ) :   1.0914 B( 26-N , 27-C ) :   1.0849
B( 26-N , 67-H ) :   0.9143 B( 27-C , 28-O ) :   2.2628 B( 27-C , 29-C ) :   0.8778
B( 29-C , 30-C ) :   1.3948 B( 30-C , 31-C ) :   1.2095 B( 31-C , 32-C ) :   1.6125
B( 31-C , 68-H ) :   0.9555 B( 32-C , 33-C ) :   1.1389 B( 32-C , 69-H ) :   0.9664
B( 33-C , 34-C ) :   1.6331 B( 33-C , 37-S ) :   0.7989 B( 34-C , 35-C ) :   1.1322
B( 34-C , 70-H ) :   0.9900 B( 35-C , 36-C ) :   1.6368 B( 35-C , 71-H ) :   0.9899
B( 36-C , 37-S ) :   0.7994 B( 36-C , 40-C ) :   1.1329 B( 37-S , 38-O ) :   1.7239
B( 37-S , 39-O ) :   1.7231 B( 40-C , 41-C ) :   1.6314 B( 40-C , 72-H ) :   0.9646
B( 41-C , 42-C ) :   1.2000 B( 41-C , 73-H ) :   0.9548 B( 42-C , 43-O ) :   1.1517
B( 42-C , 44-C ) :   1.4026 B( 43-O , 51-C ) :   1.1557 B( 44-C , 45-C ) :   0.8813
B( 44-C , 50-C ) :   1.2660 B( 45-C , 46-O ) :   2.2671 B( 45-C , 47-N ) :   1.0787
B( 47-N , 48-C ) :   1.0766 B( 47-N , 74-H ) :   0.9138 B( 48-C , 49-O ) :   2.2709
B( 48-C , 50-C ) :   0.8769 B( 50-C , 51-C ) :   1.4332 B( 51-C , 52-C ) :   1.1491
B( 52-C , 53-C ) :   1.8951 B( 52-C , 75-H ) :   0.9513 B( 53-C , 76-H ) :   0.9601
B( 53-C , 77-H ) :   0.9450

-----------------------------------------------------------------------------
         ABSORPTION SPECTRUM VIA TRANSITION ELECTRIC DIPOLE MOMENTS
-----------------------------------------------------------------------------
State   Energy  Wavelength   fosc         T2         TX        TY        TZ
        (cm-1)    (nm)                  (au**2)     (au)      (au)      (au)
-----------------------------------------------------------------------------
   0   15267.8    655.0   1.502427917  32.39603   1.37122  -4.86222   2.62195
   1   19098.5    523.6   1.482199939  25.54949  -3.32220   2.66736   2.71986
   2   19450.0    514.1   0.549352573   9.29836  -0.30989   2.31496  -1.96043
   3   24503.7    408.1   0.053041343   0.71262   0.30363   0.07659  -0.78394
   4   27292.5    366.4   0.018978586   0.22893  -0.25963   0.18077   0.35895
   5   27386.9    365.1   0.139208294   1.67339  -0.35614   1.23685  -0.12942
   6   28083.0    356.1   0.004528706   0.05309  -0.11850   0.09777   0.17172
   7   30343.1    329.6   0.019174579   0.20804   0.21560   0.00258  -0.40193
   8   31626.9    316.2   0.003131673   0.03260  -0.09614  -0.13484   0.07194
   9   31682.9    315.6   0.083391021   0.86650  -0.32776   0.85632   0.16061
  10   31974.5    312.7   0.059127843   0.60878   0.31119  -0.53031  -0.48032
  11   32780.1    305.1   0.000377627   0.00379   0.00842  -0.05877   0.01636
  12   33013.9    302.9   0.242969645   2.42287  -0.64466  -0.19467   1.40335
  13   34243.0    292.0   0.031877022   0.30647  -0.21606   0.44079   0.25591
  14   34386.9    290.8   0.078011916   0.74687   0.33551  -0.79408  -0.06112
  15   34464.4    290.2   0.003187507   0.03045   0.03611  -0.17025  -0.01264
  16   34708.7    288.1   0.003284181   0.03115  -0.01643   0.06537   0.16312
  17   34831.4    287.1   0.001071165   0.01012   0.09272   0.02184   0.03241
  18   34921.1    286.4   0.000736550   0.00694   0.06576   0.04282   0.02803
  19   35371.2    282.7   0.060078861   0.55917  -0.40330   0.59882   0.19480
  20   36117.9    276.9   0.003053087   0.02783   0.10060  -0.12709  -0.03946
  21   36577.0    273.4   0.093077424   0.83774   0.12441  -0.71214   0.56136
  22   37543.9    266.4   0.046501343   0.40776  -0.30693   0.42617   0.36322
  23   37600.1    266.0   0.060129581   0.52647   0.27990  -0.02142  -0.66908
  24   38411.4    260.3   0.032697143   0.28024  -0.17930   0.49429  -0.06134
  25   39029.2    256.2   0.001038382   0.00876  -0.02835  -0.02356  -0.08602
  26   39261.2    254.7   0.000671121   0.00563  -0.06465  -0.02478  -0.02887
  27   39681.2    252.0   0.045744631   0.37952   0.12246  -0.46934   0.37979
  28   39884.5    250.7   0.100318024   0.82804  -0.52601   0.68417   0.28855
  29   40190.1    248.8   0.004198960   0.03440  -0.01410  -0.02771  -0.18284

FINAL SINGLE POINT ENERGY     -3512.592569407190

DIPOLE MOMENT
-------------
                                X             Y             Z
Electronic contribution:     15.26872     -30.72941       1.66936
Nuclear contribution   :    -16.38699      33.03286      -2.13338
                        -----------------------------------------
Total Dipole Moment    :     -1.11828       2.30346      -0.46402
                        -----------------------------------------
Magnitude (a.u.)       :      2.60226
Magnitude (Debye)      :      6.61442

Rotational constants in cm-1:     0.001772     0.000295     0.000254
Rotational constants in MHz :    53.132360     8.833242     7.600364

                             ****ORCA TERMINATED NORMALLY****
TOTAL RUN TIME: 0 days 0 hours 4 minutes 40 seconds 421 msec
