                         Program Version 4.2.0 -  RELEASE  -
|  1> # ORCA input file
|  2> # SCF done       -199.816718077607          0.000777203934
|  3> ! CAM-B3LYP def2-SVP def2/J RIJCOSX Grid4 TightSCF
|  4> %maxcore 5000
|  5> %tddft
|  6>     Mode sTDDFT
|  7>     Ethresh 5.0
|  8>     maxcore 5000
|  9> end
| 10>
| 11> %pal
| 12>   nprocs 6
| 13>   end
| 14> * xyz 0 1
| 15>    C       -3.77245        -6.96658        10.52353
| 16>    C       -3.59423        -6.44591         9.27146
| 17>    C       -2.46877        -5.66892         8.93887
| 18>    C       -1.48210        -5.39662         9.85362
| 19>    C       -1.63883        -5.91116        11.16043
| 20>    C       -2.79147        -6.70183        11.49314
| 21>    N       -2.76611        -7.09972        12.76677
| 22>    S       -1.43552        -6.53554        13.45798
| 23>    N       -0.81929        -5.74729        12.19968
| 24>    C       -0.28534        -4.60725         9.55749
| 25>    C       -0.33930        -3.28443         9.12425
| 26>    C       -1.51685        -2.42924         8.83481
| 27>    O       -2.68730        -2.70865         8.89478
| 28>    N       -0.99439        -1.18389         8.47306
| 29>    C        0.40676        -1.15881         8.51970
| 30>    O        1.08445        -0.20004         8.25914
| 31>    C        0.81645        -2.51394         8.94599
| 32>    C        2.08120        -3.01201         9.19163
| 33>    C        2.14717        -4.33816         9.60520
| 34>    C        1.00360        -5.12223         9.77062
| 35>    C        1.28067        -6.52404        10.12771
| 36>    O        0.52128        -7.44320        10.20169
| 37>    S        3.05378        -6.71507        10.38577
| 38>    C        3.41678        -5.02221         9.91350
| 39>    O        4.51992        -4.56688         9.87091
| 40>    C       -1.69919        -0.03815         8.10881
| 41>    C       -3.02539         0.04552         7.96154
| 42>    C       -3.75320         1.23870         7.58407
| 43>    C       -5.09325         1.11979         7.28181
| 44>    C       -5.84836         2.24593         6.90085
| 45>    C       -7.18557         2.39689         6.54076
| 46>    C       -8.25652         1.36798         6.44500
| 47>    C       -8.01867         0.43886         5.23653
| 48>    N       -8.23799         1.17285         4.00275
| 49>    C       -8.41659         0.53805         7.73152
| 50>    N       -9.64867        -0.22898         7.65782
| 51>    C       -7.37492         3.79091         6.21623
| 52>    C       -8.45380         4.46269         5.77073
| 53>    C       -8.40840         5.92634         5.51498
| 54>    C       -7.07004         6.56076         5.72431
| 55>    C       -5.99817         5.87225         6.16522
| 56>    C       -6.09943         4.48712         6.41882
| 57>    C       -5.18019         3.53652         6.83386
| 58>    C       -3.81274         3.63682         7.16385
| 59>    C       -3.12477         2.52152         7.52660
| 60>    C       -9.35893         6.63046         6.45249
| 61>    C      -10.25783         7.52473         6.05328
| 62>    C      -11.13356         8.26002         6.95143
| 63>    C      -10.70685         8.83009         8.15527
| 64>    C       -9.34972         8.90842         8.75600
| 65>    O       -8.30320         8.49442         8.32001
| 66>    N       -9.50350         9.60605         9.95424
| 67>    C      -10.82533        10.02519        10.16135
| 68>    O      -11.21307        10.64778        11.11329
| 69>    C      -11.58281         9.53836         8.98839
| 70>    C      -12.91649         9.72596         8.68053
| 71>    C      -13.35025         9.17829         7.47949
| 72>    C      -12.49101         8.46687         6.63558
| 73>    C      -13.14005         7.94339         5.42649
| 74>    O      -12.66511         7.27340         4.55395
| 75>    S      -14.86734         8.45088         5.41899
| 76>    C      -14.73547         9.29988         6.99746
| 77>    O      -15.65139         9.85336         7.52802
| 78>    C       -8.52008         9.89372        10.89898
| 79>    C       -7.24732         9.48887        10.84165
| 80>    C       -6.25433         9.78378        11.84898
| 81>    C       -4.97122         9.28539        11.71634
| 82>    C       -3.95487         9.52195        12.65511
| 83>    C       -4.17217        10.27440        13.77724
| 84>    C       -5.45719        10.80833        13.96418
| 85>    C       -6.50702        10.56838        13.00609
| 86>    N       -7.64499        11.16016        13.36943
| 87>    S       -7.41578        11.93121        14.76070
| 88>    N       -5.87078        11.56288        14.98423
| 89>    H       -4.62851        -7.56862        10.78133
| 90>    H       -4.33028        -6.63352         8.50457
| 91>    H       -2.37101        -5.29735         7.93038
| 92>    H        2.97103        -2.41449         9.07370
| 93>    H       -1.02567         0.79074         7.93897
| 94>    H       -3.62790        -0.83658         8.12068
| 95>    H       -5.55736         0.14638         7.32285
| 96>    H       -9.21018         1.87857         6.27242
| 97>    H       -8.68172        -0.43119         5.35794
| 98>    H       -6.98263         0.09385         5.24160
| 99>    H       -9.22553         1.37107         3.88060
|100>    H       -7.92891         0.63163         3.20422
|101>    H       -8.37371         1.21945         8.59785
|102>    H       -7.59660        -0.17505         7.82423
|103>    H      -10.45437         0.38709         7.69318
|104>    H       -9.71594        -0.87224         8.43800
|105>    H       -9.40456         3.97868         5.59739
|106>    H       -8.74523         6.11538         4.48667
|107>    H       -7.01861         7.62127         5.53684
|108>    H       -5.05002         6.36772         6.31380
|109>    H       -3.32467         4.59941         7.12487
|110>    H       -2.08183         2.60145         7.78768
|111>    H       -9.23175         6.38422         7.49565
|112>    H      -10.41199         7.70953         4.99876
|113>    H      -13.58528        10.27361         9.32480
|114>    H       -8.89658        10.48606        11.72200
|115>    H       -6.90016         8.89754        10.00740
|116>    H       -4.74043         8.68311        10.84955
|117>    H       -2.97905         9.09469        12.47819
|118>    H       -3.40222        10.46535        14.50646
|119> *
|120>
|121>                          ****END OF INPUT****

CARTESIAN COORDINATES (ANGSTROEM)
---------------------------------
  C     -3.772450   -6.966580   10.523530
  C     -3.594230   -6.445910    9.271460
  C     -2.468770   -5.668920    8.938870
  C     -1.482100   -5.396620    9.853620
  C     -1.638830   -5.911160   11.160430
  C     -2.791470   -6.701830   11.493140
  N     -2.766110   -7.099720   12.766770
  S     -1.435520   -6.535540   13.457980
  N     -0.819290   -5.747290   12.199680
  C     -0.285340   -4.607250    9.557490
  C     -0.339300   -3.284430    9.124250
  C     -1.516850   -2.429240    8.834810
  O     -2.687300   -2.708650    8.894780
  N     -0.994390   -1.183890    8.473060
  C      0.406760   -1.158810    8.519700
  O      1.084450   -0.200040    8.259140
  C      0.816450   -2.513940    8.945990
  C      2.081200   -3.012010    9.191630
  C      2.147170   -4.338160    9.605200
  C      1.003600   -5.122230    9.770620
  C      1.280670   -6.524040   10.127710
  O      0.521280   -7.443200   10.201690
  S      3.053780   -6.715070   10.385770
  C      3.416780   -5.022210    9.913500
  O      4.519920   -4.566880    9.870910
  C     -1.699190   -0.038150    8.108810
  C     -3.025390    0.045520    7.961540
  C     -3.753200    1.238700    7.584070
  C     -5.093250    1.119790    7.281810
  C     -5.848360    2.245930    6.900850
  C     -7.185570    2.396890    6.540760
  C     -8.256520    1.367980    6.445000
  C     -8.018670    0.438860    5.236530
  N     -8.237990    1.172850    4.002750
  C     -8.416590    0.538050    7.731520
  N     -9.648670   -0.228980    7.657820
  C     -7.374920    3.790910    6.216230
  C     -8.453800    4.462690    5.770730
  C     -8.408400    5.926340    5.514980
  C     -7.070040    6.560760    5.724310
  C     -5.998170    5.872250    6.165220
  C     -6.099430    4.487120    6.418820
  C     -5.180190    3.536520    6.833860
  C     -3.812740    3.636820    7.163850
  C     -3.124770    2.521520    7.526600
  C     -9.358930    6.630460    6.452490
  C    -10.257830    7.524730    6.053280
  C    -11.133560    8.260020    6.951430
  C    -10.706850    8.830090    8.155270
  C     -9.349720    8.908420    8.756000
  O     -8.303200    8.494420    8.320010
  N     -9.503500    9.606050    9.954240
  C    -10.825330   10.025190   10.161350
  O    -11.213070   10.647780   11.113290
  C    -11.582810    9.538360    8.988390
  C    -12.916490    9.725960    8.680530
  C    -13.350250    9.178290    7.479490
  C    -12.491010    8.466870    6.635580
  C    -13.140050    7.943390    5.426490
  O    -12.665110    7.273400    4.553950
  S    -14.867340    8.450880    5.418990
  C    -14.735470    9.299880    6.997460
  O    -15.651390    9.853360    7.528020
  C     -8.520080    9.893720   10.898980
  C     -7.247320    9.488870   10.841650
  C     -6.254330    9.783780   11.848980
  C     -4.971220    9.285390   11.716340
  C     -3.954870    9.521950   12.655110
  C     -4.172170   10.274400   13.777240
  C     -5.457190   10.808330   13.964180
  C     -6.507020   10.568380   13.006090
  N     -7.644990   11.160160   13.369430
  S     -7.415780   11.931210   14.760700
  N     -5.870780   11.562880   14.984230
  H     -4.628510   -7.568620   10.781330
  H     -4.330280   -6.633520    8.504570
  H     -2.371010   -5.297350    7.930380
  H      2.971030   -2.414490    9.073700
  H     -1.025670    0.790740    7.938970
  H     -3.627900   -0.836580    8.120680
  H     -5.557360    0.146380    7.322850
  H     -9.210180    1.878570    6.272420
  H     -8.681720   -0.431190    5.357940
  H     -6.982630    0.093850    5.241600
  H     -9.225530    1.371070    3.880600
  H     -7.928910    0.631630    3.204220
  H     -8.373710    1.219450    8.597850
  H     -7.596600   -0.175050    7.824230
  H    -10.454370    0.387090    7.693180
  H     -9.715940   -0.872240    8.438000
  H     -9.404560    3.978680    5.597390
  H     -8.745230    6.115380    4.486670
  H     -7.018610    7.621270    5.536840
  H     -5.050020    6.367720    6.313800
  H     -3.324670    4.599410    7.124870
  H     -2.081830    2.601450    7.787680
  H     -9.231750    6.384220    7.495650
  H    -10.411990    7.709530    4.998760
  H    -13.585280   10.273610    9.324800
  H     -8.896580   10.486060   11.722000
  H     -6.900160    8.897540   10.007400
  H     -4.740430    8.683110   10.849550
  H     -2.979050    9.094690   12.478190
  H     -3.402220   10.465350   14.506460

 Total Charge           Charge          ....    0
 Multiplicity           Mult            ....    1
 Number of Electrons    NEL             ....  538
 Basis Dimension        Dim             .... 1202

ORBITAL ENERGIES
----------------

  NO   OCC          E(Eh)            E(eV)
   0   2.0000     -89.020560     -2422.3726
   1   2.0000     -89.017206     -2422.2813
   2   2.0000     -88.954334     -2420.5705
   3   2.0000     -88.949655     -2420.4432
   4   2.0000     -19.247806      -523.7594
   5   2.0000     -19.247641      -523.7550
   6   2.0000     -19.243203      -523.6342
   7   2.0000     -19.241814      -523.5964
   8   2.0000     -19.235168      -523.4155
   9   2.0000     -19.233847      -523.3796
  10   2.0000     -19.233291      -523.3645
  11   2.0000     -19.232273      -523.3368
  12   2.0000     -14.483591      -394.1185
  13   2.0000     -14.482081      -394.0775
  14   2.0000     -14.434292      -392.7770
  15   2.0000     -14.433907      -392.7666
  16   2.0000     -14.432337      -392.7239
  17   2.0000     -14.430909      -392.6850
  18   2.0000     -14.379255      -391.2794
  19   2.0000     -14.368502      -390.9868
  20   2.0000     -10.415671      -283.4248
  21   2.0000     -10.413951      -283.3780
  22   2.0000     -10.412942      -283.3505
  23   2.0000     -10.411892      -283.3220
  24   2.0000     -10.410238      -283.2770
  25   2.0000     -10.408716      -283.2355
  26   2.0000     -10.404837      -283.1300
  27   2.0000     -10.404602      -283.1236
  28   2.0000     -10.337397      -281.2949
  29   2.0000     -10.335510      -281.2435
  30   2.0000     -10.330075      -281.0956
  31   2.0000     -10.327986      -281.0388
  32   2.0000     -10.326982      -281.0115
  33   2.0000     -10.326785      -281.0061
  34   2.0000     -10.326488      -280.9980
  35   2.0000     -10.325671      -280.9758
  36   2.0000     -10.324657      -280.9482
  37   2.0000     -10.324304      -280.9386
  38   2.0000     -10.324279      -280.9379
  39   2.0000     -10.323408      -280.9142
  40   2.0000     -10.320452      -280.8338
  41   2.0000     -10.317514      -280.7538
  42   2.0000     -10.316231      -280.7189
  43   2.0000     -10.314358      -280.6679
  44   2.0000     -10.310169      -280.5540
  45   2.0000     -10.310067      -280.5512
  46   2.0000     -10.300329      -280.2862
  47   2.0000     -10.295114      -280.1443
  48   2.0000     -10.294265      -280.1212
  49   2.0000     -10.292636      -280.0769
  50   2.0000     -10.291277      -280.0399
  51   2.0000     -10.291186      -280.0374
  52   2.0000     -10.287508      -279.9373
  53   2.0000     -10.286890      -279.9205
  54   2.0000     -10.282911      -279.8122
  55   2.0000     -10.282132      -279.7910
  56   2.0000     -10.280819      -279.7553
  57   2.0000     -10.279504      -279.7195
  58   2.0000     -10.279479      -279.7188
  59   2.0000     -10.272637      -279.5327
  60   2.0000     -10.272102      -279.5181
  61   2.0000     -10.268792      -279.4280
  62   2.0000     -10.267406      -279.3903
  63   2.0000     -10.266342      -279.3614
  64   2.0000     -10.265743      -279.3451
  65   2.0000     -10.264808      -279.3196
  66   2.0000     -10.263999      -279.2976
  67   2.0000     -10.260842      -279.2117
  68   2.0000     -10.260359      -279.1986
  69   2.0000     -10.259057      -279.1631
  70   2.0000     -10.256607      -279.0965
  71   2.0000     -10.255679      -279.0712
  72   2.0000     -10.254522      -279.0397
  73   2.0000     -10.251308      -278.9523
  74   2.0000      -8.112448      -220.7509
  75   2.0000      -8.109230      -220.6634
  76   2.0000      -8.053561      -219.1485
  77   2.0000      -8.048806      -219.0191
  78   2.0000      -6.083580      -165.5426
  79   2.0000      -6.080446      -165.4573
  80   2.0000      -6.075869      -165.3328
  81   2.0000      -6.074960      -165.3081
  82   2.0000      -6.072628      -165.2446
  83   2.0000      -6.071648      -165.2180
  84   2.0000      -6.022416      -163.8783
  85   2.0000      -6.019173      -163.7900
  86   2.0000      -6.017659      -163.7488
  87   2.0000      -6.014603      -163.6657
  88   2.0000      -6.014403      -163.6602
  89   2.0000      -6.009891      -163.5375
  90   2.0000      -1.180415       -32.1207
  91   2.0000      -1.179188       -32.0873
  92   2.0000      -1.171169       -31.8691
  93   2.0000      -1.167169       -31.7603
  94   2.0000      -1.166898       -31.7529
  95   2.0000      -1.162901       -31.6442
  96   2.0000      -1.156615       -31.4731
  97   2.0000      -1.155653       -31.4469
  98   2.0000      -1.120445       -30.4889
  99   2.0000      -1.117293       -30.4031
 100   2.0000      -1.072972       -29.1971
 101   2.0000      -1.071404       -29.1544
 102   2.0000      -1.015136       -27.6233
 103   2.0000      -1.014680       -27.6108
 104   2.0000      -0.976640       -26.5757
 105   2.0000      -0.975282       -26.5388
 106   2.0000      -0.972157       -26.4537
 107   2.0000      -0.962389       -26.1879
 108   2.0000      -0.962172       -26.1820
 109   2.0000      -0.958153       -26.0727
 110   2.0000      -0.953184       -25.9374
 111   2.0000      -0.952665       -25.9233
 112   2.0000      -0.944382       -25.6979
 113   2.0000      -0.942027       -25.6339
 114   2.0000      -0.923086       -25.1185
 115   2.0000      -0.907674       -24.6991
 116   2.0000      -0.904217       -24.6050
 117   2.0000      -0.899510       -24.4769
 118   2.0000      -0.890317       -24.2267
 119   2.0000      -0.869702       -23.6658
 120   2.0000      -0.867636       -23.6096
 121   2.0000      -0.858564       -23.3627
 122   2.0000      -0.855865       -23.2893
 123   2.0000      -0.851447       -23.1691
 124   2.0000      -0.839961       -22.8565
 125   2.0000      -0.835356       -22.7312
 126   2.0000      -0.831133       -22.6163
 127   2.0000      -0.825275       -22.4569
 128   2.0000      -0.821984       -22.3673
 129   2.0000      -0.800801       -21.7909
 130   2.0000      -0.797213       -21.6933
 131   2.0000      -0.794623       -21.6228
 132   2.0000      -0.778299       -21.1786
 133   2.0000      -0.768113       -20.9014
 134   2.0000      -0.751145       -20.4397
 135   2.0000      -0.750256       -20.4155
 136   2.0000      -0.748424       -20.3657
 137   2.0000      -0.744523       -20.2595
 138   2.0000      -0.733419       -19.9573
 139   2.0000      -0.726428       -19.7671
 140   2.0000      -0.713944       -19.4274
 141   2.0000      -0.713560       -19.4170
 142   2.0000      -0.706854       -19.2345
 143   2.0000      -0.703359       -19.1394
 144   2.0000      -0.699432       -19.0325
 145   2.0000      -0.693029       -18.8583
 146   2.0000      -0.692579       -18.8460
 147   2.0000      -0.688240       -18.7280
 148   2.0000      -0.683160       -18.5897
 149   2.0000      -0.665700       -18.1146
 150   2.0000      -0.663260       -18.0482
 151   2.0000      -0.653639       -17.7864
 152   2.0000      -0.652168       -17.7464
 153   2.0000      -0.651719       -17.7342
 154   2.0000      -0.646721       -17.5982
 155   2.0000      -0.631159       -17.1747
 156   2.0000      -0.629296       -17.1240
 157   2.0000      -0.626840       -17.0572
 158   2.0000      -0.619850       -16.8670
 159   2.0000      -0.613925       -16.7057
 160   2.0000      -0.611230       -16.6324
 161   2.0000      -0.603290       -16.4163
 162   2.0000      -0.595474       -16.2037
 163   2.0000      -0.592664       -16.1272
 164   2.0000      -0.590638       -16.0721
 165   2.0000      -0.589909       -16.0522
 166   2.0000      -0.589520       -16.0417
 167   2.0000      -0.585406       -15.9297
 168   2.0000      -0.582487       -15.8503
 169   2.0000      -0.579635       -15.7727
 170   2.0000      -0.575066       -15.6483
 171   2.0000      -0.569382       -15.4937
 172   2.0000      -0.569044       -15.4845
 173   2.0000      -0.566043       -15.4028
 174   2.0000      -0.564690       -15.3660
 175   2.0000      -0.561653       -15.2834
 176   2.0000      -0.561135       -15.2693
 177   2.0000      -0.559602       -15.2276
 178   2.0000      -0.555591       -15.1184
 179   2.0000      -0.553665       -15.0660
 180   2.0000      -0.550616       -14.9830
 181   2.0000      -0.550117       -14.9694
 182   2.0000      -0.546645       -14.8750
 183   2.0000      -0.545411       -14.8414
 184   2.0000      -0.542497       -14.7621
 185   2.0000      -0.540871       -14.7178
 186   2.0000      -0.540335       -14.7033
 187   2.0000      -0.537641       -14.6300
 188   2.0000      -0.537018       -14.6130
 189   2.0000      -0.536229       -14.5915
 190   2.0000      -0.533866       -14.5272
 191   2.0000      -0.532235       -14.4828
 192   2.0000      -0.529585       -14.4107
 193   2.0000      -0.523959       -14.2576
 194   2.0000      -0.523028       -14.2323
 195   2.0000      -0.520010       -14.1502
 196   2.0000      -0.519201       -14.1282
 197   2.0000      -0.515472       -14.0267
 198   2.0000      -0.511648       -13.9227
 199   2.0000      -0.509353       -13.8602
 200   2.0000      -0.506984       -13.7957
 201   2.0000      -0.504567       -13.7300
 202   2.0000      -0.501348       -13.6424
 203   2.0000      -0.500749       -13.6261
 204   2.0000      -0.500131       -13.6092
 205   2.0000      -0.499301       -13.5867
 206   2.0000      -0.496611       -13.5135
 207   2.0000      -0.484964       -13.1965
 208   2.0000      -0.483702       -13.1622
 209   2.0000      -0.481694       -13.1076
 210   2.0000      -0.480922       -13.0865
 211   2.0000      -0.477825       -13.0023
 212   2.0000      -0.476285       -12.9604
 213   2.0000      -0.472992       -12.8708
 214   2.0000      -0.470740       -12.8095
 215   2.0000      -0.468065       -12.7367
 216   2.0000      -0.464891       -12.6503
 217   2.0000      -0.463859       -12.6222
 218   2.0000      -0.462325       -12.5805
 219   2.0000      -0.459278       -12.4976
 220   2.0000      -0.456965       -12.4347
 221   2.0000      -0.454641       -12.3714
 222   2.0000      -0.450976       -12.2717
 223   2.0000      -0.450178       -12.2500
 224   2.0000      -0.447761       -12.1842
 225   2.0000      -0.441912       -12.0250
 226   2.0000      -0.439961       -11.9720
 227   2.0000      -0.432234       -11.7617
 228   2.0000      -0.429779       -11.6949
 229   2.0000      -0.427687       -11.6379
 230   2.0000      -0.423043       -11.5116
 231   2.0000      -0.415762       -11.3135
 232   2.0000      -0.409612       -11.1461
 233   2.0000      -0.406362       -11.0577
 234   2.0000      -0.405037       -11.0216
 235   2.0000      -0.400862       -10.9080
 236   2.0000      -0.399599       -10.8736
 237   2.0000      -0.397373       -10.8131
 238   2.0000      -0.392961       -10.6930
 239   2.0000      -0.386998       -10.5307
 240   2.0000      -0.382021       -10.3953
 241   2.0000      -0.379088       -10.3155
 242   2.0000      -0.378579       -10.3017
 243   2.0000      -0.376344       -10.2408
 244   2.0000      -0.374263       -10.1842
 245   2.0000      -0.370870       -10.0919
 246   2.0000      -0.370799       -10.0900
 247   2.0000      -0.367666       -10.0047
 248   2.0000      -0.367335        -9.9957
 249   2.0000      -0.363641        -9.8952
 250   2.0000      -0.360276        -9.8036
 251   2.0000      -0.360223        -9.8022
 252   2.0000      -0.356827        -9.7098
 253   2.0000      -0.352635        -9.5957
 254   2.0000      -0.350002        -9.5241
 255   2.0000      -0.347964        -9.4686
 256   2.0000      -0.345766        -9.4088
 257   2.0000      -0.340329        -9.2608
 258   2.0000      -0.338656        -9.2153
 259   2.0000      -0.327252        -8.9050
 260   2.0000      -0.326847        -8.8940
 261   2.0000      -0.326351        -8.8805
 262   2.0000      -0.313652        -8.5349
 263   2.0000      -0.308660        -8.3991
 264   2.0000      -0.300134        -8.1671
 265   2.0000      -0.282800        -7.6954
 266   2.0000      -0.273195        -7.4340
 267   2.0000      -0.271991        -7.4013
 268   2.0000      -0.213612        -5.8127
 269   0.0000      -0.097886        -2.6636
 270   0.0000      -0.093274        -2.5381
 271   0.0000      -0.066805        -1.8179
 272   0.0000      -0.064205        -1.7471
 273   0.0000      -0.059196        -1.6108

MULLIKEN ATOMIC CHARGES
-----------------------
   0 C :   -0.018992
   1 C :    0.030471
   2 C :    0.030265
   3 C :   -0.006328
   4 C :    0.016688
   5 C :    0.059821
   6 N :   -0.264635
   7 S :    0.504566
   8 N :   -0.284349
   9 C :    0.027765
  10 C :   -0.019738
  11 C :    0.206144
  12 O :   -0.142178
  13 N :   -0.229583
  14 C :    0.192079
  15 O :   -0.135409
  16 C :    0.014230
  17 C :   -0.068201
  18 C :    0.044230
  19 C :    0.064482
  20 C :    0.040308
  21 O :   -0.120926
  22 S :    0.009134
  23 C :    0.048758
  24 O :   -0.121213
  25 C :    0.072330
  26 C :   -0.019575
  27 C :    0.126196
  28 C :   -0.113478
  29 C :    0.050672
  30 C :    0.030730
  31 C :   -0.071329
  32 C :    0.154287
  33 N :   -0.225573
  34 C :    0.140921
  35 N :   -0.217036
  36 C :    0.124165
  37 C :   -0.149081
  38 C :    0.108138
  39 C :   -0.012944
  40 C :    0.020779
  41 C :    0.007973
  42 C :    0.031002
  43 C :   -0.005034
  44 C :   -0.010784
  45 C :    0.017472
  46 C :   -0.038149
  47 C :    0.036154
  48 C :   -0.036246
  49 C :    0.203451
  50 O :   -0.142932
  51 N :   -0.224302
  52 C :    0.194592
  53 O :   -0.127288
  54 C :    0.012396
  55 C :   -0.074236
  56 C :    0.050421
  57 C :    0.048442
  58 C :    0.033806
  59 O :   -0.132283
  60 S :    0.010021
  61 C :    0.046956
  62 O :   -0.116912
  63 C :    0.098348
  64 C :   -0.062847
  65 C :    0.113416
  66 C :   -0.049583
  67 C :    0.046730
  68 C :   -0.028871
  69 C :    0.057029
  70 C :    0.013426
  71 N :   -0.296907
  72 S :    0.503585
  73 N :   -0.269530
  74 H :   -0.014299
  75 H :   -0.001064
  76 H :   -0.022277
  77 H :    0.018915
  78 H :    0.026987
  79 H :    0.009573
  80 H :   -0.042400
  81 H :   -0.049269
  82 H :   -0.004981
  83 H :   -0.015770
  84 H :    0.081381
  85 H :    0.089524
  86 H :   -0.004217
  87 H :   -0.012485
  88 H :    0.087315
  89 H :    0.091106
  90 H :   -0.012370
  91 H :    0.032007
  92 H :   -0.012207
  93 H :   -0.039138
  94 H :   -0.041330
  95 H :   -0.034776
  96 H :    0.014583
  97 H :    0.020344
  98 H :    0.019443
  99 H :    0.044007
 100 H :    0.004262
 101 H :   -0.014868
 102 H :   -0.005769
 103 H :   -0.018134
Sum of atomic charges:   -0.0000000

LOEWDIN ATOMIC CHARGES
----------------------
   0 C :   -0.005627
   1 C :   -0.012776
   2 C :    0.017863
   3 C :   -0.036885
   4 C :   -0.041182
   5 C :   -0.050728
   6 N :   -0.282925
   7 S :    0.646596
   8 N :   -0.302919
   9 C :    0.043177
  10 C :   -0.028723
  11 C :    0.101290
  12 O :   -0.129448
  13 N :   -0.011507
  14 C :    0.096987
  15 O :   -0.132828
  16 C :   -0.031838
  17 C :    0.042332
  18 C :   -0.051995
  19 C :   -0.043481
  20 C :   -0.039013
  21 O :   -0.106836
  22 S :    0.298910
  23 C :   -0.045849
  24 O :   -0.112602
  25 C :    0.011331
  26 C :   -0.030029
  27 C :   -0.023535
  28 C :   -0.019308
  29 C :   -0.018743
  30 C :   -0.026645
  31 C :   -0.040998
  32 C :    0.026079
  33 N :   -0.121378
  34 C :    0.026695
  35 N :   -0.116195
  36 C :   -0.008527
  37 C :    0.062398
  38 C :   -0.026922
  39 C :   -0.023598
  40 C :   -0.015281
  41 C :   -0.033540
  42 C :   -0.030470
  43 C :   -0.005109
  44 C :   -0.031049
  45 C :    0.048001
  46 C :   -0.056244
  47 C :    0.037649
  48 C :   -0.035225
  49 C :    0.102460
  50 O :   -0.128096
  51 N :   -0.011183
  52 C :    0.097088
  53 O :   -0.125151
  54 C :   -0.028549
  55 C :    0.036814
  56 C :   -0.052255
  57 C :   -0.060689
  58 C :   -0.041522
  59 O :   -0.114650
  60 S :    0.297666
  61 C :   -0.045305
  62 O :   -0.109875
  63 C :    0.033498
  64 C :   -0.043979
  65 C :   -0.021260
  66 C :   -0.014463
  67 C :   -0.014973
  68 C :   -0.022238
  69 C :   -0.052117
  70 C :   -0.042874
  71 N :   -0.287242
  72 S :    0.639731
  73 N :   -0.285110
  74 H :    0.039120
  75 H :    0.035105
  76 H :    0.032419
  77 H :    0.052082
  78 H :    0.029582
  79 H :    0.032311
  80 H :    0.020432
  81 H :    0.015412
  82 H :   -0.001504
  83 H :    0.014932
  84 H :    0.047649
  85 H :    0.053693
  86 H :    0.003291
  87 H :    0.016094
  88 H :    0.050295
  89 H :    0.054856
  90 H :    0.027352
  91 H :    0.056564
  92 H :    0.025733
  93 H :    0.028987
  94 H :    0.026015
  95 H :    0.023926
  96 H :    0.028281
  97 H :    0.034239
  98 H :    0.051967
  99 H :    0.031379
 100 H :    0.032253
 101 H :    0.032126
 102 H :    0.033364
 103 H :    0.036966

  Mayer bond orders larger than 0.100000
B(  0-C ,  1-C ) :   1.5024 B(  0-C ,  3-C ) :   0.1072 B(  0-C ,  5-C ) :   1.2028
B(  0-C , 74-H ) :   1.0212 B(  1-C ,  2-C ) :   1.1905 B(  1-C , 75-H ) :   0.9859
B(  2-C ,  3-C ) :   1.5587 B(  2-C , 76-H ) :   0.9956 B(  3-C ,  4-C ) :   1.2335
B(  3-C ,  9-C ) :   0.9466 B(  4-C ,  5-C ) :   1.1780 B(  4-C ,  8-N ) :   1.5326
B(  5-C ,  6-N ) :   1.5057 B(  6-N ,  7-S ) :   1.2895 B(  6-N ,  8-N ) :   0.1514
B(  7-S ,  8-N ) :   1.2581 B(  9-C , 10-C ) :   1.4442 B(  9-C , 19-C ) :   1.4021
B( 10-C , 11-C ) :   0.8866 B( 10-C , 16-C ) :   1.3658 B( 11-C , 12-O ) :   2.1566
B( 11-C , 13-N ) :   1.0475 B( 13-N , 14-C ) :   1.0313 B( 13-N , 25-C ) :   0.9998
B( 14-C , 15-O ) :   2.2296 B( 14-C , 16-C ) :   0.8711 B( 16-C , 17-C ) :   1.3469
B( 17-C , 18-C ) :   1.3168 B( 17-C , 77-H ) :   1.0286 B( 18-C , 19-C ) :   1.3493
B( 18-C , 23-C ) :   0.8390 B( 19-C , 20-C ) :   0.8441 B( 20-C , 21-O ) :   2.1902
B( 20-C , 22-S ) :   1.0188 B( 21-O , 22-S ) :   0.1067 B( 22-S , 23-C ) :   1.0291
B( 22-S , 24-O ) :   0.1087 B( 23-C , 24-O ) :   2.2211 B( 25-C , 26-C ) :   1.7076
B( 25-C , 78-H ) :   0.9643 B( 26-C , 27-C ) :   1.0582 B( 26-C , 79-H ) :   0.9765
B( 27-C , 28-C ) :   1.5246 B( 27-C , 44-C ) :   1.1302 B( 28-C , 29-C ) :   1.1050
B( 28-C , 80-H ) :   0.9998 B( 29-C , 30-C ) :   1.4763 B( 29-C , 42-C ) :   1.1281
B( 30-C , 31-C ) :   1.0006 B( 30-C , 36-C ) :   1.1213 B( 31-C , 32-C ) :   1.0356
B( 31-C , 34-C ) :   1.0351 B( 31-C , 81-H ) :   0.8920 B( 32-C , 33-N ) :   1.0808
B( 32-C , 82-H ) :   0.9370 B( 32-C , 83-H ) :   0.9360 B( 33-N , 84-H ) :   0.9737
B( 33-N , 85-H ) :   0.9703 B( 34-C , 35-N ) :   1.0745 B( 34-C , 86-H ) :   0.9491
B( 34-C , 87-H ) :   0.9295 B( 35-N , 88-H ) :   0.9720 B( 35-N , 89-H ) :   0.9683
B( 36-C , 37-C ) :   1.6475 B( 36-C , 41-C ) :   1.0439 B( 37-C , 38-C ) :   0.9651
B( 37-C , 90-H ) :   0.9770 B( 38-C , 39-C ) :   0.9944 B( 38-C , 45-C ) :   0.9745
B( 38-C , 91-H ) :   0.8755 B( 39-C , 40-C ) :   1.7017 B( 39-C , 92-H ) :   0.9677
B( 40-C , 41-C ) :   1.1376 B( 40-C , 93-H ) :   0.9889 B( 41-C , 42-C ) :   1.4305
B( 42-C , 43-C ) :   1.1434 B( 43-C , 44-C ) :   1.6117 B( 43-C , 94-H ) :   0.9905
B( 44-C , 95-H ) :   0.9801 B( 45-C , 46-C ) :   1.8195 B( 45-C , 96-H ) :   0.9641
B( 46-C , 47-C ) :   1.0595 B( 46-C , 97-H ) :   0.9441 B( 47-C , 48-C ) :   1.3729
B( 47-C , 57-C ) :   1.3668 B( 48-C , 49-C ) :   0.8952 B( 48-C , 54-C ) :   1.3754
B( 49-C , 50-O ) :   2.1425 B( 49-C , 51-N ) :   1.0515 B( 51-N , 52-C ) :   1.0263
B( 51-N , 63-C ) :   0.9977 B( 52-C , 53-O ) :   2.2393 B( 52-C , 54-C ) :   0.8705
B( 54-C , 55-C ) :   1.3434 B( 55-C , 56-C ) :   1.3294 B( 55-C , 98-H ) :   1.0298
B( 56-C , 57-C ) :   1.3356 B( 56-C , 61-C ) :   0.8413 B( 57-C , 58-C ) :   0.8612
B( 58-C , 59-O ) :   2.1625 B( 58-C , 60-S ) :   1.0298 B( 59-O , 60-S ) :   0.1054
B( 60-S , 61-C ) :   1.0231 B( 60-S , 62-O ) :   0.1081 B( 61-C , 62-O ) :   2.2259
B( 63-C , 64-C ) :   1.7180 B( 63-C , 99-H ) :   0.9397 B( 64-C , 65-C ) :   1.0830
B( 64-C ,100-H ) :   0.9691 B( 65-C , 66-C ) :   1.4976 B( 65-C , 68-C ) :   0.1066
B( 65-C , 70-C ) :   1.1596 B( 66-C , 67-C ) :   1.2031 B( 66-C ,101-H ) :   0.9972
B( 67-C , 68-C ) :   1.5002 B( 67-C ,102-H ) :   0.9839 B( 68-C , 69-C ) :   1.2044
B( 68-C ,103-H ) :   1.0181 B( 69-C , 70-C ) :   1.1701 B( 69-C , 73-N ) :   1.5085
B( 70-C , 71-N ) :   1.5126 B( 71-N , 72-S ) :   1.2528 B( 71-N , 73-N ) :   0.1499
B( 72-S , 73-N ) :   1.2803

-----------------------------------------------------------------------------
         ABSORPTION SPECTRUM VIA TRANSITION ELECTRIC DIPOLE MOMENTS
-----------------------------------------------------------------------------
State   Energy  Wavelength   fosc         T2         TX        TY        TZ
        (cm-1)    (nm)                  (au**2)     (au)      (au)      (au)
-----------------------------------------------------------------------------
   0   12532.8    797.9   0.001004723   0.02639  -0.11702  -0.01829  -0.11119
   1   14490.6    690.1   0.000300763   0.00683   0.06393   0.00452   0.05221
   2   14659.2    682.2   0.047774051   1.07290  -0.71179  -0.75248   0.00564
   3   19092.0    523.8   0.126945639   2.18898  -0.84071   1.21136   0.12161
   4   21339.1    468.6   0.007692383   0.11868   0.08856  -0.24798  -0.22212
   5   21473.0    465.7   0.107312023   1.64525   0.67872  -1.00631   0.41465
   6   23557.2    424.5   0.007279966   0.10174   0.00958   0.29970  -0.10875
   7   24215.4    413.0   0.021498760   0.29228   0.35432  -0.40668   0.03671
   8   24460.1    408.8   0.011157325   0.15017  -0.35575   0.14573  -0.04871
   9   26049.9    383.9   0.026067026   0.32943   0.46863  -0.02463   0.33047
  10   26149.3    382.4   0.027897412   0.35122  -0.28532   0.49304  -0.16348
  11   27302.5    366.3   0.037179795   0.44831   0.52519  -0.38550   0.15454
  12   27375.1    365.3   0.242382447   2.91488   1.20327  -1.19566   0.19343
  13   28026.9    356.8   0.311879212   3.66343   1.18530   0.75668   1.29843
  14   28241.6    354.1   0.361296536   4.21162  -1.69064   0.64668  -0.96704
  15   28565.8    350.1   0.076207596   0.87827   0.72958  -0.47858   0.34198
  16   28901.3    346.0   0.007031939   0.08010   0.12230  -0.23025   0.11012
  17   29278.4    341.5   0.000038845   0.00044  -0.01210  -0.01242  -0.01167
  18   29418.3    339.9   0.026165837   0.29281  -0.42423  -0.02117  -0.33525
  19   30099.2    332.2   0.003771427   0.04125  -0.13745  -0.13895   0.05523
  20   31339.2    319.1   0.062671675   0.65835  -0.31330   0.11292  -0.73989
  21   31374.4    318.7   0.150283448   1.57693  -0.59436  -1.06455   0.30065
  22   31527.9    317.2   0.001852325   0.01934  -0.03781  -0.12357   0.05141
  23   32058.6    311.9   0.178778930   1.83589   0.73578  -1.08526   0.34166
  24   32129.8    311.2   0.000447964   0.00459   0.04089  -0.05122   0.01716
  25   32391.7    308.7   0.127605201   1.29691  -1.12509  -0.12725   0.12207
  26   32842.1    304.5   0.030745641   0.30820   0.53651  -0.05550   0.13143
  27   33134.7    301.8   0.007830617   0.07780  -0.22824   0.13336  -0.08901
  28   33312.9    300.2   0.056534937   0.55870  -0.52155  -0.14762  -0.51468
  29   33545.6    298.1   0.000546593   0.00536   0.03653  -0.06346  -0.00144
  30   33573.0    297.9   0.024631102   0.24153   0.34807  -0.34611   0.02423
  31   33780.0    296.0   0.024368358   0.23749   0.20853  -0.43777  -0.04856
  32   34304.5    291.5   0.045781578   0.43935   0.11905  -0.61834   0.20698
  33   34758.3    287.7   0.981397777   9.29526   2.25226  -1.95487   0.63332
  34   34857.4    286.9   0.076995392   0.72718   0.70281  -0.36555   0.31561
  35   34913.6    286.4   0.175138598   1.65144   0.97152  -0.79252   0.28198
  36   35422.4    282.3   0.174146014   1.61849   1.16688  -0.40717   0.30181
  37   35861.0    278.9   0.059805204   0.54902   0.65720   0.28613  -0.18771
  38   36062.9    277.3   0.011902125   0.10865   0.09509  -0.02944   0.31424
  39   36292.0    275.5   0.005174450   0.04694   0.21062  -0.05075  -0.00111
  40   36428.5    274.5   0.009509050   0.08594   0.28183   0.02590   0.07638
  41   36535.3    273.7   0.105077066   0.94683  -0.58284   0.74111  -0.24059
  42   36744.6    272.1   0.006363947   0.05702  -0.12081   0.19314  -0.07155
  43   36789.8    271.8   0.015836372   0.14171   0.30449   0.13691   0.17393
  44   36879.4    271.2   0.133484410   1.19158   0.68558  -0.82718   0.19323
  45   37402.2    267.4   0.025203049   0.22184   0.32960  -0.15040  -0.30097
  46   37433.4    267.1   0.012715557   0.11183  -0.26950   0.10969   0.16482
  47   37609.0    265.9   0.001930072   0.01689  -0.10900   0.06210   0.03401
  48   37629.8    265.7   0.007000728   0.06125  -0.02768  -0.12057  -0.21435
  49   37850.7    264.2   0.001326263   0.01154  -0.04644   0.07630  -0.05964
  50   37912.9    263.8   0.001697919   0.01474  -0.08910   0.08156   0.01237
  51   37958.1    263.4   0.005722288   0.04963  -0.17384   0.08532   0.11014
  52   38173.5    262.0   0.000192454   0.00166  -0.02193  -0.01308  -0.03175
  53   38336.7    260.8   0.005373021   0.04614  -0.06995  -0.16357   0.12039
  54   38827.1    257.6   0.025206452   0.21372  -0.35675   0.27512  -0.10375
  55   38962.0    256.7   0.073795535   0.62354  -0.61053   0.43483  -0.24841
  56   39234.7    254.9   0.008416558   0.07062   0.03424  -0.04088   0.26034
  57   39337.3    254.2   0.109051907   0.91265  -0.46931  -0.00895  -0.83206
  58   39576.3    252.7   0.031300304   0.26037  -0.01901   0.49990  -0.10055
  59   39813.8    251.2   0.025055979   0.20718   0.15456  -0.42813   0.00081
  60   40246.3    248.5   0.009908511   0.08105  -0.17138  -0.18770   0.12825

FINAL SINGLE POINT ENERGY     -4704.062819832596

DIPOLE MOMENT
-------------
                                X             Y             Z
Electronic contribution:     23.61005      -4.24616      35.42236
Nuclear contribution   :    -24.41103       4.14518     -35.80297
                        -----------------------------------------
Total Dipole Moment    :     -0.80098      -0.10098      -0.38061
                        -----------------------------------------
Magnitude (a.u.)       :      0.89254
Magnitude (Debye)      :      2.26866

Rotational constants in cm-1:     0.001129     0.000254     0.000227
Rotational constants in MHz :    33.837144     7.607166     6.802649

                             ****ORCA TERMINATED NORMALLY****
TOTAL RUN TIME: 0 days 0 hours 11 minutes 0 seconds 106 msec
