                         Program Version 4.2.0 -  RELEASE  -
|  1> # ORCA input file
|  2> # SCF done       -193.459538790776          0.000938692546
|  3> ! CAM-B3LYP def2-SVP def2/J RIJCOSX Grid4 TightSCF
|  4> %maxcore 5000
|  5> %tddft
|  6>     Mode sTDDFT
|  7>     Ethresh 5.0
|  8>     maxcore 5000
|  9> end
| 10>
| 11> %pal
| 12>   nprocs 6
| 13>   end
| 14> * xyz 0 1
| 15>    C       -0.08752        -6.26345       -10.95563
| 16>    C        1.01662        -5.47204       -11.07779
| 17>    C        2.05560        -5.71207       -12.00404
| 18>    N        2.92227        -5.86868       -12.73815
| 19>    C        1.19253        -4.25937       -10.37453
| 20>    N        1.34340        -3.22623        -9.89922
| 21>    C       -0.46853        -7.35280       -11.84730
| 22>    C       -1.85036        -7.59762       -11.71329
| 23>    C       -2.49383        -8.54776       -12.48275
| 24>    C       -1.74408        -9.27556       -13.39770
| 25>    C       -0.36560        -9.04843       -13.52432
| 26>    C        0.27849        -8.08681       -12.75394
| 27>   Cl        0.54704        -9.96561       -14.64804
| 28>   Cl       -2.50859       -10.45815       -14.37609
| 29>    C       -2.41468        -6.71743       -10.67255
| 30>    O       -3.56326        -6.59672       -10.32548
| 31>    C       -1.22729        -6.02499       -10.08141
| 32>    C       -1.30583        -5.43514        -8.86982
| 33>    C       -0.19565        -5.02817        -8.06135
| 34>    N        0.93993        -5.69861        -8.06128
| 35>    C        1.75800        -5.03344        -7.20918
| 36>    C        1.09730        -3.85293        -6.65281
| 37>    C        2.01511        -3.12050        -5.77028
| 38>    O        1.82126        -2.08820        -5.16282
| 39>    C        3.24028        -3.94517        -5.81875
| 40>    C        3.03650        -5.10466        -6.71493
| 41>    N        4.15580        -5.86827        -6.77286
| 42>    C        5.01761        -5.27156        -5.98911
| 43>    C        4.51008        -4.06244        -5.35984
| 44>    C       -0.17906        -3.84756        -7.17210
| 45>    C       -1.25003        -2.93371        -7.00867
| 46>    C       -1.09923        -1.75652        -6.34819
| 47>    C       -2.11244        -0.78677        -6.16377
| 48>    N       -1.79560         0.46508        -5.68402
| 49>    C       -2.92945         1.20740        -5.62533
| 50>    C       -3.43368         2.46149        -5.32939
| 51>    C       -4.82399         2.38697        -5.55394
| 52>    N       -5.14804         1.11006        -5.97330
| 53>    C       -4.01125         0.37701        -6.05082
| 54>    C       -3.49687        -0.86293        -6.39792
| 55>    C       -5.81182         3.37719        -5.41431
| 56>    C       -5.57443         4.70744        -5.21202
| 57>    C       -6.62913         5.63390        -5.09948
| 58>    N       -7.90602         5.25292        -5.01213
| 59>    C       -8.62343         6.37795        -4.91941
| 60>    C       -7.76728         7.57418        -4.98378
| 61>    C       -8.57612         8.80288        -4.83467
| 62>    O       -8.19543         9.95124        -4.79870
| 63>    C       -9.94107         8.26965        -4.71168
| 64>    C       -9.93037         6.79429        -4.76706
| 65>    N      -11.18158         6.30066        -4.64506
| 66>    C      -11.95578         7.35772        -4.51823
| 67>    C      -11.24769         8.61454        -4.54965
| 68>    C       -6.48160         7.11153        -5.09964
| 69>    C       -5.25751         7.81762        -5.25610
| 70>    C       -5.17610         9.10960        -5.66570
| 71>    C       -3.91694         9.73171        -5.84765
| 72>    C       -3.71290        10.93573        -6.45565
| 73>    C       -2.44729        11.63063        -6.60937
| 74>    C       -1.20096        11.15907        -6.29043
| 75>    C       -0.00629        11.88904        -6.47209
| 76>    N        1.00194        12.42339        -6.59283
| 77>    C       -0.91661         9.87927        -5.76868
| 78>    N       -0.59839         8.85488        -5.35848
| 79>    C       -2.73188        12.93231        -7.20859
| 80>    C       -4.10717        13.01869        -7.48582
| 81>    C       -4.77994        11.76480        -7.07640
| 82>    O       -5.93821        11.47492        -7.26057
| 83>    C       -4.66405        14.13720        -8.07071
| 84>    C       -3.82916        15.20284        -8.38272
| 85>    C       -2.45871        15.12833        -8.10592
| 86>    C       -1.90133        13.99741        -7.52066
| 87>   Cl       -1.43747        16.45262        -8.49591
| 88>   Cl       -4.48158        16.61340        -9.11044
| 89>    H       -3.55366        -8.71713       -12.37559
| 90>    H        1.34002        -7.93875       -12.86922
| 91>    H       -2.29909        -5.31106        -8.45220
| 92>    H        6.00424        -5.67965        -5.85475
| 93>    H        5.05950        -3.43428        -4.68693
| 94>    H       -2.19822        -3.18669        -7.46074
| 95>    H       -0.12410        -1.51274        -5.94563
| 96>    H       -0.86127         0.75900        -5.45207
| 97>    H       -2.90207         3.32283        -4.98034
| 98>    H       -6.07795         0.81458        -6.21818
| 99>    H       -4.02631        -1.72223        -6.75531
|100>    H       -6.84700         3.07529        -5.50665
|101>    H       -4.56129         5.07660        -5.16790
|102>    H      -13.01912         7.23788        -4.40304
|103>    H      -11.69216         9.58603        -4.46190
|104>    H       -4.34142         7.26271        -5.09009
|105>    H       -6.07146         9.67381        -5.88382
|106>    H       -3.05844         9.19310        -5.46505
|107>    H       -5.72184        14.17873        -8.27740
|108>    H       -0.84210        13.97750        -7.32365
|109> *
|110>
|111>                          ****END OF INPUT****

CARTESIAN COORDINATES (ANGSTROEM)
---------------------------------
  C     -0.087520   -6.263450  -10.955630
  C      1.016620   -5.472040  -11.077790
  C      2.055600   -5.712070  -12.004040
  N      2.922270   -5.868680  -12.738150
  C      1.192530   -4.259370  -10.374530
  N      1.343400   -3.226230   -9.899220
  C     -0.468530   -7.352800  -11.847300
  C     -1.850360   -7.597620  -11.713290
  C     -2.493830   -8.547760  -12.482750
  C     -1.744080   -9.275560  -13.397700
  C     -0.365600   -9.048430  -13.524320
  C      0.278490   -8.086810  -12.753940
  Cl     0.547040   -9.965610  -14.648040
  Cl    -2.508590  -10.458150  -14.376090
  C     -2.414680   -6.717430  -10.672550
  O     -3.563260   -6.596720  -10.325480
  C     -1.227290   -6.024990  -10.081410
  C     -1.305830   -5.435140   -8.869820
  C     -0.195650   -5.028170   -8.061350
  N      0.939930   -5.698610   -8.061280
  C      1.758000   -5.033440   -7.209180
  C      1.097300   -3.852930   -6.652810
  C      2.015110   -3.120500   -5.770280
  O      1.821260   -2.088200   -5.162820
  C      3.240280   -3.945170   -5.818750
  C      3.036500   -5.104660   -6.714930
  N      4.155800   -5.868270   -6.772860
  C      5.017610   -5.271560   -5.989110
  C      4.510080   -4.062440   -5.359840
  C     -0.179060   -3.847560   -7.172100
  C     -1.250030   -2.933710   -7.008670
  C     -1.099230   -1.756520   -6.348190
  C     -2.112440   -0.786770   -6.163770
  N     -1.795600    0.465080   -5.684020
  C     -2.929450    1.207400   -5.625330
  C     -3.433680    2.461490   -5.329390
  C     -4.823990    2.386970   -5.553940
  N     -5.148040    1.110060   -5.973300
  C     -4.011250    0.377010   -6.050820
  C     -3.496870   -0.862930   -6.397920
  C     -5.811820    3.377190   -5.414310
  C     -5.574430    4.707440   -5.212020
  C     -6.629130    5.633900   -5.099480
  N     -7.906020    5.252920   -5.012130
  C     -8.623430    6.377950   -4.919410
  C     -7.767280    7.574180   -4.983780
  C     -8.576120    8.802880   -4.834670
  O     -8.195430    9.951240   -4.798700
  C     -9.941070    8.269650   -4.711680
  C     -9.930370    6.794290   -4.767060
  N    -11.181580    6.300660   -4.645060
  C    -11.955780    7.357720   -4.518230
  C    -11.247690    8.614540   -4.549650
  C     -6.481600    7.111530   -5.099640
  C     -5.257510    7.817620   -5.256100
  C     -5.176100    9.109600   -5.665700
  C     -3.916940    9.731710   -5.847650
  C     -3.712900   10.935730   -6.455650
  C     -2.447290   11.630630   -6.609370
  C     -1.200960   11.159070   -6.290430
  C     -0.006290   11.889040   -6.472090
  N      1.001940   12.423390   -6.592830
  C     -0.916610    9.879270   -5.768680
  N     -0.598390    8.854880   -5.358480
  C     -2.731880   12.932310   -7.208590
  C     -4.107170   13.018690   -7.485820
  C     -4.779940   11.764800   -7.076400
  O     -5.938210   11.474920   -7.260570
  C     -4.664050   14.137200   -8.070710
  C     -3.829160   15.202840   -8.382720
  C     -2.458710   15.128330   -8.105920
  C     -1.901330   13.997410   -7.520660
  Cl    -1.437470   16.452620   -8.495910
  Cl    -4.481580   16.613400   -9.110440
  H     -3.553660   -8.717130  -12.375590
  H      1.340020   -7.938750  -12.869220
  H     -2.299090   -5.311060   -8.452200
  H      6.004240   -5.679650   -5.854750
  H      5.059500   -3.434280   -4.686930
  H     -2.198220   -3.186690   -7.460740
  H     -0.124100   -1.512740   -5.945630
  H     -0.861270    0.759000   -5.452070
  H     -2.902070    3.322830   -4.980340
  H     -6.077950    0.814580   -6.218180
  H     -4.026310   -1.722230   -6.755310
  H     -6.847000    3.075290   -5.506650
  H     -4.561290    5.076600   -5.167900
  H    -13.019120    7.237880   -4.403040
  H    -11.692160    9.586030   -4.461900
  H     -4.341420    7.262710   -5.090090
  H     -6.071460    9.673810   -5.883820
  H     -3.058440    9.193100   -5.465050
  H     -5.721840   14.178730   -8.277400
  H     -0.842100   13.977500   -7.323650

 Total Charge           Charge          ....    0
 Multiplicity           Mult            ....    1
 Number of Electrons    NEL             ....  526
 Basis Dimension        Dim             .... 1152

ORBITAL ENERGIES
----------------

  NO   OCC          E(Eh)            E(eV)
   0   2.0000    -101.612125     -2765.0065
   1   2.0000    -101.611362     -2764.9857
   2   2.0000    -101.599288     -2764.6572
   3   2.0000    -101.597815     -2764.6171
   4   2.0000     -19.243366      -523.6386
   5   2.0000     -19.222839      -523.0800
   6   2.0000     -19.219188      -522.9807
   7   2.0000     -19.202646      -522.5306
   8   2.0000     -14.479610      -394.0102
   9   2.0000     -14.477586      -393.9551
  10   2.0000     -14.433041      -392.7430
  11   2.0000     -14.432408      -392.7258
  12   2.0000     -14.429784      -392.6544
  13   2.0000     -14.421544      -392.4302
  14   2.0000     -14.417911      -392.3313
  15   2.0000     -14.416913      -392.3041
  16   2.0000     -14.397463      -391.7749
  17   2.0000     -14.393193      -391.6587
  18   2.0000     -10.393557      -282.8231
  19   2.0000     -10.382029      -282.5094
  20   2.0000     -10.371337      -282.2184
  21   2.0000     -10.369972      -282.1813
  22   2.0000     -10.369920      -282.1799
  23   2.0000     -10.367000      -282.1004
  24   2.0000     -10.363598      -282.0078
  25   2.0000     -10.360573      -281.9255
  26   2.0000     -10.359325      -281.8916
  27   2.0000     -10.355562      -281.7892
  28   2.0000     -10.355017      -281.7743
  29   2.0000     -10.347541      -281.5709
  30   2.0000     -10.345984      -281.5285
  31   2.0000     -10.342969      -281.4465
  32   2.0000     -10.337284      -281.2918
  33   2.0000     -10.336671      -281.2751
  34   2.0000     -10.336056      -281.2584
  35   2.0000     -10.335925      -281.2548
  36   2.0000     -10.334041      -281.2035
  37   2.0000     -10.333578      -281.1910
  38   2.0000     -10.333489      -281.1885
  39   2.0000     -10.332418      -281.1594
  40   2.0000     -10.329945      -281.0921
  41   2.0000     -10.327089      -281.0144
  42   2.0000     -10.325038      -280.9586
  43   2.0000     -10.325037      -280.9585
  44   2.0000     -10.324351      -280.9399
  45   2.0000     -10.323279      -280.9107
  46   2.0000     -10.320765      -280.8423
  47   2.0000     -10.320412      -280.8327
  48   2.0000     -10.319431      -280.8060
  49   2.0000     -10.317650      -280.7575
  50   2.0000     -10.315919      -280.7104
  51   2.0000     -10.315246      -280.6921
  52   2.0000     -10.315126      -280.6889
  53   2.0000     -10.311366      -280.5865
  54   2.0000     -10.310495      -280.5628
  55   2.0000     -10.309725      -280.5419
  56   2.0000     -10.308345      -280.5043
  57   2.0000     -10.307811      -280.4898
  58   2.0000     -10.306144      -280.4444
  59   2.0000     -10.302237      -280.3381
  60   2.0000     -10.301525      -280.3188
  61   2.0000     -10.300293      -280.2852
  62   2.0000     -10.300162      -280.2817
  63   2.0000     -10.300051      -280.2786
  64   2.0000     -10.299125      -280.2534
  65   2.0000     -10.297705      -280.2148
  66   2.0000     -10.295260      -280.1483
  67   2.0000     -10.292235      -280.0660
  68   2.0000     -10.291683      -280.0509
  69   2.0000     -10.287759      -279.9442
  70   2.0000     -10.285622      -279.8860
  71   2.0000     -10.285075      -279.8711
  72   2.0000     -10.276414      -279.6354
  73   2.0000     -10.275777      -279.6181
  74   2.0000      -9.567182      -260.3363
  75   2.0000      -9.566467      -260.3168
  76   2.0000      -9.554357      -259.9873
  77   2.0000      -9.552887      -259.9473
  78   2.0000      -7.337583      -199.6658
  79   2.0000      -7.336853      -199.6459
  80   2.0000      -7.327439      -199.3898
  81   2.0000      -7.326742      -199.3708
  82   2.0000      -7.326676      -199.3690
  83   2.0000      -7.325943      -199.3491
  84   2.0000      -7.324729      -199.3160
  85   2.0000      -7.323293      -199.2769
  86   2.0000      -7.314630      -199.0412
  87   2.0000      -7.313876      -199.0207
  88   2.0000      -7.313118      -199.0001
  89   2.0000      -7.312413      -198.9809
  90   2.0000      -1.158732       -31.5307
  91   2.0000      -1.136647       -30.9297
  92   2.0000      -1.135031       -30.8858
  93   2.0000      -1.117925       -30.4203
  94   2.0000      -1.112244       -30.2657
  95   2.0000      -1.093602       -29.7584
  96   2.0000      -1.075414       -29.2635
  97   2.0000      -1.072739       -29.1907
  98   2.0000      -1.068767       -29.0826
  99   2.0000      -1.047083       -28.4926
 100   2.0000      -1.046339       -28.4723
 101   2.0000      -1.030967       -28.0540
 102   2.0000      -1.030690       -28.0465
 103   2.0000      -1.018324       -27.7100
 104   2.0000      -1.010669       -27.5017
 105   2.0000      -1.008737       -27.4491
 106   2.0000      -0.998260       -27.1640
 107   2.0000      -0.991323       -26.9753
 108   2.0000      -0.974953       -26.5298
 109   2.0000      -0.960816       -26.1451
 110   2.0000      -0.956246       -26.0208
 111   2.0000      -0.944244       -25.6942
 112   2.0000      -0.939409       -25.5626
 113   2.0000      -0.933509       -25.4021
 114   2.0000      -0.933195       -25.3935
 115   2.0000      -0.926099       -25.2004
 116   2.0000      -0.920641       -25.0519
 117   2.0000      -0.912025       -24.8175
 118   2.0000      -0.898863       -24.4593
 119   2.0000      -0.894028       -24.3277
 120   2.0000      -0.887393       -24.1472
 121   2.0000      -0.884244       -24.0615
 122   2.0000      -0.876119       -23.8404
 123   2.0000      -0.872277       -23.7359
 124   2.0000      -0.867102       -23.5950
 125   2.0000      -0.860299       -23.4099
 126   2.0000      -0.859849       -23.3977
 127   2.0000      -0.845761       -23.0143
 128   2.0000      -0.826092       -22.4791
 129   2.0000      -0.814620       -22.1669
 130   2.0000      -0.813552       -22.1379
 131   2.0000      -0.788688       -21.4613
 132   2.0000      -0.785816       -21.3831
 133   2.0000      -0.779759       -21.2183
 134   2.0000      -0.766399       -20.8548
 135   2.0000      -0.764230       -20.7958
 136   2.0000      -0.758901       -20.6507
 137   2.0000      -0.747622       -20.3438
 138   2.0000      -0.736092       -20.0301
 139   2.0000      -0.734364       -19.9831
 140   2.0000      -0.718097       -19.5404
 141   2.0000      -0.717312       -19.5190
 142   2.0000      -0.715081       -19.4583
 143   2.0000      -0.706032       -19.2121
 144   2.0000      -0.703520       -19.1437
 145   2.0000      -0.699451       -19.0330
 146   2.0000      -0.695517       -18.9260
 147   2.0000      -0.687582       -18.7101
 148   2.0000      -0.683274       -18.5928
 149   2.0000      -0.675011       -18.3680
 150   2.0000      -0.668475       -18.1901
 151   2.0000      -0.661459       -17.9992
 152   2.0000      -0.649775       -17.6813
 153   2.0000      -0.647192       -17.6110
 154   2.0000      -0.644729       -17.5440
 155   2.0000      -0.639014       -17.3884
 156   2.0000      -0.635528       -17.2936
 157   2.0000      -0.628992       -17.1157
 158   2.0000      -0.624592       -16.9960
 159   2.0000      -0.619812       -16.8659
 160   2.0000      -0.614918       -16.7328
 161   2.0000      -0.614236       -16.7142
 162   2.0000      -0.610772       -16.6199
 163   2.0000      -0.602884       -16.4053
 164   2.0000      -0.594413       -16.1748
 165   2.0000      -0.587951       -15.9990
 166   2.0000      -0.585859       -15.9420
 167   2.0000      -0.584496       -15.9049
 168   2.0000      -0.580506       -15.7964
 169   2.0000      -0.573610       -15.6087
 170   2.0000      -0.565043       -15.3756
 171   2.0000      -0.564292       -15.3552
 172   2.0000      -0.562031       -15.2936
 173   2.0000      -0.561006       -15.2657
 174   2.0000      -0.559722       -15.2308
 175   2.0000      -0.556688       -15.1482
 176   2.0000      -0.555232       -15.1086
 177   2.0000      -0.554382       -15.0855
 178   2.0000      -0.548424       -14.9234
 179   2.0000      -0.546072       -14.8594
 180   2.0000      -0.545425       -14.8418
 181   2.0000      -0.544759       -14.8237
 182   2.0000      -0.539496       -14.6804
 183   2.0000      -0.538217       -14.6456
 184   2.0000      -0.536525       -14.5996
 185   2.0000      -0.534337       -14.5400
 186   2.0000      -0.529736       -14.4148
 187   2.0000      -0.525903       -14.3106
 188   2.0000      -0.524401       -14.2697
 189   2.0000      -0.521374       -14.1873
 190   2.0000      -0.519858       -14.1461
 191   2.0000      -0.519644       -14.1402
 192   2.0000      -0.514489       -14.0000
 193   2.0000      -0.513538       -13.9741
 194   2.0000      -0.508253       -13.8303
 195   2.0000      -0.507636       -13.8135
 196   2.0000      -0.506785       -13.7903
 197   2.0000      -0.503130       -13.6909
 198   2.0000      -0.500346       -13.6151
 199   2.0000      -0.496099       -13.4995
 200   2.0000      -0.495493       -13.4830
 201   2.0000      -0.491668       -13.3790
 202   2.0000      -0.489084       -13.3087
 203   2.0000      -0.486894       -13.2491
 204   2.0000      -0.484044       -13.1715
 205   2.0000      -0.483464       -13.1557
 206   2.0000      -0.482878       -13.1398
 207   2.0000      -0.481867       -13.1123
 208   2.0000      -0.473826       -12.8935
 209   2.0000      -0.472024       -12.8444
 210   2.0000      -0.470029       -12.7901
 211   2.0000      -0.466931       -12.7059
 212   2.0000      -0.465538       -12.6679
 213   2.0000      -0.464976       -12.6526
 214   2.0000      -0.463483       -12.6120
 215   2.0000      -0.459016       -12.4905
 216   2.0000      -0.457631       -12.4528
 217   2.0000      -0.454237       -12.3604
 218   2.0000      -0.452035       -12.3005
 219   2.0000      -0.450744       -12.2654
 220   2.0000      -0.449161       -12.2223
 221   2.0000      -0.446500       -12.1499
 222   2.0000      -0.445447       -12.1212
 223   2.0000      -0.442016       -12.0279
 224   2.0000      -0.439853       -11.9690
 225   2.0000      -0.437841       -11.9143
 226   2.0000      -0.433305       -11.7908
 227   2.0000      -0.429759       -11.6943
 228   2.0000      -0.428754       -11.6670
 229   2.0000      -0.427802       -11.6411
 230   2.0000      -0.426911       -11.6168
 231   2.0000      -0.421666       -11.4741
 232   2.0000      -0.418654       -11.3921
 233   2.0000      -0.413287       -11.2461
 234   2.0000      -0.412799       -11.2328
 235   2.0000      -0.407168       -11.0796
 236   2.0000      -0.405946       -11.0464
 237   2.0000      -0.393461       -10.7066
 238   2.0000      -0.390662       -10.6305
 239   2.0000      -0.382067       -10.3966
 240   2.0000      -0.380494       -10.3538
 241   2.0000      -0.376383       -10.2419
 242   2.0000      -0.370713       -10.0876
 243   2.0000      -0.365193        -9.9374
 244   2.0000      -0.361593        -9.8394
 245   2.0000      -0.353349        -9.6151
 246   2.0000      -0.353097        -9.6083
 247   2.0000      -0.351688        -9.5699
 248   2.0000      -0.346573        -9.4307
 249   2.0000      -0.342864        -9.3298
 250   2.0000      -0.341661        -9.2971
 251   2.0000      -0.339442        -9.2367
 252   2.0000      -0.335237        -9.1223
 253   2.0000      -0.334256        -9.0956
 254   2.0000      -0.329134        -8.9562
 255   2.0000      -0.321232        -8.7412
 256   2.0000      -0.320901        -8.7322
 257   2.0000      -0.319956        -8.7065
 258   2.0000      -0.311640        -8.4802
 259   2.0000      -0.310492        -8.4489
 260   2.0000      -0.298270        -8.1163
 261   2.0000      -0.282160        -7.6780
 262   2.0000      -0.240992        -6.5577
 263   0.0000      -0.135603        -3.6899
 264   0.0000      -0.116627        -3.1736
 265   0.0000      -0.096265        -2.6195
 266   0.0000      -0.090007        -2.4492
 267   0.0000      -0.074477        -2.0266

MULLIKEN ATOMIC CHARGES
-----------------------
   0 C :    0.273774
   1 C :   -0.272682
   2 C :   -0.190197
   3 N :    0.171219
   4 C :   -0.184670
   5 N :    0.172193
   6 C :    0.025379
   7 C :   -0.006502
   8 C :   -0.021661
   9 C :    0.057506
  10 C :    0.051604
  11 C :   -0.009690
  12 Cl:   -0.024799
  13 Cl:   -0.033961
  14 C :    0.137185
  15 O :   -0.123286
  16 C :   -0.075657
  17 C :    0.004631
  18 C :   -0.027792
  19 N :   -0.034553
  20 C :    0.070557
  21 C :   -0.152966
  22 C :    0.227823
  23 O :   -0.149276
  24 C :   -0.006101
  25 C :   -0.021704
  26 N :   -0.051502
  27 C :    0.096795
  28 C :   -0.096592
  29 C :    0.105738
  30 C :   -0.054009
  31 C :    0.031418
  32 C :    0.104490
  33 N :   -0.023757
  34 C :    0.126163
  35 C :   -0.147800
  36 C :    0.106369
  37 N :   -0.026031
  38 C :    0.127532
  39 C :   -0.165376
  40 C :    0.049370
  41 C :   -0.079101
  42 C :    0.059446
  43 N :   -0.056419
  44 C :    0.064887
  45 C :   -0.148832
  46 C :    0.208365
  47 O :   -0.130556
  48 C :   -0.024799
  49 C :   -0.044910
  50 N :   -0.061017
  51 C :    0.082729
  52 C :   -0.097124
  53 C :    0.053824
  54 C :   -0.022513
  55 C :    0.025101
  56 C :   -0.045479
  57 C :   -0.059884
  58 C :    0.324604
  59 C :   -0.346101
  60 C :   -0.189676
  61 N :    0.157195
  62 C :   -0.189383
  63 N :    0.148572
  64 C :    0.032774
  65 C :   -0.015708
  66 C :    0.144343
  67 O :   -0.123314
  68 C :   -0.029735
  69 C :    0.062910
  70 C :    0.048345
  71 C :   -0.017229
  72 Cl:   -0.035971
  73 Cl:   -0.041270
  74 H :    0.005592
  75 H :    0.010860
  76 H :    0.035140
  77 H :    0.015202
  78 H :    0.001087
  79 H :   -0.027948
  80 H :   -0.003733
  81 H :    0.138700
  82 H :   -0.014375
  83 H :    0.130831
  84 H :   -0.025869
  85 H :    0.011131
  86 H :   -0.017443
  87 H :    0.003005
  88 H :   -0.012136
  89 H :   -0.004604
  90 H :    0.049229
  91 H :    0.009787
  92 H :    0.002631
  93 H :   -0.000342
Sum of atomic charges:   -0.0000000

LOEWDIN ATOMIC CHARGES
----------------------
   0 C :    0.068200
   1 C :   -0.098000
   2 C :   -0.018729
   3 N :   -0.029391
   4 C :   -0.015291
   5 N :   -0.037545
   6 C :   -0.005726
   7 C :   -0.049394
   8 C :    0.005280
   9 C :   -0.133844
  10 C :   -0.125156
  11 C :   -0.011312
  12 Cl:    0.172728
  13 Cl:    0.166484
  14 C :    0.085806
  15 O :   -0.122105
  16 C :   -0.029923
  17 C :    0.040798
  18 C :    0.054254
  19 N :   -0.085517
  20 C :    0.045584
  21 C :   -0.055488
  22 C :    0.074808
  23 O :   -0.145700
  24 C :   -0.035580
  25 C :    0.035473
  26 N :   -0.093337
  27 C :    0.083839
  28 C :   -0.025931
  29 C :   -0.014000
  30 C :   -0.036782
  31 C :    0.012014
  32 C :    0.015312
  33 N :    0.079966
  34 C :   -0.011499
  35 C :   -0.058531
  36 C :   -0.008835
  37 N :    0.077707
  38 C :    0.000940
  39 C :   -0.086779
  40 C :    0.049694
  41 C :   -0.067924
  42 C :    0.068749
  43 N :   -0.126689
  44 C :    0.042682
  45 C :   -0.017366
  46 C :    0.062865
  47 O :   -0.136135
  48 C :   -0.046827
  49 C :    0.008956
  50 N :   -0.102946
  51 C :    0.062573
  52 C :   -0.045203
  53 C :   -0.042352
  54 C :    0.020636
  55 C :   -0.000881
  56 C :    0.068648
  57 C :   -0.090197
  58 C :    0.075860
  59 C :   -0.135275
  60 C :   -0.020245
  61 N :   -0.046656
  62 C :   -0.017904
  63 N :   -0.053211
  64 C :   -0.014948
  65 C :   -0.041610
  66 C :    0.083159
  67 O :   -0.120100
  68 C :    0.001379
  69 C :   -0.133009
  70 C :   -0.130974
  71 C :   -0.012612
  72 Cl:    0.161386
  73 Cl:    0.160418
  74 H :    0.048131
  75 H :    0.047079
  76 H :    0.050730
  77 H :    0.026258
  78 H :    0.036667
  79 H :    0.025885
  80 H :    0.034903
  81 H :    0.099504
  82 H :    0.031550
  83 H :    0.095849
  84 H :    0.027252
  85 H :    0.042956
  86 H :    0.027577
  87 H :    0.020616
  88 H :    0.031811
  89 H :    0.032059
  90 H :    0.040066
  91 H :    0.041120
  92 H :    0.047073
  93 H :    0.044176

  Mayer bond orders larger than 0.100000
B(  0-C ,  1-C ) :   1.7118 B(  0-C ,  6-C ) :   1.0119 B(  0-C , 16-C ) :   1.0019
B(  1-C ,  2-C ) :   1.1299 B(  1-C ,  4-C ) :   1.1548 B(  2-C ,  3-N ) :   2.9928
B(  4-C ,  5-N ) :   2.9887 B(  6-C ,  7-C ) :   1.3188 B(  6-C , 11-C ) :   1.3447
B(  7-C ,  8-C ) :   1.3408 B(  7-C , 14-C ) :   0.9256 B(  8-C ,  9-C ) :   1.3582
B(  8-C , 74-H ) :   1.0145 B(  9-C , 10-C ) :   1.3914 B(  9-C , 13-Cl) :   1.0557
B( 10-C , 11-C ) :   1.3658 B( 10-C , 12-Cl) :   1.0797 B( 11-C , 75-H ) :   0.9880
B( 14-C , 15-O ) :   2.2867 B( 14-C , 16-C ) :   0.9186 B( 16-C , 17-C ) :   1.7789
B( 17-C , 18-C ) :   1.0123 B( 17-C , 76-H ) :   0.9356 B( 18-C , 19-N ) :   1.6156
B( 18-C , 20-C ) :   0.1121 B( 18-C , 29-C ) :   1.0180 B( 19-N , 20-C ) :   1.2801
B( 20-C , 21-C ) :   1.0777 B( 20-C , 25-C ) :   1.4503 B( 21-C , 22-C ) :   0.9079
B( 21-C , 29-C ) :   1.5065 B( 22-C , 23-O ) :   2.1746 B( 22-C , 24-C ) :   0.9274
B( 23-O , 80-H ) :   0.1055 B( 24-C , 25-C ) :   1.0595 B( 24-C , 28-C ) :   1.6255
B( 25-C , 26-N ) :   1.2988 B( 26-N , 27-C ) :   1.6714 B( 27-C , 28-C ) :   1.0482
B( 27-C , 77-H ) :   0.9889 B( 28-C , 78-H ) :   1.0117 B( 29-C , 30-C ) :   1.1437
B( 30-C , 31-C ) :   1.6399 B( 30-C , 79-H ) :   0.9632 B( 31-C , 32-C ) :   1.1083
B( 31-C , 80-H ) :   0.9417 B( 32-C , 33-N ) :   1.1892 B( 32-C , 39-C ) :   1.3788
B( 33-N , 34-C ) :   1.1683 B( 33-N , 81-H ) :   0.9316 B( 34-C , 35-C ) :   1.3067
B( 34-C , 38-C ) :   1.2607 B( 35-C , 36-C ) :   1.3372 B( 35-C , 82-H ) :   1.0313
B( 36-C , 37-N ) :   1.1539 B( 36-C , 40-C ) :   1.1453 B( 37-N , 38-C ) :   1.1906
B( 37-N , 83-H ) :   0.9351 B( 38-C , 39-C ) :   1.2746 B( 39-C , 84-H ) :   1.0327
B( 40-C , 41-C ) :   1.5483 B( 40-C , 85-H ) :   0.9755 B( 41-C , 42-C ) :   1.2163
B( 41-C , 86-H ) :   0.9622 B( 42-C , 43-N ) :   1.5211 B( 42-C , 44-C ) :   0.1080
B( 42-C , 53-C ) :   0.9988 B( 43-N , 44-C ) :   1.4158 B( 44-C , 45-C ) :   1.0550
B( 44-C , 49-C ) :   1.3498 B( 45-C , 46-C ) :   0.8826 B( 45-C , 53-C ) :   1.5680
B( 46-C , 47-O ) :   2.2377 B( 46-C , 48-C ) :   0.9205 B( 48-C , 49-C ) :   1.0802
B( 48-C , 52-C ) :   1.5649 B( 49-C , 50-N ) :   1.3492 B( 50-N , 51-C ) :   1.6157
B( 51-C , 52-C ) :   1.1061 B( 51-C , 87-H ) :   0.9896 B( 52-C , 88-H ) :   1.0118
B( 53-C , 54-C ) :   1.0763 B( 54-C , 55-C ) :   1.6076 B( 54-C , 89-H ) :   0.9724
B( 55-C , 56-C ) :   1.1401 B( 55-C , 90-H ) :   0.9701 B( 56-C , 57-C ) :   1.5563
B( 56-C , 91-H ) :   0.9614 B( 57-C , 58-C ) :   1.0654 B( 57-C , 66-C ) :   0.9359
B( 58-C , 59-C ) :   1.6348 B( 58-C , 64-C ) :   0.9951 B( 59-C , 60-C ) :   1.1391
B( 59-C , 62-C ) :   1.1488 B( 60-C , 61-N ) :   2.9736 B( 62-C , 63-N ) :   2.9663
B( 64-C , 65-C ) :   1.3298 B( 64-C , 71-C ) :   1.3349 B( 65-C , 66-C ) :   0.9330
B( 65-C , 68-C ) :   1.3493 B( 66-C , 67-O ) :   2.2357 B( 68-C , 69-C ) :   1.3404
B( 68-C , 92-H ) :   1.0163 B( 69-C , 70-C ) :   1.4035 B( 69-C , 73-Cl) :   1.0487
B( 70-C , 71-C ) :   1.3645 B( 70-C , 72-Cl) :   1.0757 B( 71-C , 93-H ) :   0.9869

-----------------------------------------------------------------------------
         ABSORPTION SPECTRUM VIA TRANSITION ELECTRIC DIPOLE MOMENTS
-----------------------------------------------------------------------------
State   Energy  Wavelength   fosc         T2         TX        TY        TZ
        (cm-1)    (nm)                  (au**2)     (au)      (au)      (au)
-----------------------------------------------------------------------------
   0    9599.6   1041.7   0.261232433   8.95875  -2.21310   2.01401   0.06854
   1   14019.7    713.3   1.326912011  31.15859   3.51763  -4.25871  -0.80512
   2   18460.3    541.7   0.477696200   8.51901   0.97239  -2.72266  -0.40074
   3   19441.1    514.4   0.273729289   4.63528  -2.00848  -0.43742   0.64027
   4   20261.2    493.6   0.125295717   2.03586  -0.91056   1.09837  -0.01768
   5   20922.8    477.9   0.001301511   0.02048  -0.13232   0.00049  -0.05450
   6   21048.7    475.1   0.006672682   0.10436  -0.30191   0.03138  -0.11058
   7   21164.5    472.5   0.007072394   0.11001   0.24569  -0.22232  -0.01475
   8   22357.3    447.3   0.090825985   1.33741   0.60122  -0.13109   0.97917
   9   23704.8    421.9   0.034969198   0.48565   0.48818  -0.47291  -0.15391
  10   23885.7    418.7   0.185417056   2.55557  -1.42125  -0.56899   0.46028
  11   24297.7    411.6   0.496990645   6.73377   2.33353   1.06026  -0.40530
  12   24504.7    408.1   0.161768372   2.17330   1.11550   0.88550  -0.38060
  13   24762.1    403.8   0.045016735   0.59850   0.71900  -0.07781  -0.27473
  14   25276.3    395.6   0.019681846   0.25635  -0.18678  -0.46517   0.07123
  15   25292.1    395.4   0.045529957   0.59264  -0.35820   0.27085  -0.62528
  16   25471.9    392.6   0.004125538   0.05332  -0.09152  -0.05372   0.20508
  17   25803.5    387.5   0.052211993   0.66614  -0.70384  -0.41295  -0.01488
  18   26345.0    379.6   0.178646756   2.23240   0.86123   0.37067   1.16331
  19   26503.2    377.3   0.272589840   3.38599  -1.29835  -0.30091  -1.26875
  20   26732.6    374.1   0.010915306   0.13442  -0.13372  -0.02197  -0.34067
  21   27166.3    368.1   0.049440997   0.59915  -0.06059   0.76298  -0.11551
  22   27283.0    366.5   0.047403927   0.57200  -0.42867  -0.56766  -0.25692
  23   27476.9    363.9   0.010167678   0.12182  -0.34134   0.06861   0.02453
  24   27710.8    360.9   0.038004229   0.45150   0.04765  -0.61606  -0.26401
  25   28210.0    354.5   0.009858128   0.11504  -0.01993  -0.16777  -0.29411
  26   28253.1    353.9   0.066616506   0.77623  -0.55077   0.67126  -0.14932
  27   29390.0    340.3   0.002505934   0.02807  -0.03625   0.02577   0.16153
  28   29764.2    336.0   0.211096218   2.33486  -0.50961  -1.20097   0.79550
  29   30295.2    330.1   0.021332603   0.23182   0.20991  -0.21198   0.37791
  30   30652.3    326.2   0.078091341   0.83872  -0.73015  -0.45557  -0.31314
  31   30920.7    323.4   0.002791749   0.02972  -0.15009  -0.07674  -0.03618
  32   31085.2    321.7   0.010868548   0.11510   0.07033  -0.27313   0.18858
  33   31256.3    319.9   0.008265782   0.08706  -0.01597  -0.22796   0.18665
  34   31702.1    315.4   0.102621103   1.06567  -0.95144   0.38874   0.09652
  35   31985.8    312.6   0.062614208   0.64445  -0.13638  -0.73769   0.28578
  36   32078.0    311.7   0.063390965   0.65057   0.71469  -0.26392   0.26483
  37   32458.3    308.1   0.047623227   0.48302   0.18654  -0.64934  -0.16304
  38   32832.7    304.6   0.126257936   1.26598  -0.12395   1.08999   0.25010
  39   33049.6    302.6   0.024241021   0.24147   0.05502  -0.43728  -0.21732
  40   33276.4    300.5   0.100980436   0.99903   0.01869   0.89716   0.44020
  41   33829.2    295.6   0.008737951   0.08503  -0.03825   0.27255   0.09638
  42   33940.5    294.6   0.079625397   0.77234   0.81131   0.19949   0.27261
  43   33979.3    294.3   0.197557208   1.91406   0.65191   1.21710   0.08797
  44   34119.9    293.1   0.096483452   0.93094  -0.10374   0.92149  -0.26650
  45   34189.7    292.5   0.001282891   0.01235   0.06580  -0.06733   0.05908
  46   34386.2    290.8   0.102577335   0.98207   0.64960  -0.41470   0.62299
  47   34531.3    289.6   0.047924367   0.45690   0.23138  -0.59633  -0.21852
  48   34817.9    287.2   0.472658964   4.46911   1.47640   1.16013   0.97132
  49   35173.2    284.3   0.026886785   0.25165   0.42361  -0.25233   0.09237
  50   35540.2    281.4   0.020893115   0.19353   0.32557  -0.25620   0.14799
  51   35695.6    280.1   0.047537441   0.43843   0.09290  -0.39595   0.52252
  52   35706.7    280.1   0.311556076   2.87251  -1.62992   0.40019  -0.23607
  53   35803.2    279.3   0.034294936   0.31534   0.47907  -0.03719   0.29061
  54   35953.0    278.1   0.021129070   0.19347  -0.22773  -0.23051   0.29745
  55   36026.0    277.6   0.081037549   0.74053   0.81141   0.28661  -0.00082
  56   36115.1    276.9   0.041324452   0.37670  -0.23474   0.56043  -0.08667
  57   36386.6    274.8   0.005593608   0.05061   0.15367   0.16320  -0.01901
  58   36691.8    272.5   0.069245687   0.62130   0.67638   0.34431   0.21274
  59   36921.1    270.8   0.038337785   0.34184  -0.34302   0.09196  -0.46446
  60   37332.1    267.9   0.054677822   0.48217  -0.05530  -0.44661  -0.52882
  61   37432.7    267.1   0.006723169   0.05913  -0.07127   0.14089   0.18493
  62   37484.7    266.8   0.029463152   0.25876   0.35670  -0.33671   0.13472
  63   37649.2    265.6   0.030507209   0.26676  -0.05348   0.28355   0.42837
  64   37743.7    264.9   0.029788163   0.25982  -0.43586   0.25782  -0.05811
  65   37921.1    263.7   0.010338407   0.08975   0.29424   0.01942  -0.05292
  66   37989.4    263.2   0.042979455   0.37245   0.54531  -0.26196   0.08046
  67   38300.7    261.1   0.006174298   0.05307   0.00772  -0.22426  -0.05214
  68   38406.5    260.4   0.007590238   0.06506   0.03319   0.19827   0.15700
  69   38454.9    260.0   0.015187610   0.13002  -0.27169  -0.23394   0.03846
  70   38555.5    259.4   0.081545035   0.69628   0.74013  -0.35510  -0.14966
  71   38886.5    257.2   0.064278617   0.54418   0.73531   0.02447   0.05385
  72   38952.8    256.7   0.005374769   0.04543  -0.20938   0.02973   0.02645
  73   39179.9    255.2   0.055692657   0.46796  -0.56734  -0.35817   0.13344
  74   39445.3    253.5   0.026602303   0.22202  -0.19987  -0.34058  -0.25705
  75   39522.3    253.0   0.085571629   0.71279  -0.61360   0.56705  -0.12143
  76   39998.5    250.0   0.006947247   0.05718  -0.05171  -0.23077   0.03535
  77   40103.6    249.4   0.076521506   0.62817  -0.65505   0.42372  -0.13980
  78   40136.3    249.2   0.029369864   0.24090  -0.08963  -0.47291  -0.09606
  79   40237.9    248.5   0.103883418   0.84994   0.52062   0.26303   0.71394
  80   40322.9    248.0   0.001008061   0.00823   0.02552  -0.04147   0.07655

FINAL SINGLE POINT ENERGY     -4830.643170683764

DIPOLE MOMENT
-------------
                                X             Y             Z
Electronic contribution:     16.56953       0.59082     -43.75550
Nuclear contribution   :    -17.29028      -3.89890      43.78542
                        -----------------------------------------
Total Dipole Moment    :     -0.72074      -3.30807       0.02992
                        -----------------------------------------
Magnitude (a.u.)       :      3.38581
Magnitude (Debye)      :      8.60605

Rotational constants in cm-1:     0.001025     0.000190     0.000180
Rotational constants in MHz :    30.735243     5.701786     5.404367

                             ****ORCA TERMINATED NORMALLY****
TOTAL RUN TIME: 0 days 0 hours 9 minutes 47 seconds 76 msec
