                         Program Version 4.2.0 -  RELEASE  -
|  1> # ORCA input file
|  2> # SCF done       -191.173382746696          0.001149086380
|  3> ! CAM-B3LYP def2-SVP def2/J RIJCOSX Grid4 TightSCF
|  4> %maxcore 5000
|  5> %tddft
|  6>     Mode sTDDFT
|  7>     Ethresh 5.0
|  8>     maxcore 5000
|  9> end
| 10>
| 11> %pal
| 12>   nprocs 6
| 13>   end
| 14> * xyz 0 1
| 15>    C        3.77649        -5.84238        -1.33814
| 16>    C        3.48244        -5.61272        -0.01705
| 17>    C        4.24737        -4.80447         0.84938
| 18>    N        4.83891        -4.20851         1.63282
| 19>    C        2.34092        -6.12777         0.62780
| 20>    N        1.42141        -6.52034         1.19134
| 21>    C        4.80621        -5.13399        -2.09466
| 22>    C        4.57653        -5.31637        -3.47074
| 23>    C        5.38161        -4.72636        -4.42409
| 24>    C        6.44879        -3.94567        -3.99478
| 25>    C        6.69448        -3.77502        -2.62568
| 26>    C        5.87433        -4.36376        -1.66887
| 27>   Cl        8.02600        -2.82522        -2.11002
| 28>   Cl        7.47104        -3.19322        -5.14744
| 29>    C        3.41568        -6.20717        -3.65704
| 30>    O        2.88253        -6.54328        -4.68433
| 31>    C        3.04790        -6.66476        -2.27470
| 32>    C        2.24469        -7.76068        -2.17969
| 33>    C        1.95254        -8.63944        -1.10952
| 34>    C        0.76508        -9.51348        -1.09677
| 35>    N        0.62518       -10.21380        -0.01359
| 36>    C        1.69106        -9.90410         0.77200
| 37>    C        2.58453        -8.94819         0.07641
| 38>    C        3.71190        -8.64813         0.91310
| 39>    S        5.14054        -7.96480         0.45311
| 40>    C        3.37009        -9.22695         2.18459
| 41>    C        2.17677       -10.07475         2.04086
| 42>    N        1.86059       -10.65347         3.23842
| 43>    C        2.71788       -10.19781         4.09560
| 44>    C        3.69078        -9.24618         3.52414
| 45>    C        4.59861        -8.38701         4.19397
| 46>    S        5.08573        -6.93887         3.38219
| 47>    C        6.00358        -6.38831         4.74091
| 48>    C        5.95129        -7.32546         5.77987
| 49>    C        5.14943        -8.43526         5.47639
| 50>    S        4.87808        -9.84034         6.49440
| 51>    C        5.58966        -9.56222         8.09333
| 52>    O        5.45864       -10.43947         8.89762
| 53>    C        6.34073        -8.30388         8.46545
| 54>    O        6.72162        -8.15021         9.59015
| 55>    S        6.77664        -7.03889         7.30360
| 56>    C        6.62614        -5.12546         4.59411
| 57>    C        7.54528        -4.55660         5.41515
| 58>    C        8.11171        -3.28017         5.18519
| 59>    C        7.73084        -2.27166         4.17810
| 60>    N        8.43767        -1.18382         4.21683
| 61>    C        9.34551        -1.36098         5.22345
| 62>    C        9.15725        -2.68167         5.85381
| 63>    C       10.12891        -2.88044         6.88900
| 64>    S       10.25232        -4.15057         7.93123
| 65>    C       10.92993        -1.68186         6.85452
| 66>    C       10.39453        -0.74254         5.84664
| 67>    N       11.10449         0.42195         5.86220
| 68>    C       12.00213         0.27864         6.78997
| 69>    C       11.97970        -1.03386         7.45307
| 70>    C       12.81821        -1.46800         8.52483
| 71>    C       13.22309        -2.75175         8.67268
| 72>    C       13.83188        -3.37795         9.83833
| 73>    C       14.31470        -2.74614        10.95006
| 74>    C       14.89945        -3.41369        12.04932
| 75>    N       15.39026        -3.89468        12.96780
| 76>    C       14.33065        -1.34642        11.13575
| 77>    N       14.37485        -0.21838        11.34202
| 78>    C       13.82516        -4.81763         9.60229
| 79>    C       13.38563        -5.07289         8.28995
| 80>    C       13.10575        -3.79711         7.60461
| 81>    O       12.96759        -3.61353         6.41762
| 82>    C       13.28135        -6.35679         7.79366
| 83>    C       13.60477        -7.41504         8.63184
| 84>    C       14.03911        -7.17177         9.94261
| 85>    C       14.15554        -5.87705        10.43371
| 86>   Cl       14.43797        -8.49025        10.96442
| 87>   Cl       13.47075        -9.02594         8.06065
| 88>    H        5.18708        -4.86901        -5.47524
| 89>    H        6.09703        -4.22169        -0.62431
| 90>    H        1.77707        -8.03548        -3.12360
| 91>    H        0.04251        -9.57391        -1.89176
| 92>    H        2.67111       -10.49837         5.12626
| 93>    H        6.32679        -4.60012         3.69557
| 94>    H        7.91726        -5.08126         6.28339
| 95>    H        6.93935        -2.37714         3.45669
| 96>    H       12.70196         1.06600         7.00973
| 97>    H       13.08134        -0.71600         9.25780
| 98>    H       12.94716        -6.52937         6.78284
| 99>    H       14.49340        -5.72787        11.44610
|100> *
|101>
|102>                          ****END OF INPUT****

CARTESIAN COORDINATES (ANGSTROEM)
---------------------------------
  C      3.776490   -5.842380   -1.338140
  C      3.482440   -5.612720   -0.017050
  C      4.247370   -4.804470    0.849380
  N      4.838910   -4.208510    1.632820
  C      2.340920   -6.127770    0.627800
  N      1.421410   -6.520340    1.191340
  C      4.806210   -5.133990   -2.094660
  C      4.576530   -5.316370   -3.470740
  C      5.381610   -4.726360   -4.424090
  C      6.448790   -3.945670   -3.994780
  C      6.694480   -3.775020   -2.625680
  C      5.874330   -4.363760   -1.668870
  Cl     8.026000   -2.825220   -2.110020
  Cl     7.471040   -3.193220   -5.147440
  C      3.415680   -6.207170   -3.657040
  O      2.882530   -6.543280   -4.684330
  C      3.047900   -6.664760   -2.274700
  C      2.244690   -7.760680   -2.179690
  C      1.952540   -8.639440   -1.109520
  C      0.765080   -9.513480   -1.096770
  N      0.625180  -10.213800   -0.013590
  C      1.691060   -9.904100    0.772000
  C      2.584530   -8.948190    0.076410
  C      3.711900   -8.648130    0.913100
  S      5.140540   -7.964800    0.453110
  C      3.370090   -9.226950    2.184590
  C      2.176770  -10.074750    2.040860
  N      1.860590  -10.653470    3.238420
  C      2.717880  -10.197810    4.095600
  C      3.690780   -9.246180    3.524140
  C      4.598610   -8.387010    4.193970
  S      5.085730   -6.938870    3.382190
  C      6.003580   -6.388310    4.740910
  C      5.951290   -7.325460    5.779870
  C      5.149430   -8.435260    5.476390
  S      4.878080   -9.840340    6.494400
  C      5.589660   -9.562220    8.093330
  O      5.458640  -10.439470    8.897620
  C      6.340730   -8.303880    8.465450
  O      6.721620   -8.150210    9.590150
  S      6.776640   -7.038890    7.303600
  C      6.626140   -5.125460    4.594110
  C      7.545280   -4.556600    5.415150
  C      8.111710   -3.280170    5.185190
  C      7.730840   -2.271660    4.178100
  N      8.437670   -1.183820    4.216830
  C      9.345510   -1.360980    5.223450
  C      9.157250   -2.681670    5.853810
  C     10.128910   -2.880440    6.889000
  S     10.252320   -4.150570    7.931230
  C     10.929930   -1.681860    6.854520
  C     10.394530   -0.742540    5.846640
  N     11.104490    0.421950    5.862200
  C     12.002130    0.278640    6.789970
  C     11.979700   -1.033860    7.453070
  C     12.818210   -1.468000    8.524830
  C     13.223090   -2.751750    8.672680
  C     13.831880   -3.377950    9.838330
  C     14.314700   -2.746140   10.950060
  C     14.899450   -3.413690   12.049320
  N     15.390260   -3.894680   12.967800
  C     14.330650   -1.346420   11.135750
  N     14.374850   -0.218380   11.342020
  C     13.825160   -4.817630    9.602290
  C     13.385630   -5.072890    8.289950
  C     13.105750   -3.797110    7.604610
  O     12.967590   -3.613530    6.417620
  C     13.281350   -6.356790    7.793660
  C     13.604770   -7.415040    8.631840
  C     14.039110   -7.171770    9.942610
  C     14.155540   -5.877050   10.433710
  Cl    14.437970   -8.490250   10.964420
  Cl    13.470750   -9.025940    8.060650
  H      5.187080   -4.869010   -5.475240
  H      6.097030   -4.221690   -0.624310
  H      1.777070   -8.035480   -3.123600
  H      0.042510   -9.573910   -1.891760
  H      2.671110  -10.498370    5.126260
  H      6.326790   -4.600120    3.695570
  H      7.917260   -5.081260    6.283390
  H      6.939350   -2.377140    3.456690
  H     12.701960    1.066000    7.009730
  H     13.081340   -0.716000    9.257800
  H     12.947160   -6.529370    6.782840
  H     14.493400   -5.727870   11.446100

 Total Charge           Charge          ....    0
 Multiplicity           Mult            ....    1
 Number of Electrons    NEL             ....  560
 Basis Dimension        Dim             .... 1118

ORBITAL ENERGIES
----------------

  NO   OCC          E(Eh)            E(eV)
   0   2.0000    -101.614502     -2765.0712
   1   2.0000    -101.614127     -2765.0610
   2   2.0000    -101.605101     -2764.8153
   3   2.0000    -101.602808     -2764.7530
   4   2.0000     -88.991511     -2421.5821
   5   2.0000     -88.987728     -2421.4792
   6   2.0000     -88.983808     -2421.3725
   7   2.0000     -88.934895     -2420.0415
   8   2.0000     -88.919557     -2419.6242
   9   2.0000     -19.257031      -524.0104
  10   2.0000     -19.255138      -523.9589
  11   2.0000     -19.243623      -523.6456
  12   2.0000     -19.224995      -523.1387
  13   2.0000     -14.449900      -393.2018
  14   2.0000     -14.444156      -393.0455
  15   2.0000     -14.437128      -392.8542
  16   2.0000     -14.435668      -392.8145
  17   2.0000     -14.429990      -392.6600
  18   2.0000     -14.427607      -392.5951
  19   2.0000     -14.425708      -392.5435
  20   2.0000     -14.424820      -392.5193
  21   2.0000     -10.421409      -283.5809
  22   2.0000     -10.419123      -283.5187
  23   2.0000     -10.393028      -282.8087
  24   2.0000     -10.380807      -282.4761
  25   2.0000     -10.373836      -282.2864
  26   2.0000     -10.373513      -282.2776
  27   2.0000     -10.372168      -282.2410
  28   2.0000     -10.369434      -282.1666
  29   2.0000     -10.368292      -282.1356
  30   2.0000     -10.361706      -281.9564
  31   2.0000     -10.361021      -281.9377
  32   2.0000     -10.358283      -281.8632
  33   2.0000     -10.356562      -281.8164
  34   2.0000     -10.356352      -281.8107
  35   2.0000     -10.355032      -281.7747
  36   2.0000     -10.354716      -281.7662
  37   2.0000     -10.354261      -281.7538
  38   2.0000     -10.354039      -281.7477
  39   2.0000     -10.353790      -281.7409
  40   2.0000     -10.352643      -281.7097
  41   2.0000     -10.349450      -281.6228
  42   2.0000     -10.348531      -281.5978
  43   2.0000     -10.346721      -281.5486
  44   2.0000     -10.346706      -281.5482
  45   2.0000     -10.345286      -281.5095
  46   2.0000     -10.344295      -281.4826
  47   2.0000     -10.343831      -281.4700
  48   2.0000     -10.342724      -281.4398
  49   2.0000     -10.342287      -281.4279
  50   2.0000     -10.338115      -281.3144
  51   2.0000     -10.335182      -281.2346
  52   2.0000     -10.333350      -281.1848
  53   2.0000     -10.331347      -281.1302
  54   2.0000     -10.329366      -281.0763
  55   2.0000     -10.328591      -281.0553
  56   2.0000     -10.327353      -281.0216
  57   2.0000     -10.327134      -281.0156
  58   2.0000     -10.326972      -281.0112
  59   2.0000     -10.326592      -281.0009
  60   2.0000     -10.322428      -280.8876
  61   2.0000     -10.320538      -280.8361
  62   2.0000     -10.319421      -280.8057
  63   2.0000     -10.317535      -280.7544
  64   2.0000     -10.317350      -280.7494
  65   2.0000     -10.316269      -280.7199
  66   2.0000     -10.315812      -280.7075
  67   2.0000     -10.314354      -280.6678
  68   2.0000     -10.314341      -280.6675
  69   2.0000     -10.314173      -280.6629
  70   2.0000     -10.308690      -280.5137
  71   2.0000     -10.308015      -280.4954
  72   2.0000     -10.307779      -280.4889
  73   2.0000      -9.569500      -260.3993
  74   2.0000      -9.569206      -260.3913
  75   2.0000      -9.560145      -260.1448
  76   2.0000      -9.557860      -260.0826
  77   2.0000      -8.086416      -220.0426
  78   2.0000      -8.084295      -219.9848
  79   2.0000      -8.079891      -219.8650
  80   2.0000      -8.030005      -218.5075
  81   2.0000      -8.014597      -218.0883
  82   2.0000      -7.339932      -199.7297
  83   2.0000      -7.339608      -199.7209
  84   2.0000      -7.330536      -199.4740
  85   2.0000      -7.329742      -199.4524
  86   2.0000      -7.329457      -199.4447
  87   2.0000      -7.328974      -199.4315
  88   2.0000      -7.328710      -199.4243
  89   2.0000      -7.328283      -199.4127
  90   2.0000      -7.320412      -199.1985
  91   2.0000      -7.319656      -199.1780
  92   2.0000      -7.318092      -199.1354
  93   2.0000      -7.317365      -199.1156
  94   2.0000      -6.055645      -164.7825
  95   2.0000      -6.054213      -164.7435
  96   2.0000      -6.051411      -164.6673
  97   2.0000      -6.049858      -164.6250
  98   2.0000      -6.049486      -164.6149
  99   2.0000      -6.048548      -164.5893
 100   2.0000      -6.045159      -164.4971
 101   2.0000      -6.045042      -164.4940
 102   2.0000      -6.040782      -164.3780
 103   2.0000      -5.999008      -163.2413
 104   2.0000      -5.998460      -163.2264
 105   2.0000      -5.989189      -162.9741
 106   2.0000      -5.983276      -162.8132
 107   2.0000      -5.982908      -162.8032
 108   2.0000      -5.974335      -162.5699
 109   2.0000      -1.194673       -32.5087
 110   2.0000      -1.162798       -31.6413
 111   2.0000      -1.159781       -31.5592
 112   2.0000      -1.142638       -31.0928
 113   2.0000      -1.107185       -30.1280
 114   2.0000      -1.096409       -29.8348
 115   2.0000      -1.087532       -29.5932
 116   2.0000      -1.076963       -29.3057
 117   2.0000      -1.051548       -28.6141
 118   2.0000      -1.041651       -28.3448
 119   2.0000      -1.037840       -28.2411
 120   2.0000      -1.037246       -28.2249
 121   2.0000      -1.025456       -27.9041
 122   2.0000      -1.024448       -27.8767
 123   2.0000      -1.013160       -27.5695
 124   2.0000      -1.004485       -27.3334
 125   2.0000      -0.998856       -27.1802
 126   2.0000      -0.990494       -26.9527
 127   2.0000      -0.978157       -26.6170
 128   2.0000      -0.977412       -26.5967
 129   2.0000      -0.966726       -26.3060
 130   2.0000      -0.956351       -26.0236
 131   2.0000      -0.953653       -25.9502
 132   2.0000      -0.949411       -25.8348
 133   2.0000      -0.944342       -25.6969
 134   2.0000      -0.938772       -25.5453
 135   2.0000      -0.925173       -25.1752
 136   2.0000      -0.921166       -25.0662
 137   2.0000      -0.909565       -24.7505
 138   2.0000      -0.900596       -24.5065
 139   2.0000      -0.893632       -24.3170
 140   2.0000      -0.882564       -24.0158
 141   2.0000      -0.879296       -23.9269
 142   2.0000      -0.875711       -23.8293
 143   2.0000      -0.866871       -23.5888
 144   2.0000      -0.865467       -23.5506
 145   2.0000      -0.857619       -23.3370
 146   2.0000      -0.849321       -23.1112
 147   2.0000      -0.843036       -22.9402
 148   2.0000      -0.822177       -22.3726
 149   2.0000      -0.809937       -22.0395
 150   2.0000      -0.797431       -21.6992
 151   2.0000      -0.793416       -21.5899
 152   2.0000      -0.784058       -21.3353
 153   2.0000      -0.778941       -21.1961
 154   2.0000      -0.770893       -20.9771
 155   2.0000      -0.767720       -20.8907
 156   2.0000      -0.763807       -20.7843
 157   2.0000      -0.756552       -20.5868
 158   2.0000      -0.738724       -20.1017
 159   2.0000      -0.734140       -19.9770
 160   2.0000      -0.724138       -19.7048
 161   2.0000      -0.722123       -19.6500
 162   2.0000      -0.716779       -19.5045
 163   2.0000      -0.715994       -19.4832
 164   2.0000      -0.709901       -19.3174
 165   2.0000      -0.701100       -19.0779
 166   2.0000      -0.700997       -19.0751
 167   2.0000      -0.687167       -18.6988
 168   2.0000      -0.678430       -18.4610
 169   2.0000      -0.668127       -18.1807
 170   2.0000      -0.664720       -18.0879
 171   2.0000      -0.657659       -17.8958
 172   2.0000      -0.649747       -17.6805
 173   2.0000      -0.646428       -17.5902
 174   2.0000      -0.645193       -17.5566
 175   2.0000      -0.632667       -17.2157
 176   2.0000      -0.626659       -17.0523
 177   2.0000      -0.622737       -16.9455
 178   2.0000      -0.619490       -16.8572
 179   2.0000      -0.614707       -16.7270
 180   2.0000      -0.611219       -16.6321
 181   2.0000      -0.600928       -16.3521
 182   2.0000      -0.600172       -16.3315
 183   2.0000      -0.596991       -16.2449
 184   2.0000      -0.592377       -16.1194
 185   2.0000      -0.584383       -15.9019
 186   2.0000      -0.579467       -15.7681
 187   2.0000      -0.573452       -15.6044
 188   2.0000      -0.571889       -15.5619
 189   2.0000      -0.569240       -15.4898
 190   2.0000      -0.566743       -15.4219
 191   2.0000      -0.566102       -15.4044
 192   2.0000      -0.564753       -15.3677
 193   2.0000      -0.563823       -15.3424
 194   2.0000      -0.561590       -15.2816
 195   2.0000      -0.560073       -15.2404
 196   2.0000      -0.556196       -15.1349
 197   2.0000      -0.553222       -15.0539
 198   2.0000      -0.549377       -14.9493
 199   2.0000      -0.547977       -14.9112
 200   2.0000      -0.546329       -14.8664
 201   2.0000      -0.543191       -14.7810
 202   2.0000      -0.537116       -14.6157
 203   2.0000      -0.536511       -14.5992
 204   2.0000      -0.533503       -14.5174
 205   2.0000      -0.530655       -14.4398
 206   2.0000      -0.527009       -14.3406
 207   2.0000      -0.525666       -14.3041
 208   2.0000      -0.520369       -14.1600
 209   2.0000      -0.519979       -14.1493
 210   2.0000      -0.517828       -14.0908
 211   2.0000      -0.516288       -14.0489
 212   2.0000      -0.513840       -13.9823
 213   2.0000      -0.509849       -13.8737
 214   2.0000      -0.507314       -13.8047
 215   2.0000      -0.506385       -13.7794
 216   2.0000      -0.504044       -13.7157
 217   2.0000      -0.502732       -13.6800
 218   2.0000      -0.497753       -13.5446
 219   2.0000      -0.496474       -13.5098
 220   2.0000      -0.494203       -13.4479
 221   2.0000      -0.493281       -13.4229
 222   2.0000      -0.490487       -13.3468
 223   2.0000      -0.486434       -13.2365
 224   2.0000      -0.484428       -13.1820
 225   2.0000      -0.483866       -13.1667
 226   2.0000      -0.473434       -12.8828
 227   2.0000      -0.473000       -12.8710
 228   2.0000      -0.470720       -12.8089
 229   2.0000      -0.468440       -12.7469
 230   2.0000      -0.465782       -12.6746
 231   2.0000      -0.459636       -12.5073
 232   2.0000      -0.459240       -12.4966
 233   2.0000      -0.457864       -12.4591
 234   2.0000      -0.457539       -12.4503
 235   2.0000      -0.453007       -12.3270
 236   2.0000      -0.451379       -12.2826
 237   2.0000      -0.449790       -12.2394
 238   2.0000      -0.446582       -12.1521
 239   2.0000      -0.444295       -12.0899
 240   2.0000      -0.443743       -12.0749
 241   2.0000      -0.441329       -12.0092
 242   2.0000      -0.438367       -11.9286
 243   2.0000      -0.436547       -11.8790
 244   2.0000      -0.435457       -11.8494
 245   2.0000      -0.430778       -11.7221
 246   2.0000      -0.428374       -11.6567
 247   2.0000      -0.427196       -11.6246
 248   2.0000      -0.423630       -11.5276
 249   2.0000      -0.420925       -11.4540
 250   2.0000      -0.418890       -11.3986
 251   2.0000      -0.414007       -11.2657
 252   2.0000      -0.412187       -11.2162
 253   2.0000      -0.405615       -11.0373
 254   2.0000      -0.396629       -10.7928
 255   2.0000      -0.396263       -10.7829
 256   2.0000      -0.390991       -10.6394
 257   2.0000      -0.385803       -10.4982
 258   2.0000      -0.377784       -10.2800
 259   2.0000      -0.376696       -10.2504
 260   2.0000      -0.375141       -10.2081
 261   2.0000      -0.368208       -10.0195
 262   2.0000      -0.366823        -9.9818
 263   2.0000      -0.363657        -9.8956
 264   2.0000      -0.362919        -9.8755
 265   2.0000      -0.358521        -9.7558
 266   2.0000      -0.354523        -9.6471
 267   2.0000      -0.350459        -9.5365
 268   2.0000      -0.345269        -9.3953
 269   2.0000      -0.342515        -9.3203
 270   2.0000      -0.335397        -9.1266
 271   2.0000      -0.329434        -8.9643
 272   2.0000      -0.327374        -8.9083
 273   2.0000      -0.323576        -8.8050
 274   2.0000      -0.320105        -8.7105
 275   2.0000      -0.318443        -8.6653
 276   2.0000      -0.312970        -8.5163
 277   2.0000      -0.302288        -8.2257
 278   2.0000      -0.299726        -8.1560
 279   2.0000      -0.274637        -7.4733
 280   0.0000      -0.139570        -3.7979
 281   0.0000      -0.127611        -3.4725
 282   0.0000      -0.117798        -3.2055
 283   0.0000      -0.103529        -2.8172
 284   0.0000      -0.097862        -2.6630

MULLIKEN ATOMIC CHARGES
-----------------------
   0 C :    0.334320
   1 C :   -0.404354
   2 C :   -0.130838
   3 N :    0.151974
   4 C :   -0.207235
   5 N :    0.201831
   6 C :    0.017909
   7 C :    0.010634
   8 C :   -0.026383
   9 C :    0.055432
  10 C :    0.053948
  11 C :   -0.019063
  12 Cl:   -0.026383
  13 Cl:   -0.032349
  14 C :    0.128199
  15 O :   -0.123155
  16 C :   -0.098342
  17 C :    0.004300
  18 C :    0.011436
  19 C :    0.074673
  20 N :   -0.017167
  21 C :    0.022845
  22 C :    0.016567
  23 C :   -0.076695
  24 S :   -0.071034
  25 C :   -0.023547
  26 C :    0.034263
  27 N :   -0.024897
  28 C :    0.074633
  29 C :   -0.001262
  30 C :   -0.135352
  31 S :    0.206214
  32 C :   -0.107610
  33 C :   -0.029172
  34 C :   -0.023755
  35 S :    0.080912
  36 C :    0.079323
  37 O :   -0.117253
  38 C :    0.087676
  39 O :   -0.117567
  40 S :    0.081652
  41 C :    0.043355
  42 C :   -0.036045
  43 C :   -0.008288
  44 C :    0.061401
  45 N :   -0.017325
  46 C :    0.035194
  47 C :   -0.009347
  48 C :    0.017516
  49 S :   -0.115510
  50 C :    0.031349
  51 C :   -0.005522
  52 N :   -0.026439
  53 C :    0.070722
  54 C :   -0.006130
  55 C :   -0.038293
  56 C :   -0.036016
  57 C :    0.298215
  58 C :   -0.337313
  59 C :   -0.189421
  60 N :    0.168406
  61 C :   -0.181635
  62 N :    0.158287
  63 C :    0.040233
  64 C :    0.012634
  65 C :    0.105936
  66 O :   -0.135566
  67 C :   -0.023921
  68 C :    0.062338
  69 C :    0.051049
  70 C :   -0.014289
  71 Cl:   -0.031415
  72 Cl:   -0.039700
  73 H :    0.005912
  74 H :   -0.003864
  75 H :    0.028830
  76 H :    0.019141
  77 H :    0.028961
  78 H :    0.001432
  79 H :    0.022327
  80 H :    0.031193
  81 H :    0.016986
  82 H :    0.029788
  83 H :   -0.002537
  84 H :    0.002041
Sum of atomic charges:   -0.0000000

LOEWDIN ATOMIC CHARGES
----------------------
   0 C :    0.066842
   1 C :   -0.141103
   2 C :   -0.007160
   3 N :   -0.066565
   4 C :   -0.016651
   5 N :   -0.033605
   6 C :   -0.008749
   7 C :   -0.046898
   8 C :    0.006370
   9 C :   -0.133773
  10 C :   -0.126874
  11 C :   -0.016452
  12 Cl:    0.170474
  13 Cl:    0.167484
  14 C :    0.088363
  15 O :   -0.120997
  16 C :   -0.065853
  17 C :    0.059885
  18 C :   -0.058988
  19 C :    0.095368
  20 N :   -0.066756
  21 C :    0.039014
  22 C :    0.008843
  23 C :   -0.154710
  24 S :    0.103952
  25 C :   -0.048155
  26 C :    0.055163
  27 N :   -0.067516
  28 C :    0.093274
  29 C :   -0.054758
  30 C :   -0.194995
  31 S :    0.531135
  32 C :   -0.173972
  33 C :   -0.217996
  34 C :   -0.205355
  35 S :    0.391711
  36 C :   -0.108311
  37 O :   -0.091684
  38 C :   -0.110332
  39 O :   -0.091276
  40 S :    0.408260
  41 C :   -0.030271
  42 C :   -0.015374
  43 C :   -0.033091
  44 C :    0.100444
  45 N :   -0.072718
  46 C :    0.050635
  47 C :   -0.033085
  48 C :   -0.131479
  49 S :    0.088572
  50 C :    0.001102
  51 C :    0.037737
  52 N :   -0.076538
  53 C :    0.094038
  54 C :   -0.046427
  55 C :    0.052982
  56 C :   -0.057889
  57 C :    0.074785
  58 C :   -0.126147
  59 C :   -0.020846
  60 N :   -0.038247
  61 C :   -0.017839
  62 N :   -0.041966
  63 C :   -0.011924
  64 C :   -0.040001
  65 C :    0.069047
  66 O :   -0.135122
  67 C :   -0.000018
  68 C :   -0.131723
  69 C :   -0.129335
  70 C :   -0.010718
  71 Cl:    0.166569
  72 Cl:    0.163183
  73 H :    0.048433
  74 H :    0.041826
  75 H :    0.051656
  76 H :    0.030766
  77 H :    0.021530
  78 H :    0.032185
  79 H :    0.018834
  80 H :    0.031468
  81 H :    0.030323
  82 H :    0.047800
  83 H :    0.045259
  84 H :    0.044928

  Mayer bond orders larger than 0.100000
B(  0-C ,  1-C ) :   1.5898 B(  0-C ,  6-C ) :   1.0144 B(  0-C , 16-C ) :   1.0523
B(  1-C ,  2-C ) :   1.1286 B(  1-C ,  4-C ) :   1.1966 B(  1-C , 24-S ) :   0.1003
B(  2-C ,  3-N ) :   2.9348 B(  4-C ,  5-N ) :   2.9955 B(  6-C ,  7-C ) :   1.3246
B(  6-C , 11-C ) :   1.3487 B(  7-C ,  8-C ) :   1.3447 B(  7-C , 14-C ) :   0.9236
B(  8-C ,  9-C ) :   1.3464 B(  8-C , 73-H ) :   1.0171 B(  9-C , 10-C ) :   1.4026
B(  9-C , 13-Cl) :   1.0567 B( 10-C , 11-C ) :   1.3581 B( 10-C , 12-Cl) :   1.0805
B( 11-C , 74-H ) :   0.9881 B( 14-C , 15-O ) :   2.2739 B( 14-C , 16-C ) :   0.9247
B( 16-C , 17-C ) :   1.6727 B( 17-C , 18-C ) :   1.1108 B( 17-C , 75-H ) :   0.9300
B( 18-C , 19-C ) :   1.0200 B( 18-C , 22-C ) :   1.4813 B( 19-C , 20-N ) :   1.7269
B( 19-C , 76-H ) :   0.9930 B( 20-N , 21-C ) :   1.2853 B( 21-C , 22-C ) :   1.0558
B( 21-C , 26-C ) :   1.5095 B( 22-C , 23-C ) :   1.0397 B( 23-C , 24-S ) :   1.6740
B( 23-C , 25-C ) :   1.0130 B( 25-C , 26-C ) :   1.0697 B( 25-C , 29-C ) :   1.5488
B( 26-C , 27-N ) :   1.2573 B( 27-N , 28-C ) :   1.7546 B( 28-C , 29-C ) :   1.0075
B( 28-C , 77-H ) :   0.9841 B( 29-C , 30-C ) :   1.1210 B( 30-C , 31-S ) :   1.1538
B( 30-C , 32-C ) :   0.1080 B( 30-C , 34-C ) :   1.5034 B( 31-S , 32-C ) :   1.1686
B( 32-C , 33-C ) :   1.4869 B( 32-C , 41-C ) :   1.1511 B( 33-C , 34-C ) :   1.3254
B( 33-C , 40-S ) :   0.9710 B( 34-C , 35-S ) :   0.9801 B( 35-S , 36-C ) :   1.0385
B( 35-S , 37-O ) :   0.1356 B( 36-C , 37-O ) :   2.1741 B( 36-C , 38-C ) :   0.7711
B( 38-C , 39-O ) :   2.1709 B( 38-C , 40-S ) :   1.0486 B( 39-O , 40-S ) :   0.1360
B( 41-C , 42-C ) :   1.6203 B( 41-C , 78-H ) :   0.9432 B( 42-C , 43-C ) :   1.1492
B( 42-C , 79-H ) :   0.9583 B( 43-C , 44-C ) :   1.0010 B( 43-C , 47-C ) :   1.4970
B( 44-C , 45-N ) :   1.7339 B( 44-C , 80-H ) :   0.9851 B( 45-N , 46-C ) :   1.2588
B( 46-C , 47-C ) :   1.0604 B( 46-C , 51-C ) :   1.5211 B( 47-C , 48-C ) :   1.0505
B( 48-C , 49-S ) :   1.6641 B( 48-C , 50-C ) :   1.0256 B( 50-C , 51-C ) :   1.0786
B( 50-C , 54-C ) :   1.5517 B( 51-C , 52-N ) :   1.2686 B( 52-N , 53-C ) :   1.7160
B( 53-C , 54-C ) :   1.0234 B( 53-C , 81-H ) :   0.9947 B( 54-C , 55-C ) :   1.0553
B( 55-C , 56-C ) :   1.7166 B( 55-C , 82-H ) :   0.9324 B( 56-C , 57-C ) :   1.0546
B( 56-C , 65-C ) :   0.8974 B( 57-C , 58-C ) :   1.6596 B( 57-C , 63-C ) :   1.0091
B( 58-C , 59-C ) :   1.1343 B( 58-C , 61-C ) :   1.1430 B( 59-C , 60-N ) :   2.9814
B( 61-C , 62-N ) :   2.9724 B( 63-C , 64-C ) :   1.3263 B( 63-C , 70-C ) :   1.3304
B( 64-C , 65-C ) :   0.9271 B( 64-C , 67-C ) :   1.3394 B( 65-C , 66-O ) :   2.2491
B( 67-C , 68-C ) :   1.3514 B( 67-C , 83-H ) :   1.0154 B( 68-C , 69-C ) :   1.3929
B( 68-C , 72-Cl) :   1.0497 B( 69-C , 70-C ) :   1.3727 B( 69-C , 71-Cl) :   1.0783
B( 70-C , 84-H ) :   0.9856

-----------------------------------------------------------------------------
         ABSORPTION SPECTRUM VIA TRANSITION ELECTRIC DIPOLE MOMENTS
-----------------------------------------------------------------------------
State   Energy  Wavelength   fosc         T2         TX        TY        TZ
        (cm-1)    (nm)                  (au**2)     (au)      (au)      (au)
-----------------------------------------------------------------------------
   0   13247.1    754.9   0.184735646   4.59100   1.25243   0.74186   1.57228
   1   14741.9    678.3   0.073463976   1.64058   0.88433   0.34122   0.86146
   2   15348.9    651.5   0.085382349   1.83133  -0.90465  -0.83088  -0.56796
   3   16334.2    612.2   0.108327195   2.18331  -1.04777  -0.78638  -0.68344
   4   16942.7    590.2   0.007310265   0.14204   0.09493   0.31265  -0.18783
   5   17625.4    567.4   0.170952463   3.19309   1.12619   0.67756   1.21066
   6   17933.9    557.6   0.272393582   5.00032  -1.27729  -0.98732  -1.54727
   7   20262.4    493.5   0.090039959   1.46292  -0.93557  -0.35590  -0.67894
   8   20432.5    489.4   0.004212463   0.06787   0.02261   0.25033   0.06852
   9   21482.8    465.5   0.106117497   1.62619   0.95993   0.81802   0.18861
  10   22581.5    442.8   0.115455026   1.68320  -0.12200  -0.78447   1.02612
  11   23023.4    434.3   0.007498631   0.10722   0.05017  -0.12463  -0.29862
  12   23362.0    428.0   0.006025919   0.08492  -0.19962   0.19669   0.07987
  13   23406.1    427.2   0.055102102   0.77502  -0.09488   0.46697  -0.74024
  14   23539.8    424.8   0.167214473   2.33855   1.25516   0.56474   0.66648
  15   24143.0    414.2   0.006963743   0.09496  -0.03620   0.20982   0.22276
  16   24767.6    403.8   0.005081753   0.06755  -0.03658  -0.11907   0.22810
  17   25118.3    398.1   0.008834265   0.11579   0.14413   0.24744   0.18381
  18   25538.1    391.6   0.005763845   0.07430   0.11744   0.10414  -0.22286
  19   25620.6    390.3   0.007288196   0.09365   0.22306   0.20507  -0.04291
  20   25706.1    389.0   0.148061963   1.89619   0.73613   0.35616   1.10790
  21   25911.4    385.9   0.036059402   0.45814   0.02589   0.61712  -0.27682
  22   25937.3    385.5   0.038073371   0.48325   0.25920   0.24980   0.59470
  23   26064.2    383.7   0.008287569   0.10468  -0.03870   0.29658  -0.12338
  24   26404.7    378.7   0.102536051   1.27841  -0.29309  -0.93924   0.55708
  25   26764.1    373.6   0.262548356   3.22947   0.71742   1.58507  -0.44982
  26   26898.2    371.8   0.021977892   0.26899   0.35204   0.36550   0.10708
  27   26939.3    371.2   0.061719061   0.75424   0.46827   0.48318  -0.54909
  28   27386.9    365.1   0.193026767   2.32033  -1.06528   0.60780  -0.90338
  29   27476.5    363.9   0.003871995   0.04639   0.06623  -0.20469   0.01042
  30   28382.8    352.3   0.009015827   0.10457   0.29890   0.11734  -0.03828
  31   28629.1    349.3   0.110211668   1.26735  -1.05532   0.17200  -0.35223
  32   28795.1    347.3   0.041721256   0.47700  -0.09516   0.01092  -0.68397
  33   28937.3    345.6   0.049520338   0.56338  -0.45103   0.50424  -0.32511
  34   29054.2    344.2   0.009973120   0.11301  -0.20912  -0.23251   0.12334
  35   29333.8    340.9   0.098786566   1.10868  -0.94042  -0.12137  -0.45778
  36   29524.4    338.7   0.055061307   0.61396  -0.20703  -0.34023   0.67479
  37   29558.4    338.3   0.010387298   0.11569  -0.31223   0.09537  -0.09544
  38   29659.0    337.2   0.015779310   0.17515  -0.17409   0.36941  -0.09151
  39   29710.8    336.6   0.067432363   0.74719   0.23717   0.81181  -0.17863
  40   29931.8    334.1   0.012566384   0.13821  -0.08456   0.33523  -0.13670
  41   30020.3    333.1   0.086913240   0.95312   0.47305  -0.32364   0.79032
  42   30291.5    330.1   0.019470729   0.21161  -0.18489   0.28770  -0.30766
  43   30670.5    326.0   0.016301301   0.17498  -0.32745  -0.02476   0.25911
  44   30883.7    323.8   0.209761710   2.23600  -0.34509  -0.45297   1.38266
  45   31034.4    322.2   0.053551555   0.56807   0.19068  -0.61400   0.39334
  46   31270.6    319.8   0.186311917   1.96146   0.33945   0.70649  -1.16065
  47   31551.1    316.9   0.017134889   0.17879   0.31226   0.13943   0.24868
  48   31729.9    315.2   0.002366723   0.02456  -0.13585   0.07789  -0.00568
  49   32071.0    311.8   0.038023389   0.39031  -0.16733  -0.12452  -0.58891
  50   32277.0    309.8   0.038887800   0.39664   0.02790   0.08183   0.62383
  51   32433.8    308.3   0.019782933   0.20080  -0.12265  -0.41857  -0.10274
  52   32684.9    306.0   0.032413856   0.32648  -0.38643  -0.28028  -0.31400
  53   32802.0    304.9   0.011791364   0.11834   0.15517   0.01463  -0.30668
  54   32855.7    304.4   0.002542002   0.02547   0.13301   0.06451   0.06015
  55   32986.5    303.2   0.124253008   1.24007   0.79012   0.77640   0.11392
  56   33106.6    302.1   0.163258112   1.62344  -0.52404   0.14328  -1.15251
  57   33292.4    300.4   0.036881402   0.36470   0.60107  -0.00132  -0.05847
  58   33372.4    299.6   0.034974247   0.34501   0.08195  -0.04279  -0.58006
  59   33463.4    298.8   0.023737064   0.23352  -0.28209   0.31331  -0.23620
  60   33637.9    297.3   0.129850991   1.27084  -0.09860   0.41609  -1.04307
  61   33697.3    296.8   0.011681152   0.11412   0.03734   0.01157   0.33555
  62   33741.1    296.4   0.033850299   0.33028   0.39176  -0.02480   0.41975
  63   33811.6    295.8   0.247414962   2.40899  -0.53120   0.04049  -1.45780
  64   33913.5    294.9   0.065105603   0.63201  -0.36834  -0.70448   0.00687
  65   33953.0    294.5   0.156472742   1.51718   0.03313   0.61524   1.06656
  66   34130.1    293.0   0.048099182   0.46395  -0.53143  -0.09635  -0.41504
  67   34264.0    291.9   0.037495012   0.36026  -0.37577  -0.06714   0.46319
  68   34284.3    291.7   0.008761930   0.08414   0.08775  -0.03730   0.27394
  69   34473.0    290.1   0.002034980   0.01943  -0.09490   0.02036  -0.10007
  70   34622.8    288.8   0.060917014   0.57923  -0.04389  -0.75796  -0.05298
  71   34662.9    288.5   0.119732500   1.13716  -0.22850   0.96929   0.38135
  72   34731.9    287.9   0.005769129   0.05468  -0.12464   0.19565   0.02946
  73   35247.2    283.7   0.015414954   0.14398   0.34794  -0.06444   0.13698
  74   35278.5    283.5   0.034332001   0.32038   0.44052  -0.22801   0.27264
  75   35388.7    282.6   0.019026591   0.17700   0.17593   0.37639  -0.06617
  76   35491.0    281.8   0.043927209   0.40747  -0.40484   0.14944  -0.47036
  77   35545.8    281.3   0.009857319   0.09129   0.10204   0.25653  -0.12278
  78   35824.3    279.1   0.003290135   0.03024   0.16854  -0.03692  -0.02162
  79   36051.9    277.4   0.032412973   0.29598  -0.25849   0.40458   0.25590
  80   36122.7    276.8   0.129604822   1.18118  -0.14090  -0.09001   1.07388
  81   36322.7    275.3   0.414147871   3.75364   0.58339   1.83744   0.19260
  82   36550.9    273.6   0.013532907   0.12189   0.09996  -0.33448   0.00472
  83   36717.9    272.3   0.188846586   1.69320   0.25323   1.27127   0.11375
  84   36847.4    271.4   0.052797356   0.47172  -0.23907   0.45332   0.45724
  85   36925.4    270.8   0.115162049   1.02674   0.20846   0.68176  -0.72006
  86   37080.4    269.7   0.137537485   1.22110  -0.44885  -0.46534   0.89615
  87   37226.0    268.6   0.050526523   0.44684  -0.03452   0.05457  -0.66533
  88   37295.6    268.1   0.025350342   0.22377  -0.29843  -0.32530   0.16997
  89   37506.9    266.6   0.181142222   1.58995  -0.89442  -0.41754   0.78462
  90   37567.4    266.2   0.062997257   0.55206  -0.09948  -0.45885   0.57587
  91   37640.0    265.7   0.100046889   0.87504  -0.62834  -0.41815   0.55262
  92   38139.1    262.2   0.007569007   0.06533  -0.21577  -0.04821  -0.12827
  93   38197.6    261.8   0.020391130   0.17574  -0.19819  -0.32918   0.16765
  94   38268.6    261.3   0.127745308   1.09895   0.74922   0.40737   0.60965
  95   38577.7    259.2   0.005048578   0.04308   0.05352   0.08192   0.18305
  96   38606.3    259.0   0.006946608   0.05924   0.07260  -0.22271  -0.06606
  97   38721.8    258.3   0.055667108   0.47328   0.34280   0.52918  -0.27521
  98   38928.9    256.9   0.086834119   0.73433  -0.31627  -0.77632  -0.17785
  99   39054.0    256.1   0.022134381   0.18659   0.10676   0.41337  -0.06567
 100   39136.2    255.5   0.017808288   0.14980  -0.19535   0.33386  -0.01329
 101   39328.5    254.3   0.366741234   3.06993  -1.26281  -0.98432  -0.71159
 102   39564.1    252.8   0.048517533   0.40371  -0.47452  -0.41544  -0.07718
 103   39648.3    252.2   0.019114430   0.15871   0.04504   0.19901  -0.34217
 104   39987.7    250.1   0.022583167   0.18592  -0.20212   0.04320  -0.37842
 105   40175.9    248.9   0.032173078   0.26363  -0.02287  -0.46135   0.22420

FINAL SINGLE POINT ENERGY     -6554.549576877168

DIPOLE MOMENT
-------------
                                X             Y             Z
Electronic contribution:     18.32015      -8.94165      -2.46298
Nuclear contribution   :    -19.33027       8.34945      -1.24740
                        -----------------------------------------
Total Dipole Moment    :     -1.01012      -0.59220      -3.71038
                        -----------------------------------------
Magnitude (a.u.)       :      3.89075
Magnitude (Debye)      :      9.88950

Rotational constants in cm-1:     0.001107     0.000386     0.000316
Rotational constants in MHz :    33.175542    11.573663     9.483128

                             ****ORCA TERMINATED NORMALLY****
TOTAL RUN TIME: 0 days 0 hours 9 minutes 26 seconds 929 msec
