                         Program Version 4.2.0 -  RELEASE  -
|  1> # ORCA input file
|  2> # SCF done       -192.339535887794          0.000441596088
|  3> ! CAM-B3LYP def2-SVP def2/J RIJCOSX Grid4 TightSCF
|  4> %maxcore 5000
|  5> %tddft
|  6>     Mode sTDDFT
|  7>     Ethresh 5.0
|  8>     maxcore 5000
|  9> end
| 10>
| 11> %pal
| 12>   nprocs 6
| 13>   end
| 14> * xyz 0 1
| 15>    C       -5.60320         3.73245        -0.06151
| 16>    C       -5.35801         4.23531        -1.31069
| 17>    C       -5.97644         5.39309        -1.82966
| 18>    N       -6.46674         6.32056        -2.29274
| 19>    C       -4.36716         3.70554        -2.15580
| 20>    N       -3.51951         3.33775        -2.83889
| 21>    C       -6.41137         4.33061         0.98444
| 22>    C       -6.06965         3.72509         2.22462
| 23>    C       -6.65642         4.10167         3.40781
| 24>    C       -7.63312         5.10238         3.36367
| 25>    C       -7.97020         5.69436         2.11931
| 26>    C       -7.36832         5.32728         0.92323
| 27>    S       -9.20116         6.90160         2.30967
| 28>    C       -9.25269         6.61442         4.01304
| 29>    C       -8.39181         5.65923         4.42997
| 30>    C       -5.01388         2.71347         2.00339
| 31>    O       -4.26847         2.23258         2.81351
| 32>    C       -4.99689         2.53698         0.51066
| 33>    C       -4.66663         1.41912        -0.16828
| 34>    C       -4.29480         0.17156         0.43778
| 35>    N       -4.83746        -0.22690         1.56783
| 36>    C       -4.36104        -1.47571         1.79469
| 37>    C       -3.48998        -1.90805         0.70434
| 38>    C       -2.97734        -3.26333         0.94748
| 39>    O       -2.25091        -3.93561         0.25035
| 40>    C       -3.57782        -3.59589         2.25987
| 41>    C       -4.42496        -2.47771         2.73219
| 42>    N       -4.96763        -2.76659         3.94148
| 43>    C       -4.51201        -3.95520         4.24578
| 44>    C       -3.62889        -4.52752         3.24300
| 45>    C       -3.41392        -0.85480        -0.17727
| 46>    C       -2.69759        -0.80186        -1.39925
| 47>    C       -2.40086         0.32459        -2.09485
| 48>    C       -1.75560         0.36227        -3.35431
| 49>    N       -1.54397         1.56673        -3.98299
| 50>    C       -0.95433         1.32707        -5.17950
| 51>    C       -0.44342         1.92718        -6.31698
| 52>    C        0.01722         0.88072        -7.14125
| 53>    N       -0.20367        -0.32911        -6.50889
| 54>    C       -0.77562        -0.08627        -5.30267
| 55>    C       -1.26958        -0.68797        -4.15708
| 56>    C        0.57787         1.01422        -8.42321
| 57>    C        0.77733         0.00859        -9.32701
| 58>    C        1.33513         0.26696       -10.59515
| 59>    N        1.99199         1.40225       -10.85645
| 60>    C        2.42097         1.30725       -12.11969
| 61>    C        2.02661         0.02328       -12.71673
| 62>    C        2.41838        -0.05344       -14.13300
| 63>    O        2.19033        -0.95077       -14.91951
| 64>    C        3.10834         1.22682       -14.33361
| 65>    C        3.09118         2.02674       -13.08931
| 66>    N        3.69717         3.21781       -13.28007
| 67>    C        4.07558         3.21379       -14.54106
| 68>    C        3.73228         2.01014       -15.25626
| 69>    C        1.31189        -0.64463       -11.76072
| 70>    C        0.58228        -1.83877       -12.03691
| 71>    C       -0.56240        -2.26554       -11.46771
| 72>    C       -1.32640        -3.33212       -12.04584
| 73>    C       -1.46242        -3.56630       -13.37163
| 74>    C       -1.08730        -2.77308       -14.53659
| 75>    C       -1.09540        -1.40982       -14.64179
| 76>    C       -0.85962        -0.71011       -15.84471
| 77>    N       -0.69460        -0.08305       -16.79106
| 78>    C       -1.43126        -0.53465       -13.58857
| 79>    N       -1.74639         0.22585       -12.78808
| 80>    C       -0.98407        -3.69514       -15.65777
| 81>    C       -1.54886        -4.94207       -15.27972
| 82>    C       -1.95730        -4.88555       -13.86567
| 83>    O       -2.52079        -5.73333       -13.21229
| 84>    C       -1.64434        -5.99707       -16.15661
| 85>    C       -1.15021        -5.81692       -17.45170
| 86>    C       -0.56239        -4.57721       -17.80625
| 87>    C       -0.47118        -3.50616       -16.92597
| 88>    S       -0.00443        -4.59321       -19.44842
| 89>    C       -0.55891        -6.21978       -19.64706
| 90>    C       -1.13181        -6.73662       -18.53833
| 91>    H       -6.37555         3.63390         4.33826
| 92>    H       -7.65472         5.79797        -0.00328
| 93>    H       -9.93713         7.18701         4.60844
| 94>    H       -8.28732         5.34831         5.45345
| 95>    H       -4.75954         1.40654        -1.24826
| 96>    H       -4.80048        -4.42903         5.16804
| 97>    H       -3.15062        -5.48476         3.30851
| 98>    H       -2.36117        -1.76174        -1.76714
| 99>    H       -2.65756         1.29133        -1.68291
|100>    H       -1.93417         2.43992        -3.65215
|101>    H       -0.40933         2.96762        -6.56870
|102>    H        0.09185        -1.22228        -6.86224
|103>    H       -1.29000        -1.72915        -3.90821
|104>    H        0.83165         2.01489        -8.74253
|105>    H        0.47967        -1.00769        -9.11154
|106>    H        4.59276         4.06337       -14.95228
|107>    H        3.94088         1.81336       -16.28916
|108>    H        0.94753        -2.37140       -12.90855
|109>    H       -0.95429        -1.80752       -10.57084
|110>    H       -1.81944        -4.03133       -11.37876
|111>    H       -2.08708        -6.93271       -15.85190
|112>    H       -0.00129        -2.58336       -17.22390
|113>    H       -0.41822        -6.69673       -20.59757
|114>    H       -1.53286        -7.73202       -18.47538
|115> *
|116>
|117>                          ****END OF INPUT****

CARTESIAN COORDINATES (ANGSTROEM)
---------------------------------
  C     -5.603200    3.732450   -0.061510
  C     -5.358010    4.235310   -1.310690
  C     -5.976440    5.393090   -1.829660
  N     -6.466740    6.320560   -2.292740
  C     -4.367160    3.705540   -2.155800
  N     -3.519510    3.337750   -2.838890
  C     -6.411370    4.330610    0.984440
  C     -6.069650    3.725090    2.224620
  C     -6.656420    4.101670    3.407810
  C     -7.633120    5.102380    3.363670
  C     -7.970200    5.694360    2.119310
  C     -7.368320    5.327280    0.923230
  S     -9.201160    6.901600    2.309670
  C     -9.252690    6.614420    4.013040
  C     -8.391810    5.659230    4.429970
  C     -5.013880    2.713470    2.003390
  O     -4.268470    2.232580    2.813510
  C     -4.996890    2.536980    0.510660
  C     -4.666630    1.419120   -0.168280
  C     -4.294800    0.171560    0.437780
  N     -4.837460   -0.226900    1.567830
  C     -4.361040   -1.475710    1.794690
  C     -3.489980   -1.908050    0.704340
  C     -2.977340   -3.263330    0.947480
  O     -2.250910   -3.935610    0.250350
  C     -3.577820   -3.595890    2.259870
  C     -4.424960   -2.477710    2.732190
  N     -4.967630   -2.766590    3.941480
  C     -4.512010   -3.955200    4.245780
  C     -3.628890   -4.527520    3.243000
  C     -3.413920   -0.854800   -0.177270
  C     -2.697590   -0.801860   -1.399250
  C     -2.400860    0.324590   -2.094850
  C     -1.755600    0.362270   -3.354310
  N     -1.543970    1.566730   -3.982990
  C     -0.954330    1.327070   -5.179500
  C     -0.443420    1.927180   -6.316980
  C      0.017220    0.880720   -7.141250
  N     -0.203670   -0.329110   -6.508890
  C     -0.775620   -0.086270   -5.302670
  C     -1.269580   -0.687970   -4.157080
  C      0.577870    1.014220   -8.423210
  C      0.777330    0.008590   -9.327010
  C      1.335130    0.266960  -10.595150
  N      1.991990    1.402250  -10.856450
  C      2.420970    1.307250  -12.119690
  C      2.026610    0.023280  -12.716730
  C      2.418380   -0.053440  -14.133000
  O      2.190330   -0.950770  -14.919510
  C      3.108340    1.226820  -14.333610
  C      3.091180    2.026740  -13.089310
  N      3.697170    3.217810  -13.280070
  C      4.075580    3.213790  -14.541060
  C      3.732280    2.010140  -15.256260
  C      1.311890   -0.644630  -11.760720
  C      0.582280   -1.838770  -12.036910
  C     -0.562400   -2.265540  -11.467710
  C     -1.326400   -3.332120  -12.045840
  C     -1.462420   -3.566300  -13.371630
  C     -1.087300   -2.773080  -14.536590
  C     -1.095400   -1.409820  -14.641790
  C     -0.859620   -0.710110  -15.844710
  N     -0.694600   -0.083050  -16.791060
  C     -1.431260   -0.534650  -13.588570
  N     -1.746390    0.225850  -12.788080
  C     -0.984070   -3.695140  -15.657770
  C     -1.548860   -4.942070  -15.279720
  C     -1.957300   -4.885550  -13.865670
  O     -2.520790   -5.733330  -13.212290
  C     -1.644340   -5.997070  -16.156610
  C     -1.150210   -5.816920  -17.451700
  C     -0.562390   -4.577210  -17.806250
  C     -0.471180   -3.506160  -16.925970
  S     -0.004430   -4.593210  -19.448420
  C     -0.558910   -6.219780  -19.647060
  C     -1.131810   -6.736620  -18.538330
  H     -6.375550    3.633900    4.338260
  H     -7.654720    5.797970   -0.003280
  H     -9.937130    7.187010    4.608440
  H     -8.287320    5.348310    5.453450
  H     -4.759540    1.406540   -1.248260
  H     -4.800480   -4.429030    5.168040
  H     -3.150620   -5.484760    3.308510
  H     -2.361170   -1.761740   -1.767140
  H     -2.657560    1.291330   -1.682910
  H     -1.934170    2.439920   -3.652150
  H     -0.409330    2.967620   -6.568700
  H      0.091850   -1.222280   -6.862240
  H     -1.290000   -1.729150   -3.908210
  H      0.831650    2.014890   -8.742530
  H      0.479670   -1.007690   -9.111540
  H      4.592760    4.063370  -14.952280
  H      3.940880    1.813360  -16.289160
  H      0.947530   -2.371400  -12.908550
  H     -0.954290   -1.807520  -10.570840
  H     -1.819440   -4.031330  -11.378760
  H     -2.087080   -6.932710  -15.851900
  H     -0.001290   -2.583360  -17.223900
  H     -0.418220   -6.696730  -20.597570
  H     -1.532860   -7.732020  -18.475380

 Total Charge           Charge          ....    0
 Multiplicity           Mult            ....    1
 Number of Electrons    NEL             ....  518
 Basis Dimension        Dim             .... 1192

ORBITAL ENERGIES
----------------

  NO   OCC          E(Eh)            E(eV)
   0   2.0000     -88.981205     -2421.3017
   1   2.0000     -88.958807     -2420.6922
   2   2.0000     -19.230501      -523.2885
   3   2.0000     -19.212322      -522.7938
   4   2.0000     -19.207629      -522.6661
   5   2.0000     -19.195743      -522.3427
   6   2.0000     -14.466048      -393.6412
   7   2.0000     -14.455608      -393.3571
   8   2.0000     -14.452022      -393.2595
   9   2.0000     -14.436911      -392.8483
  10   2.0000     -14.424072      -392.4990
  11   2.0000     -14.412689      -392.1892
  12   2.0000     -14.402963      -391.9246
  13   2.0000     -14.400800      -391.8657
  14   2.0000     -14.387372      -391.5003
  15   2.0000     -14.383415      -391.3926
  16   2.0000     -10.384267      -282.5703
  17   2.0000     -10.372980      -282.2631
  18   2.0000     -10.369171      -282.1595
  19   2.0000     -10.368379      -282.1379
  20   2.0000     -10.358879      -281.8794
  21   2.0000     -10.358574      -281.8711
  22   2.0000     -10.355865      -281.7974
  23   2.0000     -10.355087      -281.7762
  24   2.0000     -10.338669      -281.3295
  25   2.0000     -10.337611      -281.3007
  26   2.0000     -10.336896      -281.2813
  27   2.0000     -10.335442      -281.2417
  28   2.0000     -10.333673      -281.1935
  29   2.0000     -10.333105      -281.1781
  30   2.0000     -10.331991      -281.1478
  31   2.0000     -10.331406      -281.1318
  32   2.0000     -10.330590      -281.1096
  33   2.0000     -10.328810      -281.0612
  34   2.0000     -10.327478      -281.0250
  35   2.0000     -10.326348      -280.9942
  36   2.0000     -10.322633      -280.8931
  37   2.0000     -10.318647      -280.7847
  38   2.0000     -10.318196      -280.7724
  39   2.0000     -10.314690      -280.6770
  40   2.0000     -10.314416      -280.6695
  41   2.0000     -10.313941      -280.6566
  42   2.0000     -10.312854      -280.6270
  43   2.0000     -10.311121      -280.5799
  44   2.0000     -10.309441      -280.5342
  45   2.0000     -10.308770      -280.5159
  46   2.0000     -10.306733      -280.4605
  47   2.0000     -10.306476      -280.4535
  48   2.0000     -10.305682      -280.4319
  49   2.0000     -10.303258      -280.3659
  50   2.0000     -10.302278      -280.3392
  51   2.0000     -10.302266      -280.3389
  52   2.0000     -10.300099      -280.2800
  53   2.0000     -10.299686      -280.2687
  54   2.0000     -10.298855      -280.2461
  55   2.0000     -10.298498      -280.2364
  56   2.0000     -10.297809      -280.2176
  57   2.0000     -10.297158      -280.1999
  58   2.0000     -10.294221      -280.1200
  59   2.0000     -10.293945      -280.1125
  60   2.0000     -10.293499      -280.1003
  61   2.0000     -10.291853      -280.0556
  62   2.0000     -10.291760      -280.0530
  63   2.0000     -10.291611      -280.0490
  64   2.0000     -10.291373      -280.0425
  65   2.0000     -10.291197      -280.0377
  66   2.0000     -10.288207      -279.9563
  67   2.0000     -10.286688      -279.9150
  68   2.0000     -10.283335      -279.8238
  69   2.0000     -10.281919      -279.7852
  70   2.0000     -10.280709      -279.7523
  71   2.0000     -10.278428      -279.6902
  72   2.0000     -10.277628      -279.6685
  73   2.0000     -10.273070      -279.5444
  74   2.0000     -10.267184      -279.3843
  75   2.0000     -10.266373      -279.3622
  76   2.0000      -8.077470      -219.7991
  77   2.0000      -8.055088      -219.1901
  78   2.0000      -6.046963      -164.5462
  79   2.0000      -6.042661      -164.4292
  80   2.0000      -6.039157      -164.3338
  81   2.0000      -6.024616      -163.9381
  82   2.0000      -6.020285      -163.8203
  83   2.0000      -6.016747      -163.7240
  84   2.0000      -1.147946       -31.2372
  85   2.0000      -1.126635       -30.6573
  86   2.0000      -1.122451       -30.5435
  87   2.0000      -1.108790       -30.1717
  88   2.0000      -1.097871       -29.8746
  89   2.0000      -1.087324       -29.5876
  90   2.0000      -1.067969       -29.0609
  91   2.0000      -1.060893       -28.8684
  92   2.0000      -1.058332       -28.7987
  93   2.0000      -1.047204       -28.4959
  94   2.0000      -1.036939       -28.2166
  95   2.0000      -1.030164       -28.0322
  96   2.0000      -1.020056       -27.7571
  97   2.0000      -1.010171       -27.4881
  98   2.0000      -1.006441       -27.3867
  99   2.0000      -0.997916       -27.1547
 100   2.0000      -0.980280       -26.6748
 101   2.0000      -0.975991       -26.5581
 102   2.0000      -0.953384       -25.9429
 103   2.0000      -0.944290       -25.6954
 104   2.0000      -0.931056       -25.3353
 105   2.0000      -0.928711       -25.2715
 106   2.0000      -0.922982       -25.1156
 107   2.0000      -0.919510       -25.0211
 108   2.0000      -0.911660       -24.8075
 109   2.0000      -0.899827       -24.4855
 110   2.0000      -0.898641       -24.4533
 111   2.0000      -0.889399       -24.2018
 112   2.0000      -0.887232       -24.1428
 113   2.0000      -0.881882       -23.9972
 114   2.0000      -0.872911       -23.7531
 115   2.0000      -0.868316       -23.6281
 116   2.0000      -0.863808       -23.5054
 117   2.0000      -0.862733       -23.4762
 118   2.0000      -0.855403       -23.2767
 119   2.0000      -0.839847       -22.8534
 120   2.0000      -0.836351       -22.7583
 121   2.0000      -0.816434       -22.2163
 122   2.0000      -0.815960       -22.2034
 123   2.0000      -0.814582       -22.1659
 124   2.0000      -0.805578       -21.9209
 125   2.0000      -0.778664       -21.1885
 126   2.0000      -0.776413       -21.1273
 127   2.0000      -0.772723       -21.0268
 128   2.0000      -0.764465       -20.8022
 129   2.0000      -0.750214       -20.4144
 130   2.0000      -0.747993       -20.3539
 131   2.0000      -0.736409       -20.0387
 132   2.0000      -0.733400       -19.9568
 133   2.0000      -0.722817       -19.6688
 134   2.0000      -0.713975       -19.4282
 135   2.0000      -0.711699       -19.3663
 136   2.0000      -0.703789       -19.1511
 137   2.0000      -0.700928       -19.0732
 138   2.0000      -0.696941       -18.9647
 139   2.0000      -0.688487       -18.7347
 140   2.0000      -0.683238       -18.5918
 141   2.0000      -0.682071       -18.5601
 142   2.0000      -0.680563       -18.5191
 143   2.0000      -0.677236       -18.4285
 144   2.0000      -0.661945       -18.0124
 145   2.0000      -0.656402       -17.8616
 146   2.0000      -0.653323       -17.7778
 147   2.0000      -0.651948       -17.7404
 148   2.0000      -0.647028       -17.6065
 149   2.0000      -0.641712       -17.4619
 150   2.0000      -0.637667       -17.3518
 151   2.0000      -0.636099       -17.3091
 152   2.0000      -0.622069       -16.9274
 153   2.0000      -0.620656       -16.8889
 154   2.0000      -0.615867       -16.7586
 155   2.0000      -0.612543       -16.6681
 156   2.0000      -0.610595       -16.6151
 157   2.0000      -0.604407       -16.4467
 158   2.0000      -0.596388       -16.2285
 159   2.0000      -0.590287       -16.0625
 160   2.0000      -0.589780       -16.0487
 161   2.0000      -0.585076       -15.9207
 162   2.0000      -0.580808       -15.8046
 163   2.0000      -0.572453       -15.5772
 164   2.0000      -0.567156       -15.4331
 165   2.0000      -0.564078       -15.3493
 166   2.0000      -0.563435       -15.3318
 167   2.0000      -0.556461       -15.1421
 168   2.0000      -0.554788       -15.0966
 169   2.0000      -0.553426       -15.0595
 170   2.0000      -0.551301       -15.0017
 171   2.0000      -0.546326       -14.8663
 172   2.0000      -0.543797       -14.7975
 173   2.0000      -0.543252       -14.7826
 174   2.0000      -0.541809       -14.7434
 175   2.0000      -0.538525       -14.6540
 176   2.0000      -0.534949       -14.5567
 177   2.0000      -0.530572       -14.4376
 178   2.0000      -0.530371       -14.4321
 179   2.0000      -0.527881       -14.3644
 180   2.0000      -0.525792       -14.3075
 181   2.0000      -0.524571       -14.2743
 182   2.0000      -0.522255       -14.2113
 183   2.0000      -0.521787       -14.1986
 184   2.0000      -0.519515       -14.1367
 185   2.0000      -0.517484       -14.0815
 186   2.0000      -0.512054       -13.9337
 187   2.0000      -0.511802       -13.9268
 188   2.0000      -0.508697       -13.8423
 189   2.0000      -0.507072       -13.7981
 190   2.0000      -0.504811       -13.7366
 191   2.0000      -0.503041       -13.6884
 192   2.0000      -0.498442       -13.5633
 193   2.0000      -0.495307       -13.4780
 194   2.0000      -0.494144       -13.4463
 195   2.0000      -0.490125       -13.3370
 196   2.0000      -0.487954       -13.2779
 197   2.0000      -0.486712       -13.2441
 198   2.0000      -0.485278       -13.2051
 199   2.0000      -0.483336       -13.1522
 200   2.0000      -0.481450       -13.1009
 201   2.0000      -0.478962       -13.0332
 202   2.0000      -0.477050       -12.9812
 203   2.0000      -0.474536       -12.9128
 204   2.0000      -0.471664       -12.8346
 205   2.0000      -0.470223       -12.7954
 206   2.0000      -0.468787       -12.7563
 207   2.0000      -0.468036       -12.7359
 208   2.0000      -0.465626       -12.6703
 209   2.0000      -0.463763       -12.6196
 210   2.0000      -0.460076       -12.5193
 211   2.0000      -0.457685       -12.4542
 212   2.0000      -0.456610       -12.4250
 213   2.0000      -0.453662       -12.3448
 214   2.0000      -0.449831       -12.2405
 215   2.0000      -0.449045       -12.2191
 216   2.0000      -0.448526       -12.2050
 217   2.0000      -0.446158       -12.1406
 218   2.0000      -0.444152       -12.0860
 219   2.0000      -0.441975       -12.0268
 220   2.0000      -0.441225       -12.0063
 221   2.0000      -0.436959       -11.8903
 222   2.0000      -0.436015       -11.8646
 223   2.0000      -0.431756       -11.7487
 224   2.0000      -0.427087       -11.6216
 225   2.0000      -0.423259       -11.5175
 226   2.0000      -0.421313       -11.4645
 227   2.0000      -0.420471       -11.4416
 228   2.0000      -0.412536       -11.2257
 229   2.0000      -0.410426       -11.1683
 230   2.0000      -0.405501       -11.0342
 231   2.0000      -0.394366       -10.7312
 232   2.0000      -0.393067       -10.6959
 233   2.0000      -0.391449       -10.6519
 234   2.0000      -0.377277       -10.2662
 235   2.0000      -0.376640       -10.2489
 236   2.0000      -0.365790        -9.9537
 237   2.0000      -0.365166        -9.9367
 238   2.0000      -0.360687        -9.8148
 239   2.0000      -0.359561        -9.7842
 240   2.0000      -0.347819        -9.4646
 241   2.0000      -0.342792        -9.3278
 242   2.0000      -0.340993        -9.2789
 243   2.0000      -0.338146        -9.2014
 244   2.0000      -0.332779        -9.0554
 245   2.0000      -0.332466        -9.0469
 246   2.0000      -0.330381        -8.9901
 247   2.0000      -0.325882        -8.8677
 248   2.0000      -0.324846        -8.8395
 249   2.0000      -0.322873        -8.7858
 250   2.0000      -0.313671        -8.5354
 251   2.0000      -0.311947        -8.4885
 252   2.0000      -0.311550        -8.4777
 253   2.0000      -0.304612        -8.2889
 254   2.0000      -0.296614        -8.0713
 255   2.0000      -0.291071        -7.9205
 256   2.0000      -0.286884        -7.8065
 257   2.0000      -0.275737        -7.5032
 258   2.0000      -0.231408        -6.2969
 259   0.0000      -0.131916        -3.5896
 260   0.0000      -0.103065        -2.8045
 261   0.0000      -0.091774        -2.4973
 262   0.0000      -0.077529        -2.1097
 263   0.0000      -0.062995        -1.7142

MULLIKEN ATOMIC CHARGES
-----------------------
   0 C :    0.245616
   1 C :   -0.328759
   2 C :   -0.180355
   3 N :    0.171434
   4 C :   -0.134602
   5 N :    0.118601
   6 C :    0.025543
   7 C :   -0.005055
   8 C :   -0.054906
   9 C :    0.107243
  10 C :   -0.092912
  11 C :   -0.015366
  12 S :    0.151320
  13 C :   -0.046183
  14 C :    0.029614
  15 C :    0.158268
  16 O :   -0.104481
  17 C :   -0.053848
  18 C :   -0.056291
  19 C :    0.015612
  20 N :   -0.020425
  21 C :    0.078170
  22 C :   -0.141119
  23 C :    0.203106
  24 O :   -0.129165
  25 C :   -0.035132
  26 C :   -0.018839
  27 N :   -0.052422
  28 C :    0.094724
  29 C :   -0.091191
  30 C :    0.061628
  31 C :   -0.046823
  32 C :   -0.004712
  33 C :    0.100560
  34 N :   -0.018480
  35 C :    0.131187
  36 C :   -0.143457
  37 C :    0.094481
  38 N :   -0.037412
  39 C :    0.133041
  40 C :   -0.179322
  41 C :    0.068903
  42 C :   -0.076954
  43 C :    0.046181
  44 N :   -0.063117
  45 C :    0.080370
  46 C :   -0.125864
  47 C :    0.209316
  48 O :   -0.159777
  49 C :   -0.033736
  50 C :   -0.046886
  51 N :   -0.062680
  52 C :    0.081805
  53 C :   -0.089564
  54 C :    0.023600
  55 C :   -0.020623
  56 C :   -0.005665
  57 C :    0.043241
  58 C :   -0.113722
  59 C :    0.247476
  60 C :   -0.325687
  61 C :   -0.177047
  62 N :    0.162661
  63 C :   -0.183332
  64 N :    0.161257
  65 C :   -0.006696
  66 C :    0.003043
  67 C :    0.131673
  68 O :   -0.143849
  69 C :   -0.071745
  70 C :    0.108874
  71 C :   -0.090007
  72 C :   -0.010437
  73 S :    0.141341
  74 C :   -0.052237
  75 C :    0.027303
  76 H :   -0.000188
  77 H :    0.001768
  78 H :    0.045941
  79 H :   -0.000150
  80 H :    0.050350
  81 H :    0.012623
  82 H :   -0.001741
  83 H :    0.009010
  84 H :   -0.008491
  85 H :    0.123677
  86 H :   -0.015369
  87 H :    0.130046
  88 H :   -0.022446
  89 H :    0.026083
  90 H :   -0.036715
  91 H :   -0.001026
  92 H :   -0.012908
  93 H :    0.034565
  94 H :    0.013647
  95 H :    0.021684
  96 H :   -0.013133
  97 H :    0.009340
  98 H :    0.036257
  99 H :   -0.009130
Sum of atomic charges:   -0.0000000

LOEWDIN ATOMIC CHARGES
----------------------
   0 C :    0.086081
   1 C :   -0.139579
   2 C :   -0.022499
   3 N :   -0.034276
   4 C :    0.022836
   5 N :   -0.058701
   6 C :   -0.025983
   7 C :   -0.045261
   8 C :    0.027361
   9 C :   -0.026575
  10 C :   -0.144531
  11 C :   -0.003253
  12 S :    0.438159
  13 C :   -0.141131
  14 C :   -0.055588
  15 C :    0.084507
  16 O :   -0.099040
  17 C :   -0.028991
  18 C :    0.029880
  19 C :    0.059472
  20 N :   -0.070327
  21 C :    0.044384
  22 C :   -0.062318
  23 C :    0.065777
  24 O :   -0.140047
  25 C :   -0.037104
  26 C :    0.035945
  27 N :   -0.095700
  28 C :    0.082223
  29 C :   -0.030488
  30 C :   -0.022638
  31 C :   -0.024566
  32 C :   -0.015038
  33 C :    0.014488
  34 N :    0.082448
  35 C :   -0.016808
  36 C :   -0.048441
  37 C :   -0.008866
  38 N :    0.068767
  39 C :    0.004119
  40 C :   -0.090465
  41 C :    0.055862
  42 C :   -0.084275
  43 C :    0.079073
  44 N :   -0.121785
  45 C :    0.047080
  46 C :   -0.026507
  47 C :    0.065903
  48 O :   -0.161474
  49 C :   -0.047647
  50 C :    0.007958
  51 N :   -0.101095
  52 C :    0.059339
  53 C :   -0.044352
  54 C :   -0.036429
  55 C :    0.017967
  56 C :   -0.032492
  57 C :    0.061347
  58 C :   -0.075620
  59 C :    0.068060
  60 C :   -0.126955
  61 C :   -0.017551
  62 N :   -0.049424
  63 C :   -0.014075
  64 N :   -0.053120
  65 C :   -0.016173
  66 C :   -0.057217
  67 C :    0.083446
  68 O :   -0.144386
  69 C :    0.022245
  70 C :   -0.036593
  71 C :   -0.143220
  72 C :   -0.003949
  73 S :    0.429951
  74 C :   -0.151384
  75 C :   -0.058490
  76 H :    0.045071
  77 H :    0.042513
  78 H :    0.032445
  79 H :    0.038170
  80 H :    0.049033
  81 H :    0.024950
  82 H :    0.035817
  83 H :    0.040462
  84 H :    0.028955
  85 H :    0.069420
  86 H :    0.034214
  87 H :    0.090661
  88 H :    0.028160
  89 H :    0.051102
  90 H :    0.018619
  91 H :    0.019406
  92 H :    0.031579
  93 H :    0.042416
  94 H :    0.033239
  95 H :    0.043753
  96 H :    0.039641
  97 H :    0.045335
  98 H :    0.028390
  99 H :    0.034398

  Mayer bond orders larger than 0.100000
B(  0-C ,  1-C ) :   1.6517 B(  0-C ,  6-C ) :   1.0395 B(  0-C , 17-C ) :   1.0102
B(  1-C ,  2-C ) :   1.1186 B(  1-C ,  4-C ) :   1.1601 B(  2-C ,  3-N ) :   2.9984
B(  4-C ,  5-N ) :   2.9296 B(  5-N , 85-H ) :   0.1074 B(  6-C ,  7-C ) :   1.2522
B(  6-C , 11-C ) :   1.3976 B(  7-C ,  8-C ) :   1.4339 B(  7-C , 15-C ) :   0.9204
B(  8-C ,  9-C ) :   1.2570 B(  8-C , 76-H ) :   1.0151 B(  9-C , 10-C ) :   1.2871
B(  9-C , 14-C ) :   1.1798 B( 10-C , 11-C ) :   1.3395 B( 10-C , 12-S ) :   1.0987
B( 11-C , 77-H ) :   0.9863 B( 12-S , 13-C ) :   1.1311 B( 13-C , 14-C ) :   1.6241
B( 13-C , 78-H ) :   0.9677 B( 14-C , 79-H ) :   0.9999 B( 15-C , 16-O ) :   2.2980
B( 15-C , 17-C ) :   0.8889 B( 17-C , 18-C ) :   1.7730 B( 18-C , 19-C ) :   1.0458
B( 18-C , 80-H ) :   0.9386 B( 19-C , 20-N ) :   1.6418 B( 19-C , 21-C ) :   0.1079
B( 19-C , 30-C ) :   1.0058 B( 20-N , 21-C ) :   1.3030 B( 21-C , 22-C ) :   1.0615
B( 21-C , 26-C ) :   1.4431 B( 22-C , 23-C ) :   0.9035 B( 22-C , 30-C ) :   1.5189
B( 23-C , 24-O ) :   2.2863 B( 23-C , 25-C ) :   0.8933 B( 25-C , 26-C ) :   1.0495
B( 25-C , 29-C ) :   1.6383 B( 26-C , 27-N ) :   1.2983 B( 27-N , 28-C ) :   1.6710
B( 28-C , 29-C ) :   1.0527 B( 28-C , 81-H ) :   0.9887 B( 29-C , 82-H ) :   1.0090
B( 30-C , 31-C ) :   1.1504 B( 31-C , 32-C ) :   1.6039 B( 31-C , 83-H ) :   0.9708
B( 32-C , 33-C ) :   1.1208 B( 32-C , 84-H ) :   0.9607 B( 33-C , 34-N ) :   1.2169
B( 33-C , 40-C ) :   1.3646 B( 34-N , 35-C ) :   1.1793 B( 34-N , 85-H ) :   0.8953
B( 35-C , 36-C ) :   1.2823 B( 35-C , 39-C ) :   1.2566 B( 36-C , 37-C ) :   1.3026
B( 36-C , 86-H ) :   1.0461 B( 37-C , 38-N ) :   1.1710 B( 37-C , 41-C ) :   1.1856
B( 38-N , 39-C ) :   1.1816 B( 38-N , 87-H ) :   0.9313 B( 39-C , 40-C ) :   1.2847
B( 40-C , 88-H ) :   1.0343 B( 41-C , 42-C ) :   1.5074 B( 41-C , 89-H ) :   0.9669
B( 42-C , 43-C ) :   1.2363 B( 42-C , 90-H ) :   0.9534 B( 43-C , 44-N ) :   1.5265
B( 43-C , 45-C ) :   0.1061 B( 43-C , 54-C ) :   0.9822 B( 44-N , 45-C ) :   1.4160
B( 45-C , 46-C ) :   1.0399 B( 45-C , 50-C ) :   1.3549 B( 46-C , 47-C ) :   0.8921
B( 46-C , 54-C ) :   1.5817 B( 47-C , 48-O ) :   2.2105 B( 47-C , 49-C ) :   0.9277
B( 49-C , 50-C ) :   1.0794 B( 49-C , 53-C ) :   1.5624 B( 50-C , 51-N ) :   1.3502
B( 51-N , 52-C ) :   1.6138 B( 52-C , 53-C ) :   1.1141 B( 52-C , 91-H ) :   0.9894
B( 53-C , 92-H ) :   1.0096 B( 54-C , 55-C ) :   1.1258 B( 55-C , 56-C ) :   1.7210
B( 55-C , 93-H ) :   0.9484 B( 56-C , 57-C ) :   1.0740 B( 56-C , 94-H ) :   0.9490
B( 57-C , 58-C ) :   1.7537 B( 57-C , 95-H ) :   0.9362 B( 58-C , 59-C ) :   1.0054
B( 58-C , 67-C ) :   0.9324 B( 59-C , 60-C ) :   1.6846 B( 59-C , 65-C ) :   1.0142
B( 60-C , 61-C ) :   1.1288 B( 60-C , 63-C ) :   1.1620 B( 61-C , 62-N ) :   2.9965
B( 63-C , 64-N ) :   2.9880 B( 65-C , 66-C ) :   1.2668 B( 65-C , 72-C ) :   1.4225
B( 66-C , 67-C ) :   0.9237 B( 66-C , 69-C ) :   1.4189 B( 67-C , 68-O ) :   2.2754
B( 69-C , 70-C ) :   1.2589 B( 69-C , 96-H ) :   1.0156 B( 70-C , 71-C ) :   1.3001
B( 70-C , 75-C ) :   1.1709 B( 71-C , 72-C ) :   1.3208 B( 71-C , 73-S ) :   1.0968
B( 72-C , 97-H ) :   0.9856 B( 73-S , 74-C ) :   1.1270 B( 74-C , 75-C ) :   1.6305
B( 74-C , 98-H ) :   0.9684 B( 75-C , 99-H ) :   0.9990

-----------------------------------------------------------------------------
         ABSORPTION SPECTRUM VIA TRANSITION ELECTRIC DIPOLE MOMENTS
-----------------------------------------------------------------------------
State   Energy  Wavelength   fosc         T2         TX        TY        TZ
        (cm-1)    (nm)                  (au**2)     (au)      (au)      (au)
-----------------------------------------------------------------------------
   0    8376.5   1193.8   0.168911634   6.63850  -0.88573  -0.80444   2.28185
   1   14496.6    689.8   1.684140133  38.24608  -2.51954  -0.70381   5.60381
   2   17570.4    569.1   0.019904765   0.37295  -0.24447   0.03316   0.55864
   3   19795.9    505.2   0.229512699   3.81687   0.67060  -0.20739  -1.82323
   4   20171.5    495.7   0.055271454   0.90206  -0.00453   0.17235   0.93399
   5   20311.3    492.3   0.084235183   1.36531  -0.91682  -0.63038   0.35689
   6   20703.4    483.0   0.034111407   0.54242  -0.23028  -0.31444   0.62491
   7   22417.2    446.1   0.007672470   0.11268   0.10894   0.17296  -0.26626
   8   22569.5    443.1   0.014382709   0.20980   0.12589   0.10434  -0.42785
   9   23213.4    430.8   0.072946009   1.03452  -0.55985   0.84324   0.10017
  10   23650.3    422.8   0.070246602   0.97783   0.92936   0.33594  -0.03569
  11   23921.5    418.0   0.128202861   1.76435  -1.08785  -0.75264   0.12029
  12   24211.3    413.0   0.049979990   0.67960   0.24018  -0.21592  -0.75848
  13   24322.7    411.1   0.063095775   0.85401   0.02166  -0.25007   0.88939
  14   24618.8    406.2   0.008642999   0.11558  -0.12443   0.18699  -0.25520
  15   24906.0    401.5   0.002356975   0.03115   0.11976   0.10388  -0.07761
  16   24984.1    400.3   0.031896119   0.42029  -0.20198   0.59824  -0.14700
  17   25220.8    396.5   0.046289172   0.60422   0.00386   0.49468  -0.59958
  18   25911.9    385.9   0.002220360   0.02821  -0.05724   0.04308  -0.15191
  19   25959.3    385.2   0.058871211   0.74660   0.08213   0.41294  -0.75454
  20   26073.7    383.5   0.556859163   7.03101   0.26820  -2.27017   1.34365
  21   26093.2    383.2   0.044085871   0.55622   0.01722   0.64355   0.37652
  22   26777.1    373.5   0.056359437   0.69291  -0.13249  -0.77414   0.27579
  23   27408.7    364.8   0.083643719   1.00466  -0.44329   0.83547   0.33188
  24   27627.3    362.0   0.100288644   1.19506   0.34149  -0.97009  -0.37062
  25   27634.5    361.9   0.042197051   0.50270   0.41120   0.06618   0.57379
  26   27886.6    358.6   0.089133183   1.05225   0.19454  -0.65168  -0.76793
  27   28091.4    356.0   0.006862436   0.08042  -0.15630   0.14796  -0.18467
  28   28855.3    346.6   0.074135146   0.84581   0.13958  -0.67167  -0.61253
  29   29085.8    343.8   0.185826703   2.10331  -0.22990   1.34754  -0.48435
  30   29347.4    340.7   0.036820139   0.41304  -0.22565   0.42871   0.42229
  31   30032.3    333.0   0.013913578   0.15252  -0.03520  -0.38855   0.01769
  32   30217.7    330.9   0.075988198   0.82787  -0.03256   0.89921   0.13500
  33   30488.7    328.0   0.046552395   0.50267   0.46388  -0.04599  -0.53420
  34   30725.0    325.5   0.015424738   0.16527   0.19822   0.34152  -0.09669
  35   31084.4    321.7   0.023204472   0.24576  -0.34182  -0.04863   0.35574
  36   31215.4    320.4   0.158851946   1.67532   0.86625   0.25045  -0.92855
  37   31381.1    318.7   0.058877596   0.61767  -0.42627   0.14686   0.64373
  38   31397.7    318.5   0.044537272   0.46698   0.03043  -0.52170  -0.44032
  39   31507.4    317.4   0.249959565   2.61176  -0.75216   0.87094   1.13467
  40   31857.5    313.9   0.397204964   4.10467   1.08233   1.67807   0.34254
  41   32329.2    309.3   0.151575338   1.54351  -0.36639   0.69670   0.96119
  42   32417.7    308.5   0.030357327   0.30829  -0.07369  -0.35959  -0.41659
  43   32666.0    306.1   0.075147460   0.75735  -0.10653   0.75287   0.42331
  44   32770.6    305.2   0.070923967   0.71250   0.21974  -0.62302  -0.52541
  45   33089.8    302.2   0.001577822   0.01570   0.06081  -0.00702  -0.10932
  46   33145.6    301.7   0.079304394   0.78768  -0.06677   0.27373   0.84160
  47   33289.4    300.4   0.016182294   0.16003   0.02196   0.33728   0.21400
  48   33721.6    296.5   0.159947152   1.56151   0.14604   1.20222   0.30799
  49   34094.4    293.3   0.123074654   1.18839  -0.05846  -0.56562   0.93008
  50   34242.6    292.0   0.001036252   0.00996   0.02314  -0.00826  -0.09674
  51   34292.2    291.6   0.009444594   0.09067  -0.14470  -0.22000   0.14606
  52   34724.1    288.0   0.020887869   0.19803   0.21396  -0.04786  -0.38725
  53   34852.8    286.9   0.049532598   0.46787   0.06859   0.56583   0.37816
  54   34969.0    286.0   0.282564737   2.66017  -0.14315   1.37984   0.85774
  55   35284.5    283.4   0.013123510   0.12245   0.14348  -0.02631  -0.31807
  56   35333.0    283.0   0.031806127   0.29635  -0.06089  -0.52731   0.12079
  57   35439.2    282.2   0.019611097   0.18218   0.13824   0.16435  -0.36886
  58   35992.3    277.8   0.008541789   0.07813  -0.00401  -0.03141   0.27772
  59   36090.7    277.1   0.093099110   0.84923  -0.37343   0.54182   0.64514
  60   36253.0    275.8   0.117993046   1.07149  -0.28704   0.04691   0.99343
  61   36384.5    274.8   0.135188079   1.22320  -0.46749  -0.32212   0.94915
  62   36505.0    273.9   0.051421322   0.46373   0.33757   0.02467  -0.59091
  63   36548.9    273.6   0.040617240   0.36586  -0.04169   0.04211   0.60195
  64   36680.7    272.6   0.030455924   0.27334  -0.38113  -0.29080   0.20861
  65   36833.3    271.5   0.007711300   0.06892  -0.00299  -0.24604  -0.09153
  66   36878.7    271.2   0.008401606   0.07500   0.10094  -0.10903  -0.23005
  67   36991.9    270.3   0.010504064   0.09348  -0.17863  -0.24744  -0.01866
  68   37383.0    267.5   0.008034527   0.07076   0.14614  -0.22224  -0.00279
  69   37481.1    266.8   0.014849962   0.13043  -0.09972   0.19558   0.28677
  70   37567.4    266.2   0.175169478   1.53505   0.08052  -1.17846   0.37390
  71   37716.7    265.1   0.010057241   0.08779  -0.12871   0.23504   0.12640
  72   37796.2    264.6   0.018697131   0.16286  -0.04337   0.31328  -0.25066
  73   38238.5    261.5   0.001956138   0.01684  -0.04505  -0.08524   0.08687
  74   38467.8    260.0   0.001374485   0.01176  -0.01216   0.10472   0.02549
  75   38532.6    259.5   0.000780209   0.00667  -0.05619   0.02408   0.05411
  76   38697.5    258.4   0.010085557   0.08580  -0.09423   0.27629  -0.02420
  77   38952.2    256.7   0.068222298   0.57659   0.31485   0.12725  -0.67917
  78   39071.1    255.9   0.035213201   0.29671  -0.19650  -0.41163   0.29774
  79   39139.0    255.5   0.018345864   0.15431  -0.06062  -0.16296   0.35225
  80   39282.7    254.6   0.021060586   0.17650  -0.09627   0.34061   0.22630
  81   39518.6    253.0   0.001675633   0.01396   0.01049  -0.01190   0.11708
  82   39751.8    251.6   0.026038288   0.21564  -0.27816   0.36590   0.06625
  83   39968.4    250.2   0.110126200   0.90709  -0.22178  -0.52351   0.76410
  84   39991.7    250.1   0.001514452   0.01247   0.10967   0.02096  -0.00092
  85   40116.6    249.3   0.075065700   0.61602  -0.39657   0.67549   0.04968
  86   40169.7    248.9   0.107698099   0.88264  -0.23156   0.63762  -0.64998

FINAL SINGLE POINT ENERGY     -3941.153264831657

DIPOLE MOMENT
-------------
                                X             Y             Z
Electronic contribution:     -7.34655       9.06428       3.15492
Nuclear contribution   :      5.03479      -9.92208       1.18843
                        -----------------------------------------
Total Dipole Moment    :     -2.31176      -0.85780       4.34335
                        -----------------------------------------
Magnitude (a.u.)       :      4.99447
Magnitude (Debye)      :     12.69494

Rotational constants in cm-1:     0.001332     0.000222     0.000208
Rotational constants in MHz :    39.938282     6.651552     6.249651

                             ****ORCA TERMINATED NORMALLY****
TOTAL RUN TIME: 0 days 0 hours 10 minutes 35 seconds 313 msec
