                         Program Version 4.2.0 -  RELEASE  -
|  1> # ORCA input file
|  2> # SCF done       -200.613514291615          0.046185229096
|  3> ! CAM-B3LYP def2-SVP def2/J RIJCOSX Grid4 TightSCF
|  4> %maxcore 5000
|  5> %tddft
|  6>     Mode sTDDFT
|  7>     Ethresh 5.0
|  8>     maxcore 5000
|  9> end
| 10>
| 11> %pal
| 12>   nprocs 6
| 13>   end
| 14> * xyz 0 1
| 15>    C       -7.40025         2.56293         3.19460
| 16>    C       -7.49040         2.63680         4.57611
| 17>    C       -7.65374         1.49250         5.34552
| 18>    C       -7.72560         0.23992         4.75641
| 19>    C       -7.63464         0.15117         3.37606
| 20>    C       -7.47634         1.31726         2.59019
| 21>    C       -7.41860         0.93812         1.18763
| 22>    C       -7.10100         1.74949         0.13491
| 23>    C       -6.81740         3.12782         0.25525
| 24>    N       -6.58648         4.25165         0.28841
| 25>    C       -6.96590         1.30906        -1.20241
| 26>    N       -6.82971         0.99218        -2.29088
| 27>    C       -7.73352        -0.49027         1.12863
| 28>    C       -7.64136        -1.00613         2.49670
| 29>    C       -7.40104        -2.29945         2.86421
| 30>    C       -7.14500        -3.35259         1.95944
| 31>    N       -6.86254        -4.23605         1.28548
| 32>    C       -7.28479        -2.72619         4.20457
| 33>    N       -7.19762        -3.12902         5.27623
| 34>    C       -8.17114        -1.14480         0.02526
| 35>    C       -8.81539        -2.42756        -0.00615
| 36>    C       -9.86509        -2.78550         0.78319
| 37>    C      -10.38760        -4.05223         0.31486
| 38>    C      -11.50291        -4.69669         0.86743
| 39>    N      -12.41804        -5.21044         1.32532
| 40>    C       -9.63396        -4.47734        -0.74349
| 41>    C       -8.58881        -3.51886        -0.97936
| 42>    C       -7.50497        -3.61136        -1.81627
| 43>    C       -7.17555        -4.69523        -2.79375
| 44>    C       -6.12825        -4.24245        -3.55287
| 45>    C       -5.71400        -2.95768        -3.05797
| 46>    C       -6.51425        -2.59832        -2.00207
| 47>    C       -4.63840        -2.22445        -3.57350
| 48>    N       -3.74640        -1.63969        -4.01456
| 49>    C       -7.74760        -5.99010        -2.85443
| 50>    C       -7.58941        -6.84597        -3.90163
| 51>    C       -8.10017        -8.16062        -3.94031
| 52>    S       -9.01474        -8.81803        -2.61346
| 53>    C       -9.13926       -10.33000        -3.40844
| 54>    C       -8.50562       -10.37233        -4.61412
| 55>    C       -8.52940       -11.58444        -5.48552
| 56>    C       -7.90315        -9.12315        -4.94505
| 57>    C       -7.19205        -8.81514        -6.14951
| 58>    C       -6.43456        -9.66643        -6.87993
| 59>    C       -5.70728        -9.27404        -8.04468
| 60>    C       -6.04155        -8.24833        -8.86693
| 61>    C       -5.29594        -7.84929       -10.01786
| 62>    C       -5.86209        -7.52368       -11.21544
| 63>    C       -4.82106        -7.39851       -12.20676
| 64>    C       -5.05263        -7.16554       -13.56915
| 65>    N       -5.26359        -6.98736       -14.68429
| 66>    C       -3.60096        -7.57952       -11.60629
| 67>    C       -3.81710        -7.76912       -10.19985
| 68>    C       -2.87848        -7.65234        -9.20603
| 69>    C       -1.41410        -7.48336        -9.36450
| 70>    C       -0.84699        -7.66011        -8.12973
| 71>    C       -1.89412        -7.84177        -7.15578
| 72>    C       -3.10621        -7.79402        -7.79100
| 73>    C       -1.70430        -8.01303        -5.77582
| 74>    N       -1.57206        -8.17399        -4.65078
| 75>    C       -0.70177        -7.05130       -10.51795
| 76>    C        0.62335        -7.27519       -10.72859
| 77>    C        1.29936        -6.68217       -11.81577
| 78>    C        2.63848        -6.70729       -12.09494
| 79>    C        3.20183        -6.32601       -13.38774
| 80>    C        2.61978        -5.53611       -14.34184
| 81>    C        1.35751        -4.91151       -14.23229
| 82>    N        0.35697        -4.36326       -14.20255
| 83>    C        3.23586        -5.20189       -15.56746
| 84>    N        3.68301        -4.87286       -16.57492
| 85>    C        4.52488        -6.92895       -13.46243
| 86>    C        4.82942        -7.51838       -12.21446
| 87>    C        6.02819        -8.18557       -12.02494
| 88>    C        6.92251        -8.25587       -13.08333
| 89>    C        6.63009        -7.66799       -14.30496
| 90>    C        5.43243        -7.00046       -14.50897
| 91>    C        3.72992        -7.25229       -11.29761
| 92>    C        3.81663        -7.30583        -9.93230
| 93>    C        4.93240        -7.81968        -9.23364
| 94>    N        5.79483        -8.24388        -8.61072
| 95>    C        2.87261        -6.77118        -9.03001
| 96>    N        2.17603        -6.32753        -8.23332
| 97>    H       -7.27908         3.46080         2.61110
| 98>    H       -7.43499         3.60076         5.05796
| 99>    H       -7.72664         1.57684         6.41908
|100>    H       -7.85875        -0.64005         5.36455
|101>    H       -8.16504        -0.61535        -0.91955
|102>    H      -10.29816        -2.21121         1.58239
|103>    H       -9.81458        -5.37513        -1.29853
|104>    H       -5.62035        -4.76651        -4.33924
|105>    H       -6.40474        -1.70138        -1.42770
|106>    H       -8.28899        -6.34581        -1.99138
|107>    H       -7.04101        -6.51299        -4.77034
|108>    H       -9.68903       -11.12154        -2.93807
|109>    H       -9.37018       -12.21804        -5.21824
|110>    H       -7.61748       -12.16750        -5.35813
|111>    H       -8.61522       -11.30129        -6.53199
|112>    H       -7.22710        -7.77888        -6.45911
|113>    H       -6.27000       -10.67432        -6.53145
|114>    H       -4.83697        -9.87082        -8.28769
|115>    H       -7.00163        -7.76493        -8.74059
|116>    H       -6.91263        -7.45629       -11.43115
|117>    H       -2.65557        -7.57604       -12.10810
|118>    H        0.19352        -7.55748        -7.88127
|119>    H       -4.06085        -7.85055        -7.30992
|120>    H       -1.22747        -6.41303       -11.21698
|121>    H        1.15592        -7.94339       -10.06896
|122>    H        0.66095        -6.19149       -12.53831
|123>    H        6.26631        -8.65398       -11.08441
|124>    H        7.85778        -8.77742       -12.95046
|125>    H        7.34233        -7.73290       -15.11352
|126>    H        5.21825        -6.55520       -15.46636
|127> *
|128>
|129>                          ****END OF INPUT****

CARTESIAN COORDINATES (ANGSTROEM)
---------------------------------
  C     -7.400250    2.562930    3.194600
  C     -7.490400    2.636800    4.576110
  C     -7.653740    1.492500    5.345520
  C     -7.725600    0.239920    4.756410
  C     -7.634640    0.151170    3.376060
  C     -7.476340    1.317260    2.590190
  C     -7.418600    0.938120    1.187630
  C     -7.101000    1.749490    0.134910
  C     -6.817400    3.127820    0.255250
  N     -6.586480    4.251650    0.288410
  C     -6.965900    1.309060   -1.202410
  N     -6.829710    0.992180   -2.290880
  C     -7.733520   -0.490270    1.128630
  C     -7.641360   -1.006130    2.496700
  C     -7.401040   -2.299450    2.864210
  C     -7.145000   -3.352590    1.959440
  N     -6.862540   -4.236050    1.285480
  C     -7.284790   -2.726190    4.204570
  N     -7.197620   -3.129020    5.276230
  C     -8.171140   -1.144800    0.025260
  C     -8.815390   -2.427560   -0.006150
  C     -9.865090   -2.785500    0.783190
  C    -10.387600   -4.052230    0.314860
  C    -11.502910   -4.696690    0.867430
  N    -12.418040   -5.210440    1.325320
  C     -9.633960   -4.477340   -0.743490
  C     -8.588810   -3.518860   -0.979360
  C     -7.504970   -3.611360   -1.816270
  C     -7.175550   -4.695230   -2.793750
  C     -6.128250   -4.242450   -3.552870
  C     -5.714000   -2.957680   -3.057970
  C     -6.514250   -2.598320   -2.002070
  C     -4.638400   -2.224450   -3.573500
  N     -3.746400   -1.639690   -4.014560
  C     -7.747600   -5.990100   -2.854430
  C     -7.589410   -6.845970   -3.901630
  C     -8.100170   -8.160620   -3.940310
  S     -9.014740   -8.818030   -2.613460
  C     -9.139260  -10.330000   -3.408440
  C     -8.505620  -10.372330   -4.614120
  C     -8.529400  -11.584440   -5.485520
  C     -7.903150   -9.123150   -4.945050
  C     -7.192050   -8.815140   -6.149510
  C     -6.434560   -9.666430   -6.879930
  C     -5.707280   -9.274040   -8.044680
  C     -6.041550   -8.248330   -8.866930
  C     -5.295940   -7.849290  -10.017860
  C     -5.862090   -7.523680  -11.215440
  C     -4.821060   -7.398510  -12.206760
  C     -5.052630   -7.165540  -13.569150
  N     -5.263590   -6.987360  -14.684290
  C     -3.600960   -7.579520  -11.606290
  C     -3.817100   -7.769120  -10.199850
  C     -2.878480   -7.652340   -9.206030
  C     -1.414100   -7.483360   -9.364500
  C     -0.846990   -7.660110   -8.129730
  C     -1.894120   -7.841770   -7.155780
  C     -3.106210   -7.794020   -7.791000
  C     -1.704300   -8.013030   -5.775820
  N     -1.572060   -8.173990   -4.650780
  C     -0.701770   -7.051300  -10.517950
  C      0.623350   -7.275190  -10.728590
  C      1.299360   -6.682170  -11.815770
  C      2.638480   -6.707290  -12.094940
  C      3.201830   -6.326010  -13.387740
  C      2.619780   -5.536110  -14.341840
  C      1.357510   -4.911510  -14.232290
  N      0.356970   -4.363260  -14.202550
  C      3.235860   -5.201890  -15.567460
  N      3.683010   -4.872860  -16.574920
  C      4.524880   -6.928950  -13.462430
  C      4.829420   -7.518380  -12.214460
  C      6.028190   -8.185570  -12.024940
  C      6.922510   -8.255870  -13.083330
  C      6.630090   -7.667990  -14.304960
  C      5.432430   -7.000460  -14.508970
  C      3.729920   -7.252290  -11.297610
  C      3.816630   -7.305830   -9.932300
  C      4.932400   -7.819680   -9.233640
  N      5.794830   -8.243880   -8.610720
  C      2.872610   -6.771180   -9.030010
  N      2.176030   -6.327530   -8.233320
  H     -7.279080    3.460800    2.611100
  H     -7.434990    3.600760    5.057960
  H     -7.726640    1.576840    6.419080
  H     -7.858750   -0.640050    5.364550
  H     -8.165040   -0.615350   -0.919550
  H    -10.298160   -2.211210    1.582390
  H     -9.814580   -5.375130   -1.298530
  H     -5.620350   -4.766510   -4.339240
  H     -6.404740   -1.701380   -1.427700
  H     -8.288990   -6.345810   -1.991380
  H     -7.041010   -6.512990   -4.770340
  H     -9.689030  -11.121540   -2.938070
  H     -9.370180  -12.218040   -5.218240
  H     -7.617480  -12.167500   -5.358130
  H     -8.615220  -11.301290   -6.531990
  H     -7.227100   -7.778880   -6.459110
  H     -6.270000  -10.674320   -6.531450
  H     -4.836970   -9.870820   -8.287690
  H     -7.001630   -7.764930   -8.740590
  H     -6.912630   -7.456290  -11.431150
  H     -2.655570   -7.576040  -12.108100
  H      0.193520   -7.557480   -7.881270
  H     -4.060850   -7.850550   -7.309920
  H     -1.227470   -6.413030  -11.216980
  H      1.155920   -7.943390  -10.068960
  H      0.660950   -6.191490  -12.538310
  H      6.266310   -8.653980  -11.084410
  H      7.857780   -8.777420  -12.950460
  H      7.342330   -7.732900  -15.113520
  H      5.218250   -6.555200  -15.466360

 Total Charge           Charge          ....    0
 Multiplicity           Mult            ....    1
 Number of Electrons    NEL             ....  544
 Basis Dimension        Dim             .... 1302

ORBITAL ENERGIES
----------------

  NO   OCC          E(Eh)            E(eV)
   0   2.0000     -88.966721     -2420.9075
   1   2.0000     -14.435996      -392.8234
   2   2.0000     -14.434127      -392.7726
   3   2.0000     -14.433308      -392.7503
   4   2.0000     -14.433143      -392.7458
   5   2.0000     -14.432200      -392.7201
   6   2.0000     -14.427879      -392.6025
   7   2.0000     -14.426479      -392.5645
   8   2.0000     -14.425305      -392.5325
   9   2.0000     -14.421567      -392.4308
  10   2.0000     -14.419466      -392.3736
  11   2.0000     -14.416740      -392.2994
  12   2.0000     -14.416176      -392.2841
  13   2.0000     -10.367235      -282.1068
  14   2.0000     -10.367097      -282.1030
  15   2.0000     -10.363423      -282.0031
  16   2.0000     -10.362622      -281.9813
  17   2.0000     -10.361285      -281.9449
  18   2.0000     -10.357007      -281.8285
  19   2.0000     -10.356849      -281.8242
  20   2.0000     -10.353943      -281.7451
  21   2.0000     -10.343177      -281.4521
  22   2.0000     -10.339843      -281.3614
  23   2.0000     -10.338412      -281.3225
  24   2.0000     -10.338050      -281.3127
  25   2.0000     -10.337427      -281.2957
  26   2.0000     -10.335875      -281.2535
  27   2.0000     -10.335846      -281.2527
  28   2.0000     -10.335548      -281.2446
  29   2.0000     -10.335362      -281.2395
  30   2.0000     -10.335323      -281.2384
  31   2.0000     -10.334836      -281.2252
  32   2.0000     -10.333104      -281.1781
  33   2.0000     -10.333065      -281.1770
  34   2.0000     -10.331726      -281.1406
  35   2.0000     -10.331578      -281.1365
  36   2.0000     -10.329947      -281.0922
  37   2.0000     -10.329915      -281.0913
  38   2.0000     -10.328587      -281.0551
  39   2.0000     -10.327866      -281.0355
  40   2.0000     -10.327548      -281.0269
  41   2.0000     -10.327463      -281.0246
  42   2.0000     -10.325313      -280.9660
  43   2.0000     -10.324479      -280.9434
  44   2.0000     -10.319357      -280.8040
  45   2.0000     -10.319349      -280.8038
  46   2.0000     -10.318907      -280.7917
  47   2.0000     -10.318776      -280.7882
  48   2.0000     -10.318654      -280.7849
  49   2.0000     -10.318222      -280.7731
  50   2.0000     -10.315837      -280.7082
  51   2.0000     -10.315269      -280.6927
  52   2.0000     -10.314609      -280.6748
  53   2.0000     -10.314263      -280.6654
  54   2.0000     -10.314158      -280.6625
  55   2.0000     -10.314010      -280.6585
  56   2.0000     -10.312890      -280.6280
  57   2.0000     -10.312885      -280.6279
  58   2.0000     -10.312783      -280.6251
  59   2.0000     -10.312257      -280.6108
  60   2.0000     -10.311952      -280.6025
  61   2.0000     -10.311194      -280.5819
  62   2.0000     -10.308007      -280.4951
  63   2.0000     -10.307617      -280.4845
  64   2.0000     -10.307324      -280.4765
  65   2.0000     -10.306850      -280.4636
  66   2.0000     -10.306389      -280.4511
  67   2.0000     -10.305332      -280.4224
  68   2.0000     -10.304762      -280.4068
  69   2.0000     -10.303019      -280.3594
  70   2.0000     -10.302713      -280.3511
  71   2.0000     -10.302425      -280.3432
  72   2.0000     -10.301653      -280.3222
  73   2.0000     -10.300730      -280.2971
  74   2.0000     -10.300014      -280.2776
  75   2.0000     -10.298206      -280.2284
  76   2.0000     -10.296888      -280.1926
  77   2.0000     -10.296680      -280.1869
  78   2.0000     -10.296645      -280.1860
  79   2.0000     -10.294356      -280.1237
  80   2.0000     -10.292394      -280.0703
  81   2.0000     -10.278760      -279.6993
  82   2.0000      -8.062624      -219.3951
  83   2.0000      -6.031802      -164.1337
  84   2.0000      -6.027652      -164.0208
  85   2.0000      -6.024946      -163.9471
  86   2.0000      -1.052004       -28.6265
  87   2.0000      -1.043265       -28.3887
  88   2.0000      -1.032988       -28.1090
  89   2.0000      -1.026871       -27.9426
  90   2.0000      -1.026183       -27.9239
  91   2.0000      -1.025431       -27.9034
  92   2.0000      -1.021629       -27.7999
  93   2.0000      -1.016036       -27.6477
  94   2.0000      -1.013630       -27.5823
  95   2.0000      -1.011947       -27.5365
  96   2.0000      -1.011379       -27.5210
  97   2.0000      -1.009080       -27.4585
  98   2.0000      -1.008477       -27.4421
  99   2.0000      -1.004690       -27.3390
 100   2.0000      -0.999336       -27.1933
 101   2.0000      -0.997881       -27.1537
 102   2.0000      -0.996416       -27.1139
 103   2.0000      -0.989149       -26.9161
 104   2.0000      -0.984242       -26.7826
 105   2.0000      -0.972733       -26.4694
 106   2.0000      -0.967392       -26.3241
 107   2.0000      -0.955349       -25.9964
 108   2.0000      -0.947775       -25.7903
 109   2.0000      -0.938600       -25.5406
 110   2.0000      -0.934399       -25.4263
 111   2.0000      -0.920134       -25.0381
 112   2.0000      -0.916069       -24.9275
 113   2.0000      -0.907021       -24.6813
 114   2.0000      -0.902356       -24.5544
 115   2.0000      -0.895416       -24.3655
 116   2.0000      -0.891223       -24.2514
 117   2.0000      -0.888182       -24.1687
 118   2.0000      -0.881744       -23.9935
 119   2.0000      -0.879946       -23.9445
 120   2.0000      -0.872384       -23.7388
 121   2.0000      -0.869414       -23.6579
 122   2.0000      -0.853810       -23.2334
 123   2.0000      -0.849190       -23.1076
 124   2.0000      -0.837747       -22.7963
 125   2.0000      -0.825820       -22.4717
 126   2.0000      -0.810938       -22.0668
 127   2.0000      -0.809440       -22.0260
 128   2.0000      -0.806124       -21.9358
 129   2.0000      -0.800930       -21.7944
 130   2.0000      -0.799199       -21.7473
 131   2.0000      -0.798731       -21.7346
 132   2.0000      -0.791796       -21.5459
 133   2.0000      -0.769309       -20.9340
 134   2.0000      -0.743856       -20.2413
 135   2.0000      -0.741619       -20.1805
 136   2.0000      -0.736115       -20.0307
 137   2.0000      -0.734528       -19.9875
 138   2.0000      -0.733000       -19.9459
 139   2.0000      -0.730158       -19.8686
 140   2.0000      -0.729625       -19.8541
 141   2.0000      -0.724073       -19.7030
 142   2.0000      -0.723253       -19.6807
 143   2.0000      -0.720075       -19.5942
 144   2.0000      -0.701319       -19.0839
 145   2.0000      -0.692774       -18.8513
 146   2.0000      -0.682478       -18.5712
 147   2.0000      -0.681215       -18.5368
 148   2.0000      -0.680491       -18.5171
 149   2.0000      -0.676708       -18.4142
 150   2.0000      -0.673867       -18.3368
 151   2.0000      -0.667417       -18.1613
 152   2.0000      -0.663264       -18.0483
 153   2.0000      -0.657290       -17.8858
 154   2.0000      -0.654732       -17.8162
 155   2.0000      -0.650222       -17.6934
 156   2.0000      -0.646477       -17.5915
 157   2.0000      -0.638427       -17.3725
 158   2.0000      -0.631711       -17.1897
 159   2.0000      -0.629240       -17.1225
 160   2.0000      -0.625305       -17.0154
 161   2.0000      -0.608160       -16.5489
 162   2.0000      -0.606398       -16.5009
 163   2.0000      -0.601928       -16.3793
 164   2.0000      -0.601672       -16.3723
 165   2.0000      -0.600926       -16.3520
 166   2.0000      -0.593512       -16.1503
 167   2.0000      -0.592611       -16.1258
 168   2.0000      -0.591075       -16.0840
 169   2.0000      -0.584321       -15.9002
 170   2.0000      -0.568497       -15.4696
 171   2.0000      -0.567057       -15.4304
 172   2.0000      -0.559933       -15.2365
 173   2.0000      -0.556936       -15.1550
 174   2.0000      -0.556827       -15.1520
 175   2.0000      -0.551475       -15.0064
 176   2.0000      -0.550902       -14.9908
 177   2.0000      -0.549735       -14.9590
 178   2.0000      -0.548032       -14.9127
 179   2.0000      -0.545913       -14.8550
 180   2.0000      -0.539680       -14.6855
 181   2.0000      -0.537074       -14.6145
 182   2.0000      -0.532715       -14.4959
 183   2.0000      -0.531625       -14.4663
 184   2.0000      -0.531238       -14.4557
 185   2.0000      -0.529773       -14.4159
 186   2.0000      -0.523696       -14.2505
 187   2.0000      -0.523364       -14.2414
 188   2.0000      -0.521103       -14.1799
 189   2.0000      -0.520789       -14.1714
 190   2.0000      -0.517731       -14.0882
 191   2.0000      -0.516137       -14.0448
 192   2.0000      -0.514296       -13.9947
 193   2.0000      -0.513931       -13.9848
 194   2.0000      -0.512383       -13.9426
 195   2.0000      -0.510384       -13.8883
 196   2.0000      -0.509276       -13.8581
 197   2.0000      -0.506218       -13.7749
 198   2.0000      -0.503634       -13.7046
 199   2.0000      -0.502389       -13.6707
 200   2.0000      -0.499489       -13.5918
 201   2.0000      -0.498158       -13.5556
 202   2.0000      -0.493734       -13.4352
 203   2.0000      -0.492410       -13.3992
 204   2.0000      -0.492176       -13.3928
 205   2.0000      -0.485031       -13.1984
 206   2.0000      -0.481231       -13.0950
 207   2.0000      -0.479124       -13.0376
 208   2.0000      -0.476162       -12.9570
 209   2.0000      -0.475352       -12.9350
 210   2.0000      -0.472098       -12.8464
 211   2.0000      -0.471043       -12.8177
 212   2.0000      -0.468157       -12.7392
 213   2.0000      -0.466535       -12.6951
 214   2.0000      -0.465737       -12.6733
 215   2.0000      -0.464265       -12.6333
 216   2.0000      -0.463639       -12.6163
 217   2.0000      -0.462172       -12.5763
 218   2.0000      -0.461793       -12.5660
 219   2.0000      -0.459839       -12.5128
 220   2.0000      -0.458471       -12.4756
 221   2.0000      -0.457289       -12.4435
 222   2.0000      -0.454793       -12.3756
 223   2.0000      -0.454141       -12.3578
 224   2.0000      -0.452747       -12.3199
 225   2.0000      -0.452339       -12.3088
 226   2.0000      -0.450452       -12.2574
 227   2.0000      -0.449301       -12.2261
 228   2.0000      -0.447752       -12.1840
 229   2.0000      -0.446646       -12.1539
 230   2.0000      -0.446547       -12.1512
 231   2.0000      -0.444503       -12.0955
 232   2.0000      -0.444296       -12.0899
 233   2.0000      -0.442108       -12.0304
 234   2.0000      -0.441702       -12.0193
 235   2.0000      -0.441614       -12.0169
 236   2.0000      -0.440501       -11.9866
 237   2.0000      -0.440361       -11.9828
 238   2.0000      -0.437182       -11.8963
 239   2.0000      -0.436418       -11.8755
 240   2.0000      -0.432392       -11.7660
 241   2.0000      -0.429649       -11.6913
 242   2.0000      -0.427444       -11.6313
 243   2.0000      -0.426144       -11.5960
 244   2.0000      -0.423422       -11.5219
 245   2.0000      -0.423199       -11.5158
 246   2.0000      -0.420831       -11.4514
 247   2.0000      -0.420191       -11.4340
 248   2.0000      -0.419011       -11.4019
 249   2.0000      -0.418272       -11.3818
 250   2.0000      -0.417240       -11.3537
 251   2.0000      -0.414523       -11.2797
 252   2.0000      -0.410782       -11.1780
 253   2.0000      -0.402901       -10.9635
 254   2.0000      -0.400006       -10.8847
 255   2.0000      -0.395387       -10.7590
 256   2.0000      -0.392565       -10.6822
 257   2.0000      -0.373662       -10.1679
 258   2.0000      -0.369214       -10.0468
 259   2.0000      -0.354842        -9.6557
 260   2.0000      -0.348438        -9.4815
 261   2.0000      -0.343951        -9.3594
 262   2.0000      -0.341513        -9.2931
 263   2.0000      -0.340982        -9.2786
 264   2.0000      -0.331301        -9.0152
 265   2.0000      -0.324767        -8.8374
 266   2.0000      -0.323097        -8.7919
 267   2.0000      -0.319932        -8.7058
 268   2.0000      -0.306043        -8.3279
 269   2.0000      -0.289842        -7.8870
 270   2.0000      -0.284270        -7.7354
 271   2.0000      -0.257314        -7.0019
 272   0.0000      -0.136790        -3.7222
 273   0.0000      -0.133855        -3.6424
 274   0.0000      -0.101108        -2.7513
 275   0.0000      -0.100024        -2.7218
 276   0.0000      -0.097902        -2.6641

MULLIKEN ATOMIC CHARGES
-----------------------
   0 C :   -0.028748
   1 C :    0.050413
   2 C :    0.047149
   3 C :   -0.029451
   4 C :    0.008617
   5 C :    0.015812
   6 C :    0.283306
   7 C :   -0.336290
   8 C :   -0.181763
   9 N :    0.168082
  10 C :   -0.187335
  11 N :    0.174947
  12 C :   -0.051151
  13 C :    0.239124
  14 C :   -0.331363
  15 C :   -0.167445
  16 N :    0.183970
  17 C :   -0.191290
  18 N :    0.173632
  19 C :   -0.000868
  20 C :   -0.047437
  21 C :    0.032574
  22 C :   -0.110783
  23 C :   -0.135909
  24 N :    0.156624
  25 C :   -0.003907
  26 C :    0.080022
  27 C :    0.108626
  28 C :    0.091805
  29 C :   -0.037634
  30 C :   -0.073372
  31 C :   -0.034612
  32 C :   -0.119875
  33 N :    0.147669
  34 C :   -0.047319
  35 C :    0.023311
  36 C :   -0.111972
  37 S :    0.116285
  38 C :   -0.102829
  39 C :   -0.086294
  40 C :    0.105672
  41 C :    0.130149
  42 C :   -0.049969
  43 C :    0.004160
  44 C :   -0.012468
  45 C :   -0.035078
  46 C :    0.073693
  47 C :   -0.007487
  48 C :   -0.084796
  49 C :   -0.128267
  50 N :    0.146497
  51 C :   -0.042192
  52 C :    0.051331
  53 C :    0.074790
  54 C :    0.049687
  55 C :    0.033741
  56 C :   -0.099188
  57 C :   -0.026101
  58 C :   -0.131661
  59 N :    0.150396
  60 C :   -0.015622
  61 C :   -0.004538
  62 C :    0.027603
  63 C :   -0.046718
  64 C :    0.294039
  65 C :   -0.338442
  66 C :   -0.195336
  67 N :    0.171105
  68 C :   -0.186856
  69 N :    0.161059
  70 C :    0.011987
  71 C :    0.004818
  72 C :   -0.030933
  73 C :    0.050068
  74 C :    0.047414
  75 C :   -0.029625
  76 C :    0.251089
  77 C :   -0.338412
  78 C :   -0.186148
  79 N :    0.168254
  80 C :   -0.172271
  81 N :    0.158828
  82 H :    0.009840
  83 H :    0.009471
  84 H :    0.012215
  85 H :    0.010746
  86 H :    0.053999
  87 H :    0.002706
  88 H :   -0.002703
  89 H :   -0.006271
  90 H :   -0.012751
  91 H :    0.011801
  92 H :   -0.016931
  93 H :    0.021967
  94 H :    0.015779
  95 H :    0.038801
  96 H :    0.030158
  97 H :    0.003237
  98 H :   -0.005860
  99 H :    0.017125
 100 H :    0.008734
 101 H :   -0.004116
 102 H :   -0.003876
 103 H :   -0.000284
 104 H :    0.015764
 105 H :    0.039109
 106 H :    0.022231
 107 H :    0.011764
 108 H :    0.007472
 109 H :    0.006558
 110 H :    0.007935
 111 H :    0.006784
Sum of atomic charges:   -0.0000000

LOEWDIN ATOMIC CHARGES
----------------------
   0 C :    0.007814
   1 C :    0.007836
   2 C :    0.009139
   3 C :    0.005201
   4 C :   -0.010959
   5 C :   -0.012847
   6 C :    0.076506
   7 C :   -0.122753
   8 C :   -0.019534
   9 N :   -0.034581
  10 C :   -0.023476
  11 N :   -0.031418
  12 C :   -0.042049
  13 C :    0.068166
  14 C :   -0.119004
  15 C :   -0.015369
  16 N :   -0.036148
  17 C :   -0.019930
  18 N :   -0.033943
  19 C :    0.059863
  20 C :   -0.042659
  21 C :    0.034396
  22 C :   -0.059486
  23 C :   -0.033781
  24 N :   -0.036988
  25 C :    0.026693
  26 C :    0.026377
  27 C :    0.066715
  28 C :   -0.014880
  29 C :   -0.001010
  30 C :   -0.027802
  31 C :   -0.013632
  32 C :   -0.024580
  33 N :   -0.029847
  34 C :   -0.033141
  35 C :   -0.013762
  36 C :   -0.164130
  37 S :    0.444829
  38 C :   -0.178732
  39 C :   -0.054035
  40 C :   -0.045111
  41 C :   -0.055196
  42 C :   -0.003718
  43 C :   -0.033974
  44 C :   -0.014707
  45 C :   -0.026679
  46 C :   -0.017861
  47 C :   -0.001064
  48 C :   -0.038144
  49 C :   -0.030167
  50 N :   -0.030653
  51 C :   -0.014769
  52 C :    0.043547
  53 C :    0.033130
  54 C :   -0.050183
  55 C :    0.059925
  56 C :   -0.061615
  57 C :    0.023856
  58 C :   -0.032774
  59 N :   -0.034080
  60 C :    0.039706
  61 C :   -0.028621
  62 C :    0.060860
  63 C :   -0.059560
  64 C :    0.077620
  65 C :   -0.129092
  66 C :   -0.025260
  67 N :   -0.038796
  68 C :   -0.018651
  69 N :   -0.042812
  70 C :   -0.012398
  71 C :   -0.011513
  72 C :    0.003327
  73 C :    0.005876
  74 C :    0.004366
  75 C :    0.006414
  76 C :    0.075354
  77 C :   -0.132725
  78 C :   -0.020860
  79 N :   -0.038466
  80 C :   -0.013090
  81 N :   -0.044199
  82 H :    0.042995
  83 H :    0.040112
  84 H :    0.040623
  85 H :    0.042786
  86 H :    0.051253
  87 H :    0.035776
  88 H :    0.035779
  89 H :    0.031125
  90 H :    0.030720
  91 H :    0.023009
  92 H :    0.031677
  93 H :    0.025181
  94 H :    0.034987
  95 H :    0.036529
  96 H :    0.035113
  97 H :    0.026739
  98 H :    0.032396
  99 H :    0.032800
 100 H :    0.034564
 101 H :    0.035153
 102 H :    0.033092
 103 H :    0.035461
 104 H :    0.038120
 105 H :    0.041190
 106 H :    0.034611
 107 H :    0.046618
 108 H :    0.041437
 109 H :    0.038736
 110 H :    0.039045
 111 H :    0.042071

  Mayer bond orders larger than 0.100000
B(  0-C ,  1-C ) :   1.3762 B(  0-C ,  5-C ) :   1.3751 B(  0-C , 82-H ) :   0.9848
B(  1-C ,  2-C ) :   1.3678 B(  1-C , 83-H ) :   0.9871 B(  2-C ,  3-C ) :   1.3727
B(  2-C , 84-H ) :   0.9868 B(  3-C ,  4-C ) :   1.3767 B(  3-C , 85-H ) :   0.9862
B(  4-C ,  5-C ) :   1.3023 B(  4-C , 13-C ) :   1.0165 B(  5-C ,  6-C ) :   1.0121
B(  6-C ,  7-C ) :   1.6743 B(  6-C , 12-C ) :   1.0022 B(  7-C ,  8-C ) :   1.1386
B(  7-C , 10-C ) :   1.1402 B(  8-C ,  9-N ) :   2.9817 B( 10-C , 11-N ) :   2.9653
B( 12-C , 13-C ) :   0.9929 B( 12-C , 19-C ) :   1.7427 B( 13-C , 14-C ) :   1.6840
B( 14-C , 15-C ) :   1.1524 B( 14-C , 17-C ) :   1.1381 B( 15-C , 16-N ) :   2.9833
B( 17-C , 18-N ) :   2.9922 B( 19-C , 20-C ) :   0.9963 B( 19-C , 86-H ) :   0.9193
B( 20-C , 21-C ) :   1.6379 B( 20-C , 26-C ) :   1.0711 B( 21-C , 22-C ) :   1.1002
B( 21-C , 87-H ) :   1.0189 B( 22-C , 23-C ) :   1.0558 B( 22-C , 25-C ) :   1.6452
B( 23-C , 24-N ) :   3.0489 B( 25-C , 26-C ) :   1.0692 B( 25-C , 88-H ) :   1.0131
B( 26-C , 27-C ) :   1.5040 B( 27-C , 28-C ) :   1.0153 B( 27-C , 31-C ) :   1.0872
B( 28-C , 29-C ) :   1.6055 B( 28-C , 34-C ) :   1.1113 B( 29-C , 30-C ) :   1.1047
B( 29-C , 89-H ) :   1.0109 B( 30-C , 31-C ) :   1.6144 B( 30-C , 32-C ) :   1.0576
B( 31-C , 90-H ) :   1.0074 B( 32-C , 33-N ) :   3.0280 B( 34-C , 35-C ) :   1.6456
B( 34-C , 91-H ) :   0.9627 B( 35-C , 36-C ) :   1.1785 B( 35-C , 92-H ) :   0.9675
B( 36-C , 37-S ) :   1.1338 B( 36-C , 41-C ) :   1.3894 B( 37-S , 38-C ) :   1.1460
B( 38-C , 39-C ) :   1.5929 B( 38-C , 93-H ) :   0.9675 B( 39-C , 40-C ) :   1.0877
B( 39-C , 41-C ) :   1.2425 B( 40-C , 94-H ) :   0.9490 B( 40-C , 95-H ) :   0.9426
B( 40-C , 96-H ) :   0.9471 B( 41-C , 42-C ) :   1.1071 B( 42-C , 43-C ) :   1.7141
B( 42-C , 97-H ) :   0.9496 B( 43-C , 44-C ) :   1.1130 B( 43-C , 98-H ) :   0.9748
B( 44-C , 45-C ) :   1.7036 B( 44-C , 99-H ) :   0.9675 B( 45-C , 46-C ) :   1.0875
B( 45-C ,100-H ) :   0.9610 B( 46-C , 47-C ) :   1.6167 B( 46-C , 52-C ) :   1.0239
B( 47-C , 48-C ) :   1.1024 B( 47-C ,101-H ) :   1.0208 B( 48-C , 49-C ) :   1.0635
B( 48-C , 51-C ) :   1.6186 B( 49-C , 50-N ) :   3.0372 B( 51-C , 52-C ) :   1.0764
B( 51-C ,102-H ) :   1.0146 B( 52-C , 53-C ) :   1.5399 B( 53-C , 54-C ) :   1.0406
B( 53-C , 57-C ) :   1.0641 B( 54-C , 55-C ) :   1.5964 B( 54-C , 60-C ) :   1.0616
B( 55-C , 56-C ) :   1.1063 B( 55-C ,103-H ) :   0.9956 B( 56-C , 57-C ) :   1.6264
B( 56-C , 58-C ) :   1.0561 B( 57-C ,104-H ) :   1.0132 B( 58-C , 59-N ) :   3.0476
B( 60-C , 61-C ) :   1.6392 B( 60-C ,105-H ) :   0.9687 B( 61-C , 62-C ) :   1.1607
B( 61-C ,106-H ) :   0.9709 B( 62-C , 63-C ) :   1.5620 B( 62-C ,107-H ) :   0.9450
B( 63-C , 64-C ) :   1.0436 B( 63-C , 76-C ) :   1.0200 B( 64-C , 65-C ) :   1.6447
B( 64-C , 70-C ) :   1.0017 B( 65-C , 66-C ) :   1.1374 B( 65-C , 68-C ) :   1.1457
B( 66-C , 67-N ) :   2.9904 B( 68-C , 69-N ) :   2.9758 B( 70-C , 71-C ) :   1.3105
B( 70-C , 75-C ) :   1.3815 B( 71-C , 72-C ) :   1.3808 B( 71-C , 76-C ) :   1.0114
B( 72-C , 73-C ) :   1.3689 B( 72-C ,108-H ) :   0.9846 B( 73-C , 74-C ) :   1.3762
B( 73-C ,109-H ) :   0.9860 B( 74-C , 75-C ) :   1.3717 B( 74-C ,110-H ) :   0.9858
B( 75-C ,111-H ) :   0.9839 B( 76-C , 77-C ) :   1.6409 B( 77-C , 78-C ) :   1.1321
B( 77-C , 80-C ) :   1.1644 B( 78-C , 79-N ) :   2.9943 B( 80-C , 81-N ) :   2.9316

-----------------------------------------------------------------------------
         ABSORPTION SPECTRUM VIA TRANSITION ELECTRIC DIPOLE MOMENTS
-----------------------------------------------------------------------------
State   Energy  Wavelength   fosc         T2         TX        TY        TZ
        (cm-1)    (nm)                  (au**2)     (au)      (au)      (au)
-----------------------------------------------------------------------------
   0    9008.9   1110.0   0.134822106   4.92681  -0.54969   1.53367   1.50749
   1   11112.9    899.9   0.097220618   2.88011  -1.40681  -0.34953   0.88250
   2   15561.6    642.6   0.070762221   1.49700  -1.17610  -0.27404   0.19672
   3   16932.5    590.6   0.013378681   0.26012  -0.14016   0.24294   0.42597
   4   17933.2    557.6   0.033790631   0.62032  -0.02562  -0.42968  -0.65957
   5   18871.1    529.9   0.035034042   0.61118   0.13502  -0.36232  -0.67947
   6   20645.8    484.4   0.017111996   0.27286   0.02926   0.47219   0.22146
   7   21932.1    456.0   0.000882489   0.01325  -0.01022  -0.06285  -0.09587
   8   22616.1    442.2   0.418834542   6.09677   2.40476   0.27347  -0.48900
   9   23396.5    427.4   0.292249030   4.11223  -1.35305   0.53888   1.41106
  10   23884.7    418.7   0.042150905   0.58098   0.57728  -0.14849  -0.47506
  11   24062.2    415.6   0.084386169   1.15455  -0.30095   0.39264   0.95384
  12   24333.4    411.0   0.074164220   1.00338  -0.04336   0.20924   0.97863
  13   24461.1    408.8   0.107646773   1.44877  -0.29511  -1.13889  -0.25418
  14   24802.6    403.2   0.112686095   1.49571  -0.02328   0.63400  -1.04557
  15   24905.0    401.5   0.195014204   2.57784   0.27926  -0.36206  -1.53908
  16   25035.2    399.4   0.141171075   1.85640  -1.20425  -0.50516   0.38858
  17   26014.7    384.4   0.369773042   4.67943  -0.11233   2.03012   0.73852
  18   26655.4    375.2   0.090894167   1.12260  -0.19410  -0.49299   0.91755
  19   27390.1    365.1   0.006034087   0.07253   0.06337   0.21948  -0.14262
  20   28104.2    355.8   0.025623694   0.30016  -0.38388  -0.39011   0.02459
  21   28437.8    351.6   0.016322157   0.18895   0.20114  -0.26084  -0.28366
  22   28703.1    348.4   0.000416500   0.00478   0.06330  -0.02066  -0.01852
  23   29322.0    341.0   0.278055161   3.12186  -1.33142   0.02701   1.16122
  24   29435.6    339.7   0.156920535   1.75502   0.46772  -0.10215  -1.23524
  25   29611.7    337.7   0.001709313   0.01900  -0.06556   0.12104   0.00744
  26   29908.5    334.4   0.062875284   0.69209  -0.81344  -0.14276  -0.10012
  27   29996.8    333.4   0.033762993   0.37055   0.47607   0.23211   0.30004
  28   30484.2    328.0   0.087470326   0.94463   0.77941   0.17575   0.55341
  29   30672.9    326.0   0.058929055   0.63248   0.54168  -0.10183   0.57332
  30   30929.5    323.3   0.126325052   1.34460   0.97946   0.32241   0.53038
  31   31177.6    320.7   0.083405360   0.88070   0.73520   0.52887   0.24593
  32   31877.4    313.7   0.024937186   0.25754   0.46451   0.11770  -0.16707
  33   32289.3    309.7   0.210267755   2.14383   0.46011  -0.49646   1.29833
  34   32373.3    308.9   0.125424118   1.27547   0.00430   1.08046  -0.32872
  35   32401.7    308.6   0.308244266   3.13187  -0.33103  -1.55352   0.78030
  36   32623.0    306.5   0.056252687   0.56767   0.67107  -0.26708  -0.21447
  37   32777.1    305.1   0.486141551   4.88279   0.27503  -0.43382   2.14917
  38   33222.6    301.0   0.102440343   1.01511  -0.62887  -0.12292  -0.77751
  39   33519.7    298.3   0.167411684   1.64423  -0.05385   0.92629  -0.88505
  40   33888.6    295.1   0.037326060   0.36261  -0.19182  -0.54324   0.17523
  41   34062.8    293.6   0.016322833   0.15776   0.24703   0.30777  -0.04485
  42   34172.6    292.6   0.147346034   1.41950  -0.94527  -0.37603  -0.62013
  43   34199.8    292.4   0.010768470   0.10366   0.23812   0.17539   0.12728
  44   34342.8    291.2   0.067099689   0.64322  -0.73798   0.31125   0.04171
  45   34792.6    287.4   0.012589053   0.11912  -0.31267  -0.08427  -0.11940
  46   35076.7    285.1   0.734399516   6.89269   1.37695   1.92581  -1.13488
  47   35328.7    283.1   0.639679517   5.96087   1.61143  -0.31097  -1.80761
  48   35550.7    281.3   0.470476465   4.35678   0.04425  -0.17636   2.07935
  49   35618.4    280.8   0.117845114   1.08921   0.14876  -0.77160  -0.68682
  50   35796.3    279.4   0.024024432   0.22095   0.16625  -0.40260   0.17669
  51   36092.8    277.1   0.032426754   0.29577  -0.44791  -0.15312   0.26777
  52   36200.2    276.2   0.135718193   1.23425  -0.51679   0.64171  -0.74525
  53   36229.7    276.0   0.188104667   1.70927  -0.37607  -1.24138  -0.16375
  54   36916.4    270.9   0.403383521   3.59728   1.16479   0.36411  -1.45189
  55   37578.6    266.1   0.021230913   0.18600  -0.24201  -0.12151  -0.33565
  56   37808.4    264.5   0.104541434   0.91028  -0.36897   0.53004  -0.70228
  57   37888.7    263.9   0.149661077   1.30039   0.04020  -0.31466   1.09534
  58   37983.9    263.3   0.010493078   0.09095   0.10461   0.01968  -0.28216
  59   38233.9    261.5   0.001497759   0.01290  -0.00310   0.07648  -0.08389
  60   38765.4    258.0   0.011243837   0.09549   0.25566  -0.02473  -0.17180
  61   39138.7    255.5   0.035289856   0.29684   0.44024   0.02035  -0.32034
  62   39234.3    254.9   0.027209649   0.22831  -0.26895  -0.38800   0.07371
  63   39586.0    252.6   0.004375502   0.03639  -0.11392   0.13969  -0.06243
  64   39616.1    252.4   0.006954227   0.05779  -0.12147   0.18649  -0.09086
  65   39748.7    251.6   0.043303454   0.35865  -0.57906   0.05582   0.14224
  66   39849.4    250.9   0.006248356   0.05162   0.06045  -0.21680  -0.03102
  67   39982.1    250.1   0.012391744   0.10203   0.31251  -0.06540   0.00962
  68   39995.8    250.0   0.030460109   0.25072   0.20599  -0.15841  -0.42802
  69   40107.0    249.3   0.000154491   0.00127   0.03462  -0.00781  -0.00288

FINAL SINGLE POINT ENERGY     -3697.756352065129

DIPOLE MOMENT
-------------
                                X             Y             Z
Electronic contribution:      9.69781      28.66275      10.06987
Nuclear contribution   :    -11.08057     -30.74170      -9.17161
                        -----------------------------------------
Total Dipole Moment    :     -1.38277      -2.07895       0.89827
                        -----------------------------------------
Magnitude (a.u.)       :      2.65348
Magnitude (Debye)      :      6.74461

Rotational constants in cm-1:     0.001033     0.000249     0.000223
Rotational constants in MHz :    30.971352     7.462063     6.691861

                             ****ORCA TERMINATED NORMALLY****
TOTAL RUN TIME: 0 days 0 hours 14 minutes 14 seconds 763 msec
