                         Program Version 4.2.0 -  RELEASE  -
|  1> # ORCA input file
|  2> # SCF done       -133.021320056104          0.000354800914
|  3> ! CAM-B3LYP def2-SVP def2/J RIJCOSX Grid4 TightSCF
|  4> %maxcore 5000
|  5> %tddft
|  6>     Mode sTDDFT
|  7>     Ethresh 5.0
|  8>     maxcore 5000
|  9> end
| 10>
| 11> %pal
| 12>   nprocs 6
| 13>   end
| 14> * xyz 0 1
| 15>    C        4.02480        -2.24932        -6.00514
| 16>    C        3.59520        -3.51009        -6.06529
| 17>    C        5.03002        -1.81950        -5.12944
| 18>    C        5.90287        -1.43301        -4.37995
| 19>    C        6.91209        -0.99982        -3.53064
| 20>    C        7.53220        -1.82096        -2.64386
| 21>    C        8.58171        -1.42899        -1.78675
| 22>    S        9.21235         0.18287        -1.77383
| 23>    C       10.41919        -0.19593        -0.57501
| 24>    C       10.31441        -1.54889        -0.18809
| 25>    C        9.27697        -2.24404        -0.86891
| 26>    C        9.05163        -3.59707        -0.57909
| 27>    C        9.82486        -4.25324         0.35321
| 28>    C        9.56512        -5.65946         0.65908
| 29>    C        9.14464        -6.55734        -0.22171
| 30>    C       10.86657        -3.55550         1.03113
| 31>    C       11.72306        -4.26886         2.03032
| 32>    C       11.09721        -2.23149         0.75500
| 33>    C       11.34553         0.74780        -0.13042
| 34>    C       11.39894         2.05739        -0.52839
| 35>    C       12.41316         2.91529        -0.07139
| 36>    N       13.41564         2.47315         0.69352
| 37>    C       14.24538         3.50752         0.85253
| 38>    C       13.77883         4.69941         0.12670
| 39>    C       14.68210         5.83400         0.38050
| 40>    O       14.60760         6.97727        -0.02635
| 41>    C       15.69846         5.24781         1.26875
| 42>    C       15.40498         3.83434         1.53007
| 43>    N       16.31516         3.30019         2.37549
| 44>    C       17.14032         4.28838         2.65568
| 45>    C       16.80751         5.53106         2.01029
| 46>    C       12.58005         4.34321        -0.44306
| 47>    C       11.65841         5.11878        -1.19369
| 48>    S        9.94723         4.91876        -0.98843
| 49>    C        9.56777         6.24683        -2.03714
| 50>    C       10.74106         6.80226        -2.56551
| 51>    C       11.92494         6.16665        -2.08435
| 52>    C       13.17639         6.58103        -2.56497
| 53>    C       13.27223         7.63578        -3.44098
| 54>    C       14.58979         8.07693        -3.89604
| 55>    C       15.65831         8.09928        -3.11087
| 56>    C       12.09166         8.29336        -3.90047
| 57>    C       12.20404         9.45075        -4.84486
| 58>    C       10.86203         7.87166        -3.47347
| 59>    C        8.23381         6.67305        -2.25296
| 60>    C        7.14892         6.14166        -1.65124
| 61>    C        5.78234         6.58797        -1.83604
| 62>    C        5.35647         7.40662        -2.81543
| 63>    C        4.85417         6.09628        -0.88361
| 64>    C        4.08026         5.68255        -0.05382
| 65>    C        3.18102         5.20016         0.91418
| 66>    C        1.92523         5.62417         1.02364
| 67>    H        3.60527        -1.48563        -6.64932
| 68>    H        4.00733        -4.27653        -5.43028
| 69>    H        2.82232        -3.80868        -6.75189
| 70>    H        7.20516         0.04076        -3.60460
| 71>    H        7.21955        -2.85475        -2.58607
| 72>    H        8.24974        -4.12474        -1.07118
| 73>    H        9.74284        -5.96263         1.68188
| 74>    H        8.99009        -6.31443        -1.25999
| 75>    H        8.95876        -7.57956         0.05963
| 76>    H       11.13958        -4.53918         2.91078
| 77>    H       12.54547        -3.63436         2.34978
| 78>    H       12.13132        -5.18359         1.60362
| 79>    H       11.88850        -1.70507         1.26633
| 80>    H       12.09464         0.42443         0.57911
| 81>    H       10.66348         2.44149        -1.22129
| 82>    H       17.97577         4.12487         3.31438
| 83>    H       17.34246         6.45478         2.11360
| 84>    H       14.06391         6.05570        -2.25672
| 85>    H       14.66169         8.41014        -4.92354
| 86>    H       15.59736         7.82054        -2.07195
| 87>    H       16.61998         8.42434        -3.47131
| 88>    H       12.88082        10.20366        -4.44407
| 89>    H       11.23123         9.90737        -5.01094
| 90>    H       12.59739         9.12388        -5.80781
| 91>    H        9.97086         8.36360        -3.83520
| 92>    H        8.11799         7.50378        -2.93489
| 93>    H        7.28733         5.33635        -0.94006
| 94>    H        6.01924         7.78782        -3.57159
| 95>    H        4.32322         7.69925        -2.88154
| 96>    H        3.57828         4.44856         1.58652
| 97>    H        1.52399         6.37346         0.36172
| 98>    H        1.26330         5.23747         1.77939
| 99> *
|100>
|101>                          ****END OF INPUT****

CARTESIAN COORDINATES (ANGSTROEM)
---------------------------------
  C      4.024800   -2.249320   -6.005140
  C      3.595200   -3.510090   -6.065290
  C      5.030020   -1.819500   -5.129440
  C      5.902870   -1.433010   -4.379950
  C      6.912090   -0.999820   -3.530640
  C      7.532200   -1.820960   -2.643860
  C      8.581710   -1.428990   -1.786750
  S      9.212350    0.182870   -1.773830
  C     10.419190   -0.195930   -0.575010
  C     10.314410   -1.548890   -0.188090
  C      9.276970   -2.244040   -0.868910
  C      9.051630   -3.597070   -0.579090
  C      9.824860   -4.253240    0.353210
  C      9.565120   -5.659460    0.659080
  C      9.144640   -6.557340   -0.221710
  C     10.866570   -3.555500    1.031130
  C     11.723060   -4.268860    2.030320
  C     11.097210   -2.231490    0.755000
  C     11.345530    0.747800   -0.130420
  C     11.398940    2.057390   -0.528390
  C     12.413160    2.915290   -0.071390
  N     13.415640    2.473150    0.693520
  C     14.245380    3.507520    0.852530
  C     13.778830    4.699410    0.126700
  C     14.682100    5.834000    0.380500
  O     14.607600    6.977270   -0.026350
  C     15.698460    5.247810    1.268750
  C     15.404980    3.834340    1.530070
  N     16.315160    3.300190    2.375490
  C     17.140320    4.288380    2.655680
  C     16.807510    5.531060    2.010290
  C     12.580050    4.343210   -0.443060
  C     11.658410    5.118780   -1.193690
  S      9.947230    4.918760   -0.988430
  C      9.567770    6.246830   -2.037140
  C     10.741060    6.802260   -2.565510
  C     11.924940    6.166650   -2.084350
  C     13.176390    6.581030   -2.564970
  C     13.272230    7.635780   -3.440980
  C     14.589790    8.076930   -3.896040
  C     15.658310    8.099280   -3.110870
  C     12.091660    8.293360   -3.900470
  C     12.204040    9.450750   -4.844860
  C     10.862030    7.871660   -3.473470
  C      8.233810    6.673050   -2.252960
  C      7.148920    6.141660   -1.651240
  C      5.782340    6.587970   -1.836040
  C      5.356470    7.406620   -2.815430
  C      4.854170    6.096280   -0.883610
  C      4.080260    5.682550   -0.053820
  C      3.181020    5.200160    0.914180
  C      1.925230    5.624170    1.023640
  H      3.605270   -1.485630   -6.649320
  H      4.007330   -4.276530   -5.430280
  H      2.822320   -3.808680   -6.751890
  H      7.205160    0.040760   -3.604600
  H      7.219550   -2.854750   -2.586070
  H      8.249740   -4.124740   -1.071180
  H      9.742840   -5.962630    1.681880
  H      8.990090   -6.314430   -1.259990
  H      8.958760   -7.579560    0.059630
  H     11.139580   -4.539180    2.910780
  H     12.545470   -3.634360    2.349780
  H     12.131320   -5.183590    1.603620
  H     11.888500   -1.705070    1.266330
  H     12.094640    0.424430    0.579110
  H     10.663480    2.441490   -1.221290
  H     17.975770    4.124870    3.314380
  H     17.342460    6.454780    2.113600
  H     14.063910    6.055700   -2.256720
  H     14.661690    8.410140   -4.923540
  H     15.597360    7.820540   -2.071950
  H     16.619980    8.424340   -3.471310
  H     12.880820   10.203660   -4.444070
  H     11.231230    9.907370   -5.010940
  H     12.597390    9.123880   -5.807810
  H      9.970860    8.363600   -3.835200
  H      8.117990    7.503780   -2.934890
  H      7.287330    5.336350   -0.940060
  H      6.019240    7.787820   -3.571590
  H      4.323220    7.699250   -2.881540
  H      3.578280    4.448560    1.586520
  H      1.523990    6.373460    0.361720
  H      1.263300    5.237470    1.779390

 Total Charge           Charge          ....    0
 Multiplicity           Mult            ....    1
 Number of Electrons    NEL             ....  368
 Basis Dimension        Dim             ....  896

ORBITAL ENERGIES
----------------

  NO   OCC          E(Eh)            E(eV)
   0   2.0000     -88.976109     -2421.1630
   1   2.0000     -88.959467     -2420.7102
   2   2.0000     -19.188164      -522.1365
   3   2.0000     -14.386077      -391.4651
   4   2.0000     -14.378088      -391.2477
   5   2.0000     -10.349352      -281.6202
   6   2.0000     -10.327313      -281.0205
   7   2.0000     -10.325453      -280.9699
   8   2.0000     -10.312324      -280.6126
   9   2.0000     -10.311325      -280.5854
  10   2.0000     -10.307424      -280.4793
  11   2.0000     -10.301828      -280.3270
  12   2.0000     -10.301445      -280.3166
  13   2.0000     -10.299337      -280.2592
  14   2.0000     -10.297400      -280.2065
  15   2.0000     -10.297147      -280.1996
  16   2.0000     -10.296376      -280.1786
  17   2.0000     -10.295080      -280.1434
  18   2.0000     -10.293876      -280.1106
  19   2.0000     -10.293538      -280.1014
  20   2.0000     -10.292203      -280.0651
  21   2.0000     -10.292045      -280.0608
  22   2.0000     -10.290871      -280.0288
  23   2.0000     -10.288209      -279.9564
  24   2.0000     -10.285849      -279.8922
  25   2.0000     -10.284939      -279.8674
  26   2.0000     -10.283472      -279.8275
  27   2.0000     -10.280682      -279.7516
  28   2.0000     -10.279930      -279.7311
  29   2.0000     -10.279868      -279.7294
  30   2.0000     -10.279197      -279.7112
  31   2.0000     -10.276642      -279.6416
  32   2.0000     -10.276339      -279.6334
  33   2.0000     -10.272920      -279.5404
  34   2.0000     -10.271816      -279.5103
  35   2.0000     -10.271771      -279.5091
  36   2.0000     -10.271528      -279.5025
  37   2.0000     -10.271342      -279.4974
  38   2.0000     -10.270332      -279.4700
  39   2.0000     -10.269602      -279.4501
  40   2.0000     -10.268875      -279.4303
  41   2.0000     -10.265967      -279.3512
  42   2.0000     -10.262059      -279.2448
  43   2.0000     -10.261544      -279.2308
  44   2.0000     -10.261321      -279.2247
  45   2.0000     -10.259831      -279.1842
  46   2.0000     -10.259147      -279.1656
  47   2.0000     -10.258795      -279.1560
  48   2.0000     -10.255967      -279.0790
  49   2.0000     -10.255603      -279.0692
  50   2.0000     -10.254311      -279.0340
  51   2.0000     -10.244159      -278.7577
  52   2.0000      -8.071076      -219.6252
  53   2.0000      -8.054095      -219.1631
  54   2.0000      -6.039995      -164.3566
  55   2.0000      -6.036053      -164.2494
  56   2.0000      -6.033827      -164.1888
  57   2.0000      -6.023048      -163.8955
  58   2.0000      -6.019043      -163.7865
  59   2.0000      -6.016928      -163.7289
  60   2.0000      -1.101992       -29.9867
  61   2.0000      -1.056140       -28.7390
  62   2.0000      -1.032003       -28.0822
  63   2.0000      -1.009517       -27.4704
  64   2.0000      -0.987833       -26.8803
  65   2.0000      -0.954910       -25.9844
  66   2.0000      -0.932328       -25.3699
  67   2.0000      -0.929863       -25.3029
  68   2.0000      -0.919839       -25.0301
  69   2.0000      -0.914992       -24.8982
  70   2.0000      -0.901179       -24.5223
  71   2.0000      -0.893041       -24.3009
  72   2.0000      -0.888039       -24.1648
  73   2.0000      -0.882366       -24.0104
  74   2.0000      -0.879740       -23.9390
  75   2.0000      -0.866195       -23.5704
  76   2.0000      -0.859645       -23.3921
  77   2.0000      -0.852908       -23.2088
  78   2.0000      -0.846404       -23.0318
  79   2.0000      -0.837457       -22.7884
  80   2.0000      -0.829161       -22.5626
  81   2.0000      -0.818985       -22.2857
  82   2.0000      -0.809226       -22.0202
  83   2.0000      -0.800103       -21.7719
  84   2.0000      -0.795086       -21.6354
  85   2.0000      -0.783002       -21.3066
  86   2.0000      -0.772289       -21.0150
  87   2.0000      -0.762697       -20.7540
  88   2.0000      -0.756552       -20.5868
  89   2.0000      -0.739349       -20.1187
  90   2.0000      -0.731742       -19.9117
  91   2.0000      -0.717758       -19.5312
  92   2.0000      -0.717133       -19.5142
  93   2.0000      -0.702880       -19.1263
  94   2.0000      -0.698576       -19.0092
  95   2.0000      -0.692419       -18.8417
  96   2.0000      -0.687008       -18.6944
  97   2.0000      -0.667833       -18.1727
  98   2.0000      -0.666946       -18.1485
  99   2.0000      -0.654925       -17.8214
 100   2.0000      -0.648860       -17.6564
 101   2.0000      -0.646476       -17.5915
 102   2.0000      -0.633888       -17.2490
 103   2.0000      -0.628319       -17.0974
 104   2.0000      -0.618988       -16.8435
 105   2.0000      -0.612334       -16.6624
 106   2.0000      -0.608350       -16.5541
 107   2.0000      -0.604694       -16.4546
 108   2.0000      -0.594781       -16.1848
 109   2.0000      -0.592297       -16.1172
 110   2.0000      -0.579790       -15.7769
 111   2.0000      -0.578351       -15.7377
 112   2.0000      -0.570851       -15.5337
 113   2.0000      -0.569838       -15.5061
 114   2.0000      -0.559210       -15.2169
 115   2.0000      -0.555402       -15.1133
 116   2.0000      -0.553269       -15.0552
 117   2.0000      -0.540169       -14.6988
 118   2.0000      -0.539669       -14.6851
 119   2.0000      -0.535234       -14.5645
 120   2.0000      -0.533278       -14.5112
 121   2.0000      -0.528808       -14.3896
 122   2.0000      -0.527197       -14.3458
 123   2.0000      -0.523718       -14.2511
 124   2.0000      -0.521978       -14.2037
 125   2.0000      -0.521154       -14.1813
 126   2.0000      -0.520161       -14.1543
 127   2.0000      -0.515359       -14.0236
 128   2.0000      -0.511639       -13.9224
 129   2.0000      -0.503230       -13.6936
 130   2.0000      -0.501445       -13.6450
 131   2.0000      -0.499096       -13.5811
 132   2.0000      -0.498216       -13.5571
 133   2.0000      -0.495830       -13.4922
 134   2.0000      -0.492906       -13.4127
 135   2.0000      -0.487206       -13.2576
 136   2.0000      -0.484716       -13.1898
 137   2.0000      -0.479261       -13.0414
 138   2.0000      -0.475087       -12.9278
 139   2.0000      -0.469765       -12.7830
 140   2.0000      -0.467586       -12.7237
 141   2.0000      -0.465723       -12.6730
 142   2.0000      -0.460393       -12.5279
 143   2.0000      -0.460329       -12.5262
 144   2.0000      -0.458636       -12.4801
 145   2.0000      -0.456122       -12.4117
 146   2.0000      -0.450420       -12.2565
 147   2.0000      -0.449059       -12.2195
 148   2.0000      -0.448834       -12.2134
 149   2.0000      -0.446327       -12.1452
 150   2.0000      -0.441933       -12.0256
 151   2.0000      -0.440506       -11.9868
 152   2.0000      -0.438891       -11.9428
 153   2.0000      -0.436628       -11.8813
 154   2.0000      -0.432452       -11.7676
 155   2.0000      -0.427506       -11.6330
 156   2.0000      -0.423862       -11.5339
 157   2.0000      -0.419211       -11.4073
 158   2.0000      -0.416679       -11.3384
 159   2.0000      -0.409517       -11.1435
 160   2.0000      -0.407019       -11.0756
 161   2.0000      -0.402184       -10.9440
 162   2.0000      -0.395794       -10.7701
 163   2.0000      -0.392087       -10.6692
 164   2.0000      -0.378284       -10.2936
 165   2.0000      -0.373632       -10.1670
 166   2.0000      -0.369527       -10.0553
 167   2.0000      -0.349232        -9.5031
 168   2.0000      -0.347271        -9.4497
 169   2.0000      -0.344814        -9.3829
 170   2.0000      -0.339824        -9.2471
 171   2.0000      -0.334750        -9.1090
 172   2.0000      -0.329212        -8.9583
 173   2.0000      -0.320063        -8.7094
 174   2.0000      -0.313512        -8.5311
 175   2.0000      -0.312634        -8.5072
 176   2.0000      -0.306221        -8.3327
 177   2.0000      -0.305029        -8.3003
 178   2.0000      -0.302208        -8.2235
 179   2.0000      -0.290554        -7.9064
 180   2.0000      -0.286328        -7.7914
 181   2.0000      -0.276090        -7.5128
 182   2.0000      -0.235471        -6.4075
 183   2.0000      -0.224177        -6.1002
 184   0.0000      -0.109492        -2.9794
 185   0.0000      -0.069116        -1.8808
 186   0.0000      -0.048139        -1.3099
 187   0.0000      -0.016848        -0.4585
 188   0.0000      -0.010111        -0.2751

MULLIKEN ATOMIC CHARGES
-----------------------
   0 C :   -0.088966
   1 C :    0.007430
   2 C :   -0.021727
   3 C :    0.050196
   4 C :   -0.063109
   5 C :    0.000651
   6 C :   -0.074217
   7 S :    0.149286
   8 C :   -0.078700
   9 C :    0.151222
  10 C :    0.126886
  11 C :   -0.103794
  12 C :    0.082254
  13 C :   -0.039547
  14 C :   -0.008482
  15 C :   -0.070695
  16 C :    0.096306
  17 C :   -0.098909
  18 C :    0.029149
  19 C :   -0.088195
  20 C :    0.034942
  21 N :   -0.059434
  22 C :    0.038032
  23 C :   -0.149926
  24 C :    0.199253
  25 O :   -0.149962
  26 C :   -0.041587
  27 C :   -0.026949
  28 N :   -0.065562
  29 C :    0.075617
  30 C :   -0.098533
  31 C :    0.071797
  32 C :   -0.208832
  33 S :    0.147676
  34 C :   -0.100122
  35 C :    0.116746
  36 C :    0.168818
  37 C :   -0.060197
  38 C :    0.068431
  39 C :   -0.051615
  40 C :   -0.013775
  41 C :   -0.071644
  42 C :    0.100971
  43 C :   -0.099871
  44 C :    0.025045
  45 C :    0.000706
  46 C :   -0.038957
  47 C :   -0.010485
  48 C :    0.029203
  49 C :   -0.053882
  50 C :   -0.085331
  51 C :    0.000518
  52 H :    0.035456
  53 H :    0.031742
  54 H :    0.035218
  55 H :    0.036189
  56 H :    0.006296
  57 H :   -0.031326
  58 H :    0.001462
  59 H :    0.020660
  60 H :    0.026466
  61 H :    0.035555
  62 H :    0.019468
  63 H :    0.035167
  64 H :   -0.025971
  65 H :    0.023384
  66 H :   -0.006572
  67 H :   -0.005731
  68 H :   -0.019194
  69 H :   -0.035625
  70 H :   -0.010402
  71 H :    0.042627
  72 H :    0.013426
  73 H :    0.033830
  74 H :    0.004339
  75 H :    0.027547
  76 H :   -0.049490
  77 H :   -0.015304
  78 H :   -0.002810
  79 H :    0.013530
  80 H :    0.024277
  81 H :    0.028680
  82 H :    0.029722
  83 H :    0.029257
Sum of atomic charges:   -0.0000000

LOEWDIN ATOMIC CHARGES
----------------------
   0 C :   -0.043074
   1 C :   -0.004237
   2 C :   -0.020558
   3 C :   -0.042746
   4 C :   -0.023948
   5 C :   -0.023283
   6 C :   -0.143832
   7 S :    0.484346
   8 C :   -0.184655
   9 C :   -0.018699
  10 C :   -0.047485
  11 C :   -0.001806
  12 C :   -0.024337
  13 C :   -0.021691
  14 C :   -0.033207
  15 C :   -0.001255
  16 C :   -0.043528
  17 C :   -0.023687
  18 C :    0.042191
  19 C :   -0.082658
  20 C :    0.066628
  21 N :   -0.124608
  22 C :    0.048112
  23 C :   -0.056612
  24 C :    0.065974
  25 O :   -0.153254
  26 C :   -0.051448
  27 C :   -0.004354
  28 N :   -0.106454
  29 C :    0.049207
  30 C :   -0.051182
  31 C :   -0.042403
  32 C :   -0.179905
  33 S :    0.481496
  34 C :   -0.174969
  35 C :   -0.038435
  36 C :   -0.032070
  37 C :    0.013183
  38 C :   -0.022571
  39 C :   -0.030430
  40 C :   -0.028809
  41 C :   -0.010398
  42 C :   -0.044656
  43 C :   -0.035820
  44 C :   -0.023610
  45 C :   -0.026037
  46 C :   -0.043642
  47 C :   -0.019299
  48 C :   -0.027705
  49 C :   -0.040202
  50 C :   -0.041576
  51 C :   -0.015255
  52 H :    0.045334
  53 H :    0.029542
  54 H :    0.029098
  55 H :    0.038602
  56 H :    0.040429
  57 H :    0.027510
  58 H :    0.030149
  59 H :    0.022028
  60 H :    0.026894
  61 H :    0.038075
  62 H :    0.034319
  63 H :    0.037982
  64 H :    0.031393
  65 H :    0.046054
  66 H :    0.010301
  67 H :    0.017042
  68 H :    0.028538
  69 H :    0.029749
  70 H :    0.023740
  71 H :    0.026921
  72 H :    0.021064
  73 H :    0.037171
  74 H :    0.027838
  75 H :    0.034017
  76 H :    0.021269
  77 H :    0.032635
  78 H :    0.024532
  79 H :    0.020190
  80 H :    0.029473
  81 H :    0.042068
  82 H :    0.028772
  83 H :    0.026528

  Mayer bond orders larger than 0.100000
B(  0-C ,  1-C ) :   1.9245 B(  0-C ,  2-C ) :   1.0154 B(  0-C , 52-H ) :   0.9617
B(  1-C , 53-H ) :   0.9637 B(  1-C , 54-H ) :   0.9558 B(  2-C ,  3-C ) :   2.2836
B(  3-C ,  4-C ) :   1.0213 B(  4-C ,  5-C ) :   1.6626 B(  4-C , 55-H ) :   0.9507
B(  5-C ,  6-C ) :   1.1968 B(  5-C , 56-H ) :   0.9693 B(  6-C ,  7-S ) :   1.1698
B(  6-C , 10-C ) :   1.2782 B(  7-S ,  8-C ) :   1.0953 B(  8-C ,  9-C ) :   1.2601
B(  8-C , 18-C ) :   1.2400 B(  9-C , 10-C ) :   1.2213 B(  9-C , 17-C ) :   1.2208
B( 10-C , 11-C ) :   1.2008 B( 11-C , 12-C ) :   1.5105 B( 11-C , 57-H ) :   0.9927
B( 12-C , 13-C ) :   1.0271 B( 12-C , 15-C ) :   1.2133 B( 13-C , 14-C ) :   1.9800
B( 13-C , 58-H ) :   0.9501 B( 14-C , 59-H ) :   0.9578 B( 14-C , 60-H ) :   0.9501
B( 15-C , 16-C ) :   1.0875 B( 15-C , 17-C ) :   1.5274 B( 16-C , 61-H ) :   0.9392
B( 16-C , 62-H ) :   0.9544 B( 16-C , 63-H ) :   0.9426 B( 17-C , 64-H ) :   0.9937
B( 18-C , 19-C ) :   1.5119 B( 18-C , 65-H ) :   0.9721 B( 19-C , 20-C ) :   1.2247
B( 19-C , 66-H ) :   0.9475 B( 20-C , 21-N ) :   1.5163 B( 20-C , 22-C ) :   0.1036
B( 20-C , 31-C ) :   1.0107 B( 21-N , 22-C ) :   1.4185 B( 22-C , 23-C ) :   1.0467
B( 22-C , 27-C ) :   1.3503 B( 23-C , 24-C ) :   0.8982 B( 23-C , 31-C ) :   1.5845
B( 24-C , 25-O ) :   2.1903 B( 24-C , 26-C ) :   0.9205 B( 26-C , 27-C ) :   1.0792
B( 26-C , 30-C ) :   1.5581 B( 27-C , 28-N ) :   1.3500 B( 28-N , 29-C ) :   1.6184
B( 29-C , 30-C ) :   1.1149 B( 29-C , 67-H ) :   0.9899 B( 30-C , 68-H ) :   1.0103
B( 31-C , 32-C ) :   1.0730 B( 32-C , 33-S ) :   1.1474 B( 32-C , 34-C ) :   0.1181
B( 32-C , 36-C ) :   1.3575 B( 33-S , 34-C ) :   1.1304 B( 34-C , 35-C ) :   1.3232
B( 34-C , 44-C ) :   1.1784 B( 35-C , 36-C ) :   1.1915 B( 35-C , 43-C ) :   1.1818
B( 36-C , 37-C ) :   1.1953 B( 37-C , 38-C ) :   1.5333 B( 37-C , 69-H ) :   0.9865
B( 38-C , 39-C ) :   1.0175 B( 38-C , 41-C ) :   1.1971 B( 39-C , 40-C ) :   1.9808
B( 39-C , 70-H ) :   0.9514 B( 40-C , 71-H ) :   0.9455 B( 40-C , 72-H ) :   0.9514
B( 41-C , 42-C ) :   1.0889 B( 41-C , 43-C ) :   1.5635 B( 42-C , 73-H ) :   0.9418
B( 42-C , 74-H ) :   0.9537 B( 42-C , 75-H ) :   0.9414 B( 43-C , 76-H ) :   0.9883
B( 44-C , 45-C ) :   1.6952 B( 44-C , 77-H ) :   0.9635 B( 45-C , 46-C ) :   1.0729
B( 45-C , 78-H ) :   0.9736 B( 46-C , 47-C ) :   1.8925 B( 46-C , 48-C ) :   0.9060
B( 47-C , 79-H ) :   0.9409 B( 47-C , 80-H ) :   0.9449 B( 48-C , 49-C ) :   2.4228
B( 49-C , 50-C ) :   1.0002 B( 50-C , 51-C ) :   1.9464 B( 50-C , 81-H ) :   0.9615
B( 51-C , 82-H ) :   0.9630 B( 51-C , 83-H ) :   0.9553

-----------------------------------------------------------------------------
         ABSORPTION SPECTRUM VIA TRANSITION ELECTRIC DIPOLE MOMENTS
-----------------------------------------------------------------------------
State   Energy  Wavelength   fosc         T2         TX        TY        TZ
        (cm-1)    (nm)                  (au**2)     (au)      (au)      (au)
-----------------------------------------------------------------------------
   0   10185.4    981.8   0.051886851   1.67709   0.79278  -0.86386   0.54985
   1   13397.9    746.4   1.166130262  28.65397  -3.57306  -3.43530  -2.02135
   2   19282.2    518.6   0.529945863   9.04797  -2.63445   0.59951  -1.32222
   3   21558.3    463.9   0.036946178   0.56420  -0.69257   0.12142  -0.26418
   4   21793.0    458.9   0.060286101   0.91070   0.57745   0.08840   0.75461
   5   22517.2    444.1   0.268249702   3.92194  -1.76553   0.54603  -0.71184
   6   23392.8    427.5   0.047196985   0.66421   0.81398   0.02066   0.03504
   7   23556.7    424.5   0.000486840   0.00680  -0.06108   0.04984   0.02427
   8   25220.3    396.5   0.022690122   0.29618  -0.10162   0.41687  -0.33477
   9   25356.7    394.4   0.009875918   0.12822  -0.11096   0.29716  -0.16615
  10   25774.6    388.0   0.003278392   0.04187   0.02585   0.19977  -0.03604
  11   25995.1    384.7   0.089885506   1.13834   0.31521   0.94630  -0.37882
  12   26787.3    373.3   0.178668105   2.19580  -1.19373  -0.79887   0.36416
  13   27379.7    365.2   0.032175591   0.38688   0.52701   0.22092  -0.24563
  14   27683.0    361.2   0.121759941   1.44800  -0.99322  -0.28069  -0.61865
  15   28039.3    356.6   0.167538317   1.96709  -0.36097   1.33475  -0.23500
  16   29115.2    343.5   0.101752622   1.15054   0.67021  -0.11331   0.82977
  17   29747.1    336.2   0.051126718   0.56582  -0.74282  -0.01427   0.11760
  18   30557.0    327.3   0.006902404   0.07436  -0.19628   0.07163   0.17523
  19   31020.0    322.4   0.038375140   0.40727  -0.62827   0.10650  -0.03471
  20   31888.7    313.6   0.252966761   2.61158  -1.22486  -0.78995   0.69804
  21   32672.8    306.1   0.005669924   0.05713   0.21668   0.03907  -0.09302
  22   32937.2    303.6   0.148971898   1.48900   0.79359   0.82178   0.42881
  23   33154.2    301.6   0.307753989   3.05591   0.92002  -0.86087   1.21177
  24   33871.4    295.2   0.000370647   0.00360   0.01434  -0.03226   0.04854
  25   34216.1    292.3   0.029385007   0.28273   0.30699   0.31386   0.29996
  26   34254.6    291.9   0.053503867   0.51421   0.23145  -0.46677   0.49272
  27   34977.9    285.9   0.054511343   0.51306   0.38920  -0.42621   0.42417
  28   35288.0    283.4   0.082916299   0.77355   0.68160  -0.16854   0.52968
  29   35757.8    279.7   0.038126638   0.35102  -0.06148   0.36855  -0.45979
  30   36302.6    275.5   0.037045888   0.33595  -0.30068  -0.49403  -0.03844
  31   36662.1    272.8   0.010855877   0.09748   0.16636   0.02633   0.26289
  32   36935.5    270.7   0.034490701   0.30742   0.35186  -0.17497   0.39116
  33   37200.6    268.8   0.025210616   0.22310   0.43410  -0.07212   0.17164
  34   37270.9    268.3   0.009549186   0.08435  -0.23930  -0.10648   0.12548
  35   37411.2    267.3   0.009880133   0.08694   0.01048   0.15206  -0.25241
  36   37605.7    265.9   0.090929800   0.79603  -0.01068   0.84868  -0.27506
  37   37954.1    263.5   0.067555046   0.58597  -0.00277  -0.65897   0.38951
  38   38161.5    262.0   0.295132791   2.54605   0.00539   1.32913  -0.88286
  39   38484.9    259.8   0.292853976   2.50516  -1.35466  -0.27750   0.77010
  40   38644.5    258.8   0.274056603   2.33468  -1.48586  -0.25701  -0.24666
  41   39079.7    255.9   0.008618634   0.07260  -0.18907  -0.15368  -0.11505
  42   39302.3    254.4   0.076936034   0.64445   0.17672   0.35481  -0.69809
  43   39773.9    251.4   0.011957577   0.09897  -0.08000  -0.04597  -0.30077
  44   39952.6    250.3   0.002354902   0.01940   0.05981   0.10786   0.06475

FINAL SINGLE POINT ENERGY     -2788.235409216278

DIPOLE MOMENT
-------------
                                X             Y             Z
Electronic contribution:     19.98035       9.95285      11.80718
Nuclear contribution   :    -22.27584     -12.34374     -12.96961
                        -----------------------------------------
Total Dipole Moment    :     -2.29549      -2.39089      -1.16243
                        -----------------------------------------
Magnitude (a.u.)       :      3.51239
Magnitude (Debye)      :      8.92779

Rotational constants in cm-1:     0.001504     0.000977     0.000704
Rotational constants in MHz :    45.081724    29.281623    21.100444

                             ****ORCA TERMINATED NORMALLY****
TOTAL RUN TIME: 0 days 0 hours 5 minutes 58 seconds 78 msec
