                         Program Version 4.2.0 -  RELEASE  -
|  1> # ORCA input file
|  2> # SCF done       -178.285207616026          0.000556568458
|  3> ! CAM-B3LYP def2-SVP def2/J RIJCOSX Grid4 TightSCF
|  4> %maxcore 5000
|  5> %tddft
|  6>     Mode sTDDFT
|  7>     Ethresh 5.0
|  8>     maxcore 5000
|  9> end
| 10>
| 11> %pal
| 12>   nprocs 6
| 13>   end
| 14> * xyz 0 1
| 15>    C       -2.59306        -4.16382        -3.08830
| 16>    C       -2.59959        -3.26141        -2.06235
| 17>    O       -1.37947        -3.07920        -1.56503
| 18>    C       -0.54970        -3.87261        -2.26976
| 19>    N        0.80322        -3.92777        -1.90424
| 20>    O        1.50843        -4.72952        -2.50549
| 21>    O        1.19427        -3.19201        -1.02610
| 22>    C       -1.24909        -4.57772        -3.24072
| 23>    C       -0.67904        -5.50930        -4.18862
| 24>    C       -0.89641        -6.86679        -4.27103
| 25>    N       -1.78812        -7.62337        -3.48478
| 26>    O       -1.85768        -8.81710        -3.70744
| 27>    O       -2.43061        -7.04067        -2.62726
| 28>    C       -0.00788        -7.43714        -5.25734
| 29>    C        0.78535        -6.44971        -5.73110
| 30>    C        0.40189        -5.20201        -5.10488
| 31>    C        0.87935        -3.94058        -5.40602
| 32>    C        0.16081        -2.71467        -5.37395
| 33>    C        0.88389        -1.76764        -6.04705
| 34>    C        2.13110        -2.33177        -6.45528
| 35>    N        3.15137        -1.58363        -7.06916
| 36>    O        4.24492        -2.10250        -7.21521
| 37>    O        2.87623        -0.44855        -7.41865
| 38>    C        2.18932        -3.65995        -6.03339
| 39>    C        3.29238        -4.52520        -6.00168
| 40>    C        3.43774        -5.47497        -5.01860
| 41>    C        4.52280        -6.36090        -4.95500
| 42>    N        4.80196        -7.15468        -3.86439
| 43>    C        4.01863        -7.24169        -2.65111
| 44>    C        2.85079        -8.21101        -2.80864
| 45>    C        5.94424        -7.92911        -4.05960
| 46>    O        6.38025        -8.71740        -3.23664
| 47>    C        6.40858        -7.57543        -5.38640
| 48>    C        5.51070        -6.62940        -5.91364
| 49>    C        5.89683        -6.35754        -7.28455
| 50>    O        5.40688        -5.66272        -8.14316
| 51>    N        7.03664        -7.17307        -7.48932
| 52>    C        7.76954        -7.11134        -8.73273
| 53>    C        9.04601        -6.28697        -8.59945
| 54>    C        7.35819        -7.88885        -6.37542
| 55>    C        8.43655        -8.81406        -6.31390
| 56>    C        8.86814        -9.32279        -5.13786
| 57>    C        9.89549       -10.32294        -4.95866
| 58>    C       10.99035       -10.49820        -5.82249
| 59>    C       11.48192        -9.70922        -6.98169
| 60>    O       11.03308        -8.71701        -7.48872
| 61>    O       12.62036       -10.27600        -7.43187
| 62>    C       12.98446       -11.40382        -6.66052
| 63>    C       11.93138       -11.50187        -5.60740
| 64>    C       11.82839       -12.37946        -4.54548
| 65>    C       10.77903       -12.19801        -3.66637
| 66>    C        9.82904       -11.18427        -3.83131
| 67>    C        8.76115       -11.05181        -2.85035
| 68>    C        8.89641       -11.36193        -1.55316
| 69>    C        7.85424       -11.18949        -0.57129
| 70>    C        6.64587       -10.52695        -0.69958
| 71>    O        5.95453       -10.56572         0.43286
| 72>    C        6.69343       -11.25589         1.32350
| 73>    N        6.18982       -11.45365         2.63027
| 74>    O        6.90163       -12.08088         3.39146
| 75>    O        5.10239       -10.99232         2.89727
| 76>    C        7.87930       -11.66206         0.76454
| 77>    H       -3.43058        -4.50428        -3.65965
| 78>    H       -3.40163        -2.70659        -1.61571
| 79>    H       -0.01721        -8.47456        -5.53033
| 80>    H        1.51305        -6.52820        -6.51478
| 81>    H       -0.83724        -2.59643        -4.99787
| 82>    H        0.59891        -0.75149        -6.24697
| 83>    H        4.08567        -4.35435        -6.72055
| 84>    H        2.73221        -5.48821        -4.20035
| 85>    H        3.65336        -6.24948        -2.38112
| 86>    H        4.69334        -7.59739        -1.86812
| 87>    H        2.17348        -7.87375        -3.58980
| 88>    H        2.30071        -8.27064        -1.87447
| 89>    H        3.21290        -9.20448        -3.06342
| 90>    H        7.09329        -6.63947        -9.45122
| 91>    H        8.00171        -8.12331        -9.07363
| 92>    H        8.81479        -5.30124        -8.20293
| 93>    H        9.50096        -6.16813        -9.57828
| 94>    H        9.76041        -6.78043        -7.94673
| 95>    H        8.90005        -9.09255        -7.24591
| 96>    H        8.37714        -8.98877        -4.23518
| 97>    H       13.98493       -11.24020        -6.24515
| 98>    H       13.01818       -12.28558        -7.31071
| 99>    H       12.54808       -13.16992        -4.40270
|100>    H       10.67497       -12.87298        -2.83153
|101>    H        7.81666       -10.65431        -3.18581
|102>    H        9.83023       -11.74284        -1.16296
|103>    H        6.23043        -9.98251        -1.52644
|104>    H        8.64849       -12.22330         1.25368
|105> *
|106>
|107>                          ****END OF INPUT****

CARTESIAN COORDINATES (ANGSTROEM)
---------------------------------
  C     -2.593060   -4.163820   -3.088300
  C     -2.599590   -3.261410   -2.062350
  O     -1.379470   -3.079200   -1.565030
  C     -0.549700   -3.872610   -2.269760
  N      0.803220   -3.927770   -1.904240
  O      1.508430   -4.729520   -2.505490
  O      1.194270   -3.192010   -1.026100
  C     -1.249090   -4.577720   -3.240720
  C     -0.679040   -5.509300   -4.188620
  C     -0.896410   -6.866790   -4.271030
  N     -1.788120   -7.623370   -3.484780
  O     -1.857680   -8.817100   -3.707440
  O     -2.430610   -7.040670   -2.627260
  C     -0.007880   -7.437140   -5.257340
  C      0.785350   -6.449710   -5.731100
  C      0.401890   -5.202010   -5.104880
  C      0.879350   -3.940580   -5.406020
  C      0.160810   -2.714670   -5.373950
  C      0.883890   -1.767640   -6.047050
  C      2.131100   -2.331770   -6.455280
  N      3.151370   -1.583630   -7.069160
  O      4.244920   -2.102500   -7.215210
  O      2.876230   -0.448550   -7.418650
  C      2.189320   -3.659950   -6.033390
  C      3.292380   -4.525200   -6.001680
  C      3.437740   -5.474970   -5.018600
  C      4.522800   -6.360900   -4.955000
  N      4.801960   -7.154680   -3.864390
  C      4.018630   -7.241690   -2.651110
  C      2.850790   -8.211010   -2.808640
  C      5.944240   -7.929110   -4.059600
  O      6.380250   -8.717400   -3.236640
  C      6.408580   -7.575430   -5.386400
  C      5.510700   -6.629400   -5.913640
  C      5.896830   -6.357540   -7.284550
  O      5.406880   -5.662720   -8.143160
  N      7.036640   -7.173070   -7.489320
  C      7.769540   -7.111340   -8.732730
  C      9.046010   -6.286970   -8.599450
  C      7.358190   -7.888850   -6.375420
  C      8.436550   -8.814060   -6.313900
  C      8.868140   -9.322790   -5.137860
  C      9.895490  -10.322940   -4.958660
  C     10.990350  -10.498200   -5.822490
  C     11.481920   -9.709220   -6.981690
  O     11.033080   -8.717010   -7.488720
  O     12.620360  -10.276000   -7.431870
  C     12.984460  -11.403820   -6.660520
  C     11.931380  -11.501870   -5.607400
  C     11.828390  -12.379460   -4.545480
  C     10.779030  -12.198010   -3.666370
  C      9.829040  -11.184270   -3.831310
  C      8.761150  -11.051810   -2.850350
  C      8.896410  -11.361930   -1.553160
  C      7.854240  -11.189490   -0.571290
  C      6.645870  -10.526950   -0.699580
  O      5.954530  -10.565720    0.432860
  C      6.693430  -11.255890    1.323500
  N      6.189820  -11.453650    2.630270
  O      6.901630  -12.080880    3.391460
  O      5.102390  -10.992320    2.897270
  C      7.879300  -11.662060    0.764540
  H     -3.430580   -4.504280   -3.659650
  H     -3.401630   -2.706590   -1.615710
  H     -0.017210   -8.474560   -5.530330
  H      1.513050   -6.528200   -6.514780
  H     -0.837240   -2.596430   -4.997870
  H      0.598910   -0.751490   -6.246970
  H      4.085670   -4.354350   -6.720550
  H      2.732210   -5.488210   -4.200350
  H      3.653360   -6.249480   -2.381120
  H      4.693340   -7.597390   -1.868120
  H      2.173480   -7.873750   -3.589800
  H      2.300710   -8.270640   -1.874470
  H      3.212900   -9.204480   -3.063420
  H      7.093290   -6.639470   -9.451220
  H      8.001710   -8.123310   -9.073630
  H      8.814790   -5.301240   -8.202930
  H      9.500960   -6.168130   -9.578280
  H      9.760410   -6.780430   -7.946730
  H      8.900050   -9.092550   -7.245910
  H      8.377140   -8.988770   -4.235180
  H     13.984930  -11.240200   -6.245150
  H     13.018180  -12.285580   -7.310710
  H     12.548080  -13.169920   -4.402700
  H     10.674970  -12.872980   -2.831530
  H      7.816660  -10.654310   -3.185810
  H      9.830230  -11.742840   -1.162960
  H      6.230430   -9.982510   -1.526440
  H      8.648490  -12.223300    1.253680

 Total Charge           Charge          ....    0
 Multiplicity           Mult            ....    1
 Number of Electrons    NEL             ....  434
 Basis Dimension        Dim             .... 1008

ORBITAL ENERGIES
----------------

  NO   OCC          E(Eh)            E(eV)
   0   2.0000     -19.331515      -526.0373
   1   2.0000     -19.317405      -525.6533
   2   2.0000     -19.273366      -524.4549
   3   2.0000     -19.258204      -524.0424
   4   2.0000     -19.256331      -523.9914
   5   2.0000     -19.247768      -523.7584
   6   2.0000     -19.245075      -523.6851
   7   2.0000     -19.234560      -523.3990
   8   2.0000     -19.232812      -523.3514
   9   2.0000     -19.226510      -523.1799
  10   2.0000     -19.226455      -523.1784
  11   2.0000     -19.213455      -522.8247
  12   2.0000     -19.211326      -522.7668
  13   2.0000     -19.203060      -522.5418
  14   2.0000     -14.670696      -399.2099
  15   2.0000     -14.654727      -398.7754
  16   2.0000     -14.647688      -398.5838
  17   2.0000     -14.636444      -398.2779
  18   2.0000     -14.467593      -393.6832
  19   2.0000     -14.462541      -393.5458
  20   2.0000     -10.415811      -283.4286
  21   2.0000     -10.390228      -282.7325
  22   2.0000     -10.389564      -282.7144
  23   2.0000     -10.386114      -282.6205
  24   2.0000     -10.370363      -282.1919
  25   2.0000     -10.363507      -282.0054
  26   2.0000     -10.359130      -281.8863
  27   2.0000     -10.355047      -281.7752
  28   2.0000     -10.342699      -281.4392
  29   2.0000     -10.340838      -281.3885
  30   2.0000     -10.340220      -281.3717
  31   2.0000     -10.333285      -281.1830
  32   2.0000     -10.330676      -281.1120
  33   2.0000     -10.326143      -280.9886
  34   2.0000     -10.323385      -280.9136
  35   2.0000     -10.320411      -280.8327
  36   2.0000     -10.319186      -280.7993
  37   2.0000     -10.316753      -280.7331
  38   2.0000     -10.310420      -280.5608
  39   2.0000     -10.309376      -280.5324
  40   2.0000     -10.308715      -280.5144
  41   2.0000     -10.308487      -280.5082
  42   2.0000     -10.306894      -280.4648
  43   2.0000     -10.306299      -280.4487
  44   2.0000     -10.305137      -280.4170
  45   2.0000     -10.304793      -280.4077
  46   2.0000     -10.303725      -280.3786
  47   2.0000     -10.302948      -280.3575
  48   2.0000     -10.302035      -280.3326
  49   2.0000     -10.300781      -280.2985
  50   2.0000     -10.300704      -280.2964
  51   2.0000     -10.298313      -280.2313
  52   2.0000     -10.294697      -280.1330
  53   2.0000     -10.293676      -280.1052
  54   2.0000     -10.292655      -280.0774
  55   2.0000     -10.291790      -280.0538
  56   2.0000     -10.286119      -279.8995
  57   2.0000     -10.284415      -279.8532
  58   2.0000     -10.281040      -279.7613
  59   2.0000     -10.274565      -279.5851
  60   2.0000     -10.261600      -279.2323
  61   2.0000     -10.253014      -278.9987
  62   2.0000      -1.340394       -36.4740
  63   2.0000      -1.325943       -36.0808
  64   2.0000      -1.318955       -35.8906
  65   2.0000      -1.306365       -35.5480
  66   2.0000      -1.253647       -34.1135
  67   2.0000      -1.238043       -33.6889
  68   2.0000      -1.210585       -32.9417
  69   2.0000      -1.155374       -31.4393
  70   2.0000      -1.149693       -31.2847
  71   2.0000      -1.143734       -31.1226
  72   2.0000      -1.140400       -31.0319
  73   2.0000      -1.135348       -30.8944
  74   2.0000      -1.123904       -30.5830
  75   2.0000      -1.120320       -30.4854
  76   2.0000      -1.078879       -29.3578
  77   2.0000      -1.067404       -29.0455
  78   2.0000      -1.021588       -27.7988
  79   2.0000      -1.000075       -27.2134
  80   2.0000      -0.992548       -27.0086
  81   2.0000      -0.949894       -25.8479
  82   2.0000      -0.939043       -25.5527
  83   2.0000      -0.938087       -25.5266
  84   2.0000      -0.927514       -25.2390
  85   2.0000      -0.925363       -25.1804
  86   2.0000      -0.919857       -25.0306
  87   2.0000      -0.917372       -24.9629
  88   2.0000      -0.909798       -24.7569
  89   2.0000      -0.903217       -24.5778
  90   2.0000      -0.881378       -23.9835
  91   2.0000      -0.879493       -23.9322
  92   2.0000      -0.869943       -23.6724
  93   2.0000      -0.854476       -23.2515
  94   2.0000      -0.848635       -23.0925
  95   2.0000      -0.841747       -22.9051
  96   2.0000      -0.828543       -22.5458
  97   2.0000      -0.822840       -22.3906
  98   2.0000      -0.809893       -22.0383
  99   2.0000      -0.798330       -21.7237
 100   2.0000      -0.793784       -21.6000
 101   2.0000      -0.781493       -21.2655
 102   2.0000      -0.767775       -20.8922
 103   2.0000      -0.762008       -20.7353
 104   2.0000      -0.750127       -20.4120
 105   2.0000      -0.742913       -20.2157
 106   2.0000      -0.732400       -19.9296
 107   2.0000      -0.729694       -19.8560
 108   2.0000      -0.720586       -19.6082
 109   2.0000      -0.711339       -19.3565
 110   2.0000      -0.700968       -19.0743
 111   2.0000      -0.696373       -18.9493
 112   2.0000      -0.691315       -18.8116
 113   2.0000      -0.686842       -18.6899
 114   2.0000      -0.681169       -18.5356
 115   2.0000      -0.671968       -18.2852
 116   2.0000      -0.664094       -18.0709
 117   2.0000      -0.657645       -17.8954
 118   2.0000      -0.656098       -17.8533
 119   2.0000      -0.650085       -17.6897
 120   2.0000      -0.643473       -17.5098
 121   2.0000      -0.636601       -17.3228
 122   2.0000      -0.636047       -17.3077
 123   2.0000      -0.635908       -17.3039
 124   2.0000      -0.634503       -17.2657
 125   2.0000      -0.633562       -17.2401
 126   2.0000      -0.623441       -16.9647
 127   2.0000      -0.619827       -16.8664
 128   2.0000      -0.617975       -16.8159
 129   2.0000      -0.615237       -16.7414
 130   2.0000      -0.609714       -16.5912
 131   2.0000      -0.607999       -16.5445
 132   2.0000      -0.603231       -16.4147
 133   2.0000      -0.601424       -16.3656
 134   2.0000      -0.598262       -16.2795
 135   2.0000      -0.594912       -16.1884
 136   2.0000      -0.592637       -16.1265
 137   2.0000      -0.587835       -15.9958
 138   2.0000      -0.582457       -15.8495
 139   2.0000      -0.580959       -15.8087
 140   2.0000      -0.579701       -15.7745
 141   2.0000      -0.577349       -15.7105
 142   2.0000      -0.576172       -15.6784
 143   2.0000      -0.573461       -15.6047
 144   2.0000      -0.570454       -15.5228
 145   2.0000      -0.568282       -15.4637
 146   2.0000      -0.561966       -15.2919
 147   2.0000      -0.553120       -15.0512
 148   2.0000      -0.546037       -14.8584
 149   2.0000      -0.544325       -14.8118
 150   2.0000      -0.540601       -14.7105
 151   2.0000      -0.537300       -14.6207
 152   2.0000      -0.536016       -14.5857
 153   2.0000      -0.534348       -14.5403
 154   2.0000      -0.531983       -14.4760
 155   2.0000      -0.530052       -14.4234
 156   2.0000      -0.526530       -14.3276
 157   2.0000      -0.520095       -14.1525
 158   2.0000      -0.517481       -14.0814
 159   2.0000      -0.513209       -13.9651
 160   2.0000      -0.511352       -13.9146
 161   2.0000      -0.508259       -13.8304
 162   2.0000      -0.506979       -13.7956
 163   2.0000      -0.504865       -13.7381
 164   2.0000      -0.504521       -13.7287
 165   2.0000      -0.501909       -13.6576
 166   2.0000      -0.499930       -13.6038
 167   2.0000      -0.489472       -13.3192
 168   2.0000      -0.488558       -13.2943
 169   2.0000      -0.485643       -13.2150
 170   2.0000      -0.481468       -13.1014
 171   2.0000      -0.477408       -12.9909
 172   2.0000      -0.473803       -12.8928
 173   2.0000      -0.471409       -12.8277
 174   2.0000      -0.468559       -12.7501
 175   2.0000      -0.467721       -12.7273
 176   2.0000      -0.467223       -12.7138
 177   2.0000      -0.459858       -12.5134
 178   2.0000      -0.455922       -12.4063
 179   2.0000      -0.451548       -12.2872
 180   2.0000      -0.449385       -12.2284
 181   2.0000      -0.445690       -12.1278
 182   2.0000      -0.440913       -11.9978
 183   2.0000      -0.437871       -11.9151
 184   2.0000      -0.434026       -11.8104
 185   2.0000      -0.427253       -11.6261
 186   2.0000      -0.424052       -11.5390
 187   2.0000      -0.421267       -11.4633
 188   2.0000      -0.408066       -11.1040
 189   2.0000      -0.403738       -10.9863
 190   2.0000      -0.396677       -10.7941
 191   2.0000      -0.391635       -10.6569
 192   2.0000      -0.388165       -10.5625
 193   2.0000      -0.387164       -10.5353
 194   2.0000      -0.385207       -10.4820
 195   2.0000      -0.384122       -10.4525
 196   2.0000      -0.381970       -10.3939
 197   2.0000      -0.380482       -10.3534
 198   2.0000      -0.373625       -10.1669
 199   2.0000      -0.371183       -10.1004
 200   2.0000      -0.367314        -9.9951
 201   2.0000      -0.366557        -9.9745
 202   2.0000      -0.364148        -9.9090
 203   2.0000      -0.363596        -9.8939
 204   2.0000      -0.363141        -9.8816
 205   2.0000      -0.361804        -9.8452
 206   2.0000      -0.354115        -9.6360
 207   2.0000      -0.347218        -9.4483
 208   2.0000      -0.342638        -9.3237
 209   2.0000      -0.339825        -9.2471
 210   2.0000      -0.335524        -9.1301
 211   2.0000      -0.327167        -8.9027
 212   2.0000      -0.325980        -8.8704
 213   2.0000      -0.318872        -8.6769
 214   2.0000      -0.299499        -8.1498
 215   2.0000      -0.286679        -7.8009
 216   2.0000      -0.245063        -6.6685
 217   0.0000      -0.137749        -3.7484
 218   0.0000      -0.091520        -2.4904
 219   0.0000      -0.069049        -1.8789
 220   0.0000      -0.048244        -1.3128
 221   0.0000      -0.041946        -1.1414

MULLIKEN ATOMIC CHARGES
-----------------------
   0 C :    0.021940
   1 C :    0.156684
   2 O :   -0.137181
   3 C :    0.141910
   4 N :    0.299619
   5 O :   -0.271613
   6 O :   -0.219301
   7 C :   -0.055677
   8 C :    0.038971
   9 C :    0.090838
  10 N :    0.264259
  11 O :   -0.235117
  12 O :   -0.244921
  13 C :    0.011066
  14 C :    0.014448
  15 C :    0.030782
  16 C :    0.016557
  17 C :   -0.010155
  18 C :    0.033584
  19 C :    0.086697
  20 N :    0.272009
  21 O :   -0.250036
  22 O :   -0.257901
  23 C :    0.033710
  24 C :   -0.020855
  25 C :   -0.035549
  26 C :    0.125022
  27 N :   -0.248460
  28 C :    0.093071
  29 C :    0.016124
  30 C :    0.175026
  31 O :   -0.236077
  32 C :   -0.071461
  33 C :   -0.051123
  34 C :    0.158556
  35 O :   -0.162925
  36 N :   -0.253431
  37 C :    0.092859
  38 C :   -0.000795
  39 C :    0.117917
  40 C :    0.034278
  41 C :   -0.043842
  42 C :    0.064218
  43 C :   -0.072840
  44 C :    0.211331
  45 O :   -0.165189
  46 O :   -0.274905
  47 C :    0.325312
  48 C :   -0.113963
  49 C :   -0.015593
  50 C :   -0.023453
  51 C :    0.073637
  52 C :   -0.026180
  53 C :    0.031139
  54 C :    0.037583
  55 C :    0.123600
  56 O :   -0.132926
  57 C :    0.200953
  58 N :    0.278901
  59 O :   -0.259240
  60 O :   -0.239910
  61 C :   -0.079961
  62 H :   -0.000365
  63 H :    0.032973
  64 H :   -0.001922
  65 H :    0.007431
  66 H :   -0.013245
  67 H :    0.007801
  68 H :    0.046364
  69 H :    0.030908
  70 H :    0.041061
  71 H :    0.035029
  72 H :    0.010483
  73 H :    0.030436
  74 H :    0.019380
  75 H :    0.045104
  76 H :    0.028500
  77 H :    0.020696
  78 H :    0.023472
  79 H :    0.042360
  80 H :   -0.004148
  81 H :    0.040512
  82 H :    0.046547
  83 H :    0.048202
  84 H :   -0.015519
  85 H :   -0.006710
  86 H :    0.020796
  87 H :   -0.012918
  88 H :    0.010642
  89 H :    0.004108
Sum of atomic charges:   -0.0000000

LOEWDIN ATOMIC CHARGES
----------------------
   0 C :   -0.043877
   1 C :    0.078120
   2 O :    0.053259
   3 C :   -0.005225
   4 N :    0.284004
   5 O :   -0.229071
   6 O :   -0.179929
   7 C :   -0.019054
   8 C :   -0.013328
   9 C :   -0.019421
  10 N :    0.282801
  11 O :   -0.199545
  12 O :   -0.208870
  13 C :   -0.020811
  14 C :   -0.019170
  15 C :    0.025330
  16 C :    0.054925
  17 C :   -0.064904
  18 C :    0.043007
  19 C :   -0.065292
  20 N :    0.284023
  21 O :   -0.213512
  22 O :   -0.222458
  23 C :    0.017245
  24 C :    0.024042
  25 C :    0.002724
  26 C :    0.052533
  27 N :    0.010960
  28 C :    0.039021
  29 C :   -0.061243
  30 C :    0.084098
  31 O :   -0.224045
  32 C :   -0.127387
  33 C :   -0.089381
  34 C :    0.087178
  35 O :   -0.156439
  36 N :    0.009450
  37 C :    0.037934
  38 C :   -0.061519
  39 C :    0.102138
  40 C :   -0.023401
  41 C :    0.038135
  42 C :   -0.003490
  43 C :   -0.069503
  44 C :    0.092206
  45 O :   -0.156972
  46 O :   -0.076072
  47 C :    0.100981
  48 C :   -0.024481
  49 C :   -0.018396
  50 C :    0.009775
  51 C :   -0.003350
  52 C :   -0.018268
  53 C :   -0.005237
  54 C :   -0.080898
  55 C :    0.085129
  56 O :    0.056775
  57 C :   -0.009555
  58 N :    0.272086
  59 O :   -0.218795
  60 O :   -0.200639
  61 C :   -0.014659
  62 H :    0.040289
  63 H :    0.035478
  64 H :    0.036428
  65 H :    0.034438
  66 H :    0.028001
  67 H :    0.040460
  68 H :    0.045459
  69 H :    0.035944
  70 H :    0.029514
  71 H :    0.033796
  72 H :    0.021903
  73 H :    0.034540
  74 H :    0.027248
  75 H :    0.036980
  76 H :    0.025916
  77 H :    0.028302
  78 H :    0.032879
  79 H :    0.027638
  80 H :    0.032831
  81 H :    0.040657
  82 H :    0.038424
  83 H :    0.038490
  84 H :    0.033801
  85 H :    0.033765
  86 H :    0.032704
  87 H :    0.028328
  88 H :    0.023616
  89 H :    0.042490

  Mayer bond orders larger than 0.100000
B(  0-C ,  1-C ) :   1.4905 B(  0-C ,  7-C ) :   1.2933 B(  0-C , 62-H ) :   1.0179
B(  1-C ,  2-O ) :   1.1704 B(  1-C , 63-H ) :   1.0058 B(  2-O ,  3-C ) :   1.1810
B(  3-C ,  4-N ) :   0.9647 B(  3-C ,  7-C ) :   1.4813 B(  4-N ,  5-O ) :   1.4411
B(  4-N ,  6-O ) :   1.5135 B(  5-O ,  6-O ) :   0.2520 B(  7-C ,  8-C ) :   0.9372
B(  8-C ,  9-C ) :   1.6202 B(  8-C , 15-C ) :   1.1195 B(  9-C , 10-N ) :   0.9247
B(  9-C , 13-C ) :   1.1315 B( 10-N , 11-O ) :   1.5370 B( 10-N , 12-O ) :   1.5088
B( 11-O , 12-O ) :   0.2721 B( 13-C , 14-C ) :   1.5824 B( 13-C , 64-H ) :   1.0155
B( 14-C , 15-C ) :   1.1193 B( 14-C , 65-H ) :   0.9939 B( 15-C , 16-C ) :   1.4349
B( 16-C , 17-C ) :   1.1977 B( 16-C , 23-C ) :   0.9949 B( 17-C , 18-C ) :   1.4944
B( 17-C , 66-H ) :   1.0091 B( 18-C , 19-C ) :   1.1683 B( 18-C , 67-H ) :   1.0104
B( 19-C , 20-N ) :   0.9540 B( 19-C , 23-C ) :   1.4434 B( 20-N , 21-O ) :   1.5020
B( 20-N , 22-O ) :   1.5198 B( 21-O , 22-O ) :   0.2573 B( 23-C , 24-C ) :   1.2459
B( 24-C , 25-C ) :   1.4568 B( 24-C , 68-H ) :   0.9431 B( 25-C , 26-C ) :   1.2279
B( 25-C , 69-H ) :   0.9307 B( 26-C , 27-N ) :   1.1456 B( 26-C , 33-C ) :   1.3143
B( 27-N , 28-C ) :   0.9313 B( 27-N , 30-C ) :   1.1042 B( 28-C , 29-C ) :   1.1233
B( 28-C , 70-H ) :   0.9405 B( 28-C , 71-H ) :   0.9335 B( 29-C , 72-H ) :   0.9655
B( 29-C , 73-H ) :   0.9646 B( 29-C , 74-H ) :   0.9606 B( 30-C , 31-O ) :   1.9298
B( 30-C , 32-C ) :   1.0078 B( 31-O , 88-H ) :   0.1010 B( 32-C , 33-C ) :   1.2930
B( 32-C , 39-C ) :   1.2647 B( 33-C , 34-C ) :   0.9638 B( 34-C , 35-O ) :   2.1126
B( 34-C , 36-N ) :   1.0261 B( 36-N , 37-C ) :   0.9323 B( 36-N , 39-C ) :   1.2125
B( 37-C , 38-C ) :   1.1239 B( 37-C , 75-H ) :   0.9287 B( 37-C , 76-H ) :   0.9479
B( 38-C , 77-H ) :   0.9616 B( 38-C , 78-H ) :   0.9656 B( 38-C , 79-H ) :   0.9580
B( 39-C , 40-C ) :   1.1697 B( 40-C , 41-C ) :   1.6604 B( 40-C , 80-H ) :   0.9432
B( 41-C , 42-C ) :   1.0809 B( 41-C , 81-H ) :   0.9434 B( 42-C , 43-C ) :   1.2995
B( 42-C , 51-C ) :   1.3453 B( 43-C , 44-C ) :   0.9105 B( 43-C , 48-C ) :   1.4338
B( 44-C , 45-O ) :   2.1202 B( 44-C , 46-O ) :   1.1493 B( 46-O , 47-C ) :   0.9719
B( 47-C , 48-C ) :   1.0106 B( 47-C , 82-H ) :   0.9279 B( 47-C , 83-H ) :   0.9257
B( 48-C , 49-C ) :   1.3448 B( 49-C , 50-C ) :   1.3815 B( 49-C , 84-H ) :   1.0077
B( 50-C , 51-C ) :   1.3481 B( 50-C , 85-H ) :   0.9895 B( 51-C , 52-C ) :   1.0471
B( 52-C , 53-C ) :   1.7868 B( 52-C , 86-H ) :   0.9466 B( 53-C , 54-C ) :   1.0669
B( 53-C , 87-H ) :   0.9717 B( 54-C , 55-C ) :   1.4689 B( 54-C , 61-C ) :   1.1968
B( 55-C , 56-O ) :   1.1950 B( 55-C , 57-C ) :   0.1007 B( 55-C , 88-H ) :   0.9767
B( 56-O , 57-C ) :   1.1684 B( 57-C , 58-N ) :   0.9254 B( 57-C , 61-C ) :   1.4974
B( 58-N , 59-O ) :   1.5286 B( 58-N , 60-O ) :   1.5088 B( 59-O , 60-O ) :   0.2717
B( 61-C , 89-H ) :   1.0230

-----------------------------------------------------------------------------
         ABSORPTION SPECTRUM VIA TRANSITION ELECTRIC DIPOLE MOMENTS
-----------------------------------------------------------------------------
State   Energy  Wavelength   fosc         T2         TX        TY        TZ
        (cm-1)    (nm)                  (au**2)     (au)      (au)      (au)
-----------------------------------------------------------------------------
   0    7272.9   1375.0   0.241777929  10.94425  -2.96414   1.42720   0.34812
   1   15681.6    637.7   0.104820038   2.20055  -1.04070   1.05197  -0.10411
   2   17189.2    581.8   0.184838820   3.54008   1.24237  -1.40731  -0.12684
   3   19055.6    524.8   0.003997120   0.06906  -0.19601  -0.08325  -0.15396
   4   20645.8    484.4   0.064197644   1.02368   0.15036  -0.50737   0.86235
   5   22065.7    453.2   0.017597038   0.26254   0.26805   0.01918  -0.43626
   6   23013.7    434.5   0.003225001   0.04613   0.13126  -0.15023  -0.07960
   7   24855.1    402.3   0.043660454   0.57829   0.56516   0.50880   0.00350
   8   25321.0    394.9   0.023018971   0.29928   0.24511   0.37156  -0.31803
   9   25483.1    392.4   0.003140924   0.04058  -0.18968   0.06781  -0.00090
  10   25917.7    385.8   0.002377234   0.03020   0.15996   0.01284  -0.06666
  11   26903.3    371.7   0.153591965   1.87948   0.86807   1.01032  -0.32432
  12   27180.0    367.9   0.002635793   0.03193  -0.08374   0.08862  -0.13061
  13   27435.8    364.5   0.051906629   0.62285  -0.32040   0.02698  -0.72074
  14   28069.3    356.3   0.356283620   4.17868  -0.77007   1.59170  -1.02575
  15   28346.5    352.8   0.136633803   1.58685   1.14795   0.08931  -0.51097
  16   29614.6    337.7   0.001225678   0.01363   0.03395   0.05839  -0.09520
  17   30379.8    329.2   0.032254124   0.34952   0.33332  -0.06478  -0.48397
  18   30505.0    327.8   0.078718498   0.84954   0.40944  -0.78748  -0.24853
  19   30632.4    326.5   0.088844563   0.95483   0.03909   0.97107  -0.10156
  20   30698.8    325.7   0.021225944   0.22763  -0.10592  -0.42437   0.19056
  21   30947.2    323.1   0.114363619   1.21659  -0.41987  -0.93313   0.41179
  22   31431.7    318.2   0.027547820   0.28853  -0.14052  -0.48197  -0.19104
  23   31538.9    317.1   0.006844501   0.07144  -0.09528  -0.11501  -0.22167
  24   31987.3    312.6   0.051439971   0.52942   0.12336  -0.07355  -0.71330
  25   32381.7    308.8   0.074388785   0.75628  -0.02240  -0.72301   0.48274
  26   32540.4    307.3   0.053439900   0.54065   0.36718   0.10785  -0.62786
  27   32876.1    304.2   0.295228866   2.95634  -0.61655  -1.19979   1.06616
  28   32971.1    303.3   0.193300460   1.93008   0.01753  -1.06199   0.89552
  29   33364.6    299.7   0.032332615   0.31903   0.42132   0.28602  -0.24435
  30   34100.3    293.3   0.041641252   0.40201  -0.24683   0.30456  -0.49833
  31   34112.3    293.1   0.000349153   0.00337  -0.00077  -0.00845   0.05742
  32   34459.3    290.2   0.042989319   0.41070   0.16586  -0.57584   0.22717
  33   34766.2    287.6   0.026804494   0.25382  -0.28528  -0.26788  -0.31729
  34   34893.0    286.6   0.012849193   0.12123   0.25312  -0.20517  -0.12274
  35   35346.7    282.9   0.369504797   3.44150  -0.82655  -0.03975   1.66034
  36   35569.2    281.1   0.052960217   0.49017  -0.24959  -0.64397   0.11484
  37   35841.7    279.0   0.017852834   0.16398   0.29014  -0.23150   0.16188
  38   36017.1    277.6   0.014826419   0.13552   0.30093  -0.21135   0.01716
  39   36156.0    276.6   0.037334184   0.33994  -0.38665   0.17825  -0.39834
  40   36171.4    276.5   0.032173279   0.29282   0.36839  -0.39480   0.03526
  41   36329.2    275.3   0.094261846   0.85419  -0.57645   0.58750  -0.42040
  42   36604.8    273.2   0.011436534   0.10286  -0.04874   0.29573  -0.11412
  43   37249.3    268.5   0.245073125   2.16597  -1.30433   0.54695   0.40686
  44   37563.1    266.2   0.033951131   0.29756   0.53146  -0.06525   0.10415
  45   37929.6    263.6   0.045003516   0.39061   0.14261  -0.13297   0.59380
  46   38372.6    260.6   0.082848242   0.71078  -0.69747   0.35935   0.30853
  47   38396.2    260.4   0.018799653   0.16119   0.35165  -0.09233  -0.17032
  48   38457.2    260.0   0.034951788   0.29920  -0.08492  -0.38671   0.37742
  49   38491.4    259.8   0.000046658   0.00040   0.00516  -0.01928  -0.00078
  50   38787.8    257.8   0.077615888   0.65877   0.79466   0.16071   0.03819
  51   39006.6    256.4   0.272990501   2.30401   1.14817   0.06108  -0.99096
  52   39121.6    255.6   0.091756293   0.77214   0.75121   0.18088   0.41846
  53   39678.1    252.0   0.208742668   1.73195   0.42245   1.11711  -0.55277
  54   39709.3    251.8   0.000316569   0.00262  -0.03596  -0.03634  -0.00337
  55   40279.2    248.3   0.051784844   0.42325  -0.03103   0.58148  -0.29011

FINAL SINGLE POINT ENERGY     -2994.871383012061

DIPOLE MOMENT
-------------
                                X             Y             Z
Electronic contribution:    -24.57065      12.87503      15.95169
Nuclear contribution   :     25.64805     -14.76209     -17.58949
                        -----------------------------------------
Total Dipole Moment    :      1.07740      -1.88706      -1.63780
                        -----------------------------------------
Magnitude (a.u.)       :      2.72106
Magnitude (Debye)      :      6.91639

Rotational constants in cm-1:     0.001590     0.000745     0.000554
Rotational constants in MHz :    47.652352    22.321917    16.606943

                             ****ORCA TERMINATED NORMALLY****
TOTAL RUN TIME: 0 days 0 hours 8 minutes 35 seconds 393 msec
