                         Program Version 4.2.0 -  RELEASE  -
|  1> # ORCA input file
|  2> # SCF done       -122.615298151774          0.000855220941
|  3> ! CAM-B3LYP def2-SVP def2/J RIJCOSX Grid4 TightSCF
|  4> %maxcore 5000
|  5> %tddft
|  6>     Mode sTDDFT
|  7>     Ethresh 5.0
|  8>     maxcore 5000
|  9> end
| 10>
| 11> %pal
| 12>   nprocs 6
| 13>   end
| 14> * xyz 0 1
| 15>    C        2.12923        -2.63228        -0.44911
| 16>    C        1.97672        -3.73909        -1.17443
| 17>    C        3.38022        -2.06392        -0.16469
| 18>    C        4.45828        -1.57179         0.08928
| 19>    C        5.69180        -0.99610         0.38659
| 20>    C        6.86941        -1.49941        -0.03591
| 21>    C        8.13246        -0.88987         0.28117
| 22>    C        9.34628        -1.42871        -0.18042
| 23>    N       10.50802        -0.88462         0.09155
| 24>    C       10.51508         0.22882         0.84447
| 25>    C        9.30232         0.76923         1.31583
| 26>    N        8.14573         0.22204         1.03778
| 27>    C       11.78945         0.80385         1.11625
| 28>    C       12.12653         1.94693         1.84629
| 29>    C       13.53713         2.19689         1.86837
| 30>    N       14.03823         3.25977         2.52290
| 31>    C       13.17382         4.03115         3.12505
| 32>    C       11.77326         3.79127         3.11333
| 33>    C       10.83906         4.71187         3.82440
| 34>    N       11.26226         2.76311         2.48164
| 35>    C       14.27854         1.23725         1.15276
| 36>    S       13.20808         0.05249         0.47400
| 37>    C       15.66486         1.14650         0.93913
| 38>    C       16.56889         2.04810         1.42463
| 39>    C       17.95229         1.96317         1.19655
| 40>    C       18.69684         1.01059         0.47366
| 41>    C       20.10186         1.28170         0.46087
| 42>    N       20.95606         0.46466        -0.18697
| 43>    C       20.42780        -0.56494        -0.78992
| 44>    C       19.03496        -0.84210        -0.78591
| 45>    C       18.49058        -2.03233        -1.50188
| 46>    N       18.18842        -0.06034        -0.15889
| 47>    C       20.45207         2.44152         1.17133
| 48>    S       19.02421         3.16548         1.84099
| 49>    C       21.71637         3.03218         1.37847
| 50>    C       22.87539         2.53481         0.87489
| 51>    C       24.15113         3.12494         1.07546
| 52>    S       25.56155         2.41165         0.33829
| 53>    C       26.63948         3.59617         1.00930
| 54>    C       25.90229         4.50176         1.77079
| 55>    C       24.51805         4.23679         1.79290
| 56>    N       26.37689         5.61889         2.51499
| 57>    O       27.53369         5.64500         2.88456
| 58>    O       25.56542         6.48960         2.76499
| 59>    C       28.01079         3.46965         0.59352
| 60>    C       29.06166         4.22559         0.91202
| 61>    H        1.27226        -2.11379        -0.03515
| 62>    H        2.82311        -4.26313        -1.58616
| 63>    H        1.00313        -4.15218        -1.37412
| 64>    H        5.69043        -0.09500         0.98654
| 65>    H        6.89936        -2.39587        -0.64058
| 66>    H        9.36797        -2.32474        -0.78761
| 67>    H        9.29810         1.66107         1.92511
| 68>    H       13.57868         4.88622         3.64996
| 69>    H       10.89539         5.70925         3.39067
| 70>    H       11.11238         4.78705         4.87554
| 71>    H        9.82185         4.34117         3.73986
| 72>    H       16.02223         0.31418         0.34996
| 73>    H       16.21214         2.88103         2.01395
| 74>    H       21.11536        -1.22028        -1.30837
| 75>    H       19.00270        -2.93641        -1.17770
| 76>    H       18.64665        -1.92422        -2.57468
| 77>    H       17.42657        -2.12530        -1.30475
| 78>    H       21.72437         3.93498         1.97360
| 79>    H       22.83602         1.63508         0.27867
| 80>    H       23.83479         4.85827         2.34188
| 81>    H       28.15688         2.63355        -0.08140
| 82>    H       29.00603         5.05154         1.59680
| 83>    H       30.02820         4.00478         0.49263
| 84> *
| 85>
| 86>                          ****END OF INPUT****

CARTESIAN COORDINATES (ANGSTROEM)
---------------------------------
  C      2.129230   -2.632280   -0.449110
  C      1.976720   -3.739090   -1.174430
  C      3.380220   -2.063920   -0.164690
  C      4.458280   -1.571790    0.089280
  C      5.691800   -0.996100    0.386590
  C      6.869410   -1.499410   -0.035910
  C      8.132460   -0.889870    0.281170
  C      9.346280   -1.428710   -0.180420
  N     10.508020   -0.884620    0.091550
  C     10.515080    0.228820    0.844470
  C      9.302320    0.769230    1.315830
  N      8.145730    0.222040    1.037780
  C     11.789450    0.803850    1.116250
  C     12.126530    1.946930    1.846290
  C     13.537130    2.196890    1.868370
  N     14.038230    3.259770    2.522900
  C     13.173820    4.031150    3.125050
  C     11.773260    3.791270    3.113330
  C     10.839060    4.711870    3.824400
  N     11.262260    2.763110    2.481640
  C     14.278540    1.237250    1.152760
  S     13.208080    0.052490    0.474000
  C     15.664860    1.146500    0.939130
  C     16.568890    2.048100    1.424630
  C     17.952290    1.963170    1.196550
  C     18.696840    1.010590    0.473660
  C     20.101860    1.281700    0.460870
  N     20.956060    0.464660   -0.186970
  C     20.427800   -0.564940   -0.789920
  C     19.034960   -0.842100   -0.785910
  C     18.490580   -2.032330   -1.501880
  N     18.188420   -0.060340   -0.158890
  C     20.452070    2.441520    1.171330
  S     19.024210    3.165480    1.840990
  C     21.716370    3.032180    1.378470
  C     22.875390    2.534810    0.874890
  C     24.151130    3.124940    1.075460
  S     25.561550    2.411650    0.338290
  C     26.639480    3.596170    1.009300
  C     25.902290    4.501760    1.770790
  C     24.518050    4.236790    1.792900
  N     26.376890    5.618890    2.514990
  O     27.533690    5.645000    2.884560
  O     25.565420    6.489600    2.764990
  C     28.010790    3.469650    0.593520
  C     29.061660    4.225590    0.912020
  H      1.272260   -2.113790   -0.035150
  H      2.823110   -4.263130   -1.586160
  H      1.003130   -4.152180   -1.374120
  H      5.690430   -0.095000    0.986540
  H      6.899360   -2.395870   -0.640580
  H      9.367970   -2.324740   -0.787610
  H      9.298100    1.661070    1.925110
  H     13.578680    4.886220    3.649960
  H     10.895390    5.709250    3.390670
  H     11.112380    4.787050    4.875540
  H      9.821850    4.341170    3.739860
  H     16.022230    0.314180    0.349960
  H     16.212140    2.881030    2.013950
  H     21.115360   -1.220280   -1.308370
  H     19.002700   -2.936410   -1.177700
  H     18.646650   -1.924220   -2.574680
  H     17.426570   -2.125300   -1.304750
  H     21.724370    3.934980    1.973600
  H     22.836020    1.635080    0.278670
  H     23.834790    4.858270    2.341880
  H     28.156880    2.633550   -0.081400
  H     29.006030    5.051540    1.596800
  H     30.028200    4.004780    0.492630

 Total Charge           Charge          ....    0
 Multiplicity           Mult            ....    1
 Number of Electrons    NEL             ....  340
 Basis Dimension        Dim             ....  771

ORBITAL ENERGIES
----------------

  NO   OCC          E(Eh)            E(eV)
   0   2.0000     -88.974070     -2421.1075
   1   2.0000     -88.968851     -2420.9655
   2   2.0000     -88.968076     -2420.9444
   3   2.0000     -19.236053      -523.4396
   4   2.0000     -19.234077      -523.3858
   5   2.0000     -14.643573      -398.4719
   6   2.0000     -14.431328      -392.6964
   7   2.0000     -14.427867      -392.6022
   8   2.0000     -14.424271      -392.5044
   9   2.0000     -14.419804      -392.3828
  10   2.0000     -14.413399      -392.2085
  11   2.0000     -14.409380      -392.0992
  12   2.0000     -10.328028      -281.0399
  13   2.0000     -10.327694      -281.0308
  14   2.0000     -10.325319      -280.9662
  15   2.0000     -10.325009      -280.9578
  16   2.0000     -10.321423      -280.8602
  17   2.0000     -10.316386      -280.7231
  18   2.0000     -10.315880      -280.7094
  19   2.0000     -10.313687      -280.6497
  20   2.0000     -10.313396      -280.6418
  21   2.0000     -10.311713      -280.5960
  22   2.0000     -10.310914      -280.5742
  23   2.0000     -10.310810      -280.5714
  24   2.0000     -10.307939      -280.4933
  25   2.0000     -10.307840      -280.4906
  26   2.0000     -10.306745      -280.4608
  27   2.0000     -10.306732      -280.4604
  28   2.0000     -10.305516      -280.4273
  29   2.0000     -10.298840      -280.2457
  30   2.0000     -10.298185      -280.2279
  31   2.0000     -10.289079      -279.9801
  32   2.0000     -10.287240      -279.9300
  33   2.0000     -10.285014      -279.8695
  34   2.0000     -10.284280      -279.8495
  35   2.0000     -10.281259      -279.7673
  36   2.0000     -10.280793      -279.7546
  37   2.0000     -10.277666      -279.6695
  38   2.0000     -10.274539      -279.5844
  39   2.0000     -10.273856      -279.5658
  40   2.0000     -10.273351      -279.5521
  41   2.0000     -10.270724      -279.4806
  42   2.0000     -10.269603      -279.4501
  43   2.0000     -10.269248      -279.4404
  44   2.0000     -10.261100      -279.2187
  45   2.0000     -10.258859      -279.1577
  46   2.0000      -8.069106      -219.5715
  47   2.0000      -8.064750      -219.4530
  48   2.0000      -8.062326      -219.3870
  49   2.0000      -6.037909      -164.2998
  50   2.0000      -6.034014      -164.1939
  51   2.0000      -6.033869      -164.1899
  52   2.0000      -6.032070      -164.1410
  53   2.0000      -6.031185      -164.1169
  54   2.0000      -6.029815      -164.0796
  55   2.0000      -6.027120      -164.0063
  56   2.0000      -6.027017      -164.0035
  57   2.0000      -6.025398      -163.9594
  58   2.0000      -1.316293       -35.8182
  59   2.0000      -1.133249       -30.8373
  60   2.0000      -1.083433       -29.4817
  61   2.0000      -1.079782       -29.3824
  62   2.0000      -1.067607       -29.0511
  63   2.0000      -1.007993       -27.4289
  64   2.0000      -1.003962       -27.3192
  65   2.0000      -1.003397       -27.3038
  66   2.0000      -0.994337       -27.0573
  67   2.0000      -0.984567       -26.7914
  68   2.0000      -0.973215       -26.4825
  69   2.0000      -0.916384       -24.9361
  70   2.0000      -0.904674       -24.6174
  71   2.0000      -0.898013       -24.4362
  72   2.0000      -0.892462       -24.2851
  73   2.0000      -0.883936       -24.0531
  74   2.0000      -0.878762       -23.9123
  75   2.0000      -0.873288       -23.7634
  76   2.0000      -0.869634       -23.6639
  77   2.0000      -0.858724       -23.3671
  78   2.0000      -0.834145       -22.6983
  79   2.0000      -0.816581       -22.2203
  80   2.0000      -0.808521       -22.0010
  81   2.0000      -0.802554       -21.8386
  82   2.0000      -0.797786       -21.7088
  83   2.0000      -0.782884       -21.3034
  84   2.0000      -0.765505       -20.8305
  85   2.0000      -0.754172       -20.5221
  86   2.0000      -0.750587       -20.4245
  87   2.0000      -0.738271       -20.0894
  88   2.0000      -0.730216       -19.8702
  89   2.0000      -0.721579       -19.6352
  90   2.0000      -0.715889       -19.4803
  91   2.0000      -0.694496       -18.8982
  92   2.0000      -0.692101       -18.8330
  93   2.0000      -0.677657       -18.4400
  94   2.0000      -0.666118       -18.1260
  95   2.0000      -0.656626       -17.8677
  96   2.0000      -0.649779       -17.6814
  97   2.0000      -0.645620       -17.5682
  98   2.0000      -0.640446       -17.4274
  99   2.0000      -0.630230       -17.1494
 100   2.0000      -0.626428       -17.0460
 101   2.0000      -0.624176       -16.9847
 102   2.0000      -0.616742       -16.7824
 103   2.0000      -0.613127       -16.6840
 104   2.0000      -0.592566       -16.1246
 105   2.0000      -0.588254       -16.0072
 106   2.0000      -0.583891       -15.8885
 107   2.0000      -0.578855       -15.7515
 108   2.0000      -0.574526       -15.6337
 109   2.0000      -0.567061       -15.4305
 110   2.0000      -0.562557       -15.3079
 111   2.0000      -0.551627       -15.0105
 112   2.0000      -0.550944       -14.9919
 113   2.0000      -0.544878       -14.8269
 114   2.0000      -0.544454       -14.8153
 115   2.0000      -0.542214       -14.7544
 116   2.0000      -0.537249       -14.6193
 117   2.0000      -0.526263       -14.3203
 118   2.0000      -0.520447       -14.1621
 119   2.0000      -0.519336       -14.1318
 120   2.0000      -0.518151       -14.0996
 121   2.0000      -0.515818       -14.0361
 122   2.0000      -0.504878       -13.7384
 123   2.0000      -0.504311       -13.7230
 124   2.0000      -0.502527       -13.6744
 125   2.0000      -0.496791       -13.5184
 126   2.0000      -0.494076       -13.4445
 127   2.0000      -0.491489       -13.3741
 128   2.0000      -0.482403       -13.1269
 129   2.0000      -0.480532       -13.0760
 130   2.0000      -0.476720       -12.9722
 131   2.0000      -0.474659       -12.9161
 132   2.0000      -0.469224       -12.7682
 133   2.0000      -0.461645       -12.5620
 134   2.0000      -0.459353       -12.4996
 135   2.0000      -0.451677       -12.2908
 136   2.0000      -0.450396       -12.2559
 137   2.0000      -0.447074       -12.1655
 138   2.0000      -0.446653       -12.1541
 139   2.0000      -0.445323       -12.1179
 140   2.0000      -0.443507       -12.0684
 141   2.0000      -0.439705       -11.9650
 142   2.0000      -0.432007       -11.7555
 143   2.0000      -0.428457       -11.6589
 144   2.0000      -0.428342       -11.6558
 145   2.0000      -0.426150       -11.5961
 146   2.0000      -0.422660       -11.5012
 147   2.0000      -0.407159       -11.0793
 148   2.0000      -0.402802       -10.9608
 149   2.0000      -0.389731       -10.6051
 150   2.0000      -0.386706       -10.5228
 151   2.0000      -0.381305       -10.3758
 152   2.0000      -0.378179       -10.2908
 153   2.0000      -0.375880       -10.2282
 154   2.0000      -0.373593       -10.1660
 155   2.0000      -0.373095       -10.1524
 156   2.0000      -0.362855        -9.8738
 157   2.0000      -0.356117        -9.6904
 158   2.0000      -0.338841        -9.2203
 159   2.0000      -0.334046        -9.0899
 160   2.0000      -0.332613        -9.0509
 161   2.0000      -0.325971        -8.8701
 162   2.0000      -0.325715        -8.8632
 163   2.0000      -0.319884        -8.7045
 164   2.0000      -0.316573        -8.6144
 165   2.0000      -0.309075        -8.4104
 166   2.0000      -0.306754        -8.3472
 167   2.0000      -0.280107        -7.6221
 168   2.0000      -0.255888        -6.9631
 169   2.0000      -0.217231        -5.9112
 170   0.0000      -0.090487        -2.4623
 171   0.0000      -0.057310        -1.5595
 172   0.0000      -0.046949        -1.2775
 173   0.0000      -0.032626        -0.8878
 174   0.0000      -0.017368        -0.4726

MULLIKEN ATOMIC CHARGES
-----------------------
   0 C :   -0.083545
   1 C :    0.002957
   2 C :   -0.037804
   3 C :    0.062591
   4 C :   -0.048912
   5 C :    0.007579
   6 C :   -0.009553
   7 C :    0.015173
   8 N :   -0.060658
   9 C :   -0.064648
  10 C :    0.012690
  11 N :   -0.034135
  12 C :   -0.139926
  13 C :    0.071955
  14 C :    0.004202
  15 N :    0.002633
  16 C :    0.017584
  17 C :   -0.142630
  18 C :    0.101818
  19 N :   -0.004386
  20 C :   -0.130356
  21 S :    0.229981
  22 C :    0.011392
  23 C :    0.023460
  24 C :   -0.146725
  25 C :    0.045642
  26 C :    0.033602
  27 N :    0.000990
  28 C :    0.023871
  29 C :   -0.144760
  30 C :    0.100826
  31 N :   -0.003413
  32 C :   -0.160929
  33 S :    0.187556
  34 C :    0.027423
  35 C :    0.059774
  36 C :   -0.059444
  37 S :    0.151471
  38 C :   -0.156867
  39 C :    0.152139
  40 C :   -0.026779
  41 N :    0.262868
  42 O :   -0.243462
  43 O :   -0.243343
  44 C :    0.026790
  45 C :   -0.007509
  46 H :    0.029242
  47 H :    0.028878
  48 H :    0.028404
  49 H :    0.039091
  50 H :   -0.008332
  51 H :   -0.005031
  52 H :    0.000775
  53 H :   -0.003225
  54 H :    0.034385
  55 H :    0.032593
  56 H :    0.032992
  57 H :   -0.016197
  58 H :   -0.015723
  59 H :   -0.002027
  60 H :    0.031260
  61 H :    0.037511
  62 H :    0.033425
  63 H :   -0.026011
  64 H :   -0.007949
  65 H :   -0.000036
  66 H :   -0.007649
  67 H :    0.051137
  68 H :    0.025301
Sum of atomic charges:   -0.0000000

LOEWDIN ATOMIC CHARGES
----------------------
   0 C :   -0.041727
   1 C :   -0.013596
   2 C :   -0.037600
   3 C :   -0.036808
   4 C :   -0.013878
   5 C :   -0.017038
   6 C :   -0.023388
   7 C :    0.006136
   8 N :   -0.068230
   9 C :   -0.029187
  10 C :    0.015753
  11 N :   -0.043569
  12 C :   -0.208454
  13 C :   -0.037647
  14 C :   -0.055713
  15 N :   -0.024993
  16 C :   -0.001258
  17 C :   -0.000805
  18 C :   -0.052262
  19 N :   -0.050115
  20 C :   -0.168165
  21 S :    0.529987
  22 C :   -0.039788
  23 C :   -0.031128
  24 C :   -0.181740
  25 C :   -0.041950
  26 C :   -0.049097
  27 N :   -0.028548
  28 C :    0.006767
  29 C :   -0.004918
  30 C :   -0.052491
  31 N :   -0.041245
  32 C :   -0.182469
  33 S :    0.498563
  34 C :   -0.035041
  35 C :   -0.036537
  36 C :   -0.166228
  37 S :    0.470893
  38 C :   -0.142617
  39 C :   -0.071660
  40 C :   -0.043370
  41 N :    0.288862
  42 O :   -0.200448
  43 O :   -0.207813
  44 C :   -0.063597
  45 C :   -0.005487
  46 H :    0.042173
  47 H :    0.028375
  48 H :    0.026132
  49 H :    0.045434
  50 H :    0.032116
  51 H :    0.023260
  52 H :    0.021107
  53 H :    0.023574
  54 H :    0.041139
  55 H :    0.039851
  56 H :    0.039470
  57 H :    0.026087
  58 H :    0.027463
  59 H :    0.024518
  60 H :    0.038914
  61 H :    0.042143
  62 H :    0.039583
  63 H :    0.027823
  64 H :    0.028157
  65 H :    0.036189
  66 H :    0.028316
  67 H :    0.024447
  68 H :    0.027369

  Mayer bond orders larger than 0.100000
B(  0-C ,  1-C ) :   1.9344 B(  0-C ,  2-C ) :   1.0092 B(  0-C , 46-H ) :   0.9613
B(  1-C , 47-H ) :   0.9630 B(  1-C , 48-H ) :   0.9559 B(  2-C ,  3-C ) :   2.3246
B(  3-C ,  4-C ) :   0.9561 B(  4-C ,  5-C ) :   1.7440 B(  4-C , 49-H ) :   0.9529
B(  5-C ,  6-C ) :   1.0797 B(  5-C , 50-H ) :   0.9777 B(  6-C ,  7-C ) :   1.2948
B(  6-C , 11-N ) :   1.4859 B(  7-C ,  8-N ) :   1.5875 B(  7-C , 51-H ) :   0.9798
B(  8-N ,  9-C ) :   1.5331 B(  9-C , 10-C ) :   1.3137 B(  9-C , 12-C ) :   1.0989
B( 10-C , 11-N ) :   1.6020 B( 10-C , 52-H ) :   0.9555 B( 12-C , 13-C ) :   1.3729
B( 12-C , 20-C ) :   0.1393 B( 12-C , 21-S ) :   1.1541 B( 13-C , 14-C ) :   1.2211
B( 13-C , 19-N ) :   1.3914 B( 14-C , 15-N ) :   1.4080 B( 14-C , 20-C ) :   1.2996
B( 15-N , 16-C ) :   1.7006 B( 16-C , 17-C ) :   1.1624 B( 16-C , 53-H ) :   0.9798
B( 17-C , 18-C ) :   1.0480 B( 17-C , 19-N ) :   1.6989 B( 18-C , 54-H ) :   0.9518
B( 18-C , 55-H ) :   0.9532 B( 18-C , 56-H ) :   0.9539 B( 20-C , 21-S ) :   1.1696
B( 20-C , 22-C ) :   1.1780 B( 22-C , 23-C ) :   1.6249 B( 22-C , 57-H ) :   0.9392
B( 23-C , 24-C ) :   1.1794 B( 23-C , 58-H ) :   0.9368 B( 24-C , 25-C ) :   1.2938
B( 24-C , 32-C ) :   0.1254 B( 24-C , 33-S ) :   1.1575 B( 25-C , 26-C ) :   1.2229
B( 25-C , 31-N ) :   1.4030 B( 26-C , 27-N ) :   1.3984 B( 26-C , 32-C ) :   1.3100
B( 27-N , 28-C ) :   1.7063 B( 28-C , 29-C ) :   1.1663 B( 28-C , 59-H ) :   0.9795
B( 29-C , 30-C ) :   1.0484 B( 29-C , 31-N ) :   1.6860 B( 30-C , 60-H ) :   0.9537
B( 30-C , 61-H ) :   0.9515 B( 30-C , 62-H ) :   0.9539 B( 32-C , 33-S ) :   1.1612
B( 32-C , 34-C ) :   1.1788 B( 34-C , 35-C ) :   1.6780 B( 34-C , 63-H ) :   0.9500
B( 35-C , 36-C ) :   1.1022 B( 35-C , 64-H ) :   0.9480 B( 36-C , 37-S ) :   1.1102
B( 36-C , 40-C ) :   1.4737 B( 37-S , 38-C ) :   1.1704 B( 38-C , 39-C ) :   1.4573
B( 38-C , 44-C ) :   1.1028 B( 39-C , 40-C ) :   1.2686 B( 39-C , 41-N ) :   0.9208
B( 40-C , 65-H ) :   0.9966 B( 41-N , 42-O ) :   1.5085 B( 41-N , 43-O ) :   1.5428
B( 42-O , 43-O ) :   0.2590 B( 44-C , 45-C ) :   1.9452 B( 44-C , 66-H ) :   0.9379
B( 45-C , 67-H ) :   0.9395 B( 45-C , 68-H ) :   0.9416

-----------------------------------------------------------------------------
         ABSORPTION SPECTRUM VIA TRANSITION ELECTRIC DIPOLE MOMENTS
-----------------------------------------------------------------------------
State   Energy  Wavelength   fosc         T2         TX        TY        TZ
        (cm-1)    (nm)                  (au**2)     (au)      (au)      (au)
-----------------------------------------------------------------------------
   0   13300.3    751.9   1.630810186  40.36605  -6.25303  -1.12501  -0.00576
   1   19075.1    524.2   0.023299462   0.40212   0.61564   0.12682   0.08378
   2   22677.0    441.0   0.024731742   0.35904   0.55544   0.18287   0.13069
   3   23570.9    424.3   0.116125360   1.62191  -1.23847   0.03487   0.29476
   4   25724.5    388.7   0.726979247   9.30360  -2.68458  -1.29691  -0.64396
   5   26883.5    372.0   0.000018299   0.00022   0.00273   0.01163  -0.00902
   6   27285.2    366.5   0.047514753   0.57329   0.72819  -0.06388  -0.19735
   7   27789.0    359.9   0.007811547   0.09254   0.05432  -0.14581   0.26140
   8   28066.7    356.3   0.535260864   6.27841   2.07333   1.28165   0.58058
   9   29020.4    344.6   0.000172222   0.00195   0.01342   0.03459  -0.02403
  10   30019.9    333.1   0.179460825   1.96805   0.30720   1.14842   0.74486
  11   31800.2    314.5   0.026049234   0.26967   0.44007   0.26098   0.08889
  12   33016.6    302.9   0.024521892   0.24451   0.37624  -0.25359  -0.19660
  13   33234.2    300.9   0.130420700   1.29192   0.99074  -0.34821  -0.43487
  14   33607.3    297.6   0.074095974   0.72583   0.80105  -0.20824  -0.20194
  15   34009.2    294.0   0.048830449   0.47268  -0.23458  -0.53677  -0.35990
  16   35165.8    284.4   0.308797692   2.89088  -0.39210   1.37178   0.92486
  17   35365.3    282.8   0.322889935   3.00575   1.54974   0.69393   0.35002
  18   35700.1    280.1   0.028934126   0.26682   0.21183   0.38658   0.26927
  19   36585.2    273.3   0.002444732   0.02200  -0.00649  -0.08927   0.11827
  20   37068.6    269.8   0.010667671   0.09474  -0.17541   0.20430   0.14911
  21   37849.1    264.2   0.002273383   0.01977   0.00784  -0.05964   0.12710
  22   37884.4    264.0   0.000904738   0.00786   0.00764  -0.04885   0.07361
  23   37980.6    263.3   0.001372014   0.01189   0.00537   0.07225  -0.08151
  24   38385.5    260.5   0.024937066   0.21387  -0.45043   0.05424   0.08969
  25   38618.5    258.9   0.055607480   0.47404   0.02853   0.58539   0.36131
  26   39536.5    252.9   0.032877550   0.27376   0.46639  -0.14825  -0.18510
  27   39715.3    251.8   0.038416460   0.31845   0.40843  -0.29437  -0.25491

FINAL SINGLE POINT ENERGY     -3034.832434836141

DIPOLE MOMENT
-------------
                                X             Y             Z
Electronic contribution:     30.31568      11.06914       4.91836
Nuclear contribution   :    -30.68723     -12.24841      -5.75234
                        -----------------------------------------
Total Dipole Moment    :     -0.37155      -1.17927      -0.83398
                        -----------------------------------------
Magnitude (a.u.)       :      1.49139
Magnitude (Debye)      :      3.79082

Rotational constants in cm-1:     0.006264     0.000444     0.000415
Rotational constants in MHz :   187.783349    13.314781    12.443224

                             ****ORCA TERMINATED NORMALLY****
TOTAL RUN TIME: 0 days 0 hours 4 minutes 8 seconds 402 msec
