                         Program Version 4.2.0 -  RELEASE  -
|  1> # ORCA input file
|  2> # SCF done       -180.146699504473          0.000824840593
|  3> ! CAM-B3LYP def2-SVP def2/J RIJCOSX Grid4 TightSCF
|  4> %maxcore 5000
|  5> %tddft
|  6>     Mode sTDDFT
|  7>     Ethresh 5.0
|  8>     maxcore 5000
|  9> end
| 10>
| 11> %pal
| 12>   nprocs 6
| 13>   end
| 14> * xyz 0 1
| 15>    C        4.62634        -1.11310         1.71040
| 16>    C        3.35909        -0.63394         1.00233
| 17>    N        3.08112        -1.44447        -0.16275
| 18>    C        2.86671        -2.80707        -0.05968
| 19>    C        2.30915        -3.53608         0.99330
| 20>    C        1.65394        -2.86023         2.12620
| 21>    C        0.44124        -2.19129         1.89441
| 22>    N       -0.13465        -2.29496         0.67224
| 23>    C       -1.27814        -1.70892         0.48960
| 24>    C       -1.92469        -0.98693         1.52378
| 25>    N       -1.40366        -0.86274         2.70655
| 26>    C       -0.19966        -1.44065         2.93142
| 27>    C        0.39492        -1.32894         4.19771
| 28>    C       -0.19701        -0.47861         5.22257
| 29>    C       -0.44400        -0.97661         6.51137
| 30>    N       -0.20896        -2.28383         6.77925
| 31>    C       -0.42504        -2.70132         7.98936
| 32>    C       -0.89709        -1.83777         9.01167
| 33>    N       -1.18636        -0.59347         8.78280
| 34>    C       -0.98319        -0.11873         7.52644
| 35>    C       -1.30040         1.20420         7.23677
| 36>    C       -1.08379         1.69760         5.95479
| 37>    N       -1.40288         2.98810         5.67569
| 38>    C       -1.16631         3.42136         4.47637
| 39>    C       -0.56937         2.60409         3.48006
| 40>    N       -0.24902         1.36603         3.71014
| 41>    C       -0.51881         0.85847         4.93940
| 42>    C        1.57858        -2.04038         4.44761
| 43>    N        2.19179        -1.90966         5.65033
| 44>    C        3.26942        -2.60194         5.86348
| 45>    C        3.81918        -3.46017         4.87782
| 46>    N        3.31264        -3.54636         3.68547
| 47>    C        2.18468        -2.83946         3.42144
| 48>    C        2.29016        -4.91791         0.87452
| 49>    C        2.75345        -5.55790        -0.27039
| 50>    C        3.22917        -4.83604        -1.34710
| 51>    C        3.29043        -3.45290        -1.24208
| 52>    C        3.74920        -2.41455        -2.12350
| 53>    C        4.29390        -2.42615        -3.39997
| 54>    C        4.67467        -1.22548        -3.96913
| 55>    C        4.47529        -0.02244        -3.30357
| 56>    C        3.89433         0.02360        -2.04286
| 57>    C        3.53933         1.28595        -1.39033
| 58>    C        4.47907         2.26284        -1.03012
| 59>    N        5.74381         2.18437        -1.50551
| 60>    C        6.61069         3.05552        -1.08359
| 61>    C        6.26756         4.06080        -0.14580
| 62>    N        5.06757         4.16966         0.33956
| 63>    C        4.12979         3.28709        -0.08221
| 64>    C        2.84966         3.32540         0.48002
| 65>    C        2.56919         4.11153         1.68703
| 66>    C        2.39330         5.49675         1.66742
| 67>    N        2.48916         6.16671         0.49216
| 68>    C        2.33484         7.45473         0.52343
| 69>    C        2.06435         8.15544         1.72889
| 70>    N        1.93596         7.54793         2.86862
| 71>    C        2.09372         6.19867         2.88384
| 72>    C        1.96082         5.50896         4.08473
| 73>    C        2.15229         4.13198         4.11083
| 74>    N        2.04485         3.45965         5.28807
| 75>    C        2.26333         2.18096         5.27075
| 76>    C        2.61791         1.49056         4.08096
| 77>    N        2.72244         2.09081         2.93514
| 78>    C        2.47317         3.42615         2.90528
| 79>    C        1.86202         2.47120        -0.02321
| 80>    N        0.58973         2.56931         0.43314
| 81>    C       -0.29329         1.74674        -0.05262
| 82>    C        0.03285         0.80384        -1.05501
| 83>    N        1.24668         0.66460        -1.49827
| 84>    C        2.20207         1.46990        -0.98816
| 85>    C        3.58121        -1.19516        -1.42637
| 86>    H        4.83231        -0.47009         2.56256
| 87>    H        5.47108        -1.06370         1.02583
| 88>    H        4.52111        -2.13943         2.05539
| 89>    H        3.50655         0.40049         0.70432
| 90>    H        2.50533        -0.65532         1.68279
| 91>    H       -1.73680        -1.83106        -0.48273
| 92>    H       -2.89669        -0.53594         1.36967
| 93>    H       -0.24545        -3.75067         8.18380
| 94>    H       -1.05377        -2.19933        10.01946
| 95>    H       -1.70827         1.84468         8.00170
| 96>    H       -1.42842         4.44967         4.26523
| 97>    H       -0.33612         2.98997         2.49577
| 98>    H        3.74483        -2.48045         6.82807
| 99>    H        4.70158        -4.05300         5.07851
|100>    H        1.87722        -5.50140         1.68350
|101>    H        2.70968        -6.63558        -0.32241
|102>    H        3.54957        -5.33235        -2.25049
|103>    H        4.41648        -3.35654        -3.93350
|104>    H        5.11022        -1.21394        -4.95707
|105>    H        4.73847         0.90757        -3.78248
|106>    H        7.60867         2.98896        -1.49575
|107>    H        6.99607         4.78808         0.18750
|108>    H        2.41381         7.97960        -0.41953
|109>    H        1.94376         9.23086         1.73277
|110>    H        1.72063         6.03956         4.99182
|111>    H        2.17368         1.65177         6.21067
|112>    H        2.82693         0.42978         4.10323
|113>    H       -1.30544         1.84162         0.31931
|114>    H       -0.72561         0.18732        -1.51648
|115> *
|116>
|117>                          ****END OF INPUT****

CARTESIAN COORDINATES (ANGSTROEM)
---------------------------------
  C      4.626340   -1.113100    1.710400
  C      3.359090   -0.633940    1.002330
  N      3.081120   -1.444470   -0.162750
  C      2.866710   -2.807070   -0.059680
  C      2.309150   -3.536080    0.993300
  C      1.653940   -2.860230    2.126200
  C      0.441240   -2.191290    1.894410
  N     -0.134650   -2.294960    0.672240
  C     -1.278140   -1.708920    0.489600
  C     -1.924690   -0.986930    1.523780
  N     -1.403660   -0.862740    2.706550
  C     -0.199660   -1.440650    2.931420
  C      0.394920   -1.328940    4.197710
  C     -0.197010   -0.478610    5.222570
  C     -0.444000   -0.976610    6.511370
  N     -0.208960   -2.283830    6.779250
  C     -0.425040   -2.701320    7.989360
  C     -0.897090   -1.837770    9.011670
  N     -1.186360   -0.593470    8.782800
  C     -0.983190   -0.118730    7.526440
  C     -1.300400    1.204200    7.236770
  C     -1.083790    1.697600    5.954790
  N     -1.402880    2.988100    5.675690
  C     -1.166310    3.421360    4.476370
  C     -0.569370    2.604090    3.480060
  N     -0.249020    1.366030    3.710140
  C     -0.518810    0.858470    4.939400
  C      1.578580   -2.040380    4.447610
  N      2.191790   -1.909660    5.650330
  C      3.269420   -2.601940    5.863480
  C      3.819180   -3.460170    4.877820
  N      3.312640   -3.546360    3.685470
  C      2.184680   -2.839460    3.421440
  C      2.290160   -4.917910    0.874520
  C      2.753450   -5.557900   -0.270390
  C      3.229170   -4.836040   -1.347100
  C      3.290430   -3.452900   -1.242080
  C      3.749200   -2.414550   -2.123500
  C      4.293900   -2.426150   -3.399970
  C      4.674670   -1.225480   -3.969130
  C      4.475290   -0.022440   -3.303570
  C      3.894330    0.023600   -2.042860
  C      3.539330    1.285950   -1.390330
  C      4.479070    2.262840   -1.030120
  N      5.743810    2.184370   -1.505510
  C      6.610690    3.055520   -1.083590
  C      6.267560    4.060800   -0.145800
  N      5.067570    4.169660    0.339560
  C      4.129790    3.287090   -0.082210
  C      2.849660    3.325400    0.480020
  C      2.569190    4.111530    1.687030
  C      2.393300    5.496750    1.667420
  N      2.489160    6.166710    0.492160
  C      2.334840    7.454730    0.523430
  C      2.064350    8.155440    1.728890
  N      1.935960    7.547930    2.868620
  C      2.093720    6.198670    2.883840
  C      1.960820    5.508960    4.084730
  C      2.152290    4.131980    4.110830
  N      2.044850    3.459650    5.288070
  C      2.263330    2.180960    5.270750
  C      2.617910    1.490560    4.080960
  N      2.722440    2.090810    2.935140
  C      2.473170    3.426150    2.905280
  C      1.862020    2.471200   -0.023210
  N      0.589730    2.569310    0.433140
  C     -0.293290    1.746740   -0.052620
  C      0.032850    0.803840   -1.055010
  N      1.246680    0.664600   -1.498270
  C      2.202070    1.469900   -0.988160
  C      3.581210   -1.195160   -1.426370
  H      4.832310   -0.470090    2.562560
  H      5.471080   -1.063700    1.025830
  H      4.521110   -2.139430    2.055390
  H      3.506550    0.400490    0.704320
  H      2.505330   -0.655320    1.682790
  H     -1.736800   -1.831060   -0.482730
  H     -2.896690   -0.535940    1.369670
  H     -0.245450   -3.750670    8.183800
  H     -1.053770   -2.199330   10.019460
  H     -1.708270    1.844680    8.001700
  H     -1.428420    4.449670    4.265230
  H     -0.336120    2.989970    2.495770
  H      3.744830   -2.480450    6.828070
  H      4.701580   -4.053000    5.078510
  H      1.877220   -5.501400    1.683500
  H      2.709680   -6.635580   -0.322410
  H      3.549570   -5.332350   -2.250490
  H      4.416480   -3.356540   -3.933500
  H      5.110220   -1.213940   -4.957070
  H      4.738470    0.907570   -3.782480
  H      7.608670    2.988960   -1.495750
  H      6.996070    4.788080    0.187500
  H      2.413810    7.979600   -0.419530
  H      1.943760    9.230860    1.732770
  H      1.720630    6.039560    4.991820
  H      2.173680    1.651770    6.210670
  H      2.826930    0.429780    4.103230
  H     -1.305440    1.841620    0.319310
  H     -0.725610    0.187320   -1.516480

 Total Charge           Charge          ....    0
 Multiplicity           Mult            ....    1
 Number of Electrons    NEL             ....  472
 Basis Dimension        Dim             .... 1139

ORBITAL ENERGIES
----------------

  NO   OCC          E(Eh)            E(eV)
   0   2.0000     -14.425980      -392.5509
   1   2.0000     -14.424947      -392.5228
   2   2.0000     -14.424224      -392.5031
   3   2.0000     -14.424030      -392.4978
   4   2.0000     -14.420887      -392.4123
   5   2.0000     -14.419788      -392.3824
   6   2.0000     -14.419424      -392.3725
   7   2.0000     -14.419164      -392.3654
   8   2.0000     -14.419079      -392.3631
   9   2.0000     -14.419074      -392.3630
  10   2.0000     -14.418801      -392.3555
  11   2.0000     -14.418530      -392.3481
  12   2.0000     -14.418210      -392.3394
  13   2.0000     -14.417972      -392.3330
  14   2.0000     -14.417876      -392.3303
  15   2.0000     -14.415222      -392.2581
  16   2.0000     -14.413612      -392.2143
  17   2.0000     -10.321299      -280.8568
  18   2.0000     -10.319830      -280.8168
  19   2.0000     -10.319499      -280.8078
  20   2.0000     -10.318455      -280.7794
  21   2.0000     -10.318297      -280.7751
  22   2.0000     -10.317080      -280.7420
  23   2.0000     -10.316789      -280.7341
  24   2.0000     -10.316114      -280.7157
  25   2.0000     -10.316047      -280.7139
  26   2.0000     -10.316043      -280.7138
  27   2.0000     -10.315798      -280.7071
  28   2.0000     -10.315509      -280.6993
  29   2.0000     -10.315303      -280.6937
  30   2.0000     -10.315054      -280.6869
  31   2.0000     -10.314673      -280.6765
  32   2.0000     -10.314553      -280.6733
  33   2.0000     -10.314346      -280.6676
  34   2.0000     -10.313896      -280.6554
  35   2.0000     -10.313758      -280.6516
  36   2.0000     -10.313323      -280.6398
  37   2.0000     -10.313247      -280.6377
  38   2.0000     -10.312700      -280.6228
  39   2.0000     -10.312671      -280.6220
  40   2.0000     -10.312350      -280.6133
  41   2.0000     -10.312145      -280.6077
  42   2.0000     -10.312092      -280.6063
  43   2.0000     -10.311720      -280.5962
  44   2.0000     -10.310650      -280.5670
  45   2.0000     -10.310561      -280.5646
  46   2.0000     -10.309900      -280.5466
  47   2.0000     -10.308871      -280.5186
  48   2.0000     -10.306318      -280.4492
  49   2.0000     -10.289974      -280.0044
  50   2.0000     -10.289212      -279.9837
  51   2.0000     -10.288900      -279.9752
  52   2.0000     -10.287533      -279.9380
  53   2.0000     -10.286850      -279.9194
  54   2.0000     -10.285934      -279.8945
  55   2.0000     -10.285727      -279.8889
  56   2.0000     -10.284971      -279.8683
  57   2.0000     -10.283531      -279.8291
  58   2.0000     -10.275300      -279.6051
  59   2.0000     -10.274900      -279.5942
  60   2.0000     -10.262373      -279.2534
  61   2.0000     -10.260960      -279.2149
  62   2.0000     -10.251541      -278.9586
  63   2.0000     -10.251362      -278.9537
  64   2.0000     -10.250566      -278.9321
  65   2.0000     -10.249166      -278.8940
  66   2.0000     -10.246730      -278.8277
  67   2.0000     -10.246406      -278.8189
  68   2.0000     -10.243623      -278.7432
  69   2.0000     -10.242312      -278.7075
  70   2.0000     -10.242174      -278.7037
  71   2.0000      -1.084021       -29.4977
  72   2.0000      -1.081513       -29.4295
  73   2.0000      -1.077203       -29.3122
  74   2.0000      -1.075051       -29.2536
  75   2.0000      -1.074770       -29.2460
  76   2.0000      -1.072464       -29.1832
  77   2.0000      -1.070910       -29.1409
  78   2.0000      -1.066341       -29.0166
  79   2.0000      -1.059756       -28.8374
  80   2.0000      -1.008768       -27.4500
  81   2.0000      -1.006289       -27.3825
  82   2.0000      -1.000276       -27.2189
  83   2.0000      -0.998723       -27.1766
  84   2.0000      -0.997460       -27.1423
  85   2.0000      -0.996873       -27.1263
  86   2.0000      -0.995480       -27.0884
  87   2.0000      -0.991803       -26.9883
  88   2.0000      -0.954716       -25.9792
  89   2.0000      -0.952748       -25.9256
  90   2.0000      -0.938185       -25.5293
  91   2.0000      -0.934883       -25.4395
  92   2.0000      -0.924160       -25.1477
  93   2.0000      -0.919628       -25.0244
  94   2.0000      -0.884616       -24.0716
  95   2.0000      -0.874214       -23.7886
  96   2.0000      -0.862005       -23.4564
  97   2.0000      -0.858961       -23.3735
  98   2.0000      -0.857812       -23.3422
  99   2.0000      -0.856301       -23.3011
 100   2.0000      -0.852807       -23.2061
 101   2.0000      -0.839702       -22.8495
 102   2.0000      -0.837989       -22.8028
 103   2.0000      -0.813739       -22.1430
 104   2.0000      -0.806367       -21.9424
 105   2.0000      -0.789665       -21.4879
 106   2.0000      -0.787168       -21.4199
 107   2.0000      -0.782718       -21.2988
 108   2.0000      -0.782136       -21.2830
 109   2.0000      -0.780191       -21.2301
 110   2.0000      -0.778333       -21.1795
 111   2.0000      -0.761812       -20.7300
 112   2.0000      -0.757245       -20.6057
 113   2.0000      -0.752035       -20.4639
 114   2.0000      -0.748615       -20.3708
 115   2.0000      -0.731601       -19.9079
 116   2.0000      -0.723525       -19.6881
 117   2.0000      -0.722485       -19.6598
 118   2.0000      -0.720671       -19.6105
 119   2.0000      -0.719874       -19.5888
 120   2.0000      -0.716786       -19.5047
 121   2.0000      -0.711597       -19.3635
 122   2.0000      -0.690793       -18.7974
 123   2.0000      -0.688925       -18.7466
 124   2.0000      -0.678212       -18.4551
 125   2.0000      -0.677533       -18.4366
 126   2.0000      -0.675900       -18.3922
 127   2.0000      -0.674047       -18.3418
 128   2.0000      -0.658431       -17.9168
 129   2.0000      -0.657194       -17.8832
 130   2.0000      -0.642946       -17.4954
 131   2.0000      -0.637233       -17.3400
 132   2.0000      -0.633659       -17.2427
 133   2.0000      -0.630415       -17.1545
 134   2.0000      -0.627360       -17.0713
 135   2.0000      -0.626180       -17.0392
 136   2.0000      -0.620394       -16.8818
 137   2.0000      -0.617590       -16.8055
 138   2.0000      -0.615153       -16.7392
 139   2.0000      -0.605129       -16.4664
 140   2.0000      -0.589105       -16.0304
 141   2.0000      -0.587506       -15.9869
 142   2.0000      -0.585164       -15.9231
 143   2.0000      -0.583010       -15.8645
 144   2.0000      -0.582713       -15.8564
 145   2.0000      -0.581040       -15.8109
 146   2.0000      -0.580317       -15.7912
 147   2.0000      -0.575005       -15.6467
 148   2.0000      -0.571883       -15.5617
 149   2.0000      -0.570561       -15.5258
 150   2.0000      -0.568152       -15.4602
 151   2.0000      -0.564409       -15.3584
 152   2.0000      -0.559482       -15.2243
 153   2.0000      -0.558410       -15.1951
 154   2.0000      -0.553780       -15.0691
 155   2.0000      -0.546978       -14.8840
 156   2.0000      -0.542249       -14.7554
 157   2.0000      -0.541364       -14.7313
 158   2.0000      -0.529630       -14.4120
 159   2.0000      -0.525974       -14.3125
 160   2.0000      -0.524461       -14.2713
 161   2.0000      -0.519866       -14.1463
 162   2.0000      -0.517462       -14.0809
 163   2.0000      -0.516550       -14.0560
 164   2.0000      -0.515646       -14.0315
 165   2.0000      -0.514089       -13.9891
 166   2.0000      -0.512700       -13.9513
 167   2.0000      -0.508801       -13.8452
 168   2.0000      -0.508194       -13.8287
 169   2.0000      -0.505472       -13.7546
 170   2.0000      -0.503611       -13.7039
 171   2.0000      -0.502506       -13.6739
 172   2.0000      -0.502311       -13.6686
 173   2.0000      -0.499495       -13.5920
 174   2.0000      -0.497580       -13.5398
 175   2.0000      -0.494680       -13.4609
 176   2.0000      -0.490674       -13.3519
 177   2.0000      -0.490000       -13.3336
 178   2.0000      -0.488221       -13.2852
 179   2.0000      -0.484984       -13.1971
 180   2.0000      -0.476925       -12.9778
 181   2.0000      -0.475408       -12.9365
 182   2.0000      -0.473138       -12.8747
 183   2.0000      -0.464429       -12.6378
 184   2.0000      -0.462430       -12.5834
 185   2.0000      -0.458331       -12.4718
 186   2.0000      -0.455359       -12.3909
 187   2.0000      -0.453027       -12.3275
 188   2.0000      -0.446510       -12.1502
 189   2.0000      -0.436375       -11.8744
 190   2.0000      -0.430706       -11.7201
 191   2.0000      -0.428986       -11.6733
 192   2.0000      -0.426848       -11.6151
 193   2.0000      -0.424985       -11.5644
 194   2.0000      -0.423778       -11.5316
 195   2.0000      -0.421110       -11.4590
 196   2.0000      -0.417770       -11.3681
 197   2.0000      -0.415101       -11.2955
 198   2.0000      -0.410705       -11.1758
 199   2.0000      -0.408185       -11.1073
 200   2.0000      -0.407432       -11.0868
 201   2.0000      -0.405539       -11.0353
 202   2.0000      -0.403421       -10.9777
 203   2.0000      -0.401706       -10.9310
 204   2.0000      -0.399182       -10.8623
 205   2.0000      -0.397066       -10.8047
 206   2.0000      -0.388732       -10.5779
 207   2.0000      -0.385142       -10.4802
 208   2.0000      -0.384165       -10.4537
 209   2.0000      -0.382324       -10.4036
 210   2.0000      -0.381764       -10.3883
 211   2.0000      -0.378660       -10.3039
 212   2.0000      -0.377828       -10.2812
 213   2.0000      -0.373482       -10.1630
 214   2.0000      -0.370386       -10.0787
 215   2.0000      -0.367559       -10.0018
 216   2.0000      -0.333648        -9.0790
 217   2.0000      -0.330821        -9.0021
 218   2.0000      -0.328974        -8.9518
 219   2.0000      -0.325576        -8.8594
 220   2.0000      -0.322499        -8.7756
 221   2.0000      -0.320936        -8.7331
 222   2.0000      -0.318357        -8.6629
 223   2.0000      -0.317340        -8.6353
 224   2.0000      -0.316039        -8.5998
 225   2.0000      -0.312797        -8.5116
 226   2.0000      -0.312265        -8.4972
 227   2.0000      -0.309556        -8.4234
 228   2.0000      -0.306356        -8.3364
 229   2.0000      -0.304179        -8.2771
 230   2.0000      -0.300627        -8.1805
 231   2.0000      -0.290411        -7.9025
 232   2.0000      -0.275259        -7.4902
 233   2.0000      -0.269978        -7.3465
 234   2.0000      -0.254864        -6.9352
 235   2.0000      -0.242102        -6.5879
 236   0.0000      -0.077448        -2.1075
 237   0.0000      -0.069753        -1.8981
 238   0.0000      -0.069055        -1.8791
 239   0.0000      -0.061945        -1.6856
 240   0.0000      -0.010389        -0.2827

MULLIKEN ATOMIC CHARGES
-----------------------
   0 C :    0.015565
   1 C :    0.105370
   2 N :   -0.186296
   3 C :    0.097451
   4 C :   -0.021571
   5 C :   -0.028928
   6 C :   -0.072896
   7 N :    0.028310
   8 C :    0.014041
   9 C :    0.010946
  10 N :    0.020414
  11 C :   -0.020933
  12 C :    0.017247
  13 C :    0.027871
  14 C :   -0.038038
  15 N :    0.005523
  16 C :    0.021416
  17 C :    0.017776
  18 N :   -0.016647
  19 C :    0.025037
  20 C :   -0.088781
  21 C :    0.039576
  22 N :   -0.005321
  23 C :    0.029583
  24 C :    0.006530
  25 N :   -0.025703
  26 C :   -0.047752
  27 C :   -0.032903
  28 N :   -0.007948
  29 C :    0.024222
  30 C :    0.025323
  31 N :    0.010204
  32 C :   -0.051128
  33 C :   -0.005390
  34 C :    0.026349
  35 C :   -0.050984
  36 C :    0.068134
  37 C :    0.055647
  38 C :   -0.052212
  39 C :    0.028184
  40 C :    0.002716
  41 C :   -0.015352
  42 C :   -0.024643
  43 C :   -0.029946
  44 N :    0.012366
  45 C :    0.022244
  46 C :    0.022470
  47 N :    0.007743
  48 C :   -0.050125
  49 C :    0.037292
  50 C :    0.018891
  51 C :   -0.033834
  52 N :    0.017717
  53 C :    0.021255
  54 C :    0.018780
  55 N :   -0.016742
  56 C :    0.027405
  57 C :   -0.107534
  58 C :    0.029399
  59 N :   -0.010700
  60 C :    0.026962
  61 C :    0.041491
  62 N :    0.004160
  63 C :   -0.056967
  64 C :   -0.023659
  65 N :   -0.017994
  66 C :    0.041947
  67 C :    0.033357
  68 N :    0.031030
  69 C :   -0.107199
  70 C :    0.103503
  71 H :    0.008249
  72 H :    0.017693
  73 H :    0.034115
  74 H :    0.041598
  75 H :    0.023240
  76 H :    0.017105
  77 H :    0.007703
  78 H :    0.007631
  79 H :    0.010680
  80 H :   -0.038518
  81 H :    0.009067
  82 H :    0.026944
  83 H :    0.009744
  84 H :    0.013841
  85 H :   -0.043522
  86 H :   -0.029638
  87 H :   -0.040763
  88 H :   -0.039828
  89 H :   -0.030814
  90 H :   -0.041810
  91 H :    0.012248
  92 H :    0.011902
  93 H :    0.010559
  94 H :    0.013549
  95 H :   -0.038569
  96 H :    0.015493
  97 H :    0.007628
  98 H :    0.006326
  99 H :    0.004826
Sum of atomic charges:   -0.0000000

LOEWDIN ATOMIC CHARGES
----------------------
   0 C :   -0.066626
   1 C :    0.038326
   2 N :    0.012386
   3 C :    0.043131
   4 C :   -0.039031
   5 C :   -0.000407
   6 C :   -0.012352
   7 N :   -0.020133
   8 C :    0.002097
   9 C :    0.001493
  10 N :   -0.023517
  11 C :    0.002984
  12 C :   -0.005466
  13 C :   -0.008256
  14 C :   -0.000406
  15 N :   -0.028319
  16 C :    0.003078
  17 C :    0.002175
  18 N :   -0.036964
  19 C :   -0.017482
  20 C :    0.004923
  21 C :   -0.015241
  22 N :   -0.033008
  23 C :    0.008650
  24 C :    0.005194
  25 N :   -0.032879
  26 C :   -0.002794
  27 C :   -0.003826
  28 N :   -0.030919
  29 C :    0.004078
  30 C :    0.005606
  31 N :   -0.024788
  32 C :   -0.015646
  33 C :   -0.006025
  34 C :   -0.046876
  35 C :   -0.015274
  36 C :   -0.038817
  37 C :   -0.041730
  38 C :   -0.013163
  39 C :   -0.049214
  40 C :   -0.000838
  41 C :   -0.042422
  42 C :   -0.005157
  43 C :   -0.013601
  44 N :   -0.027170
  45 C :    0.005030
  46 C :    0.006875
  47 N :   -0.031476
  48 C :   -0.000910
  49 C :   -0.001038
  50 C :    0.005926
  51 C :   -0.004945
  52 N :   -0.028787
  53 C :    0.005041
  54 C :    0.003743
  55 N :   -0.037473
  56 C :   -0.014521
  57 C :   -0.004256
  58 C :   -0.017767
  59 N :   -0.035791
  60 C :    0.008032
  61 C :    0.016329
  62 N :   -0.034536
  63 C :   -0.006231
  64 C :    0.000319
  65 N :   -0.033813
  66 C :    0.012274
  67 C :    0.003121
  68 N :   -0.014358
  69 C :   -0.013675
  70 C :    0.046443
  71 H :    0.023476
  72 H :    0.028390
  73 H :    0.024010
  74 H :    0.029339
  75 H :    0.022240
  76 H :    0.024295
  77 H :    0.023483
  78 H :    0.024138
  79 H :    0.025062
  80 H :    0.041935
  81 H :    0.025794
  82 H :    0.020787
  83 H :    0.025301
  84 H :    0.026888
  85 H :    0.025303
  86 H :    0.023451
  87 H :    0.024638
  88 H :    0.024837
  89 H :    0.023139
  90 H :    0.025638
  91 H :    0.026221
  92 H :    0.025944
  93 H :    0.025514
  94 H :    0.025920
  95 H :    0.041719
  96 H :    0.028104
  97 H :    0.020156
  98 H :    0.021482
  99 H :    0.023467

  Mayer bond orders larger than 0.100000
B(  0-C ,  1-C ) :   1.1191 B(  0-C , 71-H ) :   0.9609 B(  0-C , 72-H ) :   0.9569
B(  0-C , 73-H ) :   0.9463 B(  1-C ,  2-N ) :   0.9553 B(  1-C , 74-H ) :   0.9291
B(  1-C , 75-H ) :   0.9271 B(  2-N ,  3-C ) :   1.1282 B(  2-N , 70-C ) :   1.1224
B(  3-C ,  4-C ) :   1.3778 B(  3-C , 36-C ) :   1.3068 B(  4-C ,  5-C ) :   0.9122
B(  4-C , 33-C ) :   1.4415 B(  5-C ,  6-C ) :   1.3211 B(  5-C , 12-C ) :   0.1588
B(  5-C , 32-C ) :   1.3521 B(  6-C ,  7-N ) :   1.4718 B(  6-C , 11-C ) :   1.1433
B(  7-N ,  8-C ) :   1.7108 B(  8-C ,  9-C ) :   1.1633 B(  8-C , 76-H ) :   0.9694
B(  9-C , 10-N ) :   1.7134 B(  9-C , 77-H ) :   0.9719 B( 10-N , 11-C ) :   1.4358
B( 11-C , 12-C ) :   1.3399 B( 12-C , 13-C ) :   0.9233 B( 12-C , 27-C ) :   1.3511
B( 13-C , 14-C ) :   1.3516 B( 13-C , 20-C ) :   0.1451 B( 13-C , 26-C ) :   1.3697
B( 14-C , 15-N ) :   1.4164 B( 14-C , 19-C ) :   1.1702 B( 15-N , 16-C ) :   1.7127
B( 16-C , 17-C ) :   1.1668 B( 16-C , 78-H ) :   0.9726 B( 17-C , 18-N ) :   1.7342
B( 17-C , 79-H ) :   0.9727 B( 18-N , 19-C ) :   1.3663 B( 19-C , 20-C ) :   1.2220
B( 20-C , 21-C ) :   1.2317 B( 20-C , 80-H ) :   1.0695 B( 21-C , 22-N ) :   1.3610
B( 21-C , 26-C ) :   1.1743 B( 22-N , 23-C ) :   1.7407 B( 23-C , 24-C ) :   1.1524
B( 23-C , 81-H ) :   0.9742 B( 24-C , 25-N ) :   1.7002 B( 24-C , 82-H ) :   0.9398
B( 25-N , 26-C ) :   1.3624 B( 27-C , 28-N ) :   1.3834 B( 27-C , 32-C ) :   1.1478
B( 28-N , 29-C ) :   1.7086 B( 29-C , 30-C ) :   1.1559 B( 29-C , 83-H ) :   0.9733
B( 30-C , 31-N ) :   1.7053 B( 30-C , 84-H ) :   0.9744 B( 31-N , 32-C ) :   1.4244
B( 33-C , 34-C ) :   1.3239 B( 33-C , 85-H ) :   0.9902 B( 34-C , 35-C ) :   1.3866
B( 34-C , 86-H ) :   0.9844 B( 35-C , 36-C ) :   1.3370 B( 35-C , 87-H ) :   0.9965
B( 36-C , 37-C ) :   1.0459 B( 37-C , 38-C ) :   1.3384 B( 37-C , 70-C ) :   1.3032
B( 38-C , 39-C ) :   1.3797 B( 38-C , 88-H ) :   0.9989 B( 39-C , 40-C ) :   1.3288
B( 39-C , 89-H ) :   0.9830 B( 40-C , 41-C ) :   1.4284 B( 40-C , 90-H ) :   0.9905
B( 41-C , 42-C ) :   0.9268 B( 41-C , 70-C ) :   1.3639 B( 42-C , 43-C ) :   1.3475
B( 42-C , 49-C ) :   0.1491 B( 42-C , 69-C ) :   1.3052 B( 43-C , 44-N ) :   1.4607
B( 43-C , 48-C ) :   1.1523 B( 44-N , 45-C ) :   1.7157 B( 45-C , 46-C ) :   1.1691
B( 45-C , 91-H ) :   0.9729 B( 46-C , 47-N ) :   1.7145 B( 46-C , 92-H ) :   0.9725
B( 47-N , 48-C ) :   1.4439 B( 48-C , 49-C ) :   1.3787 B( 49-C , 50-C ) :   0.8988
B( 49-C , 64-C ) :   1.3445 B( 50-C , 51-C ) :   1.3821 B( 50-C , 57-C ) :   0.1509
B( 50-C , 63-C ) :   1.3779 B( 51-C , 52-N ) :   1.4518 B( 51-C , 56-C ) :   1.1734
B( 52-N , 53-C ) :   1.7174 B( 53-C , 54-C ) :   1.1668 B( 53-C , 93-H ) :   0.9729
B( 54-C , 55-N ) :   1.7343 B( 54-C , 94-H ) :   0.9729 B( 55-N , 56-C ) :   1.3671
B( 56-C , 57-C ) :   1.2081 B( 57-C , 58-C ) :   1.2243 B( 57-C , 95-H ) :   1.0756
B( 58-C , 59-N ) :   1.3447 B( 58-C , 63-C ) :   1.1729 B( 59-N , 60-C ) :   1.7366
B( 60-C , 61-C ) :   1.1655 B( 60-C , 96-H ) :   0.9672 B( 61-C , 62-N ) :   1.6895
B( 61-C , 97-H ) :   0.9611 B( 62-N , 63-C ) :   1.4242 B( 64-C , 65-N ) :   1.4447
B( 64-C , 69-C ) :   1.1249 B( 65-N , 66-C ) :   1.6576 B( 66-C , 67-C ) :   1.1961
B( 66-C , 98-H ) :   0.9595 B( 67-C , 68-N ) :   1.7073 B( 67-C , 99-H ) :   0.9639
B( 68-N , 69-C ) :   1.4801

-----------------------------------------------------------------------------
         ABSORPTION SPECTRUM VIA TRANSITION ELECTRIC DIPOLE MOMENTS
-----------------------------------------------------------------------------
State   Energy  Wavelength   fosc         T2         TX        TY        TZ
        (cm-1)    (nm)                  (au**2)     (au)      (au)      (au)
-----------------------------------------------------------------------------
   0   17588.8    568.5   0.040036067   0.74936  -0.22188   0.65254   0.52376
   1   19108.3    523.3   0.012497627   0.21532   0.11059   0.44920  -0.03621
   2   21528.4    464.5   0.001940964   0.02968  -0.05892   0.16064  -0.02007
   3   23118.1    432.6   0.074834905   1.06568   0.36105  -0.55368  -0.79295
   4   23574.6    424.2   0.016441465   0.22960   0.08456  -0.30855  -0.35672
   5   24228.7    412.7   0.091656565   1.24540   0.56031  -0.45707  -0.85002
   6   25087.6    398.6   0.021765539   0.28562  -0.29672   0.24168   0.37305
   7   25818.8    387.3   0.171979955   2.19289  -0.49390   1.04642   0.92410
   8   26292.2    380.3   0.014509202   0.18167   0.02965  -0.09016  -0.41553
   9   26359.1    379.4   0.015855529   0.19803  -0.33997  -0.23361   0.16695
  10   26657.8    375.1   0.023944476   0.29570   0.07232   0.32304   0.43141
  11   26730.3    374.1   0.035962860   0.44292   0.26141  -0.43552  -0.43002
  12   26855.8    372.4   0.012776079   0.15662  -0.23775  -0.14127  -0.28308
  13   26930.5    371.3   0.007395181   0.09040  -0.01532  -0.27599   0.11830
  14   27019.3    370.1   0.008243972   0.10045   0.11123   0.25530  -0.15132
  15   27357.5    365.5   0.012425255   0.14952  -0.32697   0.19501   0.06773
  16   27526.1    363.3   0.008556761   0.10234   0.30992   0.07352  -0.02972
  17   27908.9    358.3   0.022122670   0.26096   0.32810  -0.11304  -0.37487
  18   27962.6    357.6   0.000128072   0.00151   0.03607   0.00064  -0.01436
  19   28267.6    353.8   0.006293874   0.07330   0.09534  -0.16596  -0.19149
  20   28755.0    347.8   0.024171184   0.27673   0.09445  -0.34826  -0.38279
  21   29110.9    343.5   0.000256954   0.00291  -0.02495  -0.03226  -0.03525
  22   29735.5    336.3   0.008427254   0.09330  -0.01435  -0.17556  -0.24955
  23   30183.6    331.3   0.026479860   0.28882   0.14753  -0.43986  -0.27124
  24   30694.7    325.8   0.045886461   0.49215  -0.42795   0.49188  -0.25897
  25   30739.6    325.3   0.017796268   0.19059   0.25456   0.32907   0.13231
  26   31040.8    322.2   0.022279069   0.23629  -0.13787  -0.11062   0.45282
  27   31358.2    318.9   0.111639043   1.17204   0.07792   0.31268  -1.03354
  28   31592.0    316.5   0.255996146   2.66767   0.41001   1.42690  -0.68082
  29   31717.8    315.3   0.079191751   0.82196   0.40421  -0.52070   0.62246
  30   32116.3    311.4   0.011127194   0.11406   0.19816  -0.20057  -0.18592
  31   32258.5    310.0   0.009011495   0.09197  -0.26149  -0.11901   0.09707
  32   32811.9    304.8   0.009259945   0.09291  -0.29551   0.07251  -0.01805
  33   33090.1    302.2   0.042697145   0.42479  -0.37117   0.51667   0.14169
  34   33154.2    301.6   0.036825141   0.36566   0.44113   0.38179  -0.15906
  35   33318.8    300.1   0.031473462   0.31098   0.17488  -0.18823   0.49494
  36   33399.2    299.4   0.032622572   0.32156   0.37526  -0.28036  -0.31959
  37   33545.6    298.1   0.016004818   0.15707   0.25072   0.15479   0.26504
  38   33850.5    295.4   0.009252696   0.08999  -0.23241   0.18867  -0.01940
  39   34107.9    293.2   0.049299476   0.47584   0.67947  -0.07148  -0.09516
  40   34260.7    291.9   0.020863144   0.20047  -0.41762  -0.03226   0.15820
  41   34446.0    290.3   0.006879225   0.06575  -0.25598   0.01300   0.00725
  42   34534.1    289.6   0.005052688   0.04817   0.01144  -0.13238  -0.17468
  43   34586.2    289.1   0.010212454   0.09721  -0.16993   0.09639  -0.24298
  44   34970.4    286.0   0.020156002   0.18975  -0.23824  -0.11572   0.34583
  45   35077.4    285.1   0.010409385   0.09770  -0.19198  -0.15393   0.19273
  46   35113.5    284.8   0.002829367   0.02653   0.16048   0.02384   0.01437
  47   35357.9    282.8   0.007034000   0.06549  -0.22161   0.06788   0.10852
  48   35422.7    282.3   0.007504205   0.06974   0.08697  -0.22549  -0.10646
  49   35554.9    281.3   0.012823846   0.11874   0.02265   0.18705   0.28851
  50   35628.1    280.7   0.067052691   0.61958  -0.24801  -0.71261  -0.22419
  51   35696.3    280.1   0.020300791   0.18723  -0.21933  -0.25155  -0.27539
  52   35900.5    278.5   0.007695826   0.07057   0.07862   0.24678   0.05909
  53   36042.9    277.4   0.001709009   0.01561  -0.01069  -0.01238   0.12386
  54   36196.1    276.3   0.006052524   0.05505   0.11749  -0.00922  -0.20288
  55   36257.4    275.8   0.016090825   0.14610   0.25749  -0.05821  -0.27643
  56   36516.6    273.8   0.014516590   0.13087   0.09308   0.30284  -0.17464
  57   36638.7    272.9   0.001688671   0.01517   0.10250   0.05607   0.03902
  58   36900.2    271.0   0.041105414   0.36673  -0.10305  -0.38006   0.46007
  59   37116.8    269.4   0.063486420   0.56310  -0.29084  -0.42875   0.54285
  60   37367.0    267.6   0.002460330   0.02168   0.06940   0.02663  -0.12709
  61   37667.0    265.5   0.009757928   0.08528  -0.25878  -0.07983   0.10930
  62   37837.9    264.3   0.012561486   0.10929  -0.07262  -0.22200   0.23396
  63   37919.8    263.7   0.012139702   0.10539  -0.03725   0.15142  -0.28474
  64   38108.5    262.4   0.019489009   0.16836  -0.04341  -0.20465   0.35298
  65   38415.9    260.3   0.010265123   0.08797  -0.04067  -0.25175   0.15146
  66   38427.5    260.2   0.040669492   0.34842   0.26525   0.40328  -0.33975
  67   38667.6    258.6   0.039336708   0.33491  -0.28496  -0.41778   0.28137
  68   38770.2    257.9   0.002553116   0.02168  -0.13945  -0.03081  -0.03583
  69   38856.8    257.4   0.054493873   0.46170   0.54516   0.20634   0.34917
  70   39011.1    256.3   0.001255986   0.01060  -0.04658  -0.03337  -0.08554
  71   39081.9    255.9   0.015393064   0.12967   0.30479  -0.09031   0.16915
  72   39189.7    255.2   0.017117644   0.14380   0.03898   0.34871  -0.14380
  73   39449.1    253.5   0.009627960   0.08035   0.17105  -0.06974   0.21500
  74   39641.1    252.3   0.027066667   0.22478   0.16227  -0.29038   0.33783
  75   39838.8    251.0   0.007403237   0.06118  -0.00794   0.21200  -0.12717
  76   39856.5    250.9   0.011536200   0.09529   0.26579   0.04940   0.14901
  77   40018.7    249.9   0.002578930   0.02122   0.04120  -0.05467   0.12856
  78   40125.5    249.2   0.009641886   0.07911   0.17901   0.16024  -0.14624
  79   40291.2    248.2   0.065989274   0.53919  -0.16038  -0.54575   0.46435

FINAL SINGLE POINT ENERGY     -3002.212493396764

DIPOLE MOMENT
-------------
                                X             Y             Z
Electronic contribution:    -10.97077      11.54798       7.09663
Nuclear contribution   :     11.15511     -11.42346      -6.85988
                        -----------------------------------------
Total Dipole Moment    :      0.18434       0.12453       0.23675
                        -----------------------------------------
Magnitude (a.u.)       :      0.32487
Magnitude (Debye)      :      0.82575

Rotational constants in cm-1:     0.001485     0.001324     0.000847
Rotational constants in MHz :    44.512969    39.688237    25.391117

                             ****ORCA TERMINATED NORMALLY****
TOTAL RUN TIME: 0 days 0 hours 11 minutes 50 seconds 175 msec
