                         Program Version 4.2.0 -  RELEASE  -
|  1> # ORCA input file
|  2> # SCF done       -137.244107116335          0.000650874198
|  3> ! CAM-B3LYP def2-SVP def2/J RIJCOSX Grid4 TightSCF
|  4> %maxcore 5000
|  5> %tddft
|  6>     Mode sTDDFT
|  7>     Ethresh 5.0
|  8>     maxcore 5000
|  9> end
| 10>
| 11> %pal
| 12>   nprocs 6
| 13>   end
| 14> * xyz 0 1
| 15>    C       -2.79683        -2.25903        -4.47744
| 16>    C       -1.71430        -1.73395        -5.17390
| 17>    C       -0.93489        -0.66604        -4.61488
| 18>    N        0.13995        -0.18993        -5.29165
| 19>    C        0.40780        -0.70883        -6.45273
| 20>    C       -0.37987        -1.74475        -7.01567
| 21>    N       -1.40119        -2.24724        -6.39188
| 22>    C       -1.25938        -0.12644        -3.35696
| 23>    C       -2.36516        -0.65861        -2.67014
| 24>    C       -3.12843        -1.73494        -3.23339
| 25>    N       -4.18326        -2.25608        -2.55409
| 26>    C       -4.47537        -1.73623        -1.40113
| 27>    C       -3.74903        -0.64245        -0.86396
| 28>    N       -2.73008        -0.12252        -1.47948
| 29>    C       -0.45494         0.93781        -2.76339
| 30>    C        0.00855         2.01408        -3.50966
| 31>    C        0.80057         3.00012        -2.91380
| 32>    C        1.05622         2.85233        -1.54359
| 33>    N        0.63193         1.82927        -0.83147
| 34>    C       -0.08764         0.89224        -1.41271
| 35>    C        1.30170         4.08954        -3.71787
| 36>    C        2.05172         5.12103        -3.27997
| 37>    C        2.57399         6.16709        -4.08880
| 38>    S        3.40739         7.50241        -3.33123
| 39>    C        3.75169         8.32099        -4.82797
| 40>    C        3.24438         7.57329        -5.88522
| 41>    C        2.58788         6.37332        -5.45692
| 42>    N        2.15158         5.71044        -6.56243
| 43>    C        2.52007         6.43921        -7.67699
| 44>    C        2.21479         6.00071        -8.97221
| 45>    N        1.96573         5.63542       -10.03138
| 46>    C        3.18638         7.58318        -7.30285
| 47>    C        4.45564         9.57430        -4.82489
| 48>    C        5.08427        10.04781        -3.67076
| 49>    C        5.77113        11.25969        -3.69186
| 50>    C        5.80847        11.94062        -4.91855
| 51>    N        5.20165        11.51877        -6.00957
| 52>    C        4.53837        10.38207        -5.97057
| 53>    C        6.44018        11.83427        -2.54447
| 54>    C        6.25131        11.44538        -1.27069
| 55>    C        6.87232        11.99923        -0.09672
| 56>    C        6.35772        11.60018         1.16131
| 57>    C        6.88069        12.13225         2.38407
| 58>    N        6.35277        11.76130         3.57948
| 59>    C        5.37003        10.91279         3.56841
| 60>    C        4.86469        10.36822         2.36203
| 61>    N        5.34400        10.70259         1.20041
| 62>    C        7.92905        13.04459         2.36028
| 63>    C        8.47181        13.42835         1.13858
| 64>    C        7.95526        12.90902        -0.09717
| 65>    N        8.53014        13.28608        -1.26309
| 66>    C        9.51606        14.13343        -1.22470
| 67>    C       10.00190        14.66550        -0.00627
| 68>    N        9.50092        14.31452         1.13887
| 69>    H       -3.37352        -3.06584        -4.89892
| 70>    H        1.27232        -0.31777        -6.97306
| 71>    H       -0.14557        -2.15974        -7.98694
| 72>    H       -5.31303        -2.16647        -0.86838
| 73>    H       -4.02657        -0.19420         0.08067
| 74>    H       -0.25618         2.09320        -4.55374
| 75>    H        1.62943         3.58580        -0.99396
| 76>    H       -0.37667         0.06022        -0.78761
| 77>    H        1.03081         4.03543        -4.76400
| 78>    H        2.29731         5.19943        -2.23050
| 79>    H        1.68571         4.82045        -6.59183
| 80>    H        3.58636         8.30972        -7.98012
| 81>    H        5.04818         9.45346        -2.76904
| 82>    H        6.34387        12.87642        -5.01103
| 83>    H        4.04021        10.10434        -6.88628
| 84>    H        7.11384        12.65140        -2.75529
| 85>    H        5.53369        10.66949        -1.04008
| 86>    H        4.95606        10.62958         4.52708
| 87>    H        4.06063         9.64429         2.36651
| 88>    H        8.31406        13.45763         3.27795
| 89>    H        9.95872        14.40657        -2.17372
| 90>    H       10.81902        15.37443         0.01149
| 91> *
| 92>
| 93>                          ****END OF INPUT****

CARTESIAN COORDINATES (ANGSTROEM)
---------------------------------
  C     -2.796830   -2.259030   -4.477440
  C     -1.714300   -1.733950   -5.173900
  C     -0.934890   -0.666040   -4.614880
  N      0.139950   -0.189930   -5.291650
  C      0.407800   -0.708830   -6.452730
  C     -0.379870   -1.744750   -7.015670
  N     -1.401190   -2.247240   -6.391880
  C     -1.259380   -0.126440   -3.356960
  C     -2.365160   -0.658610   -2.670140
  C     -3.128430   -1.734940   -3.233390
  N     -4.183260   -2.256080   -2.554090
  C     -4.475370   -1.736230   -1.401130
  C     -3.749030   -0.642450   -0.863960
  N     -2.730080   -0.122520   -1.479480
  C     -0.454940    0.937810   -2.763390
  C      0.008550    2.014080   -3.509660
  C      0.800570    3.000120   -2.913800
  C      1.056220    2.852330   -1.543590
  N      0.631930    1.829270   -0.831470
  C     -0.087640    0.892240   -1.412710
  C      1.301700    4.089540   -3.717870
  C      2.051720    5.121030   -3.279970
  C      2.573990    6.167090   -4.088800
  S      3.407390    7.502410   -3.331230
  C      3.751690    8.320990   -4.827970
  C      3.244380    7.573290   -5.885220
  C      2.587880    6.373320   -5.456920
  N      2.151580    5.710440   -6.562430
  C      2.520070    6.439210   -7.676990
  C      2.214790    6.000710   -8.972210
  N      1.965730    5.635420  -10.031380
  C      3.186380    7.583180   -7.302850
  C      4.455640    9.574300   -4.824890
  C      5.084270   10.047810   -3.670760
  C      5.771130   11.259690   -3.691860
  C      5.808470   11.940620   -4.918550
  N      5.201650   11.518770   -6.009570
  C      4.538370   10.382070   -5.970570
  C      6.440180   11.834270   -2.544470
  C      6.251310   11.445380   -1.270690
  C      6.872320   11.999230   -0.096720
  C      6.357720   11.600180    1.161310
  C      6.880690   12.132250    2.384070
  N      6.352770   11.761300    3.579480
  C      5.370030   10.912790    3.568410
  C      4.864690   10.368220    2.362030
  N      5.344000   10.702590    1.200410
  C      7.929050   13.044590    2.360280
  C      8.471810   13.428350    1.138580
  C      7.955260   12.909020   -0.097170
  N      8.530140   13.286080   -1.263090
  C      9.516060   14.133430   -1.224700
  C     10.001900   14.665500   -0.006270
  N      9.500920   14.314520    1.138870
  H     -3.373520   -3.065840   -4.898920
  H      1.272320   -0.317770   -6.973060
  H     -0.145570   -2.159740   -7.986940
  H     -5.313030   -2.166470   -0.868380
  H     -4.026570   -0.194200    0.080670
  H     -0.256180    2.093200   -4.553740
  H      1.629430    3.585800   -0.993960
  H     -0.376670    0.060220   -0.787610
  H      1.030810    4.035430   -4.764000
  H      2.297310    5.199430   -2.230500
  H      1.685710    4.820450   -6.591830
  H      3.586360    8.309720   -7.980120
  H      5.048180    9.453460   -2.769040
  H      6.343870   12.876420   -5.011030
  H      4.040210   10.104340   -6.886280
  H      7.113840   12.651400   -2.755290
  H      5.533690   10.669490   -1.040080
  H      4.956060   10.629580    4.527080
  H      4.060630    9.644290    2.366510
  H      8.314060   13.457630    3.277950
  H      9.958720   14.406570   -2.173720
  H     10.819020   15.374430    0.011490

 Total Charge           Charge          ....    0
 Multiplicity           Mult            ....    1
 Number of Electrons    NEL             ....  368
 Basis Dimension        Dim             ....  870

ORBITAL ENERGIES
----------------

  NO   OCC          E(Eh)            E(eV)
   0   2.0000     -88.964466     -2420.8462
   1   2.0000     -14.475476      -393.8977
   2   2.0000     -14.430646      -392.6779
   3   2.0000     -14.428493      -392.6193
   4   2.0000     -14.428345      -392.6152
   5   2.0000     -14.428240      -392.6124
   6   2.0000     -14.427596      -392.5949
   7   2.0000     -14.427300      -392.5868
   8   2.0000     -14.425904      -392.5488
   9   2.0000     -14.425273      -392.5316
  10   2.0000     -14.416176      -392.2841
  11   2.0000     -14.397662      -391.7803
  12   2.0000     -14.390644      -391.5893
  13   2.0000     -10.346434      -281.5408
  14   2.0000     -10.326724      -281.0044
  15   2.0000     -10.325040      -280.9586
  16   2.0000     -10.324474      -280.9432
  17   2.0000     -10.324445      -280.9424
  18   2.0000     -10.324285      -280.9381
  19   2.0000     -10.324100      -280.9331
  20   2.0000     -10.323478      -280.9161
  21   2.0000     -10.323310      -280.9116
  22   2.0000     -10.322277      -280.8834
  23   2.0000     -10.322245      -280.8826
  24   2.0000     -10.322013      -280.8762
  25   2.0000     -10.321617      -280.8655
  26   2.0000     -10.321120      -280.8520
  27   2.0000     -10.320040      -280.8226
  28   2.0000     -10.320027      -280.8222
  29   2.0000     -10.319074      -280.7963
  30   2.0000     -10.318531      -280.7815
  31   2.0000     -10.315566      -280.7008
  32   2.0000     -10.311344      -280.5859
  33   2.0000     -10.305144      -280.4172
  34   2.0000     -10.300793      -280.2988
  35   2.0000     -10.298827      -280.2453
  36   2.0000     -10.296507      -280.1822
  37   2.0000     -10.295777      -280.1623
  38   2.0000     -10.295312      -280.1497
  39   2.0000     -10.292796      -280.0812
  40   2.0000     -10.292688      -280.0783
  41   2.0000     -10.288868      -279.9743
  42   2.0000     -10.288239      -279.9572
  43   2.0000     -10.286240      -279.9028
  44   2.0000     -10.284782      -279.8631
  45   2.0000     -10.283564      -279.8300
  46   2.0000     -10.280821      -279.7554
  47   2.0000     -10.280630      -279.7502
  48   2.0000     -10.280206      -279.7386
  49   2.0000     -10.279731      -279.7257
  50   2.0000     -10.279394      -279.7165
  51   2.0000     -10.279015      -279.7062
  52   2.0000     -10.268090      -279.4089
  53   2.0000     -10.267231      -279.3856
  54   2.0000      -8.059081      -219.2988
  55   2.0000      -6.028318      -164.0389
  56   2.0000      -6.024242      -163.9280
  57   2.0000      -6.021439      -163.8517
  58   2.0000      -1.097569       -29.8664
  59   2.0000      -1.088021       -29.6066
  60   2.0000      -1.085403       -29.5353
  61   2.0000      -1.080690       -29.4071
  62   2.0000      -1.078537       -29.3485
  63   2.0000      -1.033232       -28.1157
  64   2.0000      -1.028224       -27.9794
  65   2.0000      -1.010681       -27.5020
  66   2.0000      -1.008539       -27.4437
  67   2.0000      -1.005634       -27.3647
  68   2.0000      -1.003198       -27.2984
  69   2.0000      -0.997704       -27.1489
  70   2.0000      -0.980335       -26.6763
  71   2.0000      -0.953149       -25.9365
  72   2.0000      -0.949001       -25.8236
  73   2.0000      -0.922209       -25.0946
  74   2.0000      -0.911081       -24.7918
  75   2.0000      -0.900538       -24.5049
  76   2.0000      -0.887784       -24.1578
  77   2.0000      -0.886545       -24.1241
  78   2.0000      -0.866845       -23.5880
  79   2.0000      -0.866231       -23.5713
  80   2.0000      -0.864023       -23.5113
  81   2.0000      -0.851765       -23.1777
  82   2.0000      -0.843079       -22.9413
  83   2.0000      -0.826408       -22.4877
  84   2.0000      -0.811741       -22.0886
  85   2.0000      -0.792888       -21.5756
  86   2.0000      -0.790498       -21.5106
  87   2.0000      -0.789012       -21.4701
  88   2.0000      -0.764588       -20.8055
  89   2.0000      -0.762320       -20.7438
  90   2.0000      -0.746610       -20.3163
  91   2.0000      -0.741228       -20.1699
  92   2.0000      -0.736603       -20.0440
  93   2.0000      -0.729126       -19.8405
  94   2.0000      -0.726471       -19.7683
  95   2.0000      -0.725169       -19.7328
  96   2.0000      -0.704227       -19.1630
  97   2.0000      -0.698034       -18.9945
  98   2.0000      -0.695089       -18.9143
  99   2.0000      -0.691756       -18.8236
 100   2.0000      -0.686713       -18.6864
 101   2.0000      -0.684576       -18.6283
 102   2.0000      -0.664043       -18.0695
 103   2.0000      -0.650643       -17.7049
 104   2.0000      -0.642560       -17.4850
 105   2.0000      -0.635271       -17.2866
 106   2.0000      -0.631929       -17.1957
 107   2.0000      -0.630719       -17.1627
 108   2.0000      -0.617504       -16.8031
 109   2.0000      -0.606351       -16.4996
 110   2.0000      -0.600019       -16.3274
 111   2.0000      -0.594981       -16.1902
 112   2.0000      -0.593190       -16.1415
 113   2.0000      -0.592501       -16.1228
 114   2.0000      -0.589906       -16.0522
 115   2.0000      -0.582948       -15.8628
 116   2.0000      -0.578033       -15.7291
 117   2.0000      -0.576369       -15.6838
 118   2.0000      -0.574672       -15.6376
 119   2.0000      -0.567404       -15.4398
 120   2.0000      -0.554278       -15.0827
 121   2.0000      -0.549050       -14.9404
 122   2.0000      -0.547834       -14.9073
 123   2.0000      -0.543553       -14.7908
 124   2.0000      -0.541407       -14.7324
 125   2.0000      -0.540796       -14.7158
 126   2.0000      -0.534947       -14.5566
 127   2.0000      -0.524227       -14.2649
 128   2.0000      -0.523621       -14.2484
 129   2.0000      -0.519500       -14.1363
 130   2.0000      -0.517206       -14.0739
 131   2.0000      -0.515017       -14.0143
 132   2.0000      -0.513873       -13.9832
 133   2.0000      -0.511745       -13.9253
 134   2.0000      -0.510979       -13.9044
 135   2.0000      -0.503464       -13.7000
 136   2.0000      -0.495659       -13.4876
 137   2.0000      -0.492291       -13.3959
 138   2.0000      -0.488768       -13.3000
 139   2.0000      -0.485058       -13.1991
 140   2.0000      -0.482903       -13.1405
 141   2.0000      -0.481269       -13.0960
 142   2.0000      -0.475986       -12.9522
 143   2.0000      -0.475373       -12.9355
 144   2.0000      -0.467372       -12.7178
 145   2.0000      -0.465965       -12.6796
 146   2.0000      -0.464597       -12.6423
 147   2.0000      -0.453701       -12.3458
 148   2.0000      -0.447158       -12.1678
 149   2.0000      -0.445269       -12.1164
 150   2.0000      -0.444509       -12.0957
 151   2.0000      -0.442749       -12.0478
 152   2.0000      -0.438051       -11.9200
 153   2.0000      -0.435592       -11.8531
 154   2.0000      -0.425927       -11.5901
 155   2.0000      -0.423409       -11.5215
 156   2.0000      -0.421613       -11.4727
 157   2.0000      -0.420379       -11.4391
 158   2.0000      -0.418145       -11.3783
 159   2.0000      -0.414457       -11.2779
 160   2.0000      -0.414117       -11.2687
 161   2.0000      -0.413051       -11.2397
 162   2.0000      -0.393343       -10.7034
 163   2.0000      -0.390436       -10.6243
 164   2.0000      -0.388771       -10.5790
 165   2.0000      -0.386881       -10.5276
 166   2.0000      -0.382111       -10.3978
 167   2.0000      -0.372108       -10.1256
 168   2.0000      -0.349002        -9.4968
 169   2.0000      -0.348286        -9.4774
 170   2.0000      -0.332369        -9.0442
 171   2.0000      -0.330273        -8.9872
 172   2.0000      -0.328025        -8.9260
 173   2.0000      -0.327313        -8.9066
 174   2.0000      -0.325928        -8.8689
 175   2.0000      -0.324968        -8.8428
 176   2.0000      -0.321613        -8.7515
 177   2.0000      -0.318430        -8.6649
 178   2.0000      -0.316385        -8.6093
 179   2.0000      -0.311740        -8.4829
 180   2.0000      -0.300826        -8.1859
 181   2.0000      -0.282494        -7.6871
 182   2.0000      -0.263667        -7.1748
 183   2.0000      -0.237081        -6.4513
 184   0.0000      -0.080863        -2.2004
 185   0.0000      -0.078259        -2.1295
 186   0.0000      -0.057014        -1.5514
 187   0.0000      -0.013721        -0.3734
 188   0.0000      -0.010936        -0.2976

MULLIKEN ATOMIC CHARGES
-----------------------
   0 C :   -0.072802
   1 C :    0.028282
   2 C :   -0.053347
   3 N :   -0.018027
   4 C :    0.024779
   5 C :    0.021507
   6 N :   -0.014473
   7 C :    0.102775
   8 C :   -0.063609
   9 C :    0.033104
  10 N :   -0.016431
  11 C :    0.021444
  12 C :    0.027129
  13 N :   -0.009479
  14 C :   -0.029690
  15 C :    0.022386
  16 C :    0.067691
  17 C :   -0.020777
  18 N :   -0.057957
  19 C :    0.032715
  20 C :   -0.022666
  21 C :    0.101135
  22 C :   -0.182287
  23 S :    0.132009
  24 C :   -0.139909
  25 C :    0.117814
  26 C :    0.106216
  27 N :   -0.042880
  28 C :   -0.096341
  29 C :   -0.149493
  30 N :    0.165598
  31 C :   -0.044643
  32 C :    0.108217
  33 C :   -0.061188
  34 C :    0.084462
  35 C :   -0.023498
  36 N :   -0.047886
  37 C :   -0.033593
  38 C :    0.033616
  39 C :   -0.070031
  40 C :    0.114983
  41 C :   -0.051928
  42 C :    0.032782
  43 N :   -0.014597
  44 C :    0.021659
  45 C :    0.022673
  46 N :   -0.017628
  47 C :   -0.071670
  48 C :    0.033202
  49 C :   -0.054335
  50 N :   -0.024188
  51 C :    0.033224
  52 C :    0.019179
  53 N :   -0.015922
  54 H :   -0.033858
  55 H :    0.014051
  56 H :    0.017119
  57 H :    0.017287
  58 H :    0.016264
  59 H :   -0.025014
  60 H :   -0.008395
  61 H :   -0.009475
  62 H :   -0.071247
  63 H :   -0.026067
  64 H :    0.131920
  65 H :   -0.004081
  66 H :    0.002336
  67 H :   -0.006749
  68 H :   -0.018725
  69 H :   -0.002743
  70 H :   -0.005939
  71 H :    0.015508
  72 H :    0.015356
  73 H :   -0.035106
  74 H :    0.012913
  75 H :    0.017339
Sum of atomic charges:   -0.0000000

LOEWDIN ATOMIC CHARGES
----------------------
   0 C :   -0.000255
   1 C :   -0.013179
   2 C :   -0.010721
   3 N :   -0.032135
   4 C :    0.006235
   5 C :    0.007112
   6 N :   -0.033228
   7 C :   -0.004498
   8 C :   -0.009860
   9 C :   -0.012829
  10 N :   -0.035311
  11 C :    0.008169
  12 C :    0.008110
  13 N :   -0.026927
  14 C :   -0.037718
  15 C :    0.026667
  16 C :   -0.052208
  17 C :    0.025242
  18 N :   -0.070081
  19 C :    0.036233
  20 C :   -0.037987
  21 C :   -0.032817
  22 C :   -0.211188
  23 S :    0.465600
  24 C :   -0.168747
  25 C :   -0.065273
  26 C :   -0.002959
  27 N :    0.068628
  28 C :   -0.028726
  29 C :   -0.044404
  30 N :   -0.042053
  31 C :   -0.033246
  32 C :   -0.056119
  33 C :    0.008118
  34 C :   -0.041827
  35 C :    0.019713
  36 N :   -0.061999
  37 C :    0.018257
  38 C :    0.002642
  39 C :   -0.023095
  40 C :   -0.008205
  41 C :   -0.009190
  42 C :   -0.014336
  43 N :   -0.034253
  44 C :    0.006570
  45 C :    0.006582
  46 N :   -0.032923
  47 C :   -0.003878
  48 C :   -0.012069
  49 C :   -0.009452
  50 N :   -0.026027
  51 C :    0.009399
  52 C :    0.005512
  53 N :   -0.032612
  54 H :    0.042819
  55 H :    0.026658
  56 H :    0.028074
  57 H :    0.027806
  58 H :    0.028016
  59 H :    0.024287
  60 H :    0.016136
  61 H :    0.017564
  62 H :    0.014877
  63 H :    0.028711
  64 H :    0.090490
  65 H :    0.035329
  66 H :    0.022460
  67 H :    0.019907
  68 H :    0.018158
  69 H :    0.025597
  70 H :    0.026285
  71 H :    0.027356
  72 H :    0.027086
  73 H :    0.041764
  74 H :    0.026533
  75 H :    0.027634

  Mayer bond orders larger than 0.100000
B(  0-C ,  1-C ) :   1.2424 B(  0-C ,  7-C ) :   0.1425 B(  0-C ,  9-C ) :   1.2422
B(  0-C , 54-H ) :   1.0617 B(  1-C ,  2-C ) :   1.1706 B(  1-C ,  6-N ) :   1.3691
B(  2-C ,  3-N ) :   1.4204 B(  2-C ,  7-C ) :   1.3228 B(  3-N ,  4-C ) :   1.7091
B(  4-C ,  5-C ) :   1.1712 B(  4-C , 55-H ) :   0.9730 B(  5-C ,  6-N ) :   1.7300
B(  5-C , 56-H ) :   0.9732 B(  7-C ,  8-C ) :   1.3211 B(  7-C , 14-C ) :   0.9575
B(  8-C ,  9-C ) :   1.1668 B(  8-C , 13-N ) :   1.4316 B(  9-C , 10-N ) :   1.3667
B( 10-N , 11-C ) :   1.7301 B( 11-C , 12-C ) :   1.1673 B( 11-C , 57-H ) :   0.9733
B( 12-C , 13-N ) :   1.7131 B( 12-C , 58-H ) :   0.9737 B( 14-C , 15-C ) :   1.4012
B( 14-C , 19-C ) :   1.3496 B( 15-C , 16-C ) :   1.3477 B( 15-C , 59-H ) :   0.9851
B( 16-C , 17-C ) :   1.3249 B( 16-C , 20-C ) :   1.0812 B( 17-C , 18-N ) :   1.5748
B( 17-C , 60-H ) :   0.9816 B( 18-N , 19-C ) :   1.5549 B( 19-C , 61-H ) :   0.9793
B( 20-C , 21-C ) :   1.6785 B( 20-C , 62-H ) :   0.9744 B( 21-C , 22-C ) :   1.1297
B( 21-C , 63-H ) :   0.9427 B( 22-C , 23-S ) :   1.1070 B( 22-C , 24-C ) :   0.1237
B( 22-C , 26-C ) :   1.3972 B( 23-S , 24-C ) :   1.1557 B( 24-C , 25-C ) :   1.3605
B( 24-C , 32-C ) :   1.0709 B( 25-C , 26-C ) :   1.2285 B( 25-C , 31-C ) :   1.1512
B( 26-C , 27-N ) :   1.1733 B( 27-N , 28-C ) :   1.1922 B( 27-N , 64-H ) :   0.9354
B( 28-C , 29-C ) :   1.0518 B( 28-C , 31-C ) :   1.6028 B( 29-C , 30-N ) :   3.0568
B( 31-C , 65-H ) :   1.0072 B( 32-C , 33-C ) :   1.3485 B( 32-C , 37-C ) :   1.3133
B( 33-C , 34-C ) :   1.3863 B( 33-C , 66-H ) :   0.9775 B( 34-C , 35-C ) :   1.3115
B( 34-C , 38-C ) :   1.0286 B( 35-C , 36-N ) :   1.5591 B( 35-C , 67-H ) :   0.9865
B( 36-N , 37-C ) :   1.5699 B( 37-C , 68-H ) :   0.9891 B( 38-C , 39-C ) :   1.6771
B( 38-C , 69-H ) :   0.9621 B( 39-C , 40-C ) :   1.1463 B( 39-C , 70-H ) :   0.9513
B( 40-C , 41-C ) :   1.2582 B( 40-C , 47-C ) :   0.1385 B( 40-C , 49-C ) :   1.2488
B( 41-C , 42-C ) :   1.1730 B( 41-C , 46-N ) :   1.4351 B( 42-C , 43-N ) :   1.3698
B( 42-C , 47-C ) :   1.2502 B( 43-N , 44-C ) :   1.7273 B( 44-C , 45-C ) :   1.1722
B( 44-C , 71-H ) :   0.9737 B( 45-C , 46-N ) :   1.7103 B( 45-C , 72-H ) :   0.9745
B( 47-C , 48-C ) :   1.2447 B( 47-C , 73-H ) :   1.0549 B( 48-C , 49-C ) :   1.1721
B( 48-C , 53-N ) :   1.3725 B( 49-C , 50-N ) :   1.4267 B( 50-N , 51-C ) :   1.6930
B( 51-C , 52-C ) :   1.1772 B( 51-C , 74-H ) :   0.9730 B( 52-C , 53-N ) :   1.7230
B( 52-C , 75-H ) :   0.9742

-----------------------------------------------------------------------------
         ABSORPTION SPECTRUM VIA TRANSITION ELECTRIC DIPOLE MOMENTS
-----------------------------------------------------------------------------
State   Energy  Wavelength   fosc         T2         TX        TY        TZ
        (cm-1)    (nm)                  (au**2)     (au)      (au)      (au)
-----------------------------------------------------------------------------
   0   21192.6    471.9   0.454477668   7.05998   1.37632   1.68352   1.52691
   1   21247.6    470.6   0.054317370   0.84160   0.38854   0.53295   0.63765
   2   22640.3    441.7   0.389338863   5.66137  -1.25447  -1.97601  -0.42787
   3   23680.7    422.3   0.728226658  10.12391   1.31234   2.63008  -1.21835
   4   25988.9    384.8   0.007449147   0.09436   0.17589  -0.16743  -0.18813
   5   26137.4    382.6   0.050422309   0.63509  -0.37094  -0.51513  -0.48181
   6   27197.8    367.7   0.008541108   0.10338  -0.18678   0.17058  -0.19849
   7   27260.2    366.8   0.001670659   0.02018  -0.13793   0.02433  -0.02364
   8   27884.4    358.6   0.038761982   0.45764  -0.40180  -0.47255  -0.26998
   9   30142.0    331.8   0.004195018   0.04582  -0.01247   0.01225   0.21334
  10   31555.4    316.9   0.089291794   0.93157   0.56527   0.46124  -0.63189
  11   32388.6    308.8   0.024498337   0.24901   0.02552   0.39135   0.30856
  12   32451.8    308.1   0.160775510   1.63101  -0.57270  -1.07751   0.37683
  13   32637.8    306.4   0.120490810   1.21537  -0.78548  -0.12186   0.76390
  14   33324.4    300.1   0.001671622   0.01651   0.01022  -0.01092  -0.12763
  15   33748.4    296.3   0.026170653   0.25529  -0.21341   0.04462  -0.45580
  16   34856.7    286.9   0.114603728   1.08240   0.18743  -0.03591   1.02273
  17   34979.7    285.9   0.040008282   0.37654   0.38752   0.36422  -0.30612
  18   35059.7    285.2   0.002506651   0.02354  -0.01295   0.05303  -0.14338
  19   35612.8    280.8   0.060893715   0.56291  -0.05759   0.12791  -0.73705
  20   35694.6    280.2   0.003808515   0.03513   0.00695   0.08431  -0.16724
  21   35949.8    278.2   0.565796690   5.18130   0.38690   0.10624   2.24061
  22   36567.2    273.5   0.047323395   0.42605  -0.42779  -0.34706  -0.35013
  23   36588.9    273.3   0.037754427   0.33970   0.27483  -0.05559  -0.51096
  24   36721.6    272.3   0.017773504   0.15934   0.24522   0.25379  -0.18656
  25   36792.8    271.8   0.297914198   2.66565  -0.87997  -0.64309  -1.21563
  26   36894.2    271.0   0.000679733   0.00607   0.00678  -0.05899  -0.05040
  27   37027.5    270.1   0.095004420   0.84469  -0.54893  -0.54863  -0.49230
  28   37784.7    264.7   0.037423987   0.32607   0.26187   0.50495  -0.05022
  29   38447.5    260.1   0.014812677   0.12684  -0.06932  -0.03762  -0.34730
  30   38838.3    257.5   0.018511715   0.15691  -0.26930  -0.26241  -0.12464
  31   38924.5    256.9   0.174162821   1.47302  -0.65320  -0.53358   0.87272
  32   39422.4    253.7   0.031093365   0.25966  -0.32542  -0.37934  -0.09930
  33   39564.4    252.8   0.000808209   0.00673   0.07522   0.03111  -0.00997
  34   39672.1    252.1   0.003079312   0.02555  -0.09258   0.08066  -0.10235
  35   39845.6    251.0   0.012602451   0.10412   0.22574   0.14348  -0.18050
  36   40021.2    249.9   0.003939513   0.03241   0.05922  -0.04431  -0.16412
  37   40124.6    249.2   0.011414192   0.09365   0.02441  -0.03830  -0.30263

FINAL SINGLE POINT ENERGY     -2627.834951668445

DIPOLE MOMENT
-------------
                                X             Y             Z
Electronic contribution:     -1.96323      -2.65243      -3.19744
Nuclear contribution   :      1.87937       2.34091       4.32493
                        -----------------------------------------
Total Dipole Moment    :     -0.08385      -0.31153       1.12749
                        -----------------------------------------
Magnitude (a.u.)       :      1.17274
Magnitude (Debye)      :      2.98087

Rotational constants in cm-1:     0.002771     0.000501     0.000433
Rotational constants in MHz :    83.069461    15.028953    12.993848

                             ****ORCA TERMINATED NORMALLY****
TOTAL RUN TIME: 0 days 0 hours 6 minutes 37 seconds 328 msec
