                         Program Version 4.2.0 -  RELEASE  -
|  1> # ORCA input file
|  2> # SCF done       -162.117690212227          0.000875485479
|  3> ! CAM-B3LYP def2-SVP def2/J RIJCOSX Grid4 TightSCF
|  4> %maxcore 5000
|  5> %tddft
|  6>     Mode sTDDFT
|  7>     Ethresh 5.0
|  8>     maxcore 5000
|  9> end
| 10>
| 11> %pal
| 12>   nprocs 6
| 13>   end
| 14> * xyz 0 1
| 15>    C        4.99234         6.88584        -3.27114
| 16>    C        5.09576         6.79413        -1.88581
| 17>    C        4.07617         6.14067        -1.11792
| 18>    N        4.23934         5.96354         0.20899
| 19>    C        5.28714         6.48569         0.77125
| 20>    C        6.25977         7.20037         0.02560
| 21>    N        6.18407         7.31716        -1.26607
| 22>    C        2.92858         5.62590        -1.75757
| 23>    C        2.79290         5.80955        -3.14961
| 24>    C        3.86027         6.39073        -3.90965
| 25>    N        3.78881         6.42872        -5.26449
| 26>    C        2.71395         5.96710        -5.83017
| 27>    C        1.61087         5.50637        -5.07291
| 28>    N        1.65485         5.42810        -3.77304
| 29>    C        1.95699         4.87862        -1.00265
| 30>    N        1.53837         5.21838         0.19376
| 31>    C        0.64105         4.27285         0.56020
| 32>    C        0.46759         3.26947        -0.50692
| 33>    C       -0.47602         2.21761        -0.08680
| 34>    O       -0.80760         1.21079        -0.66999
| 35>    C       -0.88274         2.68277         1.25582
| 36>    C       -0.16926         3.93007         1.61089
| 37>    N       -0.51703         4.33813         2.85876
| 38>    C       -1.37581         3.44662         3.28421
| 39>    C       -1.64332         2.38076         2.33843
| 40>    C        1.32061         3.63466        -1.50393
| 41>    C        1.53486         3.05492        -2.79722
| 42>    C        0.42518         2.64375        -3.56579
| 43>    C        0.60727         2.13066        -4.88245
| 44>    N       -0.46088         1.72693        -5.59171
| 45>    C       -1.64884         1.84088        -5.06458
| 46>    C       -1.82782         2.42925        -3.79529
| 47>    N       -0.81673         2.81890        -3.07499
| 48>    C        1.89430         2.03410        -5.48350
| 49>    C        2.99327         2.52066        -4.72501
| 50>    C        2.81906         2.94063        -3.36799
| 51>    N        3.89616         3.28152        -2.62708
| 52>    C        5.05723         3.35614        -3.21483
| 53>    C        5.18707         3.13955        -4.60135
| 54>    N        4.18963         2.69653        -5.31633
| 55>    C        2.00189         1.53850        -6.80653
| 56>    S        0.63398         1.68996        -7.85909
| 57>    C        1.50243         1.07212        -9.22720
| 58>    C        2.79633         0.66203        -8.85055
| 59>    C        3.07606         0.91018        -7.47577
| 60>    C        4.27343         0.42621        -6.93675
| 61>    C        5.21209        -0.19586        -7.73375
| 62>    C        6.44789        -0.70053        -7.14058
| 63>    C        7.05031        -0.16612        -6.08559
| 64>    C        4.96378        -0.36605        -9.12558
| 65>    C        5.99420        -0.99887       -10.00859
| 66>    C        3.76690         0.04394        -9.65500
| 67>    C        0.92266         0.97150       -10.50626
| 68>    C       -0.35711         1.32437       -10.79812
| 69>    C       -0.95597         1.23242       -12.07762
| 70>    S       -2.62105         1.72826       -12.28249
| 71>    C       -2.61202         1.34714       -13.95624
| 72>    C       -1.39916         0.86463       -14.34468
| 73>    C       -0.45457         0.79604       -13.28995
| 74>    S        1.12146         0.18556       -13.71007
| 75>    C        0.77901        -0.09699       -15.43802
| 76>    O        1.59087        -0.53383       -16.19042
| 77>    S       -0.87523         0.33521       -15.92434
| 78>    H        5.78375         7.33827        -3.84674
| 79>    H        5.40024         6.32671         1.83495
| 80>    H        7.12304         7.64230         0.50518
| 81>    H        2.68673         5.97688        -6.91127
| 82>    H        0.68361         5.21413        -5.54777
| 83>    H       -1.81842         3.54145         4.26090
| 84>    H       -2.30855         1.55573         2.50116
| 85>    H       -2.48064         1.48192        -5.65448
| 86>    H       -2.81286         2.58346        -3.37765
| 87>    H        5.90558         3.60626        -2.59247
| 88>    H        6.11566         3.32182        -5.12452
| 89>    H        4.45089         0.50688        -5.87860
| 90>    H        6.88799        -1.56518        -7.61837
| 91>    H        6.67233         0.71639        -5.59680
| 92>    H        7.95716        -0.58360        -5.68275
| 93>    H        6.95779        -0.50658        -9.88826
| 94>    H        5.69569        -0.93178       -11.05158
| 95>    H        6.12035        -2.05245        -9.75836
| 96>    H        3.56158        -0.11935       -10.70242
| 97>    H        1.55655         0.58915       -11.29394
| 98>    H       -0.99061         1.70452       -10.00828
| 99>    H       -3.48696         1.49680       -14.55390
|100> *
|101>
|102>                          ****END OF INPUT****

CARTESIAN COORDINATES (ANGSTROEM)
---------------------------------
  C      4.992340    6.885840   -3.271140
  C      5.095760    6.794130   -1.885810
  C      4.076170    6.140670   -1.117920
  N      4.239340    5.963540    0.208990
  C      5.287140    6.485690    0.771250
  C      6.259770    7.200370    0.025600
  N      6.184070    7.317160   -1.266070
  C      2.928580    5.625900   -1.757570
  C      2.792900    5.809550   -3.149610
  C      3.860270    6.390730   -3.909650
  N      3.788810    6.428720   -5.264490
  C      2.713950    5.967100   -5.830170
  C      1.610870    5.506370   -5.072910
  N      1.654850    5.428100   -3.773040
  C      1.956990    4.878620   -1.002650
  N      1.538370    5.218380    0.193760
  C      0.641050    4.272850    0.560200
  C      0.467590    3.269470   -0.506920
  C     -0.476020    2.217610   -0.086800
  O     -0.807600    1.210790   -0.669990
  C     -0.882740    2.682770    1.255820
  C     -0.169260    3.930070    1.610890
  N     -0.517030    4.338130    2.858760
  C     -1.375810    3.446620    3.284210
  C     -1.643320    2.380760    2.338430
  C      1.320610    3.634660   -1.503930
  C      1.534860    3.054920   -2.797220
  C      0.425180    2.643750   -3.565790
  C      0.607270    2.130660   -4.882450
  N     -0.460880    1.726930   -5.591710
  C     -1.648840    1.840880   -5.064580
  C     -1.827820    2.429250   -3.795290
  N     -0.816730    2.818900   -3.074990
  C      1.894300    2.034100   -5.483500
  C      2.993270    2.520660   -4.725010
  C      2.819060    2.940630   -3.367990
  N      3.896160    3.281520   -2.627080
  C      5.057230    3.356140   -3.214830
  C      5.187070    3.139550   -4.601350
  N      4.189630    2.696530   -5.316330
  C      2.001890    1.538500   -6.806530
  S      0.633980    1.689960   -7.859090
  C      1.502430    1.072120   -9.227200
  C      2.796330    0.662030   -8.850550
  C      3.076060    0.910180   -7.475770
  C      4.273430    0.426210   -6.936750
  C      5.212090   -0.195860   -7.733750
  C      6.447890   -0.700530   -7.140580
  C      7.050310   -0.166120   -6.085590
  C      4.963780   -0.366050   -9.125580
  C      5.994200   -0.998870  -10.008590
  C      3.766900    0.043940   -9.655000
  C      0.922660    0.971500  -10.506260
  C     -0.357110    1.324370  -10.798120
  C     -0.955970    1.232420  -12.077620
  S     -2.621050    1.728260  -12.282490
  C     -2.612020    1.347140  -13.956240
  C     -1.399160    0.864630  -14.344680
  C     -0.454570    0.796040  -13.289950
  S      1.121460    0.185560  -13.710070
  C      0.779010   -0.096990  -15.438020
  O      1.590870   -0.533830  -16.190420
  S     -0.875230    0.335210  -15.924340
  H      5.783750    7.338270   -3.846740
  H      5.400240    6.326710    1.834950
  H      7.123040    7.642300    0.505180
  H      2.686730    5.976880   -6.911270
  H      0.683610    5.214130   -5.547770
  H     -1.818420    3.541450    4.260900
  H     -2.308550    1.555730    2.501160
  H     -2.480640    1.481920   -5.654480
  H     -2.812860    2.583460   -3.377650
  H      5.905580    3.606260   -2.592470
  H      6.115660    3.321820   -5.124520
  H      4.450890    0.506880   -5.878600
  H      6.887990   -1.565180   -7.618370
  H      6.672330    0.716390   -5.596800
  H      7.957160   -0.583600   -5.682750
  H      6.957790   -0.506580   -9.888260
  H      5.695690   -0.931780  -11.051580
  H      6.120350   -2.052450   -9.758360
  H      3.561580   -0.119350  -10.702420
  H      1.556550    0.589150  -11.293940
  H     -0.990610    1.704520  -10.008280
  H     -3.486960    1.496800  -14.553900

 Total Charge           Charge          ....    0
 Multiplicity           Mult            ....    1
 Number of Electrons    NEL             ....  454
 Basis Dimension        Dim             .... 1008

ORBITAL ENERGIES
----------------

  NO   OCC          E(Eh)            E(eV)
   0   2.0000     -88.968629     -2420.9595
   1   2.0000     -88.964623     -2420.8505
   2   2.0000     -88.961663     -2420.7699
   3   2.0000     -88.959500     -2420.7111
   4   2.0000     -19.228618      -523.2373
   5   2.0000     -19.196570      -522.3652
   6   2.0000     -14.431646      -392.7050
   7   2.0000     -14.431516      -392.7015
   8   2.0000     -14.429289      -392.6409
   9   2.0000     -14.428015      -392.6062
  10   2.0000     -14.427870      -392.6023
  11   2.0000     -14.426763      -392.5722
  12   2.0000     -14.423898      -392.4942
  13   2.0000     -14.422093      -392.4451
  14   2.0000     -14.397708      -391.7815
  15   2.0000     -14.395725      -391.7276
  16   2.0000     -10.407964      -283.2151
  17   2.0000     -10.356988      -281.8280
  18   2.0000     -10.333572      -281.1908
  19   2.0000     -10.327780      -281.0332
  20   2.0000     -10.325740      -280.9777
  21   2.0000     -10.325715      -280.9770
  22   2.0000     -10.325639      -280.9749
  23   2.0000     -10.324429      -280.9420
  24   2.0000     -10.324279      -280.9379
  25   2.0000     -10.324104      -280.9331
  26   2.0000     -10.323637      -280.9205
  27   2.0000     -10.323630      -280.9202
  28   2.0000     -10.323207      -280.9088
  29   2.0000     -10.323149      -280.9072
  30   2.0000     -10.322784      -280.8972
  31   2.0000     -10.322293      -280.8839
  32   2.0000     -10.321381      -280.8591
  33   2.0000     -10.321257      -280.8557
  34   2.0000     -10.320944      -280.8472
  35   2.0000     -10.320933      -280.8469
  36   2.0000     -10.319548      -280.8092
  37   2.0000     -10.317925      -280.7650
  38   2.0000     -10.317059      -280.7415
  39   2.0000     -10.315329      -280.6944
  40   2.0000     -10.312987      -280.6306
  41   2.0000     -10.309094      -280.5247
  42   2.0000     -10.305745      -280.4336
  43   2.0000     -10.301832      -280.3271
  44   2.0000     -10.300399      -280.2881
  45   2.0000     -10.297852      -280.2188
  46   2.0000     -10.293522      -280.1010
  47   2.0000     -10.291115      -280.0355
  48   2.0000     -10.290738      -280.0252
  49   2.0000     -10.290146      -280.0091
  50   2.0000     -10.288765      -279.9715
  51   2.0000     -10.279793      -279.7274
  52   2.0000     -10.278010      -279.6789
  53   2.0000     -10.277410      -279.6626
  54   2.0000     -10.277351      -279.6609
  55   2.0000     -10.274419      -279.5812
  56   2.0000     -10.273540      -279.5572
  57   2.0000     -10.270724      -279.4806
  58   2.0000     -10.268933      -279.4319
  59   2.0000     -10.264404      -279.3086
  60   2.0000     -10.264213      -279.3034
  61   2.0000     -10.261340      -279.2252
  62   2.0000     -10.260563      -279.2041
  63   2.0000      -8.064289      -219.4405
  64   2.0000      -8.060802      -219.3456
  65   2.0000      -8.058811      -219.2914
  66   2.0000      -8.052815      -219.1282
  67   2.0000      -6.033697      -164.1852
  68   2.0000      -6.030560      -164.0999
  69   2.0000      -6.029455      -164.0698
  70   2.0000      -6.028463      -164.0428
  71   2.0000      -6.026575      -163.9914
  72   2.0000      -6.026247      -163.9825
  73   2.0000      -6.024688      -163.9401
  74   2.0000      -6.021983      -163.8665
  75   2.0000      -6.021466      -163.8524
  76   2.0000      -6.019283      -163.7930
  77   2.0000      -6.017504      -163.7446
  78   2.0000      -6.015747      -163.6968
  79   2.0000      -1.158295       -31.5188
  80   2.0000      -1.110924       -30.2298
  81   2.0000      -1.094047       -29.7705
  82   2.0000      -1.087501       -29.5924
  83   2.0000      -1.082718       -29.4622
  84   2.0000      -1.080163       -29.3927
  85   2.0000      -1.066321       -29.0161
  86   2.0000      -1.048870       -28.5412
  87   2.0000      -1.015994       -27.6466
  88   2.0000      -1.013876       -27.5890
  89   2.0000      -1.010645       -27.5010
  90   2.0000      -1.006106       -27.3775
  91   2.0000      -1.004516       -27.3343
  92   2.0000      -0.988988       -26.9117
  93   2.0000      -0.954259       -25.9667
  94   2.0000      -0.952350       -25.9148
  95   2.0000      -0.941472       -25.6187
  96   2.0000      -0.935937       -25.4682
  97   2.0000      -0.922072       -25.0908
  98   2.0000      -0.911466       -24.8023
  99   2.0000      -0.894658       -24.3449
 100   2.0000      -0.877665       -23.8825
 101   2.0000      -0.872107       -23.7312
 102   2.0000      -0.870457       -23.6863
 103   2.0000      -0.867407       -23.6033
 104   2.0000      -0.865773       -23.5589
 105   2.0000      -0.850849       -23.1528
 106   2.0000      -0.847419       -23.0594
 107   2.0000      -0.842908       -22.9367
 108   2.0000      -0.821945       -22.3663
 109   2.0000      -0.812342       -22.1049
 110   2.0000      -0.804455       -21.8903
 111   2.0000      -0.795912       -21.6579
 112   2.0000      -0.794478       -21.6188
 113   2.0000      -0.777298       -21.1514
 114   2.0000      -0.773497       -21.0479
 115   2.0000      -0.766433       -20.8557
 116   2.0000      -0.762392       -20.7458
 117   2.0000      -0.758836       -20.6490
 118   2.0000      -0.746816       -20.3219
 119   2.0000      -0.729038       -19.8381
 120   2.0000      -0.728565       -19.8253
 121   2.0000      -0.727665       -19.8008
 122   2.0000      -0.716515       -19.4974
 123   2.0000      -0.711983       -19.3740
 124   2.0000      -0.696114       -18.9422
 125   2.0000      -0.688851       -18.7446
 126   2.0000      -0.683585       -18.6013
 127   2.0000      -0.667715       -18.1694
 128   2.0000      -0.661018       -17.9872
 129   2.0000      -0.655024       -17.8241
 130   2.0000      -0.649405       -17.6712
 131   2.0000      -0.645279       -17.5589
 132   2.0000      -0.642076       -17.4718
 133   2.0000      -0.641715       -17.4619
 134   2.0000      -0.634528       -17.2664
 135   2.0000      -0.632251       -17.2044
 136   2.0000      -0.622538       -16.9401
 137   2.0000      -0.619179       -16.8487
 138   2.0000      -0.615537       -16.7496
 139   2.0000      -0.611450       -16.6384
 140   2.0000      -0.598099       -16.2751
 141   2.0000      -0.595844       -16.2137
 142   2.0000      -0.594779       -16.1848
 143   2.0000      -0.588835       -16.0230
 144   2.0000      -0.584553       -15.9065
 145   2.0000      -0.580569       -15.7981
 146   2.0000      -0.574888       -15.6435
 147   2.0000      -0.570798       -15.5322
 148   2.0000      -0.567657       -15.4467
 149   2.0000      -0.561892       -15.2898
 150   2.0000      -0.557503       -15.1704
 151   2.0000      -0.554220       -15.0811
 152   2.0000      -0.546677       -14.8758
 153   2.0000      -0.544984       -14.8298
 154   2.0000      -0.539865       -14.6905
 155   2.0000      -0.537056       -14.6140
 156   2.0000      -0.531306       -14.4576
 157   2.0000      -0.530875       -14.4458
 158   2.0000      -0.530561       -14.4373
 159   2.0000      -0.529131       -14.3984
 160   2.0000      -0.522615       -14.2211
 161   2.0000      -0.520330       -14.1589
 162   2.0000      -0.519221       -14.1287
 163   2.0000      -0.516783       -14.0624
 164   2.0000      -0.512346       -13.9416
 165   2.0000      -0.511502       -13.9187
 166   2.0000      -0.509864       -13.8741
 167   2.0000      -0.508373       -13.8335
 168   2.0000      -0.505955       -13.7677
 169   2.0000      -0.502731       -13.6800
 170   2.0000      -0.498098       -13.5539
 171   2.0000      -0.496934       -13.5223
 172   2.0000      -0.495498       -13.4832
 173   2.0000      -0.492022       -13.3886
 174   2.0000      -0.488421       -13.2906
 175   2.0000      -0.484235       -13.1767
 176   2.0000      -0.480276       -13.0690
 177   2.0000      -0.477084       -12.9821
 178   2.0000      -0.472394       -12.8545
 179   2.0000      -0.468674       -12.7533
 180   2.0000      -0.466046       -12.6818
 181   2.0000      -0.461645       -12.5620
 182   2.0000      -0.458484       -12.4760
 183   2.0000      -0.458010       -12.4631
 184   2.0000      -0.452905       -12.3242
 185   2.0000      -0.452018       -12.3000
 186   2.0000      -0.451473       -12.2852
 187   2.0000      -0.449899       -12.2424
 188   2.0000      -0.440868       -11.9966
 189   2.0000      -0.433640       -11.7999
 190   2.0000      -0.431745       -11.7484
 191   2.0000      -0.427425       -11.6308
 192   2.0000      -0.426098       -11.5947
 193   2.0000      -0.425147       -11.5688
 194   2.0000      -0.420432       -11.4405
 195   2.0000      -0.412829       -11.2337
 196   2.0000      -0.410562       -11.1720
 197   2.0000      -0.406588       -11.0638
 198   2.0000      -0.399570       -10.8729
 199   2.0000      -0.398906       -10.8548
 200   2.0000      -0.390850       -10.6356
 201   2.0000      -0.390045       -10.6137
 202   2.0000      -0.387438       -10.5427
 203   2.0000      -0.385215       -10.4822
 204   2.0000      -0.375476       -10.2172
 205   2.0000      -0.369552       -10.0560
 206   2.0000      -0.358991        -9.7686
 207   2.0000      -0.351543        -9.5660
 208   2.0000      -0.348386        -9.4801
 209   2.0000      -0.343757        -9.3541
 210   2.0000      -0.343194        -9.3388
 211   2.0000      -0.334671        -9.1069
 212   2.0000      -0.333760        -9.0821
 213   2.0000      -0.331707        -9.0262
 214   2.0000      -0.329740        -8.9727
 215   2.0000      -0.325664        -8.8618
 216   2.0000      -0.324205        -8.8221
 217   2.0000      -0.321335        -8.7440
 218   2.0000      -0.318113        -8.6563
 219   2.0000      -0.316639        -8.6162
 220   2.0000      -0.309656        -8.4262
 221   2.0000      -0.296518        -8.0687
 222   2.0000      -0.293376        -7.9832
 223   2.0000      -0.286204        -7.7880
 224   2.0000      -0.285172        -7.7599
 225   2.0000      -0.279247        -7.5987
 226   2.0000      -0.221189        -6.0189
 227   0.0000      -0.105753        -2.8777
 228   0.0000      -0.088842        -2.4175
 229   0.0000      -0.070726        -1.9246
 230   0.0000      -0.048650        -1.3238
 231   0.0000      -0.026614        -0.7242

MULLIKEN ATOMIC CHARGES
-----------------------
   0 C :   -0.080804
   1 C :    0.009028
   2 C :   -0.046034
   3 N :    0.043975
   4 C :    0.021873
   5 C :    0.025858
   6 N :   -0.021697
   7 C :    0.114462
   8 C :   -0.084271
   9 C :    0.025811
  10 N :   -0.017065
  11 C :    0.031094
  12 C :    0.032458
  13 N :    0.003862
  14 C :   -0.065065
  15 N :   -0.003171
  16 C :    0.073933
  17 C :   -0.159377
  18 C :    0.200819
  19 O :   -0.130085
  20 C :   -0.043417
  21 C :   -0.021210
  22 N :   -0.057014
  23 C :    0.088390
  24 C :   -0.099227
  25 C :    0.040388
  26 C :    0.093975
  27 C :   -0.033181
  28 C :   -0.089184
  29 N :   -0.059396
  30 C :    0.039298
  31 C :    0.038543
  32 N :    0.021416
  33 C :    0.176510
  34 C :   -0.117314
  35 C :   -0.088409
  36 N :    0.001924
  37 C :    0.029923
  38 C :    0.034919
  39 N :   -0.022953
  40 C :   -0.242340
  41 S :    0.170660
  42 C :   -0.072830
  43 C :    0.106376
  44 C :    0.186977
  45 C :   -0.076824
  46 C :    0.069241
  47 C :   -0.031986
  48 C :   -0.011621
  49 C :   -0.076019
  50 C :    0.099831
  51 C :   -0.103431
  52 C :   -0.015805
  53 C :    0.041963
  54 C :   -0.163091
  55 S :    0.137879
  56 C :   -0.137234
  57 C :   -0.000266
  58 C :   -0.003015
  59 S :    0.068384
  60 C :    0.077199
  61 O :   -0.154161
  62 S :    0.099710
  63 H :   -0.032729
  64 H :    0.020580
  65 H :    0.016522
  66 H :    0.020488
  67 H :    0.017842
  68 H :    0.004137
  69 H :   -0.010014
  70 H :    0.012454
  71 H :    0.015557
  72 H :    0.016699
  73 H :    0.023345
  74 H :   -0.034171
  75 H :   -0.007515
  76 H :    0.004799
  77 H :    0.019937
  78 H :    0.028141
  79 H :    0.011091
  80 H :    0.031045
  81 H :   -0.043983
  82 H :   -0.004438
  83 H :   -0.017537
  84 H :    0.028569
Sum of atomic charges:   -0.0000000

LOEWDIN ATOMIC CHARGES
----------------------
   0 C :    0.009718
   1 C :   -0.017547
   2 C :    0.007937
   3 N :   -0.011879
   4 C :    0.012805
   5 C :    0.009675
   6 N :   -0.039871
   7 C :   -0.019317
   8 C :   -0.006868
   9 C :   -0.019719
  10 N :   -0.037818
  11 C :    0.013759
  12 C :    0.006688
  13 N :   -0.027889
  14 C :    0.093241
  15 N :   -0.075920
  16 C :    0.053884
  17 C :   -0.033162
  18 C :    0.066805
  19 O :   -0.141026
  20 C :   -0.037215
  21 C :    0.021943
  22 N :   -0.098159
  23 C :    0.069898
  24 C :   -0.042297
  25 C :   -0.005578
  26 C :   -0.021409
  27 C :    0.007067
  28 C :   -0.018033
  29 N :   -0.054139
  30 C :    0.013394
  31 C :    0.016601
  32 N :   -0.009771
  33 C :   -0.030051
  34 C :   -0.021758
  35 C :   -0.011580
  36 N :   -0.031968
  37 C :    0.007197
  38 C :    0.001799
  39 N :   -0.023159
  40 C :   -0.171263
  41 S :    0.516307
  42 C :   -0.175453
  43 C :   -0.042702
  44 C :   -0.028068
  45 C :    0.008619
  46 C :   -0.029968
  47 C :   -0.018361
  48 C :   -0.041278
  49 C :   -0.015987
  50 C :   -0.045173
  51 C :   -0.030817
  52 C :   -0.036771
  53 C :   -0.052329
  54 C :   -0.185129
  55 S :    0.450815
  56 C :   -0.208318
  57 C :   -0.215984
  58 C :   -0.220064
  59 S :    0.357335
  60 C :   -0.202144
  61 O :   -0.149545
  62 S :    0.352201
  63 H :    0.043397
  64 H :    0.029632
  65 H :    0.027472
  66 H :    0.030332
  67 H :    0.025946
  68 H :    0.021544
  69 H :    0.032168
  70 H :    0.026906
  71 H :    0.028692
  72 H :    0.026736
  73 H :    0.027972
  74 H :    0.024154
  75 H :    0.027853
  76 H :    0.017891
  77 H :    0.024018
  78 H :    0.034715
  79 H :    0.030691
  80 H :    0.034807
  81 H :    0.023483
  82 H :    0.018938
  83 H :    0.022028
  84 H :    0.028424

  Mayer bond orders larger than 0.100000
B(  0-C ,  1-C ) :   1.2193 B(  0-C ,  7-C ) :   0.1442 B(  0-C ,  9-C ) :   1.2254
B(  0-C , 63-H ) :   1.0654 B(  1-C ,  2-C ) :   1.1771 B(  1-C ,  6-N ) :   1.3748
B(  2-C ,  3-N ) :   1.4870 B(  2-C ,  7-C ) :   1.3136 B(  3-N ,  4-C ) :   1.7052
B(  4-C ,  5-C ) :   1.1693 B(  4-C , 64-H ) :   0.9742 B(  5-C ,  6-N ) :   1.7226
B(  5-C , 65-H ) :   0.9727 B(  7-C ,  8-C ) :   1.3193 B(  7-C , 14-C ) :   0.9487
B(  8-C ,  9-C ) :   1.1705 B(  8-C , 13-N ) :   1.4429 B(  9-C , 10-N ) :   1.3652
B( 10-N , 11-C ) :   1.7167 B( 11-C , 12-C ) :   1.1742 B( 11-C , 66-H ) :   0.9756
B( 12-C , 13-N ) :   1.6634 B( 12-C , 67-H ) :   0.9696 B( 14-C , 15-N ) :   1.6834
B( 14-C , 16-C ) :   0.1411 B( 14-C , 25-C ) :   1.0867 B( 15-N , 16-C ) :   1.3008
B( 16-C , 17-C ) :   1.0400 B( 16-C , 21-C ) :   1.4440 B( 17-C , 18-C ) :   0.8706
B( 17-C , 25-C ) :   1.6704 B( 18-C , 19-O ) :   2.2958 B( 18-C , 20-C ) :   0.8992
B( 20-C , 21-C ) :   1.0524 B( 20-C , 24-C ) :   1.6178 B( 21-C , 22-N ) :   1.2979
B( 22-N , 23-C ) :   1.6699 B( 23-C , 24-C ) :   1.0699 B( 23-C , 68-H ) :   0.9883
B( 24-C , 69-H ) :   1.0095 B( 25-C , 26-C ) :   0.9550 B( 26-C , 27-C ) :   1.3074
B( 26-C , 33-C ) :   0.1401 B( 26-C , 35-C ) :   1.2878 B( 27-C , 28-C ) :   1.1716
B( 27-C , 32-N ) :   1.4869 B( 28-C , 29-N ) :   1.4164 B( 28-C , 33-C ) :   1.2087
B( 29-N , 30-C ) :   1.6527 B( 30-C , 31-C ) :   1.2026 B( 30-C , 70-H ) :   0.9729
B( 31-C , 32-N ) :   1.6698 B( 31-C , 71-H ) :   0.9747 B( 33-C , 34-C ) :   1.2334
B( 33-C , 40-C ) :   1.1717 B( 34-C , 35-C ) :   1.1299 B( 34-C , 39-N ) :   1.4662
B( 35-C , 36-N ) :   1.4678 B( 36-N , 37-C ) :   1.6602 B( 37-C , 38-C ) :   1.1808
B( 37-C , 72-H ) :   0.9743 B( 38-C , 39-N ) :   1.6641 B( 38-C , 73-H ) :   0.9690
B( 40-C , 41-S ) :   1.1579 B( 40-C , 42-C ) :   0.1036 B( 40-C , 44-C ) :   1.2873
B( 41-S , 42-C ) :   1.1260 B( 42-C , 43-C ) :   1.2805 B( 42-C , 52-C ) :   1.2261
B( 43-C , 44-C ) :   1.2190 B( 43-C , 51-C ) :   1.1997 B( 44-C , 45-C ) :   1.2172
B( 45-C , 46-C ) :   1.5115 B( 45-C , 74-H ) :   0.9768 B( 46-C , 47-C ) :   1.0295
B( 46-C , 49-C ) :   1.2088 B( 47-C , 48-C ) :   1.9751 B( 47-C , 75-H ) :   0.9534
B( 48-C , 76-H ) :   0.9523 B( 48-C , 77-H ) :   0.9494 B( 49-C , 50-C ) :   1.0865
B( 49-C , 51-C ) :   1.5441 B( 50-C , 78-H ) :   0.9436 B( 50-C , 79-H ) :   0.9541
B( 50-C , 80-H ) :   0.9402 B( 51-C , 81-H ) :   0.9889 B( 52-C , 53-C ) :   1.6255
B( 52-C , 82-H ) :   0.9591 B( 53-C , 54-C ) :   1.1553 B( 53-C , 83-H ) :   0.9587
B( 54-C , 55-S ) :   1.1357 B( 54-C , 58-C ) :   1.5481 B( 55-S , 56-C ) :   1.1544
B( 56-C , 57-C ) :   1.5940 B( 56-C , 84-H ) :   0.9736 B( 57-C , 58-C ) :   1.2476
B( 57-C , 62-S ) :   0.9811 B( 58-C , 59-S ) :   0.9981 B( 59-S , 60-C ) :   0.9777
B( 59-S , 61-O ) :   0.1031 B( 60-C , 61-O ) :   2.1170 B( 60-C , 62-S ) :   0.9965
B( 61-O , 62-S ) :   0.1093

-----------------------------------------------------------------------------
         ABSORPTION SPECTRUM VIA TRANSITION ELECTRIC DIPOLE MOMENTS
-----------------------------------------------------------------------------
State   Energy  Wavelength   fosc         T2         TX        TY        TZ
        (cm-1)    (nm)                  (au**2)     (au)      (au)      (au)
-----------------------------------------------------------------------------
   0   10830.1    923.4   0.494213945  15.02302  -0.05548  -1.33478  -3.63845
   1   13501.3    740.7   0.106643321   2.60037   0.13673   0.31366   1.57585
   2   18123.8    551.8   0.037653693   0.68396  -0.41472  -0.33779   0.63077
   3   21033.4    475.4   0.008773857   0.13733   0.20591   0.17265  -0.25519
   4   21426.7    466.7   0.494085584   7.59141  -1.22689  -0.28557  -2.45043
   5   21964.9    455.3   0.139642797   2.09298  -0.68972  -0.74645   1.02960
   6   22749.6    439.6   0.104319273   1.50961  -0.76522  -0.83103   0.48315
   7   23285.4    429.5   0.104538820   1.47798  -1.17783  -0.27799   0.11586
   8   23721.5    421.6   0.021225199   0.29457  -0.24900   0.39983   0.26963
   9   24344.7    410.8   0.172595187   2.33400   0.47940   0.27897  -1.42350
  10   24698.3    404.9   0.060925079   0.81209  -0.74602   0.48507  -0.14234
  11   25224.8    396.4   0.071352046   0.93123   0.82343   0.46097  -0.20174
  12   25629.8    390.2   0.037285088   0.47892   0.29361   0.24993  -0.57468
  13   26225.6    381.3   0.013998862   0.17573   0.24524   0.11804  -0.31883
  14   26592.0    376.1   0.005441382   0.06736   0.23128   0.06793  -0.09623
  15   26938.3    371.2   0.001754161   0.02144   0.12796   0.04729  -0.05316
  16   27308.0    366.2   0.036025207   0.43430  -0.63339  -0.02432   0.18034
  17   27496.3    363.7   0.004654594   0.05573  -0.05080   0.03397   0.22802
  18   27618.8    362.1   0.054308679   0.64735   0.65138  -0.03589   0.47092
  19   27930.2    358.0   0.056061482   0.66079  -0.58454   0.48654  -0.28704
  20   28079.9    356.1   0.061386451   0.71970  -0.28692  -0.00927   0.79831
  21   28400.7    352.1   0.030076187   0.34863  -0.54232  -0.18618  -0.14091
  22   28675.0    348.7   0.022191112   0.25477  -0.04375  -0.27761   0.41928
  23   28993.9    344.9   0.009261894   0.10516   0.27400  -0.13957   0.10300
  24   29105.8    343.6   0.001891796   0.02140  -0.12260  -0.02743  -0.07494
  25   29528.6    338.7   0.133017112   1.48300   0.99184  -0.36669   0.60398
  26   29718.3    336.5   0.015308584   0.16958  -0.12167   0.14794  -0.36455
  27   29952.1    333.9   0.103959912   1.14265   0.88880   0.09736  -0.58584
  28   30541.6    327.4   0.051569224   0.55587  -0.55109  -0.29307  -0.40777
  29   30788.0    324.8   0.081864462   0.87537   0.18816  -0.10968   0.90991
  30   30893.8    323.7   0.035734241   0.38079  -0.52899   0.23716   0.21146
  31   31184.4    320.7   0.074356109   0.78497  -0.64961   0.08140  -0.59695
  32   31559.0    316.9   0.041501679   0.43293   0.48553   0.35931  -0.26094
  33   32117.8    311.4   0.089861912   0.92110   0.56867  -0.25431   0.73010
  34   32243.9    310.1   0.031983292   0.32655   0.26882   0.48240   0.14691
  35   32511.4    307.6   0.040547453   0.41059  -0.60943   0.18680  -0.06548
  36   32929.6    303.7   0.004654058   0.04653   0.17147  -0.07567   0.10677
  37   33068.4    302.4   0.122686077   1.22140  -0.89778   0.04337   0.64304
  38   33254.7    300.7   0.056900416   0.56330   0.22392   0.09858  -0.70953
  39   33518.2    298.3   0.050938989   0.50032  -0.60697   0.14560  -0.33273
  40   33621.7    297.4   0.025221425   0.24696  -0.32271   0.28384   0.24949
  41   33952.2    294.5   0.011289953   0.10947   0.08219  -0.05687  -0.31541
  42   34162.8    292.7   0.031092731   0.29963   0.52689   0.11010  -0.09948
  43   34243.7    292.0   0.037059563   0.35628   0.07415   0.56130  -0.18901
  44   34464.4    290.2   0.027796752   0.26552   0.48427  -0.13614   0.11167
  45   34611.7    288.9   0.263293209   2.50434   1.53434   0.17488   0.34576
  46   34815.8    287.2   0.045889247   0.43392   0.59177   0.13731  -0.25471
  47   34953.8    286.1   0.046114680   0.43433   0.65432   0.07629   0.01952
  48   35317.9    283.1   0.007638160   0.07120   0.08637   0.21414   0.13373
  49   35554.2    281.3   0.003202528   0.02965   0.02597  -0.10833   0.13131
  50   35651.1    280.5   0.028388169   0.26214  -0.47270   0.19626  -0.01322
  51   35993.7    277.8   0.011272735   0.10310  -0.10623  -0.18003   0.24374
  52   36265.3    275.7   0.008632359   0.07836   0.14276  -0.13065  -0.20227
  53   36414.9    274.6   0.011090695   0.10027  -0.29781   0.07847   0.07360
  54   36704.7    272.4   0.036802241   0.33009  -0.39402  -0.37095   0.19296
  55   36759.7    272.0   0.005142866   0.04606   0.02173  -0.01241  -0.21315
  56   37087.1    269.6   0.009690712   0.08602   0.23511   0.11806  -0.12964
  57   37138.5    269.3   0.015127116   0.13409   0.18312   0.31675   0.01519
  58   37541.6    266.4   0.130555283   1.14487   0.12118   0.41755   0.97767
  59   37815.9    264.4   0.080380018   0.69976  -0.80725   0.20977  -0.06407
  60   37998.9    263.2   0.022174689   0.19212  -0.17937  -0.32755  -0.22945
  61   38203.4    261.8   0.102424339   0.88263  -0.14531  -0.56582  -0.73577
  62   38556.8    259.4   0.029611287   0.25283  -0.38781  -0.01589   0.31966
  63   38680.5    258.5   0.071503395   0.60857   0.50932  -0.02889  -0.59019
  64   38782.3    257.8   0.112692530   0.95661  -0.49132   0.58805   0.60780
  65   38855.5    257.4   0.022503856   0.19067   0.03984  -0.39676  -0.17794
  66   39227.1    254.9   0.011941736   0.10022   0.10296   0.07438  -0.28998
  67   39305.1    254.4   0.003584407   0.03002   0.03254   0.15715  -0.06532
  68   39553.1    252.8   0.092772657   0.77217  -0.59135   0.14513   0.63358
  69   39787.7    251.3   0.060018787   0.49661  -0.09491  -0.15272   0.68138
  70   39941.1    250.4   0.002662689   0.02195  -0.00378  -0.08858   0.11868
  71   40154.6    249.0   0.025614598   0.21000  -0.09808   0.09808   0.43676
  72   40165.4    249.0   0.023250330   0.19057  -0.27239  -0.04410   0.33827
  73   40244.1    248.5   0.071653797   0.58616  -0.68759  -0.30409   0.14457
  74   40323.9    248.0   0.061603575   0.50294   0.50394   0.31948  -0.38330

FINAL SINGLE POINT ENERGY     -4091.230792244707

DIPOLE MOMENT
-------------
                                X             Y             Z
Electronic contribution:    -29.69754       9.99620      -4.00334
Nuclear contribution   :     29.44009      -9.78830       3.88974
                        -----------------------------------------
Total Dipole Moment    :     -0.25745       0.20790      -0.11360
                        -----------------------------------------
Magnitude (a.u.)       :      0.34987
Magnitude (Debye)      :      0.88930

Rotational constants in cm-1:     0.002154     0.000574     0.000514
Rotational constants in MHz :    64.585458    17.206024    15.420589

                             ****ORCA TERMINATED NORMALLY****
TOTAL RUN TIME: 0 days 0 hours 9 minutes 25 seconds 609 msec
