                         Program Version 4.2.0 -  RELEASE  -
|  1> # ORCA input file
|  2> # SCF done       -194.092774806800          0.000966985635
|  3> ! CAM-B3LYP def2-SVP def2/J RIJCOSX Grid4 TightSCF
|  4> %maxcore 5000
|  5> %tddft
|  6>     Mode sTDDFT
|  7>     Ethresh 5.0
|  8>     maxcore 5000
|  9> end
| 10>
| 11> %pal
| 12>   nprocs 6
| 13>   end
| 14> * xyz 0 1
| 15>    C       -5.36768         1.28696         2.43161
| 16>    C       -5.13219         2.65508         2.34168
| 17>    C       -4.24871         3.16522         1.33878
| 18>    N       -4.00071         4.48594         1.27285
| 19>    C       -4.56771         5.27807         2.13824
| 20>    C       -5.44908         4.77086         3.12213
| 21>    N       -5.72599         3.50418         3.21498
| 22>    C       -3.61038         2.31637         0.40092
| 23>    C       -3.77597         0.92104         0.58476
| 24>    C       -4.68455         0.42429         1.57954
| 25>    N       -4.88644        -0.91116         1.70861
| 26>    C       -4.18740        -1.71328         0.96480
| 27>    C       -3.19948        -1.22636         0.07480
| 28>    N       -3.01896         0.04894        -0.11440
| 29>    C       -2.77784         2.91646        -0.59220
| 30>    S       -2.12147         4.48945        -0.27932
| 31>    C       -1.16605         4.48761        -1.73290
| 32>    C       -1.38159         3.30665        -2.46344
| 33>    C       -2.33848         2.43974        -1.83581
| 34>    C       -2.74999         1.28572        -2.52525
| 35>    C       -2.13811         0.92505        -3.69763
| 36>    N       -2.47788        -0.37041        -4.24412
| 37>    O       -3.63449        -0.71517        -4.16731
| 38>    O       -1.56269        -1.04236        -4.65920
| 39>    C       -1.09564         1.71567        -4.24372
| 40>    N       -0.51910         1.43367        -5.53590
| 41>    O       -1.25394         0.95686        -6.37119
| 42>    O        0.62823         1.77699        -5.71545
| 43>    C       -0.72729         2.88770        -3.63107
| 44>    C       -0.34558         5.59177        -2.04203
| 45>    S        0.40077         6.47846        -0.75480
| 46>    C        1.29218         7.49895        -1.84183
| 47>    C        0.92971         7.22826        -3.17817
| 48>    C       -0.00860         6.15983        -3.28884
| 49>    C       -0.56569         5.86817        -4.54111
| 50>    C       -0.18649         6.56061        -5.67183
| 51>    C       -0.84484         6.19209        -6.92855
| 52>    C       -1.31217         7.02831        -7.84388
| 53>    C        0.79617         7.58380        -5.57279
| 54>    C        1.28862         8.32215        -6.77841
| 55>    C        1.31209         7.91305        -4.34167
| 56>    C        2.20563         8.41246        -1.28308
| 57>    C        3.27712         8.97142        -1.91917
| 58>    C        4.16816         9.92247        -1.38105
| 59>    S        5.75166        10.05035        -2.08103
| 60>    C        6.24651        11.30622        -1.00200
| 61>    C        5.23533        11.57769        -0.07019
| 62>    C        4.03806        10.81733        -0.30001
| 63>    C        2.90986        11.05997         0.49397
| 64>    C        2.97462        11.95230         1.53772
| 65>    N        1.83371        12.03872         2.41492
| 66>    O        0.74424        11.83423         1.92521
| 67>    O        2.05436        12.23536         3.58861
| 68>    C        4.18448        12.63207         1.82138
| 69>    N        4.26166        13.67941         2.81837
| 70>    O        3.32959        14.44662         2.87154
| 71>    O        5.28719        13.76048         3.45265
| 72>    C        5.29382        12.43600         1.04175
| 73>    C        7.54162        11.88832        -1.17301
| 74>    C        7.85494        13.23386        -0.86579
| 75>    C        9.19512        13.72151        -1.02557
| 76>    N        9.49824        15.00046        -0.68785
| 77>    C        8.53569        15.77180        -0.28310
| 78>    C        7.19381        15.32076        -0.22928
| 79>    N        6.87440        14.08807        -0.49837
| 80>    C       10.20258        12.90641        -1.53247
| 81>    C        9.89352        11.60785        -1.92418
| 82>    C        8.56392        11.10369        -1.76110
| 83>    N        8.26458         9.85395        -2.16498
| 84>    C        9.20219         9.12962        -2.70575
| 85>    C       10.51761         9.62860        -2.86111
| 86>    N       10.85126        10.82469        -2.47824
| 87>    H       -6.04698         0.89423         3.16940
| 88>    H       -4.33895         6.33160         2.06396
| 89>    H       -5.92903         5.42912         3.83304
| 90>    H       -4.37535        -2.77258         1.07159
| 91>    H       -2.55447        -1.89566        -0.47751
| 92>    H       -3.53258         0.65781        -2.13675
| 93>    H        0.06355         3.47804        -4.06695
| 94>    H       -1.34991         5.13053        -4.61541
| 95>    H       -0.99396         5.12724        -7.05953
| 96>    H       -1.24557         8.09724        -7.74006
| 97>    H       -1.81681         6.66633        -8.72324
| 98>    H        0.68763         9.21507        -6.95195
| 99>    H        1.23576         7.69845        -7.66657
|100>    H        2.31784         8.64140        -6.62882
|101>    H        2.00071         8.73928        -4.27069
|102>    H        2.07254         8.59762        -0.22647
|103>    H        3.54494         8.60423        -2.89999
|104>    H        1.97223        10.56184         0.30900
|105>    H        6.19754        12.96873         1.28167
|106>    H        8.79960        16.78301        -0.00586
|107>    H        6.38326        15.98593         0.03500
|108>    H       11.20356        13.28803        -1.64454
|109>    H        8.93070         8.13217        -3.02152
|110>    H       11.29618         9.02157        -3.30244
|111> *
|112>
|113>                          ****END OF INPUT****

CARTESIAN COORDINATES (ANGSTROEM)
---------------------------------
  C     -5.367680    1.286960    2.431610
  C     -5.132190    2.655080    2.341680
  C     -4.248710    3.165220    1.338780
  N     -4.000710    4.485940    1.272850
  C     -4.567710    5.278070    2.138240
  C     -5.449080    4.770860    3.122130
  N     -5.725990    3.504180    3.214980
  C     -3.610380    2.316370    0.400920
  C     -3.775970    0.921040    0.584760
  C     -4.684550    0.424290    1.579540
  N     -4.886440   -0.911160    1.708610
  C     -4.187400   -1.713280    0.964800
  C     -3.199480   -1.226360    0.074800
  N     -3.018960    0.048940   -0.114400
  C     -2.777840    2.916460   -0.592200
  S     -2.121470    4.489450   -0.279320
  C     -1.166050    4.487610   -1.732900
  C     -1.381590    3.306650   -2.463440
  C     -2.338480    2.439740   -1.835810
  C     -2.749990    1.285720   -2.525250
  C     -2.138110    0.925050   -3.697630
  N     -2.477880   -0.370410   -4.244120
  O     -3.634490   -0.715170   -4.167310
  O     -1.562690   -1.042360   -4.659200
  C     -1.095640    1.715670   -4.243720
  N     -0.519100    1.433670   -5.535900
  O     -1.253940    0.956860   -6.371190
  O      0.628230    1.776990   -5.715450
  C     -0.727290    2.887700   -3.631070
  C     -0.345580    5.591770   -2.042030
  S      0.400770    6.478460   -0.754800
  C      1.292180    7.498950   -1.841830
  C      0.929710    7.228260   -3.178170
  C     -0.008600    6.159830   -3.288840
  C     -0.565690    5.868170   -4.541110
  C     -0.186490    6.560610   -5.671830
  C     -0.844840    6.192090   -6.928550
  C     -1.312170    7.028310   -7.843880
  C      0.796170    7.583800   -5.572790
  C      1.288620    8.322150   -6.778410
  C      1.312090    7.913050   -4.341670
  C      2.205630    8.412460   -1.283080
  C      3.277120    8.971420   -1.919170
  C      4.168160    9.922470   -1.381050
  S      5.751660   10.050350   -2.081030
  C      6.246510   11.306220   -1.002000
  C      5.235330   11.577690   -0.070190
  C      4.038060   10.817330   -0.300010
  C      2.909860   11.059970    0.493970
  C      2.974620   11.952300    1.537720
  N      1.833710   12.038720    2.414920
  O      0.744240   11.834230    1.925210
  O      2.054360   12.235360    3.588610
  C      4.184480   12.632070    1.821380
  N      4.261660   13.679410    2.818370
  O      3.329590   14.446620    2.871540
  O      5.287190   13.760480    3.452650
  C      5.293820   12.436000    1.041750
  C      7.541620   11.888320   -1.173010
  C      7.854940   13.233860   -0.865790
  C      9.195120   13.721510   -1.025570
  N      9.498240   15.000460   -0.687850
  C      8.535690   15.771800   -0.283100
  C      7.193810   15.320760   -0.229280
  N      6.874400   14.088070   -0.498370
  C     10.202580   12.906410   -1.532470
  C      9.893520   11.607850   -1.924180
  C      8.563920   11.103690   -1.761100
  N      8.264580    9.853950   -2.164980
  C      9.202190    9.129620   -2.705750
  C     10.517610    9.628600   -2.861110
  N     10.851260   10.824690   -2.478240
  H     -6.046980    0.894230    3.169400
  H     -4.338950    6.331600    2.063960
  H     -5.929030    5.429120    3.833040
  H     -4.375350   -2.772580    1.071590
  H     -2.554470   -1.895660   -0.477510
  H     -3.532580    0.657810   -2.136750
  H      0.063550    3.478040   -4.066950
  H     -1.349910    5.130530   -4.615410
  H     -0.993960    5.127240   -7.059530
  H     -1.245570    8.097240   -7.740060
  H     -1.816810    6.666330   -8.723240
  H      0.687630    9.215070   -6.951950
  H      1.235760    7.698450   -7.666570
  H      2.317840    8.641400   -6.628820
  H      2.000710    8.739280   -4.270690
  H      2.072540    8.597620   -0.226470
  H      3.544940    8.604230   -2.899990
  H      1.972230   10.561840    0.309000
  H      6.197540   12.968730    1.281670
  H      8.799600   16.783010   -0.005860
  H      6.383260   15.985930    0.035000
  H     11.203560   13.288030   -1.644540
  H      8.930700    8.132170   -3.021520
  H     11.296180    9.021570   -3.302440

 Total Charge           Charge          ....    0
 Multiplicity           Mult            ....    1
 Number of Electrons    NEL             ....  514
 Basis Dimension        Dim             .... 1140

ORBITAL ENERGIES
----------------

  NO   OCC          E(Eh)            E(eV)
   0   2.0000     -88.981074     -2421.2981
   1   2.0000     -88.980872     -2421.2926
   2   2.0000     -88.980187     -2421.2740
   3   2.0000     -19.241113      -523.5773
   4   2.0000     -19.240454      -523.5594
   5   2.0000     -19.240420      -523.5584
   6   2.0000     -19.240403      -523.5580
   7   2.0000     -19.240048      -523.5483
   8   2.0000     -19.239586      -523.5357
   9   2.0000     -19.239322      -523.5286
  10   2.0000     -19.239307      -523.5281
  11   2.0000     -14.647054      -398.5666
  12   2.0000     -14.646594      -398.5541
  13   2.0000     -14.646522      -398.5521
  14   2.0000     -14.646387      -398.5484
  15   2.0000     -14.448152      -393.1542
  16   2.0000     -14.446632      -393.1128
  17   2.0000     -14.440046      -392.9336
  18   2.0000     -14.439635      -392.9225
  19   2.0000     -14.438816      -392.9002
  20   2.0000     -14.438789      -392.8994
  21   2.0000     -14.435556      -392.8114
  22   2.0000     -14.435329      -392.8053
  23   2.0000     -10.342263      -281.4273
  24   2.0000     -10.341059      -281.3945
  25   2.0000     -10.339378      -281.3488
  26   2.0000     -10.339165      -281.3430
  27   2.0000     -10.338999      -281.3385
  28   2.0000     -10.338336      -281.3204
  29   2.0000     -10.337557      -281.2992
  30   2.0000     -10.337112      -281.2871
  31   2.0000     -10.337077      -281.2862
  32   2.0000     -10.336847      -281.2799
  33   2.0000     -10.336197      -281.2622
  34   2.0000     -10.336055      -281.2584
  35   2.0000     -10.334071      -281.2044
  36   2.0000     -10.334046      -281.2037
  37   2.0000     -10.333919      -281.2002
  38   2.0000     -10.333737      -281.1953
  39   2.0000     -10.332326      -281.1569
  40   2.0000     -10.332227      -281.1542
  41   2.0000     -10.332142      -281.1519
  42   2.0000     -10.331978      -281.1474
  43   2.0000     -10.324792      -280.9519
  44   2.0000     -10.323452      -280.9154
  45   2.0000     -10.322126      -280.8793
  46   2.0000     -10.320878      -280.8454
  47   2.0000     -10.320805      -280.8434
  48   2.0000     -10.319635      -280.8115
  49   2.0000     -10.318963      -280.7932
  50   2.0000     -10.318468      -280.7798
  51   2.0000     -10.310142      -280.5532
  52   2.0000     -10.308352      -280.5045
  53   2.0000     -10.306662      -280.4585
  54   2.0000     -10.306390      -280.4511
  55   2.0000     -10.305582      -280.4291
  56   2.0000     -10.305450      -280.4256
  57   2.0000     -10.304829      -280.4087
  58   2.0000     -10.304149      -280.3901
  59   2.0000     -10.303465      -280.3715
  60   2.0000     -10.299199      -280.2554
  61   2.0000     -10.297210      -280.2013
  62   2.0000     -10.295320      -280.1499
  63   2.0000     -10.292588      -280.0756
  64   2.0000     -10.292538      -280.0742
  65   2.0000     -10.290891      -280.0294
  66   2.0000     -10.289482      -279.9911
  67   2.0000     -10.283347      -279.8241
  68   2.0000     -10.280247      -279.7397
  69   2.0000     -10.278474      -279.6915
  70   2.0000     -10.270591      -279.4770
  71   2.0000     -10.268217      -279.4124
  72   2.0000      -8.075452      -219.7442
  73   2.0000      -8.074365      -219.7146
  74   2.0000      -8.073954      -219.7035
  75   2.0000      -6.044410      -164.4768
  76   2.0000      -6.043441      -164.4504
  77   2.0000      -6.043316      -164.4470
  78   2.0000      -6.040300      -164.3649
  79   2.0000      -6.038840      -164.3252
  80   2.0000      -6.038449      -164.3146
  81   2.0000      -6.038259      -164.3094
  82   2.0000      -6.037517      -164.2892
  83   2.0000      -6.036824      -164.2703
  84   2.0000      -1.325583       -36.0709
  85   2.0000      -1.325228       -36.0613
  86   2.0000      -1.318858       -35.8880
  87   2.0000      -1.318555       -35.8797
  88   2.0000      -1.145265       -31.1643
  89   2.0000      -1.144945       -31.1555
  90   2.0000      -1.139683       -31.0123
  91   2.0000      -1.139305       -31.0021
  92   2.0000      -1.103148       -30.0182
  93   2.0000      -1.102032       -29.9878
  94   2.0000      -1.092792       -29.7364
  95   2.0000      -1.092455       -29.7272
  96   2.0000      -1.030526       -28.0420
  97   2.0000      -1.028747       -27.9936
  98   2.0000      -1.019699       -27.7474
  99   2.0000      -1.017408       -27.6851
 100   2.0000      -1.016353       -27.6564
 101   2.0000      -1.013660       -27.5831
 102   2.0000      -1.005483       -27.3606
 103   2.0000      -0.980240       -26.6737
 104   2.0000      -0.979078       -26.6421
 105   2.0000      -0.961257       -26.1571
 106   2.0000      -0.960809       -26.1449
 107   2.0000      -0.952610       -25.9218
 108   2.0000      -0.924830       -25.1659
 109   2.0000      -0.911948       -24.8154
 110   2.0000      -0.902877       -24.5685
 111   2.0000      -0.892823       -24.2950
 112   2.0000      -0.891978       -24.2720
 113   2.0000      -0.889750       -24.2113
 114   2.0000      -0.882092       -24.0029
 115   2.0000      -0.879564       -23.9342
 116   2.0000      -0.878041       -23.8927
 117   2.0000      -0.876596       -23.8534
 118   2.0000      -0.866219       -23.5710
 119   2.0000      -0.852388       -23.1947
 120   2.0000      -0.836762       -22.7694
 121   2.0000      -0.826422       -22.4881
 122   2.0000      -0.811642       -22.0859
 123   2.0000      -0.806552       -21.9474
 124   2.0000      -0.805971       -21.9316
 125   2.0000      -0.790108       -21.4999
 126   2.0000      -0.786363       -21.3980
 127   2.0000      -0.784681       -21.3522
 128   2.0000      -0.782220       -21.2853
 129   2.0000      -0.772530       -21.0216
 130   2.0000      -0.772325       -21.0160
 131   2.0000      -0.763698       -20.7813
 132   2.0000      -0.746813       -20.3218
 133   2.0000      -0.739908       -20.1339
 134   2.0000      -0.739809       -20.1312
 135   2.0000      -0.725415       -19.7396
 136   2.0000      -0.715637       -19.4735
 137   2.0000      -0.711589       -19.3633
 138   2.0000      -0.706447       -19.2234
 139   2.0000      -0.701880       -19.0991
 140   2.0000      -0.700476       -19.0609
 141   2.0000      -0.697763       -18.9871
 142   2.0000      -0.692702       -18.8494
 143   2.0000      -0.668654       -18.1950
 144   2.0000      -0.664185       -18.0734
 145   2.0000      -0.661113       -17.9898
 146   2.0000      -0.657600       -17.8942
 147   2.0000      -0.650589       -17.7034
 148   2.0000      -0.649368       -17.6702
 149   2.0000      -0.642898       -17.4942
 150   2.0000      -0.640826       -17.4378
 151   2.0000      -0.638680       -17.3794
 152   2.0000      -0.637921       -17.3587
 153   2.0000      -0.637290       -17.3415
 154   2.0000      -0.636053       -17.3079
 155   2.0000      -0.625599       -17.0234
 156   2.0000      -0.619257       -16.8508
 157   2.0000      -0.617544       -16.8042
 158   2.0000      -0.616028       -16.7630
 159   2.0000      -0.614411       -16.7190
 160   2.0000      -0.606748       -16.5105
 161   2.0000      -0.606484       -16.5033
 162   2.0000      -0.604741       -16.4558
 163   2.0000      -0.599266       -16.3069
 164   2.0000      -0.598698       -16.2914
 165   2.0000      -0.595013       -16.1911
 166   2.0000      -0.590274       -16.0622
 167   2.0000      -0.589174       -16.0322
 168   2.0000      -0.588083       -16.0025
 169   2.0000      -0.586197       -15.9512
 170   2.0000      -0.581955       -15.8358
 171   2.0000      -0.581680       -15.8283
 172   2.0000      -0.577985       -15.7278
 173   2.0000      -0.576598       -15.6900
 174   2.0000      -0.565418       -15.3858
 175   2.0000      -0.563822       -15.3424
 176   2.0000      -0.561433       -15.2774
 177   2.0000      -0.556757       -15.1501
 178   2.0000      -0.550308       -14.9747
 179   2.0000      -0.548439       -14.9238
 180   2.0000      -0.545893       -14.8545
 181   2.0000      -0.543459       -14.7883
 182   2.0000      -0.537260       -14.6196
 183   2.0000      -0.533357       -14.5134
 184   2.0000      -0.533139       -14.5075
 185   2.0000      -0.529463       -14.4074
 186   2.0000      -0.528132       -14.3712
 187   2.0000      -0.527340       -14.3497
 188   2.0000      -0.524486       -14.2720
 189   2.0000      -0.521904       -14.2017
 190   2.0000      -0.520839       -14.1728
 191   2.0000      -0.519882       -14.1467
 192   2.0000      -0.516352       -14.0506
 193   2.0000      -0.514717       -14.0062
 194   2.0000      -0.514141       -13.9905
 195   2.0000      -0.508081       -13.8256
 196   2.0000      -0.506617       -13.7857
 197   2.0000      -0.504273       -13.7220
 198   2.0000      -0.497738       -13.5441
 199   2.0000      -0.492623       -13.4050
 200   2.0000      -0.490026       -13.3343
 201   2.0000      -0.485841       -13.2204
 202   2.0000      -0.480066       -13.0633
 203   2.0000      -0.475725       -12.9451
 204   2.0000      -0.470669       -12.8075
 205   2.0000      -0.467346       -12.7171
 206   2.0000      -0.463704       -12.6180
 207   2.0000      -0.460663       -12.5353
 208   2.0000      -0.457765       -12.4564
 209   2.0000      -0.455493       -12.3946
 210   2.0000      -0.453536       -12.3413
 211   2.0000      -0.448155       -12.1949
 212   2.0000      -0.445484       -12.1222
 213   2.0000      -0.440313       -11.9815
 214   2.0000      -0.438725       -11.9383
 215   2.0000      -0.432703       -11.7745
 216   2.0000      -0.431422       -11.7396
 217   2.0000      -0.428986       -11.6733
 218   2.0000      -0.425431       -11.5766
 219   2.0000      -0.425155       -11.5691
 220   2.0000      -0.421570       -11.4715
 221   2.0000      -0.415301       -11.3009
 222   2.0000      -0.406697       -11.0668
 223   2.0000      -0.403769       -10.9871
 224   2.0000      -0.397971       -10.8293
 225   2.0000      -0.394018       -10.7218
 226   2.0000      -0.392206       -10.6725
 227   2.0000      -0.391895       -10.6640
 228   2.0000      -0.389297       -10.5933
 229   2.0000      -0.387473       -10.5437
 230   2.0000      -0.384129       -10.4527
 231   2.0000      -0.380910       -10.3651
 232   2.0000      -0.380521       -10.3545
 233   2.0000      -0.379584       -10.3290
 234   2.0000      -0.376594       -10.2477
 235   2.0000      -0.374945       -10.2028
 236   2.0000      -0.373237       -10.1563
 237   2.0000      -0.372307       -10.1310
 238   2.0000      -0.365561        -9.9474
 239   2.0000      -0.363515        -9.8917
 240   2.0000      -0.362396        -9.8613
 241   2.0000      -0.361807        -9.8453
 242   2.0000      -0.344611        -9.3773
 243   2.0000      -0.343805        -9.3554
 244   2.0000      -0.343582        -9.3494
 245   2.0000      -0.342767        -9.3272
 246   2.0000      -0.341090        -9.2815
 247   2.0000      -0.335040        -9.1169
 248   2.0000      -0.332981        -9.0609
 249   2.0000      -0.322848        -8.7851
 250   2.0000      -0.321764        -8.7557
 251   2.0000      -0.320995        -8.7347
 252   2.0000      -0.319744        -8.7007
 253   2.0000      -0.308715        -8.4006
 254   2.0000      -0.289846        -7.8871
 255   2.0000      -0.265481        -7.2241
 256   2.0000      -0.227012        -6.1773
 257   0.0000      -0.109881        -2.9900
 258   0.0000      -0.096291        -2.6202
 259   0.0000      -0.078745        -2.1428
 260   0.0000      -0.057032        -1.5519
 261   0.0000      -0.045550        -1.2395

MULLIKEN ATOMIC CHARGES
-----------------------
   0 C :   -0.065511
   1 C :    0.033317
   2 C :   -0.031503
   3 N :   -0.082614
   4 C :    0.052090
   5 C :    0.020813
   6 N :   -0.008473
   7 C :    0.150367
   8 C :   -0.077370
   9 C :    0.027310
  10 N :   -0.016045
  11 C :    0.027615
  12 C :    0.041291
  13 N :   -0.043745
  14 C :   -0.196633
  15 S :    0.219845
  16 C :   -0.100155
  17 C :    0.126547
  18 C :    0.149833
  19 C :   -0.027912
  20 C :    0.088602
  21 N :    0.254101
  22 O :   -0.235978
  23 O :   -0.226940
  24 C :    0.116008
  25 N :    0.253045
  26 O :   -0.229507
  27 O :   -0.235564
  28 C :   -0.104287
  29 C :   -0.166704
  30 S :    0.183239
  31 C :   -0.124745
  32 C :    0.119671
  33 C :    0.165257
  34 C :   -0.129562
  35 C :    0.074051
  36 C :   -0.052369
  37 C :   -0.012699
  38 C :   -0.067145
  39 C :    0.083515
  40 C :   -0.099245
  41 C :    0.034626
  42 C :    0.012816
  43 C :   -0.101023
  44 S :    0.225423
  45 C :   -0.216861
  46 C :    0.174661
  47 C :    0.108956
  48 C :   -0.087946
  49 C :    0.125997
  50 N :    0.253203
  51 O :   -0.240149
  52 O :   -0.228367
  53 C :    0.073524
  54 N :    0.254810
  55 O :   -0.225176
  56 O :   -0.234578
  57 C :   -0.021978
  58 C :    0.136796
  59 C :   -0.071228
  60 C :    0.031096
  61 N :   -0.015488
  62 C :    0.026125
  63 C :    0.040004
  64 N :   -0.041128
  65 C :   -0.067788
  66 C :    0.031774
  67 C :   -0.038484
  68 N :   -0.065161
  69 C :    0.044149
  70 C :    0.021169
  71 N :   -0.009267
  72 H :   -0.027728
  73 H :    0.023055
  74 H :    0.025078
  75 H :    0.023532
  76 H :    0.026543
  77 H :   -0.006594
  78 H :    0.015771
  79 H :   -0.013056
  80 H :    0.017370
  81 H :    0.020137
  82 H :    0.031063
  83 H :    0.036164
  84 H :    0.036012
  85 H :    0.013213
  86 H :   -0.040168
  87 H :   -0.002947
  88 H :   -0.006006
  89 H :   -0.002845
  90 H :   -0.010094
  91 H :    0.022408
  92 H :    0.025721
  93 H :   -0.029643
  94 H :    0.018335
  95 H :    0.022359
Sum of atomic charges:   -0.0000000

LOEWDIN ATOMIC CHARGES
----------------------
   0 C :   -0.000680
   1 C :   -0.011722
   2 C :   -0.013951
   3 N :   -0.056317
   4 C :    0.023470
   5 C :    0.011649
   6 N :   -0.026783
   7 C :   -0.032070
   8 C :   -0.012026
   9 C :   -0.009440
  10 N :   -0.031597
  11 C :    0.014596
  12 C :    0.017132
  13 N :   -0.031468
  14 C :   -0.169402
  15 S :    0.538193
  16 C :   -0.189128
  17 C :   -0.053662
  18 C :   -0.028899
  19 C :    0.034205
  20 C :   -0.033803
  21 N :    0.283288
  22 O :   -0.201727
  23 O :   -0.193616
  24 C :   -0.036168
  25 N :    0.282695
  26 O :   -0.195979
  27 O :   -0.202852
  28 C :    0.018645
  29 C :   -0.199102
  30 S :    0.485442
  31 C :   -0.173394
  32 C :   -0.037426
  33 C :   -0.041076
  34 C :   -0.012448
  35 C :   -0.018746
  36 C :   -0.021442
  37 C :   -0.031479
  38 C :   -0.006669
  39 C :   -0.046281
  40 C :   -0.024715
  41 C :   -0.033351
  42 C :   -0.055253
  43 C :   -0.164671
  44 S :    0.548818
  45 C :   -0.172860
  46 C :   -0.027176
  47 C :   -0.052595
  48 C :    0.019457
  49 C :   -0.036740
  50 N :    0.283555
  51 O :   -0.206992
  52 O :   -0.194575
  53 C :   -0.030479
  54 N :    0.282812
  55 O :   -0.192825
  56 O :   -0.199430
  57 C :    0.031552
  58 C :   -0.032734
  59 C :   -0.013015
  60 C :   -0.009624
  61 N :   -0.031940
  62 C :    0.014327
  63 C :    0.015869
  64 N :   -0.032592
  65 C :   -0.001036
  66 C :   -0.011803
  67 C :   -0.014451
  68 N :   -0.054783
  69 C :    0.018290
  70 C :    0.010490
  71 N :   -0.028403
  72 H :    0.044706
  73 H :    0.031546
  74 H :    0.031070
  75 H :    0.030898
  76 H :    0.031701
  77 H :    0.038133
  78 H :    0.046015
  79 H :    0.032029
  80 H :    0.035186
  81 H :    0.022564
  82 H :    0.028998
  83 H :    0.037412
  84 H :    0.035728
  85 H :    0.030831
  86 H :    0.025782
  87 H :    0.030681
  88 H :    0.029269
  89 H :    0.040053
  90 H :    0.038129
  91 H :    0.030573
  92 H :    0.031571
  93 H :    0.044328
  94 H :    0.029560
  95 H :    0.030141

  Mayer bond orders larger than 0.100000
B(  0-C ,  1-C ) :   1.2356 B(  0-C ,  7-C ) :   0.1286 B(  0-C ,  9-C ) :   1.2524
B(  0-C , 72-H ) :   1.0574 B(  1-C ,  2-C ) :   1.1834 B(  1-C ,  6-N ) :   1.3821
B(  2-C ,  3-N ) :   1.3832 B(  2-C ,  7-C ) :   1.2603 B(  3-N ,  4-C ) :   1.6524
B(  4-C ,  5-C ) :   1.1945 B(  4-C , 73-H ) :   0.9721 B(  5-C ,  6-N ) :   1.7120
B(  5-C , 74-H ) :   0.9748 B(  7-C ,  8-C ) :   1.2705 B(  7-C , 14-C ) :   1.1217
B(  8-C ,  9-C ) :   1.1571 B(  8-C , 13-N ) :   1.4375 B(  9-C , 10-N ) :   1.3713
B( 10-N , 11-C ) :   1.7221 B( 11-C , 12-C ) :   1.1765 B( 11-C , 75-H ) :   0.9745
B( 12-C , 13-N ) :   1.6759 B( 12-C , 76-H ) :   0.9727 B( 14-C , 15-S ) :   1.1576
B( 14-C , 16-C ) :   0.1082 B( 14-C , 18-C ) :   1.3643 B( 15-S , 16-C ) :   1.1518
B( 16-C , 17-C ) :   1.3323 B( 16-C , 29-C ) :   1.1680 B( 17-C , 18-C ) :   1.2023
B( 17-C , 28-C ) :   1.1557 B( 18-C , 19-C ) :   1.1587 B( 19-C , 20-C ) :   1.5617
B( 19-C , 77-H ) :   0.9726 B( 20-C , 21-N ) :   0.8703 B( 20-C , 24-C ) :   1.2217
B( 21-N , 22-O ) :   1.5417 B( 21-N , 23-O ) :   1.5598 B( 22-O , 23-O ) :   0.2716
B( 24-C , 25-N ) :   0.8776 B( 24-C , 28-C ) :   1.5361 B( 25-N , 26-O ) :   1.5558
B( 25-N , 27-O ) :   1.5380 B( 26-O , 27-O ) :   0.2706 B( 28-C , 78-H ) :   0.9935
B( 29-C , 30-S ) :   1.1735 B( 29-C , 31-C ) :   0.1173 B( 29-C , 33-C ) :   1.2950
B( 30-S , 31-C ) :   1.1387 B( 31-C , 32-C ) :   1.2938 B( 31-C , 41-C ) :   1.1941
B( 32-C , 33-C ) :   1.2273 B( 32-C , 40-C ) :   1.2003 B( 33-C , 34-C ) :   1.1916
B( 34-C , 35-C ) :   1.4866 B( 34-C , 79-H ) :   1.0006 B( 35-C , 36-C ) :   1.0141
B( 35-C , 38-C ) :   1.2366 B( 36-C , 37-C ) :   1.9758 B( 36-C , 80-H ) :   0.9634
B( 37-C , 81-H ) :   0.9633 B( 37-C , 82-H ) :   0.9497 B( 38-C , 39-C ) :   1.0728
B( 38-C , 40-C ) :   1.5205 B( 39-C , 83-H ) :   0.9476 B( 39-C , 84-H ) :   0.9455
B( 39-C , 85-H ) :   0.9529 B( 40-C , 86-H ) :   0.9916 B( 41-C , 42-C ) :   1.6155
B( 41-C , 87-H ) :   0.9430 B( 42-C , 43-C ) :   1.1883 B( 42-C , 88-H ) :   0.9460
B( 43-C , 44-S ) :   1.1586 B( 43-C , 47-C ) :   1.2962 B( 44-S , 45-C ) :   1.1758
B( 45-C , 46-C ) :   1.3600 B( 45-C , 58-C ) :   1.1012 B( 46-C , 47-C ) :   1.2026
B( 46-C , 57-C ) :   1.1631 B( 47-C , 48-C ) :   1.1633 B( 48-C , 49-C ) :   1.5275
B( 48-C , 89-H ) :   0.9882 B( 49-C , 50-N ) :   0.8801 B( 49-C , 53-C ) :   1.2257
B( 50-N , 51-O ) :   1.5346 B( 50-N , 52-O ) :   1.5593 B( 51-O , 52-O ) :   0.2692
B( 53-C , 54-N ) :   0.8664 B( 53-C , 57-C ) :   1.5653 B( 54-N , 55-O ) :   1.5613
B( 54-N , 56-O ) :   1.5406 B( 55-O , 56-O ) :   0.2731 B( 57-C , 90-H ) :   0.9748
B( 58-C , 59-C ) :   1.2830 B( 58-C , 65-C ) :   0.1321 B( 58-C , 67-C ) :   1.2629
B( 59-C , 60-C ) :   1.1607 B( 59-C , 64-N ) :   1.4348 B( 60-C , 61-N ) :   1.3703
B( 60-C , 65-C ) :   1.2484 B( 61-N , 62-C ) :   1.7246 B( 62-C , 63-C ) :   1.1746
B( 62-C , 91-H ) :   0.9742 B( 63-C , 64-N ) :   1.6825 B( 63-C , 92-H ) :   0.9729
B( 65-C , 66-C ) :   1.2332 B( 65-C , 93-H ) :   1.0593 B( 66-C , 67-C ) :   1.1844
B( 66-C , 71-N ) :   1.3804 B( 67-C , 68-N ) :   1.3957 B( 68-N , 69-C ) :   1.6689
B( 69-C , 70-C ) :   1.1899 B( 69-C , 94-H ) :   0.9726 B( 70-C , 71-N ) :   1.7159
B( 70-C , 95-H ) :   0.9743

-----------------------------------------------------------------------------
         ABSORPTION SPECTRUM VIA TRANSITION ELECTRIC DIPOLE MOMENTS
-----------------------------------------------------------------------------
State   Energy  Wavelength   fosc         T2         TX        TY        TZ
        (cm-1)    (nm)                  (au**2)     (au)      (au)      (au)
-----------------------------------------------------------------------------
   0   11402.7    877.0   1.172402876  33.84885  -4.32991  -3.81213   0.75391
   1   14726.8    679.0   0.127867273   2.85843   1.13920   0.39697   1.18451
   2   17697.8    565.0   0.306589565   5.70314  -0.30455  -1.71239  -1.63649
   3   20034.5    499.1   0.025353139   0.41661  -0.18254  -0.11940  -0.60748
   4   21298.3    469.5   0.080056886   1.23745   0.27609  -0.10808   1.07217
   5   22835.6    437.9   0.075094693   1.08261  -0.81351  -0.25863   0.59492
   6   23865.9    419.0   0.043587522   0.60126  -0.15029   0.55349   0.52184
   7   24682.8    405.1   0.007473565   0.09968  -0.11516  -0.11203  -0.27179
   8   25080.2    398.7   0.042128702   0.55300   0.09819  -0.38187  -0.63050
   9   25179.0    397.2   0.057462833   0.75132   0.44536  -0.15513  -0.72726
  10   25360.1    394.3   0.065057311   0.84454   0.65634  -0.09745  -0.63582
  11   25843.8    386.9   0.041777448   0.53218  -0.25012  -0.05371   0.68318
  12   26192.0    381.8   0.041995588   0.52785  -0.34753   0.01331   0.63789
  13   26299.7    380.2   0.001445912   0.01810   0.04242   0.11951   0.04491
  14   26592.5    376.0   0.005860372   0.07255   0.12001  -0.05362   0.23510
  15   28752.8    347.8   0.063873837   0.73134   0.22593   0.21351  -0.79669
  16   29292.3    341.4   0.000201852   0.00227   0.04522  -0.01428  -0.00446
  17   29544.1    338.5   0.012470152   0.13896   0.23133   0.06350   0.28532
  18   29713.7    336.5   0.052133267   0.57761  -0.44645  -0.31155  -0.53031
  19   30218.5    330.9   0.026543999   0.28918  -0.20903   0.48167   0.11613
  20   30603.2    326.8   0.047736612   0.51352   0.41961   0.32914   0.47866
  21   30684.6    325.9   0.057593838   0.61792  -0.76639   0.15803  -0.07482
  22   30831.9    324.3   0.065919323   0.70386  -0.76694  -0.25693   0.22284
  23   31113.1    321.4   0.053191538   0.56283   0.35371  -0.01880   0.66133
  24   31584.9    316.6   0.008009665   0.08349  -0.07007   0.18877   0.20722
  25   32142.5    311.1   0.040758048   0.41745   0.29500   0.41692   0.39574
  26   32457.5    308.1   0.046939522   0.47610   0.55888   0.01273  -0.40446
  27   32723.6    305.6   0.007685389   0.07732  -0.02322  -0.13862   0.23992
  28   33352.7    299.8   0.048026802   0.47405   0.10899   0.42689   0.52909
  29   33698.0    296.8   0.014932131   0.14588  -0.02809   0.06062  -0.37605
  30   33861.8    295.3   0.120154902   1.16817  -0.53450   0.30555   0.88832
  31   34015.7    294.0   0.074570150   0.72171   0.26532  -0.41349  -0.69306
  32   34114.1    293.1   0.234522369   2.26322  -0.13017   1.49778  -0.05419
  33   34303.8    291.5   0.344681104   3.30789   0.20497   1.71301   0.57573
  34   34449.6    290.3   0.073167411   0.69921  -0.21683   0.77259   0.23517
  35   34508.6    289.8   0.136816488   1.30523  -1.04148   0.40154   0.24352
  36   34625.3    288.8   0.184007689   1.74952   0.89567  -0.43983  -0.86824
  37   34936.0    286.2   0.080033045   0.75417  -0.53394  -0.42614   0.53618
  38   35191.2    284.2   0.071119712   0.66532  -0.04989  -0.62310  -0.52401
  39   35874.2    278.8   0.034394686   0.31563   0.43599   0.23504  -0.26515
  40   36021.6    277.6   0.012701702   0.11608   0.14615  -0.29576  -0.08514
  41   36725.0    272.3   0.004439943   0.03980  -0.09700  -0.17051  -0.03629
  42   37196.3    268.8   0.087065521   0.77059   0.09138   0.10707  -0.86647
  43   37341.1    267.8   0.025810936   0.22756  -0.07935  -0.08944  -0.46180
  44   37674.9    265.4   0.065726543   0.57433   0.42531   0.37483  -0.50294
  45   37714.7    265.1   0.008223934   0.07179  -0.20697  -0.07198   0.15418
  46   37998.2    263.2   0.002754366   0.02386   0.03440  -0.11073  -0.10208
  47   38200.5    261.8   0.010692917   0.09215   0.17617   0.13587   0.20654
  48   38435.3    260.2   0.012609605   0.10801   0.18776  -0.06285  -0.26230
  49   38679.8    258.5   0.040202411   0.34217  -0.55377  -0.07858   0.17127
  50   38875.3    257.2   0.017226456   0.14588   0.03690  -0.27771  -0.25960
  51   39056.8    256.0   0.041282631   0.34797   0.20708   0.44579  -0.32613
  52   39207.1    255.1   0.071877708   0.60354  -0.15060  -0.60666  -0.46132
  53   39395.3    253.8   0.037893389   0.31666   0.30660  -0.12229  -0.45575
  54   39518.2    253.0   0.074910853   0.62405   0.11876  -0.67331  -0.39573
  55   39560.9    252.8   0.049050618   0.40818   0.34269   0.48726  -0.23092
  56   39699.0    251.9   0.028356554   0.23515  -0.29454  -0.19771   0.33062
  57   39817.0    251.1   0.035289903   0.29178   0.00929   0.50578  -0.18942
  58   40013.1    249.9   0.079514654   0.65421  -0.32796  -0.30778   0.67226
  59   40141.0    249.1   0.024935505   0.20451  -0.01619   0.35149  -0.28408

FINAL SINGLE POINT ENERGY     -4330.376414604923

DIPOLE MOMENT
-------------
                                X             Y             Z
Electronic contribution:      0.56756      -6.03039      27.52956
Nuclear contribution   :      0.43352       6.65980     -28.04935
                        -----------------------------------------
Total Dipole Moment    :      1.00108       0.62940      -0.51979
                        -----------------------------------------
Magnitude (a.u.)       :      1.29170
Magnitude (Debye)      :      3.28325

Rotational constants in cm-1:     0.001450     0.000378     0.000327
Rotational constants in MHz :    43.470722    11.326973     9.804356

                             ****ORCA TERMINATED NORMALLY****
TOTAL RUN TIME: 0 days 0 hours 9 minutes 39 seconds 539 msec
