                         Program Version 4.2.0 -  RELEASE  -
|  1> # ORCA input file
|  2> # SCF done       -162.001268881441          0.000439674332
|  3> ! CAM-B3LYP def2-SVP def2/J RIJCOSX Grid4 TightSCF
|  4> %maxcore 5000
|  5> %tddft
|  6>     Mode sTDDFT
|  7>     Ethresh 5.0
|  8>     maxcore 5000
|  9> end
| 10>
| 11> %pal
| 12>   nprocs 6
| 13>   end
| 14> * xyz 0 1
| 15>    C       -1.38943        -1.23161        -0.85834
| 16>    C       -1.38627        -0.28032        -1.87090
| 17>    C       -1.17282         1.10859        -1.56700
| 18>    N       -1.38073         2.01040        -2.54212
| 19>    C       -1.61309         1.60318        -3.76049
| 20>    C       -1.60364         0.23062        -4.08256
| 21>    N       -1.54485        -0.67870        -3.15616
| 22>    C       -0.81458         1.52045        -0.25205
| 23>    C       -1.11707         0.58043         0.77361
| 24>    C       -1.33126        -0.80648         0.46327
| 25>    N       -1.43648        -1.71822         1.45989
| 26>    C       -1.44563        -1.29298         2.68797
| 27>    C       -1.45398         0.08526         2.98484
| 28>    N       -1.27001         0.97642         2.04900
| 29>    C       -0.23319         2.80539         0.02618
| 30>    C        0.08079         3.74468        -0.99575
| 31>    C        0.30913         5.12820        -0.68840
| 32>    N        0.46016         6.02500        -1.68901
| 33>    C        0.47563         5.59934        -2.91788
| 34>    C        0.45076         4.22301        -3.20928
| 35>    N        0.24315         3.34255        -2.26791
| 36>    C        0.36735         5.57512         0.64269
| 37>    C        0.35594         4.59942         1.65191
| 38>    C        0.13686         3.21574         1.33820
| 39>    N        0.36110         2.30688         2.30298
| 40>    C        0.60083         2.69748         3.52492
| 41>    C        0.54769         4.06343         3.86501
| 42>    N        0.47974         4.97837         2.94428
| 43>    C        0.46786         6.99900         0.94204
| 44>    C       -0.26000         7.95247         0.23846
| 45>    C       -0.07410         9.31252         0.49707
| 46>    C        0.81468         9.64003         1.53003
| 47>    N        1.51257         8.74371         2.19642
| 48>    C        1.36928         7.46766         1.90712
| 49>    C       -0.79995        10.30305        -0.26807
| 50>    C       -0.42344        11.59119        -0.37477
| 51>    C       -1.06672        12.63260        -1.12629
| 52>    C       -2.32661        12.53050        -1.76153
| 53>    C       -2.84806        13.61583        -2.54109
| 54>    N       -4.00289        13.46750        -3.23263
| 55>    C       -4.66069        12.35571        -3.09937
| 56>    C       -4.20041        11.32184        -2.25270
| 57>    N       -3.06207        11.40301        -1.62858
| 58>    C       -2.15415        14.83137        -2.64885
| 59>    C       -0.92808        14.96438        -1.97895
| 60>    C       -0.38224        13.86810        -1.24189
| 61>    N        0.82296        14.00306        -0.64013
| 62>    C        1.44213        15.14178        -0.74219
| 63>    C        0.86684        16.24405        -1.41695
| 64>    N       -0.28594        16.15667        -2.00871
| 65>    C       -2.68182        15.92797        -3.44628
| 66>    C       -3.99179        16.39464        -3.25201
| 67>    C       -4.50342        17.46742        -4.05522
| 68>    N       -5.78467        17.88934        -3.89397
| 69>    C       -6.50097        17.30614        -2.98215
| 70>    C       -5.97007        16.29495        -2.14024
| 71>    N       -4.75460        15.85704        -2.27020
| 72>    C       -3.69562        18.08906        -5.00147
| 73>    C       -2.38941        17.64791        -5.18408
| 74>    C       -1.88133        16.54455        -4.42184
| 75>    N       -0.64031        16.06126        -4.67014
| 76>    C        0.08306        16.67740        -5.55510
| 77>    C       -0.39200        17.81536        -6.25664
| 78>    N       -1.59663        18.27079        -6.09472
| 79>    H       -1.42605        -2.28156        -1.09428
| 80>    H       -1.84581         2.36150        -4.49494
| 81>    H       -1.71768        -0.11171        -5.10203
| 82>    H       -1.51780        -2.03952         3.46712
| 83>    H       -1.64422         0.45515         3.98273
| 84>    H        0.58601         6.34469        -3.69339
| 85>    H        0.64267         3.84264        -4.20264
| 86>    H        0.85731         1.93234         4.24398
| 87>    H        0.62692         4.40254         4.88855
| 88>    H       -0.96753         7.64217        -0.51568
| 89>    H        0.95498        10.66529         1.84319
| 90>    H        1.99982         6.78300         2.45423
| 91>    H       -1.67262         9.95368        -0.79994
| 92>    H        0.48753        11.92202         0.10541
| 93>    H       -5.57458        12.25456        -3.67007
| 94>    H       -4.77273        10.41523        -2.10482
| 95>    H        2.40818        15.21594        -0.26040
| 96>    H        1.35967        17.20708        -1.44374
| 97>    H       -7.52373        17.64301        -2.87385
| 98>    H       -6.56285        15.86355        -1.34411
| 99>    H       -4.07897        18.90788        -5.58840
|100>    H        1.06745        16.27185        -5.74970
|101>    H        0.23323        18.32956        -6.97487
|102> *
|103>
|104>                          ****END OF INPUT****

CARTESIAN COORDINATES (ANGSTROEM)
---------------------------------
  C     -1.389430   -1.231610   -0.858340
  C     -1.386270   -0.280320   -1.870900
  C     -1.172820    1.108590   -1.567000
  N     -1.380730    2.010400   -2.542120
  C     -1.613090    1.603180   -3.760490
  C     -1.603640    0.230620   -4.082560
  N     -1.544850   -0.678700   -3.156160
  C     -0.814580    1.520450   -0.252050
  C     -1.117070    0.580430    0.773610
  C     -1.331260   -0.806480    0.463270
  N     -1.436480   -1.718220    1.459890
  C     -1.445630   -1.292980    2.687970
  C     -1.453980    0.085260    2.984840
  N     -1.270010    0.976420    2.049000
  C     -0.233190    2.805390    0.026180
  C      0.080790    3.744680   -0.995750
  C      0.309130    5.128200   -0.688400
  N      0.460160    6.025000   -1.689010
  C      0.475630    5.599340   -2.917880
  C      0.450760    4.223010   -3.209280
  N      0.243150    3.342550   -2.267910
  C      0.367350    5.575120    0.642690
  C      0.355940    4.599420    1.651910
  C      0.136860    3.215740    1.338200
  N      0.361100    2.306880    2.302980
  C      0.600830    2.697480    3.524920
  C      0.547690    4.063430    3.865010
  N      0.479740    4.978370    2.944280
  C      0.467860    6.999000    0.942040
  C     -0.260000    7.952470    0.238460
  C     -0.074100    9.312520    0.497070
  C      0.814680    9.640030    1.530030
  N      1.512570    8.743710    2.196420
  C      1.369280    7.467660    1.907120
  C     -0.799950   10.303050   -0.268070
  C     -0.423440   11.591190   -0.374770
  C     -1.066720   12.632600   -1.126290
  C     -2.326610   12.530500   -1.761530
  C     -2.848060   13.615830   -2.541090
  N     -4.002890   13.467500   -3.232630
  C     -4.660690   12.355710   -3.099370
  C     -4.200410   11.321840   -2.252700
  N     -3.062070   11.403010   -1.628580
  C     -2.154150   14.831370   -2.648850
  C     -0.928080   14.964380   -1.978950
  C     -0.382240   13.868100   -1.241890
  N      0.822960   14.003060   -0.640130
  C      1.442130   15.141780   -0.742190
  C      0.866840   16.244050   -1.416950
  N     -0.285940   16.156670   -2.008710
  C     -2.681820   15.927970   -3.446280
  C     -3.991790   16.394640   -3.252010
  C     -4.503420   17.467420   -4.055220
  N     -5.784670   17.889340   -3.893970
  C     -6.500970   17.306140   -2.982150
  C     -5.970070   16.294950   -2.140240
  N     -4.754600   15.857040   -2.270200
  C     -3.695620   18.089060   -5.001470
  C     -2.389410   17.647910   -5.184080
  C     -1.881330   16.544550   -4.421840
  N     -0.640310   16.061260   -4.670140
  C      0.083060   16.677400   -5.555100
  C     -0.392000   17.815360   -6.256640
  N     -1.596630   18.270790   -6.094720
  H     -1.426050   -2.281560   -1.094280
  H     -1.845810    2.361500   -4.494940
  H     -1.717680   -0.111710   -5.102030
  H     -1.517800   -2.039520    3.467120
  H     -1.644220    0.455150    3.982730
  H      0.586010    6.344690   -3.693390
  H      0.642670    3.842640   -4.202640
  H      0.857310    1.932340    4.243980
  H      0.626920    4.402540    4.888550
  H     -0.967530    7.642170   -0.515680
  H      0.954980   10.665290    1.843190
  H      1.999820    6.783000    2.454230
  H     -1.672620    9.953680   -0.799940
  H      0.487530   11.922020    0.105410
  H     -5.574580   12.254560   -3.670070
  H     -4.772730   10.415230   -2.104820
  H      2.408180   15.215940   -0.260400
  H      1.359670   17.207080   -1.443740
  H     -7.523730   17.643010   -2.873850
  H     -6.562850   15.863550   -1.344110
  H     -4.078970   18.907880   -5.588400
  H      1.067450   16.271850   -5.749700
  H      0.233230   18.329560   -6.974870

 Total Charge           Charge          ....    0
 Multiplicity           Mult            ....    1
 Number of Electrons    NEL             ....  424
 Basis Dimension        Dim             .... 1011

ORBITAL ENERGIES
----------------

  NO   OCC          E(Eh)            E(eV)
   0   2.0000     -14.424954      -392.5230
   1   2.0000     -14.424668      -392.5152
   2   2.0000     -14.423919      -392.4948
   3   2.0000     -14.423704      -392.4889
   4   2.0000     -14.418180      -392.3386
   5   2.0000     -14.417533      -392.3210
   6   2.0000     -14.416630      -392.2964
   7   2.0000     -14.415801      -392.2739
   8   2.0000     -14.415617      -392.2689
   9   2.0000     -14.415429      -392.2638
  10   2.0000     -14.415375      -392.2623
  11   2.0000     -14.415357      -392.2618
  12   2.0000     -14.415198      -392.2575
  13   2.0000     -14.414922      -392.2500
  14   2.0000     -14.413166      -392.2022
  15   2.0000     -14.413086      -392.2000
  16   2.0000     -14.379127      -391.2759
  17   2.0000     -10.321049      -280.8500
  18   2.0000     -10.320675      -280.8398
  19   2.0000     -10.318413      -280.7783
  20   2.0000     -10.318364      -280.7770
  21   2.0000     -10.315265      -280.6926
  22   2.0000     -10.315095      -280.6880
  23   2.0000     -10.314652      -280.6759
  24   2.0000     -10.314031      -280.6591
  25   2.0000     -10.313919      -280.6560
  26   2.0000     -10.313724      -280.6507
  27   2.0000     -10.313106      -280.6339
  28   2.0000     -10.312958      -280.6299
  29   2.0000     -10.312900      -280.6283
  30   2.0000     -10.312799      -280.6255
  31   2.0000     -10.312542      -280.6185
  32   2.0000     -10.312321      -280.6125
  33   2.0000     -10.312294      -280.6118
  34   2.0000     -10.312071      -280.6057
  35   2.0000     -10.311411      -280.5878
  36   2.0000     -10.311114      -280.5797
  37   2.0000     -10.310791      -280.5709
  38   2.0000     -10.310729      -280.5692
  39   2.0000     -10.310706      -280.5686
  40   2.0000     -10.310184      -280.5544
  41   2.0000     -10.310133      -280.5530
  42   2.0000     -10.309524      -280.5364
  43   2.0000     -10.309497      -280.5357
  44   2.0000     -10.309283      -280.5298
  45   2.0000     -10.309203      -280.5277
  46   2.0000     -10.309133      -280.5258
  47   2.0000     -10.308018      -280.4954
  48   2.0000     -10.307946      -280.4935
  49   2.0000     -10.298281      -280.2305
  50   2.0000     -10.297207      -280.2012
  51   2.0000     -10.289693      -279.9968
  52   2.0000     -10.285237      -279.8755
  53   2.0000     -10.284325      -279.8507
  54   2.0000     -10.283682      -279.8332
  55   2.0000     -10.282983      -279.8142
  56   2.0000     -10.280947      -279.7588
  57   2.0000     -10.274635      -279.5870
  58   2.0000     -10.272061      -279.5170
  59   2.0000     -10.270033      -279.4618
  60   2.0000     -10.269113      -279.4368
  61   2.0000     -10.263092      -279.2729
  62   2.0000     -10.257438      -279.1191
  63   2.0000     -10.253745      -279.0186
  64   2.0000      -1.087115       -29.5819
  65   2.0000      -1.078838       -29.3567
  66   2.0000      -1.078670       -29.3521
  67   2.0000      -1.074902       -29.2496
  68   2.0000      -1.072559       -29.1858
  69   2.0000      -1.070396       -29.1270
  70   2.0000      -1.068165       -29.0662
  71   2.0000      -1.066562       -29.0226
  72   2.0000      -1.017624       -27.6910
  73   2.0000      -1.009498       -27.4698
  74   2.0000      -1.004273       -27.3276
  75   2.0000      -1.003023       -27.2936
  76   2.0000      -0.995948       -27.1011
  77   2.0000      -0.993606       -27.0374
  78   2.0000      -0.991566       -26.9819
  79   2.0000      -0.990345       -26.9487
  80   2.0000      -0.987482       -26.8707
  81   2.0000      -0.954740       -25.9798
  82   2.0000      -0.947981       -25.7959
  83   2.0000      -0.935303       -25.4509
  84   2.0000      -0.930630       -25.3237
  85   2.0000      -0.898251       -24.4426
  86   2.0000      -0.888607       -24.1802
  87   2.0000      -0.871470       -23.7139
  88   2.0000      -0.863740       -23.5036
  89   2.0000      -0.857364       -23.3300
  90   2.0000      -0.855031       -23.2666
  91   2.0000      -0.853900       -23.2358
  92   2.0000      -0.851985       -23.1837
  93   2.0000      -0.834470       -22.7071
  94   2.0000      -0.813710       -22.1422
  95   2.0000      -0.795088       -21.6355
  96   2.0000      -0.790528       -21.5114
  97   2.0000      -0.782032       -21.2802
  98   2.0000      -0.781079       -21.2542
  99   2.0000      -0.778766       -21.1913
 100   2.0000      -0.765507       -20.8305
 101   2.0000      -0.758222       -20.6323
 102   2.0000      -0.746891       -20.3239
 103   2.0000      -0.746283       -20.3074
 104   2.0000      -0.736599       -20.0439
 105   2.0000      -0.727462       -19.7952
 106   2.0000      -0.722403       -19.6576
 107   2.0000      -0.717432       -19.5223
 108   2.0000      -0.715896       -19.4805
 109   2.0000      -0.713337       -19.4109
 110   2.0000      -0.707545       -19.2533
 111   2.0000      -0.697426       -18.9779
 112   2.0000      -0.683440       -18.5973
 113   2.0000      -0.678626       -18.4664
 114   2.0000      -0.675707       -18.3869
 115   2.0000      -0.665658       -18.1135
 116   2.0000      -0.656901       -17.8752
 117   2.0000      -0.652021       -17.7424
 118   2.0000      -0.641231       -17.4488
 119   2.0000      -0.640145       -17.4192
 120   2.0000      -0.633571       -17.2404
 121   2.0000      -0.628873       -17.1125
 122   2.0000      -0.624095       -16.9825
 123   2.0000      -0.616933       -16.7876
 124   2.0000      -0.613453       -16.6929
 125   2.0000      -0.608051       -16.5459
 126   2.0000      -0.600363       -16.3367
 127   2.0000      -0.588761       -16.0210
 128   2.0000      -0.585170       -15.9233
 129   2.0000      -0.583508       -15.8781
 130   2.0000      -0.582342       -15.8463
 131   2.0000      -0.581860       -15.8332
 132   2.0000      -0.581752       -15.8303
 133   2.0000      -0.581125       -15.8132
 134   2.0000      -0.572966       -15.5912
 135   2.0000      -0.568176       -15.4609
 136   2.0000      -0.565526       -15.3887
 137   2.0000      -0.564328       -15.3561
 138   2.0000      -0.560817       -15.2606
 139   2.0000      -0.558176       -15.1887
 140   2.0000      -0.550063       -14.9680
 141   2.0000      -0.540568       -14.7096
 142   2.0000      -0.537464       -14.6251
 143   2.0000      -0.532049       -14.4778
 144   2.0000      -0.530029       -14.4228
 145   2.0000      -0.528201       -14.3731
 146   2.0000      -0.525335       -14.2951
 147   2.0000      -0.523156       -14.2358
 148   2.0000      -0.515549       -14.0288
 149   2.0000      -0.512678       -13.9507
 150   2.0000      -0.508929       -13.8487
 151   2.0000      -0.508376       -13.8336
 152   2.0000      -0.508110       -13.8264
 153   2.0000      -0.507591       -13.8122
 154   2.0000      -0.505313       -13.7503
 155   2.0000      -0.502595       -13.6763
 156   2.0000      -0.502403       -13.6711
 157   2.0000      -0.500021       -13.6063
 158   2.0000      -0.499466       -13.5912
 159   2.0000      -0.496216       -13.5027
 160   2.0000      -0.493445       -13.4273
 161   2.0000      -0.487925       -13.2771
 162   2.0000      -0.484340       -13.1796
 163   2.0000      -0.474011       -12.8985
 164   2.0000      -0.470091       -12.7918
 165   2.0000      -0.465637       -12.6706
 166   2.0000      -0.461381       -12.5548
 167   2.0000      -0.458060       -12.4644
 168   2.0000      -0.453485       -12.3399
 169   2.0000      -0.449098       -12.2206
 170   2.0000      -0.444664       -12.0999
 171   2.0000      -0.441736       -12.0202
 172   2.0000      -0.436821       -11.8865
 173   2.0000      -0.435579       -11.8527
 174   2.0000      -0.432551       -11.7703
 175   2.0000      -0.429362       -11.6835
 176   2.0000      -0.427678       -11.6377
 177   2.0000      -0.413485       -11.2515
 178   2.0000      -0.411979       -11.2105
 179   2.0000      -0.411393       -11.1946
 180   2.0000      -0.410197       -11.1620
 181   2.0000      -0.401439       -10.9237
 182   2.0000      -0.399671       -10.8756
 183   2.0000      -0.399452       -10.8696
 184   2.0000      -0.390844       -10.6354
 185   2.0000      -0.383884       -10.4460
 186   2.0000      -0.380625       -10.3573
 187   2.0000      -0.379581       -10.3289
 188   2.0000      -0.373286       -10.1576
 189   2.0000      -0.367875       -10.0104
 190   2.0000      -0.367138        -9.9903
 191   2.0000      -0.356291        -9.6952
 192   2.0000      -0.353908        -9.6303
 193   2.0000      -0.339121        -9.2279
 194   2.0000      -0.326553        -8.8859
 195   2.0000      -0.324111        -8.8195
 196   2.0000      -0.323237        -8.7957
 197   2.0000      -0.322430        -8.7738
 198   2.0000      -0.321215        -8.7407
 199   2.0000      -0.320191        -8.7128
 200   2.0000      -0.319480        -8.6935
 201   2.0000      -0.315900        -8.5961
 202   2.0000      -0.310248        -8.4423
 203   2.0000      -0.309712        -8.4277
 204   2.0000      -0.308196        -8.3864
 205   2.0000      -0.306615        -8.3434
 206   2.0000      -0.299442        -8.1482
 207   2.0000      -0.286276        -7.7900
 208   2.0000      -0.281733        -7.6663
 209   2.0000      -0.273166        -7.4332
 210   2.0000      -0.251546        -6.8449
 211   2.0000      -0.243279        -6.6200
 212   0.0000      -0.084678        -2.3042
 213   0.0000      -0.075238        -2.0473
 214   0.0000      -0.063089        -1.7167
 215   0.0000      -0.062849        -1.7102
 216   0.0000      -0.008904        -0.2423

MULLIKEN ATOMIC CHARGES
-----------------------
   0 C :   -0.048394
   1 C :    0.040991
   2 C :   -0.055834
   3 N :   -0.032770
   4 C :    0.024059
   5 C :    0.029628
   6 N :   -0.030748
   7 C :    0.092274
   8 C :   -0.051947
   9 C :    0.037911
  10 N :   -0.028959
  11 C :    0.027469
  12 C :    0.026290
  13 N :   -0.034423
  14 C :    0.088335
  15 C :   -0.049816
  16 C :   -0.048341
  17 N :   -0.024833
  18 C :    0.032748
  19 C :    0.027692
  20 N :   -0.032284
  21 C :    0.101402
  22 C :   -0.036134
  23 C :   -0.057858
  24 N :   -0.032766
  25 C :    0.026594
  26 C :    0.035296
  27 N :   -0.024932
  28 C :   -0.029575
  29 C :    0.033008
  30 C :    0.051391
  31 C :   -0.009426
  32 N :   -0.059740
  33 C :    0.036134
  34 C :    0.034873
  35 C :   -0.086898
  36 C :    0.114787
  37 C :   -0.074979
  38 C :   -0.015765
  39 N :    0.004441
  40 C :    0.021718
  41 C :    0.028800
  42 N :   -0.019913
  43 C :    0.021531
  44 C :   -0.027981
  45 C :   -0.058880
  46 N :   -0.017438
  47 C :    0.022851
  48 C :    0.022034
  49 N :    0.006282
  50 C :    0.034791
  51 C :   -0.027166
  52 C :    0.026086
  53 N :   -0.020654
  54 C :    0.018784
  55 C :    0.020302
  56 N :    0.007534
  57 C :   -0.087758
  58 C :    0.032931
  59 C :   -0.037789
  60 N :    0.003625
  61 C :    0.021801
  62 C :    0.017870
  63 N :   -0.019604
  64 H :   -0.029087
  65 H :    0.001629
  66 H :    0.009036
  67 H :    0.011084
  68 H :    0.001707
  69 H :    0.011405
  70 H :    0.002377
  71 H :    0.004344
  72 H :    0.011778
  73 H :   -0.021705
  74 H :   -0.002193
  75 H :   -0.007934
  76 H :   -0.005793
  77 H :   -0.003928
  78 H :    0.007495
  79 H :    0.007234
  80 H :    0.010295
  81 H :    0.008287
  82 H :    0.009967
  83 H :    0.007610
  84 H :   -0.039882
  85 H :    0.006459
  86 H :    0.011156
Sum of atomic charges:   -0.0000000

LOEWDIN ATOMIC CHARGES
----------------------
   0 C :    0.004790
   1 C :   -0.016904
   2 C :    0.005180
   3 N :   -0.003368
   4 C :   -0.013013
   5 C :    0.008185
   6 N :   -0.047588
   7 C :   -0.007525
   8 C :    0.005735
   9 C :   -0.016953
  10 N :   -0.047210
  11 C :    0.008210
  12 C :   -0.011499
  13 N :   -0.003461
  14 C :   -0.013509
  15 C :    0.009449
  16 C :   -0.012081
  17 N :   -0.038457
  18 C :    0.008985
  19 C :   -0.009501
  20 N :   -0.001339
  21 C :    0.001166
  22 C :   -0.012238
  23 C :    0.009925
  24 N :   -0.001697
  25 C :   -0.009706
  26 C :    0.010419
  27 N :   -0.036299
  28 C :   -0.041250
  29 C :    0.035697
  30 C :   -0.054860
  31 C :    0.031533
  32 N :   -0.073895
  33 C :    0.038554
  34 C :    0.008244
  35 C :   -0.029266
  36 C :   -0.004335
  37 C :   -0.010286
  38 C :    0.005501
  39 N :   -0.023580
  40 C :    0.002831
  41 C :    0.004433
  42 N :   -0.025947
  43 C :   -0.009047
  44 C :    0.003913
  45 C :   -0.008634
  46 N :   -0.030896
  47 C :    0.003916
  48 C :    0.004733
  49 N :   -0.026451
  50 C :    0.002614
  51 C :    0.000173
  52 C :   -0.014900
  53 N :   -0.038128
  54 C :    0.002606
  55 C :    0.002198
  56 N :   -0.026207
  57 C :    0.000301
  58 C :   -0.014822
  59 C :    0.000226
  60 N :   -0.026942
  61 C :    0.002368
  62 C :    0.002566
  63 N :   -0.037973
  64 H :    0.041540
  65 H :    0.019948
  66 H :    0.024327
  67 H :    0.024728
  68 H :    0.020242
  69 H :    0.025450
  70 H :    0.020790
  71 H :    0.021027
  72 H :    0.025604
  73 H :    0.027271
  74 H :    0.019776
  75 H :    0.016963
  76 H :    0.023534
  77 H :    0.027395
  78 H :    0.024298
  79 H :    0.024001
  80 H :    0.025514
  81 H :    0.024675
  82 H :    0.024748
  83 H :    0.024072
  84 H :    0.040638
  85 H :    0.023850
  86 H :    0.024923

  Mayer bond orders larger than 0.100000
B(  0-C ,  1-C ) :   1.2602 B(  0-C ,  7-C ) :   0.1260 B(  0-C ,  9-C ) :   1.2615
B(  0-C , 64-H ) :   1.0460 B(  1-C ,  2-C ) :   1.1720 B(  1-C ,  6-N ) :   1.3641
B(  2-C ,  3-N ) :   1.3629 B(  2-C ,  7-C ) :   1.2519 B(  3-N ,  4-C ) :   1.6383
B(  4-C ,  5-C ) :   1.1859 B(  4-C , 65-H ) :   0.9678 B(  5-C ,  6-N ) :   1.7160
B(  5-C , 66-H ) :   0.9739 B(  7-C ,  8-C ) :   1.2551 B(  7-C , 14-C ) :   1.1469
B(  8-C ,  9-C ) :   1.1732 B(  8-C , 13-N ) :   1.3631 B(  9-C , 10-N ) :   1.3656
B( 10-N , 11-C ) :   1.7149 B( 11-C , 12-C ) :   1.1860 B( 11-C , 67-H ) :   0.9738
B( 12-C , 13-N ) :   1.6386 B( 12-C , 68-H ) :   0.9681 B( 14-C , 15-C ) :   1.2508
B( 14-C , 21-C ) :   0.1342 B( 14-C , 23-C ) :   1.2554 B( 15-C , 16-C ) :   1.1489
B( 15-C , 20-N ) :   1.3685 B( 16-C , 17-N ) :   1.4244 B( 16-C , 21-C ) :   1.3158
B( 17-N , 18-C ) :   1.6911 B( 18-C , 19-C ) :   1.1906 B( 18-C , 69-H ) :   0.9740
B( 19-C , 20-N ) :   1.6335 B( 19-C , 70-H ) :   0.9680 B( 21-C , 22-C ) :   1.3211
B( 21-C , 28-C ) :   0.9677 B( 22-C , 23-C ) :   1.1507 B( 22-C , 27-N ) :   1.4258
B( 23-C , 24-N ) :   1.3652 B( 24-N , 25-C ) :   1.6383 B( 25-C , 26-C ) :   1.1802
B( 25-C , 71-H ) :   0.9686 B( 26-C , 27-N ) :   1.6958 B( 26-C , 72-H ) :   0.9750
B( 28-C , 29-C ) :   1.3868 B( 28-C , 33-C ) :   1.3464 B( 29-C , 30-C ) :   1.3588
B( 29-C , 73-H ) :   0.9889 B( 30-C , 31-C ) :   1.3296 B( 30-C , 34-C ) :   1.0247
B( 31-C , 32-N ) :   1.5629 B( 31-C , 74-H ) :   0.9817 B( 32-N , 33-C ) :   1.5546
B( 33-C , 75-H ) :   0.9780 B( 34-C , 35-C ) :   1.6690 B( 34-C , 76-H ) :   0.9622
B( 35-C , 36-C ) :   1.1682 B( 35-C , 77-H ) :   0.9516 B( 36-C , 37-C ) :   1.2231
B( 36-C , 43-C ) :   0.1491 B( 36-C , 45-C ) :   1.2333 B( 37-C , 38-C ) :   1.1488
B( 37-C , 42-N ) :   1.4383 B( 38-C , 39-N ) :   1.4253 B( 38-C , 43-C ) :   1.3590
B( 39-N , 40-C ) :   1.7047 B( 40-C , 41-C ) :   1.1767 B( 40-C , 78-H ) :   0.9734
B( 41-C , 42-N ) :   1.6911 B( 41-C , 79-H ) :   0.9723 B( 43-C , 44-C ) :   1.3589
B( 43-C , 50-C ) :   0.9187 B( 44-C , 45-C ) :   1.1493 B( 44-C , 49-N ) :   1.4236
B( 45-C , 46-N ) :   1.4411 B( 46-N , 47-C ) :   1.7123 B( 47-C , 48-C ) :   1.1722
B( 47-C , 80-H ) :   0.9738 B( 48-C , 49-N ) :   1.7061 B( 48-C , 81-H ) :   0.9729
B( 50-C , 51-C ) :   1.3618 B( 50-C , 57-C ) :   0.1471 B( 50-C , 59-C ) :   1.3600
B( 51-C , 52-C ) :   1.1686 B( 51-C , 56-N ) :   1.4151 B( 52-C , 53-N ) :   1.3655
B( 52-C , 57-C ) :   1.2285 B( 53-N , 54-C ) :   1.7350 B( 54-C , 55-C ) :   1.1662
B( 54-C , 82-H ) :   0.9724 B( 55-C , 56-N ) :   1.7142 B( 55-C , 83-H ) :   0.9727
B( 57-C , 58-C ) :   1.2274 B( 57-C , 84-H ) :   1.0708 B( 58-C , 59-C ) :   1.1673
B( 58-C , 63-N ) :   1.3649 B( 59-C , 60-N ) :   1.4162 B( 60-N , 61-C ) :   1.7147
B( 61-C , 62-C ) :   1.1656 B( 61-C , 85-H ) :   0.9727 B( 62-C , 63-N ) :   1.7347
B( 62-C , 86-H ) :   0.9729

-----------------------------------------------------------------------------
         ABSORPTION SPECTRUM VIA TRANSITION ELECTRIC DIPOLE MOMENTS
-----------------------------------------------------------------------------
State   Energy  Wavelength   fosc         T2         TX        TY        TZ
        (cm-1)    (nm)                  (au**2)     (au)      (au)      (au)
-----------------------------------------------------------------------------
   0   18780.8    532.5   0.750264998  13.15153   0.08444   3.61401  -0.28871
   1   18938.0    528.0   0.041638635   0.72383   0.00857   0.51827   0.67465
   2   20007.9    499.8   0.283412932   4.66331  -1.06090   1.19409  -1.45325
   3   20449.5    489.0   0.000926472   0.01492  -0.04847  -0.10784   0.03061
   4   21468.9    465.8   0.002224709   0.03411  -0.11522  -0.14063  -0.03258
   5   21629.6    462.3   0.004550072   0.06925   0.20632   0.01161   0.16295
   6   22375.1    446.9   0.056017923   0.82421  -0.30858   0.69702  -0.49311
   7   22679.7    440.9   0.004087429   0.05933  -0.18998  -0.12805  -0.08273
   8   24530.5    407.7   0.311688057   4.18302   1.00371   1.73783   0.39437
   9   25347.4    394.5   0.009461651   0.12289  -0.18700   0.00428   0.29648
  10   26711.2    374.4   0.000188774   0.00233   0.03943   0.02410   0.01384
  11   26899.6    371.8   0.002061602   0.02523   0.00398   0.01466  -0.15811
  12   26908.8    371.6   0.015169349   0.18559  -0.27524  -0.29325  -0.15437
  13   27308.0    366.2   0.004533987   0.05466   0.02372  -0.19210   0.13113
  14   28007.8    357.0   0.009389986   0.11037  -0.04073  -0.31846  -0.08541
  15   28335.5    352.9   0.030577860   0.35526  -0.00699   0.55071   0.22789
  16   28816.6    347.0   0.000655006   0.00748  -0.02937  -0.06052  -0.05438
  17   29451.6    339.5   0.093954783   1.05023   0.28805   0.98065  -0.07467
  18   29839.6    335.1   0.043422388   0.47907  -0.00273   0.18635  -0.66658
  19   30332.8    329.7   0.041872696   0.45446   0.57443   0.34954   0.04807
  20   30414.9    328.8   0.051403658   0.55639   0.30287   0.65205   0.19873
  21   30585.8    326.9   0.020483365   0.22047   0.33211   0.29351   0.15501
  22   31215.4    320.4   0.039900857   0.42081   0.15082  -0.47342   0.41707
  23   31410.0    318.4   0.005519590   0.05785  -0.08393  -0.11868  -0.19163
  24   31596.3    316.5   0.092238631   0.96106  -0.81459   0.10109   0.53599
  25   31757.7    314.9   0.008241343   0.08543  -0.10276   0.09912   0.25504
  26   32448.3    308.2   0.036338725   0.36868  -0.14758   0.33397  -0.48514
  27   32972.2    303.3   0.001194471   0.01193   0.09057  -0.05834   0.01785
  28   33035.7    302.7   0.003717721   0.03705   0.16746  -0.09406   0.01252
  29   33103.6    302.1   0.013922381   0.13846  -0.03012   0.12103   0.35057
  30   33190.1    301.3   0.004062084   0.04029  -0.01907  -0.17730  -0.09216
  31   33404.7    299.4   0.015838912   0.15610  -0.38392   0.09279   0.00971
  32   33821.5    295.7   0.016823999   0.16376  -0.04382   0.35507  -0.18912
  33   34032.5    293.8   0.012602048   0.12191   0.13663  -0.24629   0.20635
  34   34483.8    290.0   0.007434476   0.07098   0.08189  -0.14175  -0.21018
  35   34510.4    289.8   0.001549347   0.01478   0.05494   0.04123  -0.10031
  36   34988.9    285.8   0.073336454   0.69003  -0.11620   0.81087  -0.13791
  37   35294.3    283.3   0.025754597   0.24023   0.09396  -0.44656   0.17884
  38   35318.6    283.1   0.046792436   0.43616   0.51155   0.40221   0.11270
  39   35448.0    282.1   0.154970849   1.43924   0.37310   1.12092   0.20875
  40   35693.9    280.2   0.012570475   0.11594   0.12881   0.31432  -0.02341
  41   35824.3    279.1   0.009300614   0.08547   0.04323  -0.12440  -0.26101
  42   36048.4    277.4   0.013056137   0.11924  -0.07092  -0.17847   0.28697
  43   36122.0    276.8   0.044650152   0.40694   0.06013   0.43780  -0.46005
  44   36575.0    273.4   0.018918982   0.17029  -0.28340  -0.08056  -0.28894
  45   36897.5    271.0   0.056328233   0.50258   0.41998  -0.38770   0.41938
  46   36940.9    270.7   0.466398499   4.15648  -1.38281   1.13677  -0.97574
  47   37108.5    269.5   0.002014074   0.01787  -0.10922  -0.05633   0.05259
  48   37163.9    269.1   0.028983704   0.25675   0.41071  -0.25369   0.15397
  49   37324.2    267.9   0.075431215   0.66533  -0.10258   0.65562  -0.47431
  50   37605.7    265.9   0.150715868   1.31941  -0.28393  -1.08585   0.24438
  51   37903.1    263.8   0.005462779   0.04745   0.15557  -0.08654   0.12553
  52   38115.0    262.4   0.024996310   0.21590  -0.05690  -0.14151   0.43891
  53   38272.2    261.3   0.011511869   0.09902  -0.13898  -0.12545   0.25292
  54   38413.9    260.3   0.009748676   0.08355  -0.11126   0.04124  -0.26357
  55   38496.5    259.8   0.000349364   0.00299  -0.03183  -0.00492  -0.04416
  56   38705.5    258.4   0.041841731   0.35589  -0.00066  -0.16553   0.57314
  57   38791.6    257.8   0.502925340   4.26817   1.89508   0.74794  -0.34264
  58   38806.0    257.7   0.204108192   1.73156   1.06621   0.67206  -0.37828
  59   38931.1    256.9   0.230088717   1.94569   0.10712  -0.57904   1.26449
  60   38996.1    256.4   0.027479591   0.23199  -0.03783   0.15598   0.45412
  61   39198.6    255.1   0.022625854   0.19002   0.12061  -0.04537   0.41644
  62   39300.4    254.5   0.301146099   2.52265  -0.71809  -1.19660  -0.75838
  63   39398.8    253.8   0.113753779   0.95051  -0.33348  -0.91243  -0.08235
  64   39516.7    253.1   0.172113918   1.43387  -0.04663   0.11114  -1.19136
  65   39658.7    252.2   0.034545836   0.28677  -0.10418  -0.51244  -0.11543
  66   39869.0    250.8   0.128990906   1.06512  -0.24656  -0.84240  -0.54285
  67   40021.5    249.9   0.020891933   0.17185   0.08520   0.01551   0.40541
  68   40144.4    249.1   0.215704862   1.76893  -0.26456  -1.15268   0.60849
  69   40311.6    248.1   0.188082894   1.53601  -0.07610  -0.75618   0.97898

FINAL SINGLE POINT ENERGY     -2732.089987960246

DIPOLE MOMENT
-------------
                                X             Y             Z
Electronic contribution:     -0.73170      -1.84325      -0.98044
Nuclear contribution   :      0.38826       1.46453       0.56300
                        -----------------------------------------
Total Dipole Moment    :     -0.34343      -0.37873      -0.41744
                        -----------------------------------------
Magnitude (a.u.)       :      0.66003
Magnitude (Debye)      :      1.67766

Rotational constants in cm-1:     0.002922     0.000423     0.000404
Rotational constants in MHz :    87.603251    12.669316    12.114047

                             ****ORCA TERMINATED NORMALLY****
TOTAL RUN TIME: 0 days 0 hours 7 minutes 31 seconds 797 msec
