                         Program Version 4.2.0 -  RELEASE  -
|  1> # ORCA input file
|  2> # SCF done       -168.209216023177          0.000817400930
|  3> ! CAM-B3LYP def2-SVP def2/J RIJCOSX Grid4 TightSCF
|  4> %maxcore 5000
|  5> %tddft
|  6>     Mode sTDDFT
|  7>     Ethresh 5.0
|  8>     maxcore 5000
|  9> end
| 10>
| 11> %pal
| 12>   nprocs 6
| 13>   end
| 14> * xyz 0 1
| 15>    C        2.53377         3.07735         4.58485
| 16>    C        2.69822         4.27562         3.89922
| 17>    C        2.02434         4.50073         2.65217
| 18>    N        2.17548         5.68408         2.00699
| 19>    C        2.95347         6.57595         2.54382
| 20>    C        3.63208         6.34543         3.76724
| 21>    N        3.50356         5.23425         4.42585
| 22>    C        1.18443         3.51415         2.10475
| 23>    C        1.03503         2.30396         2.80416
| 24>    C        1.71229         2.09107         4.05086
| 25>    N        1.55436         0.92231         4.72525
| 26>    C        0.78770         0.01862         4.19577
| 27>    C        0.14649         0.21435         2.94524
| 28>    N        0.26865         1.31936         2.27342
| 29>    C        0.45796         3.75735         0.86135
| 30>    C        1.06164         4.36701        -0.23172
| 31>    C        0.31695         4.62527        -1.38561
| 32>    C       -1.02214         4.20459        -1.37967
| 33>    N       -1.60135         3.62924        -0.34696
| 34>    C       -0.89682         3.41980         0.74573
| 35>    C        0.83647         5.28087        -2.56043
| 36>    C        2.08246         5.78392        -2.69918
| 37>    C        2.51134         6.44245        -3.88525
| 38>    N        3.78923         6.92689        -4.06406
| 39>    C        4.90065         6.78799        -3.15618
| 40>    C        5.50509         5.38653        -3.20407
| 41>    C        3.94632         7.55487        -5.31036
| 42>    O        4.99696         8.04502        -5.68376
| 43>    C        2.64658         7.45418        -5.92852
| 44>    C        1.79074         6.75560        -5.03141
| 45>    C        0.48650         6.66759        -5.64337
| 46>    O       -0.55876         6.16414        -5.27695
| 47>    N        0.63176         7.33753        -6.87049
| 48>    C       -0.46334         7.42307        -7.80527
| 49>    C       -0.32385         6.41261        -8.94149
| 50>    C        1.91205         7.80927        -7.05423
| 51>    C        2.31972         8.54960        -8.19846
| 52>    C        3.59620         8.95785        -8.37545
| 53>    C        4.09502         9.72532        -9.48725
| 54>    C        3.27548        10.30517       -10.45485
| 55>    C        3.81137        11.04254       -11.49816
| 56>    N        2.88231        11.55896       -12.46663
| 57>    O        1.72196        11.66903       -12.12137
| 58>    O        3.29207        11.83629       -13.57516
| 59>    C        5.19917        11.24259       -11.63022
| 60>    C        6.01069        10.64814       -10.65214
| 61>    C        5.48158         9.91888        -9.61542
| 62>    C        5.78165        12.07583       -12.65603
| 63>    C        6.98381        11.83386       -13.21028
| 64>    C        7.62380        12.63770       -14.21616
| 65>    C        8.67510        12.05619       -14.96300
| 66>    C        9.31077        12.77164       -16.02906
| 67>    N       10.29403        12.18619       -16.76033
| 68>    C       10.62700        10.96797       -16.45821
| 69>    C       10.01430        10.26595       -15.39085
| 70>    N        9.07199        10.79543       -14.66762
| 71>    C        8.91589        14.06890       -16.33727
| 72>    C        7.91349        14.67507       -15.58690
| 73>    C        7.26983        13.97285       -14.51312
| 74>    N        6.34156        14.61113       -13.76336
| 75>    C        6.01761        15.82855       -14.08591
| 76>    C        6.61354        16.49839       -15.18222
| 77>    N        7.54750        15.94592       -15.89506
| 78>    H        3.03821         2.91538         5.52318
| 79>    H        3.05524         7.51429         2.01449
| 80>    H        4.27699         7.09920         4.19898
| 81>    H        0.66702        -0.90459         4.74681
| 82>    H       -0.46419        -0.55991         2.50059
| 83>    H        2.10795         4.62187        -0.17867
| 84>    H       -1.64342         4.34932        -2.25386
| 85>    H       -1.42764         2.97538         1.57509
| 86>    H        0.14173         5.37763        -3.38438
| 87>    H        2.79813         5.70789        -1.89375
| 88>    H        4.58040         7.03971        -2.14086
| 89>    H        5.64655         7.51948        -3.48039
| 90>    H        4.76957         4.63418        -2.92820
| 91>    H        6.34616         5.32320        -2.51912
| 92>    H        5.85845         5.17075        -4.20914
| 93>    H       -0.53584         8.44185        -8.19666
| 94>    H       -1.36691         7.20369        -7.22933
| 95>    H        0.59205         6.58017        -9.50411
| 96>    H       -1.17052         6.49911        -9.61675
| 97>    H       -0.30187         5.40304        -8.53863
| 98>    H        1.56024         8.77638        -8.93202
| 99>    H        4.33186         8.68919        -7.62906
|100>    H        2.20238        10.19748       -10.41664
|101>    H        7.07685        10.80278       -10.71021
|102>    H        6.13471         9.48374        -8.87365
|103>    H        5.21042        12.92517       -13.00001
|104>    H        7.51804        10.92210       -12.97685
|105>    H       11.40866        10.51242       -17.05152
|106>    H       10.32059         9.26112       -15.13147
|107>    H        9.37288        14.59666       -17.15806
|108>    H        5.28158        16.31738       -13.46152
|109>    H        6.32665        17.50746       -15.44653
|110> *
|111>
|112>                          ****END OF INPUT****

CARTESIAN COORDINATES (ANGSTROEM)
---------------------------------
  C      2.533770    3.077350    4.584850
  C      2.698220    4.275620    3.899220
  C      2.024340    4.500730    2.652170
  N      2.175480    5.684080    2.006990
  C      2.953470    6.575950    2.543820
  C      3.632080    6.345430    3.767240
  N      3.503560    5.234250    4.425850
  C      1.184430    3.514150    2.104750
  C      1.035030    2.303960    2.804160
  C      1.712290    2.091070    4.050860
  N      1.554360    0.922310    4.725250
  C      0.787700    0.018620    4.195770
  C      0.146490    0.214350    2.945240
  N      0.268650    1.319360    2.273420
  C      0.457960    3.757350    0.861350
  C      1.061640    4.367010   -0.231720
  C      0.316950    4.625270   -1.385610
  C     -1.022140    4.204590   -1.379670
  N     -1.601350    3.629240   -0.346960
  C     -0.896820    3.419800    0.745730
  C      0.836470    5.280870   -2.560430
  C      2.082460    5.783920   -2.699180
  C      2.511340    6.442450   -3.885250
  N      3.789230    6.926890   -4.064060
  C      4.900650    6.787990   -3.156180
  C      5.505090    5.386530   -3.204070
  C      3.946320    7.554870   -5.310360
  O      4.996960    8.045020   -5.683760
  C      2.646580    7.454180   -5.928520
  C      1.790740    6.755600   -5.031410
  C      0.486500    6.667590   -5.643370
  O     -0.558760    6.164140   -5.276950
  N      0.631760    7.337530   -6.870490
  C     -0.463340    7.423070   -7.805270
  C     -0.323850    6.412610   -8.941490
  C      1.912050    7.809270   -7.054230
  C      2.319720    8.549600   -8.198460
  C      3.596200    8.957850   -8.375450
  C      4.095020    9.725320   -9.487250
  C      3.275480   10.305170  -10.454850
  C      3.811370   11.042540  -11.498160
  N      2.882310   11.558960  -12.466630
  O      1.721960   11.669030  -12.121370
  O      3.292070   11.836290  -13.575160
  C      5.199170   11.242590  -11.630220
  C      6.010690   10.648140  -10.652140
  C      5.481580    9.918880   -9.615420
  C      5.781650   12.075830  -12.656030
  C      6.983810   11.833860  -13.210280
  C      7.623800   12.637700  -14.216160
  C      8.675100   12.056190  -14.963000
  C      9.310770   12.771640  -16.029060
  N     10.294030   12.186190  -16.760330
  C     10.627000   10.967970  -16.458210
  C     10.014300   10.265950  -15.390850
  N      9.071990   10.795430  -14.667620
  C      8.915890   14.068900  -16.337270
  C      7.913490   14.675070  -15.586900
  C      7.269830   13.972850  -14.513120
  N      6.341560   14.611130  -13.763360
  C      6.017610   15.828550  -14.085910
  C      6.613540   16.498390  -15.182220
  N      7.547500   15.945920  -15.895060
  H      3.038210    2.915380    5.523180
  H      3.055240    7.514290    2.014490
  H      4.276990    7.099200    4.198980
  H      0.667020   -0.904590    4.746810
  H     -0.464190   -0.559910    2.500590
  H      2.107950    4.621870   -0.178670
  H     -1.643420    4.349320   -2.253860
  H     -1.427640    2.975380    1.575090
  H      0.141730    5.377630   -3.384380
  H      2.798130    5.707890   -1.893750
  H      4.580400    7.039710   -2.140860
  H      5.646550    7.519480   -3.480390
  H      4.769570    4.634180   -2.928200
  H      6.346160    5.323200   -2.519120
  H      5.858450    5.170750   -4.209140
  H     -0.535840    8.441850   -8.196660
  H     -1.366910    7.203690   -7.229330
  H      0.592050    6.580170   -9.504110
  H     -1.170520    6.499110   -9.616750
  H     -0.301870    5.403040   -8.538630
  H      1.560240    8.776380   -8.932020
  H      4.331860    8.689190   -7.629060
  H      2.202380   10.197480  -10.416640
  H      7.076850   10.802780  -10.710210
  H      6.134710    9.483740   -8.873650
  H      5.210420   12.925170  -13.000010
  H      7.518040   10.922100  -12.976850
  H     11.408660   10.512420  -17.051520
  H     10.320590    9.261120  -15.131470
  H      9.372880   14.596660  -17.158060
  H      5.281580   16.317380  -13.461520
  H      6.326650   17.507460  -15.446530

 Total Charge           Charge          ....    0
 Multiplicity           Mult            ....    1
 Number of Electrons    NEL             ....  430
 Basis Dimension        Dim             .... 1042

ORBITAL ENERGIES
----------------

  NO   OCC          E(Eh)            E(eV)
   0   2.0000     -19.237969      -523.4918
   1   2.0000     -19.235418      -523.4223
   2   2.0000     -19.184709      -522.0425
   3   2.0000     -19.181540      -521.9562
   4   2.0000     -14.642147      -398.4331
   5   2.0000     -14.446857      -393.1190
   6   2.0000     -14.445437      -393.0803
   7   2.0000     -14.432541      -392.7294
   8   2.0000     -14.430378      -392.6706
   9   2.0000     -14.429942      -392.6587
  10   2.0000     -14.428792      -392.6274
  11   2.0000     -14.426244      -392.5581
  12   2.0000     -14.424163      -392.5014
  13   2.0000     -14.423432      -392.4815
  14   2.0000     -14.422959      -392.4687
  15   2.0000     -14.391047      -391.6003
  16   2.0000     -10.366941      -282.0988
  17   2.0000     -10.364492      -282.0322
  18   2.0000     -10.330538      -281.1082
  19   2.0000     -10.330096      -281.0962
  20   2.0000     -10.328655      -281.0570
  21   2.0000     -10.326971      -281.0112
  22   2.0000     -10.326306      -280.9931
  23   2.0000     -10.325970      -280.9839
  24   2.0000     -10.325618      -280.9743
  25   2.0000     -10.325120      -280.9608
  26   2.0000     -10.324831      -280.9529
  27   2.0000     -10.324083      -280.9326
  28   2.0000     -10.323391      -280.9138
  29   2.0000     -10.321492      -280.8621
  30   2.0000     -10.320869      -280.8451
  31   2.0000     -10.320174      -280.8262
  32   2.0000     -10.319455      -280.8067
  33   2.0000     -10.318373      -280.7772
  34   2.0000     -10.318136      -280.7708
  35   2.0000     -10.316653      -280.7304
  36   2.0000     -10.316557      -280.7278
  37   2.0000     -10.305568      -280.4288
  38   2.0000     -10.302444      -280.3438
  39   2.0000     -10.302022      -280.3323
  40   2.0000     -10.300456      -280.2897
  41   2.0000     -10.297767      -280.2165
  42   2.0000     -10.296534      -280.1829
  43   2.0000     -10.292669      -280.0778
  44   2.0000     -10.292392      -280.0702
  45   2.0000     -10.291646      -280.0499
  46   2.0000     -10.287070      -279.9254
  47   2.0000     -10.285443      -279.8811
  48   2.0000     -10.284327      -279.8508
  49   2.0000     -10.284062      -279.8436
  50   2.0000     -10.283499      -279.8282
  51   2.0000     -10.283115      -279.8178
  52   2.0000     -10.283028      -279.8154
  53   2.0000     -10.281838      -279.7830
  54   2.0000     -10.279657      -279.7237
  55   2.0000     -10.277778      -279.6726
  56   2.0000     -10.277754      -279.6719
  57   2.0000     -10.269485      -279.4469
  58   2.0000     -10.267996      -279.4064
  59   2.0000     -10.262239      -279.2497
  60   2.0000     -10.258606      -279.1509
  61   2.0000     -10.251708      -278.9632
  62   2.0000     -10.250283      -278.9244
  63   2.0000      -1.317128       -35.8409
  64   2.0000      -1.134967       -30.8840
  65   2.0000      -1.125823       -30.6352
  66   2.0000      -1.118849       -30.4454
  67   2.0000      -1.089734       -29.6532
  68   2.0000      -1.083059       -29.4715
  69   2.0000      -1.082304       -29.4510
  70   2.0000      -1.076094       -29.2820
  71   2.0000      -1.055689       -28.7268
  72   2.0000      -1.047661       -28.5083
  73   2.0000      -1.029927       -28.0257
  74   2.0000      -1.012496       -27.5514
  75   2.0000      -1.007345       -27.4112
  76   2.0000      -1.006266       -27.3819
  77   2.0000      -1.000764       -27.2322
  78   2.0000      -0.983266       -26.7560
  79   2.0000      -0.954943       -25.9853
  80   2.0000      -0.946947       -25.7677
  81   2.0000      -0.923692       -25.1349
  82   2.0000      -0.918751       -25.0005
  83   2.0000      -0.913977       -24.8706
  84   2.0000      -0.894387       -24.3375
  85   2.0000      -0.894036       -24.3280
  86   2.0000      -0.883871       -24.0513
  87   2.0000      -0.869771       -23.6677
  88   2.0000      -0.868234       -23.6258
  89   2.0000      -0.862067       -23.4580
  90   2.0000      -0.857270       -23.3275
  91   2.0000      -0.855933       -23.2911
  92   2.0000      -0.830997       -22.6126
  93   2.0000      -0.819428       -22.2978
  94   2.0000      -0.815086       -22.1796
  95   2.0000      -0.794499       -21.6194
  96   2.0000      -0.789589       -21.4858
  97   2.0000      -0.787935       -21.4408
  98   2.0000      -0.779675       -21.2160
  99   2.0000      -0.769951       -20.9514
 100   2.0000      -0.764620       -20.8064
 101   2.0000      -0.759494       -20.6669
 102   2.0000      -0.755922       -20.5697
 103   2.0000      -0.733844       -19.9689
 104   2.0000      -0.731696       -19.9105
 105   2.0000      -0.730819       -19.8866
 106   2.0000      -0.724203       -19.7066
 107   2.0000      -0.719393       -19.5757
 108   2.0000      -0.704281       -19.1645
 109   2.0000      -0.701406       -19.0862
 110   2.0000      -0.693264       -18.8647
 111   2.0000      -0.690418       -18.7872
 112   2.0000      -0.682774       -18.5792
 113   2.0000      -0.675233       -18.3740
 114   2.0000      -0.671276       -18.2664
 115   2.0000      -0.650991       -17.7144
 116   2.0000      -0.648871       -17.6567
 117   2.0000      -0.646609       -17.5951
 118   2.0000      -0.641344       -17.4518
 119   2.0000      -0.635147       -17.2832
 120   2.0000      -0.631692       -17.1892
 121   2.0000      -0.630607       -17.1597
 122   2.0000      -0.626312       -17.0428
 123   2.0000      -0.620345       -16.8804
 124   2.0000      -0.611292       -16.6341
 125   2.0000      -0.603349       -16.4180
 126   2.0000      -0.596622       -16.2349
 127   2.0000      -0.593746       -16.1566
 128   2.0000      -0.590483       -16.0679
 129   2.0000      -0.590090       -16.0572
 130   2.0000      -0.588378       -16.0106
 131   2.0000      -0.583803       -15.8861
 132   2.0000      -0.580115       -15.7857
 133   2.0000      -0.577432       -15.7127
 134   2.0000      -0.575438       -15.6585
 135   2.0000      -0.573598       -15.6084
 136   2.0000      -0.569553       -15.4983
 137   2.0000      -0.566555       -15.4168
 138   2.0000      -0.558410       -15.1951
 139   2.0000      -0.549145       -14.9430
 140   2.0000      -0.543076       -14.7778
 141   2.0000      -0.542972       -14.7750
 142   2.0000      -0.540024       -14.6948
 143   2.0000      -0.539274       -14.6744
 144   2.0000      -0.535131       -14.5616
 145   2.0000      -0.533448       -14.5159
 146   2.0000      -0.527528       -14.3548
 147   2.0000      -0.525782       -14.3072
 148   2.0000      -0.520866       -14.1735
 149   2.0000      -0.518471       -14.1083
 150   2.0000      -0.517781       -14.0895
 151   2.0000      -0.514623       -14.0036
 152   2.0000      -0.512777       -13.9534
 153   2.0000      -0.511328       -13.9139
 154   2.0000      -0.510633       -13.8950
 155   2.0000      -0.509677       -13.8690
 156   2.0000      -0.506252       -13.7758
 157   2.0000      -0.504288       -13.7224
 158   2.0000      -0.498815       -13.5734
 159   2.0000      -0.492677       -13.4064
 160   2.0000      -0.490567       -13.3490
 161   2.0000      -0.486176       -13.2295
 162   2.0000      -0.485814       -13.2197
 163   2.0000      -0.480204       -13.0670
 164   2.0000      -0.478505       -13.0208
 165   2.0000      -0.476129       -12.9561
 166   2.0000      -0.471802       -12.8384
 167   2.0000      -0.468349       -12.7444
 168   2.0000      -0.464114       -12.6292
 169   2.0000      -0.460807       -12.5392
 170   2.0000      -0.457288       -12.4434
 171   2.0000      -0.453854       -12.3500
 172   2.0000      -0.451367       -12.2823
 173   2.0000      -0.446192       -12.1415
 174   2.0000      -0.443521       -12.0688
 175   2.0000      -0.442862       -12.0509
 176   2.0000      -0.441674       -12.0186
 177   2.0000      -0.439443       -11.9579
 178   2.0000      -0.434823       -11.8321
 179   2.0000      -0.434268       -11.8170
 180   2.0000      -0.432998       -11.7825
 181   2.0000      -0.429195       -11.6790
 182   2.0000      -0.422723       -11.5029
 183   2.0000      -0.421215       -11.4618
 184   2.0000      -0.418812       -11.3964
 185   2.0000      -0.416059       -11.3215
 186   2.0000      -0.415158       -11.2970
 187   2.0000      -0.410238       -11.1631
 188   2.0000      -0.395639       -10.7659
 189   2.0000      -0.394515       -10.7353
 190   2.0000      -0.392562       -10.6822
 191   2.0000      -0.386059       -10.5052
 192   2.0000      -0.384813       -10.4713
 193   2.0000      -0.379444       -10.3252
 194   2.0000      -0.377377       -10.2690
 195   2.0000      -0.373317       -10.1585
 196   2.0000      -0.361384        -9.8338
 197   2.0000      -0.350771        -9.5450
 198   2.0000      -0.349375        -9.5070
 199   2.0000      -0.340738        -9.2719
 200   2.0000      -0.339037        -9.2257
 201   2.0000      -0.334111        -9.0916
 202   2.0000      -0.328958        -8.9514
 203   2.0000      -0.327967        -8.9244
 204   2.0000      -0.327104        -8.9010
 205   2.0000      -0.324337        -8.8257
 206   2.0000      -0.323200        -8.7947
 207   2.0000      -0.316902        -8.6233
 208   2.0000      -0.316702        -8.6179
 209   2.0000      -0.309984        -8.4351
 210   2.0000      -0.308084        -8.3834
 211   2.0000      -0.304938        -8.2978
 212   2.0000      -0.283679        -7.7193
 213   2.0000      -0.265264        -7.2182
 214   2.0000      -0.228829        -6.2268
 215   0.0000      -0.083460        -2.2711
 216   0.0000      -0.079910        -2.1745
 217   0.0000      -0.068496        -1.8639
 218   0.0000      -0.042187        -1.1480
 219   0.0000      -0.024888        -0.6772

MULLIKEN ATOMIC CHARGES
-----------------------
   0 C :   -0.073061
   1 C :    0.029016
   2 C :   -0.053721
   3 N :   -0.016828
   4 C :    0.023328
   5 C :    0.021635
   6 N :   -0.014536
   7 C :    0.097608
   8 C :   -0.061734
   9 C :    0.033368
  10 N :   -0.015476
  11 C :    0.021167
  12 C :    0.028124
  13 N :   -0.011476
  14 C :   -0.039602
  15 C :    0.044846
  16 C :    0.045256
  17 C :   -0.012095
  18 N :   -0.055580
  19 C :    0.044936
  20 C :    0.007665
  21 C :   -0.008236
  22 C :    0.135740
  23 N :   -0.259155
  24 C :    0.101975
  25 C :    0.005542
  26 C :    0.160107
  27 O :   -0.221301
  28 C :   -0.066735
  29 C :   -0.068627
  30 C :    0.159692
  31 O :   -0.215911
  32 N :   -0.259043
  33 C :    0.101357
  34 C :    0.003048
  35 C :    0.129038
  36 C :    0.002092
  37 C :   -0.003146
  38 C :    0.110034
  39 C :   -0.068703
  40 C :    0.148087
  41 N :    0.243587
  42 O :   -0.240654
  43 O :   -0.228560
  44 C :    0.050616
  45 C :   -0.030364
  46 C :    0.015423
  47 C :    0.049986
  48 C :   -0.079388
  49 C :    0.096167
  50 C :   -0.046638
  51 C :    0.034338
  52 N :   -0.016378
  53 C :    0.020060
  54 C :    0.024806
  55 N :   -0.018740
  56 C :   -0.073369
  57 C :    0.039887
  58 C :   -0.044571
  59 N :   -0.033762
  60 C :    0.033625
  61 C :    0.022802
  62 N :   -0.019374
  63 H :   -0.033184
  64 H :    0.014750
  65 H :    0.017469
  66 H :    0.017192
  67 H :    0.018509
  68 H :   -0.018950
  69 H :    0.012730
  70 H :   -0.006855
  71 H :    0.012021
  72 H :   -0.035131
  73 H :    0.019310
  74 H :    0.040645
  75 H :    0.015943
  76 H :    0.020156
  77 H :    0.028005
  78 H :    0.023643
  79 H :    0.042192
  80 H :    0.015267
  81 H :    0.024063
  82 H :    0.028396
  83 H :   -0.029565
  84 H :    0.007790
  85 H :   -0.004046
  86 H :   -0.007067
  87 H :    0.002434
  88 H :    0.021877
  89 H :   -0.000188
  90 H :    0.015285
  91 H :    0.013429
  92 H :   -0.034975
  93 H :    0.015067
  94 H :    0.015594
Sum of atomic charges:   -0.0000000

LOEWDIN ATOMIC CHARGES
----------------------
   0 C :    0.000226
   1 C :   -0.013413
   2 C :   -0.010739
   3 N :   -0.031217
   4 C :    0.006251
   5 C :    0.006575
   6 N :   -0.033296
   7 C :   -0.005441
   8 C :   -0.010012
   9 C :   -0.012794
  10 N :   -0.034966
  11 C :    0.008804
  12 C :    0.009325
  13 N :   -0.027790
  14 C :   -0.039009
  15 C :    0.041163
  16 C :   -0.061924
  17 C :    0.038101
  18 N :   -0.071286
  19 C :    0.047785
  20 C :    0.042456
  21 C :   -0.058593
  22 C :    0.079398
  23 N :   -0.001717
  24 C :    0.035403
  25 C :   -0.061494
  26 C :    0.079678
  27 O :   -0.211363
  28 C :   -0.125054
  29 C :   -0.127912
  30 C :    0.079047
  31 O :   -0.207487
  32 N :   -0.000436
  33 C :    0.035784
  34 C :   -0.061314
  35 C :    0.074402
  36 C :   -0.046674
  37 C :    0.030166
  38 C :   -0.032686
  39 C :    0.014420
  40 C :   -0.029222
  41 N :    0.286093
  42 O :   -0.210010
  43 O :   -0.189586
  44 C :    0.002608
  45 C :   -0.007542
  46 C :    0.016664
  47 C :    0.004665
  48 C :   -0.017714
  49 C :   -0.009005
  50 C :   -0.008718
  51 C :   -0.014412
  52 N :   -0.034540
  53 C :    0.005607
  54 C :    0.006591
  55 N :   -0.033369
  56 C :   -0.002827
  57 C :   -0.011913
  58 C :   -0.006659
  59 N :   -0.025506
  60 C :    0.010693
  61 C :    0.007024
  62 N :   -0.033900
  63 H :    0.043015
  64 H :    0.027000
  65 H :    0.027950
  66 H :    0.027994
  67 H :    0.028784
  68 H :    0.025042
  69 H :    0.027064
  70 H :    0.018978
  71 H :    0.038052
  72 H :    0.024580
  73 H :    0.020937
  74 H :    0.036473
  75 H :    0.022367
  76 H :    0.028979
  77 H :    0.031828
  78 H :    0.022657
  79 H :    0.037418
  80 H :    0.021792
  81 H :    0.030706
  82 H :    0.031799
  83 H :    0.026688
  84 H :    0.037199
  85 H :    0.035272
  86 H :    0.036066
  87 H :    0.039767
  88 H :    0.025997
  89 H :    0.028134
  90 H :    0.027113
  91 H :    0.026593
  92 H :    0.041843
  93 H :    0.027255
  94 H :    0.027273

  Mayer bond orders larger than 0.100000
B(  0-C ,  1-C ) :   1.2403 B(  0-C ,  7-C ) :   0.1437 B(  0-C ,  9-C ) :   1.2431
B(  0-C , 63-H ) :   1.0608 B(  1-C ,  2-C ) :   1.1723 B(  1-C ,  6-N ) :   1.3707
B(  2-C ,  3-N ) :   1.4225 B(  2-C ,  7-C ) :   1.3266 B(  3-N ,  4-C ) :   1.7116
B(  4-C ,  5-C ) :   1.1692 B(  4-C , 64-H ) :   0.9735 B(  5-C ,  6-N ) :   1.7287
B(  5-C , 65-H ) :   0.9736 B(  7-C ,  8-C ) :   1.3184 B(  7-C , 14-C ) :   0.9546
B(  8-C ,  9-C ) :   1.1656 B(  8-C , 13-N ) :   1.4330 B(  9-C , 10-N ) :   1.3675
B( 10-N , 11-C ) :   1.7324 B( 11-C , 12-C ) :   1.1661 B( 11-C , 66-H ) :   0.9735
B( 12-C , 13-N ) :   1.7129 B( 12-C , 67-H ) :   0.9739 B( 14-C , 15-C ) :   1.4251
B( 14-C , 19-C ) :   1.3393 B( 15-C , 16-C ) :   1.3496 B( 15-C , 68-H ) :   0.9741
B( 16-C , 17-C ) :   1.3180 B( 16-C , 20-C ) :   1.0580 B( 17-C , 18-N ) :   1.5576
B( 17-C , 69-H ) :   0.9870 B( 18-N , 19-C ) :   1.5636 B( 19-C , 70-H ) :   0.9788
B( 20-C , 21-C ) :   1.6249 B( 20-C , 71-H ) :   0.9652 B( 21-C , 22-C ) :   1.1443
B( 21-C , 72-H ) :   0.9565 B( 22-C , 23-N ) :   1.1538 B( 22-C , 29-C ) :   1.3559
B( 23-N , 24-C ) :   0.9509 B( 23-N , 26-C ) :   1.0629 B( 24-C , 25-C ) :   1.1214
B( 24-C , 73-H ) :   0.9491 B( 24-C , 74-H ) :   0.9271 B( 25-C , 75-H ) :   0.9682
B( 25-C , 76-H ) :   0.9676 B( 25-C , 77-H ) :   0.9636 B( 26-C , 27-O ) :   2.0131
B( 26-C , 28-C ) :   0.9932 B( 27-O , 84-H ) :   0.1147 B( 28-C , 29-C ) :   1.2337
B( 28-C , 35-C ) :   1.3562 B( 29-C , 30-C ) :   0.9929 B( 30-C , 31-O ) :   2.0221
B( 30-C , 32-N ) :   1.0591 B( 31-O , 71-H ) :   0.1110 B( 32-N , 33-C ) :   0.9496
B( 32-N , 35-C ) :   1.1582 B( 33-C , 34-C ) :   1.1179 B( 33-C , 78-H ) :   0.9494
B( 33-C , 79-H ) :   0.9273 B( 34-C , 80-H ) :   0.9688 B( 34-C , 81-H ) :   0.9683
B( 34-C , 82-H ) :   0.9638 B( 35-C , 36-C ) :   1.1432 B( 36-C , 37-C ) :   1.6258
B( 36-C , 83-H ) :   0.9554 B( 37-C , 38-C ) :   1.0710 B( 37-C , 84-H ) :   0.9651
B( 38-C , 39-C ) :   1.2928 B( 38-C , 46-C ) :   1.3069 B( 39-C , 40-C ) :   1.3816
B( 39-C , 85-H ) :   0.9863 B( 40-C , 41-N ) :   0.8835 B( 40-C , 44-C ) :   1.3327
B( 41-N , 42-O ) :   1.5425 B( 41-N , 43-O ) :   1.5313 B( 42-O , 43-O ) :   0.2631
B( 44-C , 45-C ) :   1.3432 B( 44-C , 47-C ) :   1.0541 B( 45-C , 46-C ) :   1.3882
B( 45-C , 86-H ) :   0.9910 B( 46-C , 87-H ) :   1.0018 B( 47-C , 48-C ) :   1.7048
B( 47-C , 88-H ) :   0.9241 B( 48-C , 49-C ) :   1.1478 B( 48-C , 89-H ) :   0.9537
B( 49-C , 50-C ) :   1.2618 B( 49-C , 56-C ) :   0.1401 B( 49-C , 58-C ) :   1.2537
B( 50-C , 51-C ) :   1.1740 B( 50-C , 55-N ) :   1.4451 B( 51-C , 52-N ) :   1.3699
B( 51-C , 56-C ) :   1.2450 B( 52-N , 53-C ) :   1.7266 B( 53-C , 54-C ) :   1.1747
B( 53-C , 90-H ) :   0.9736 B( 54-C , 55-N ) :   1.7097 B( 54-C , 91-H ) :   0.9735
B( 56-C , 57-C ) :   1.2441 B( 56-C , 92-H ) :   1.0563 B( 57-C , 58-C ) :   1.1759
B( 57-C , 62-N ) :   1.3699 B( 58-C , 59-N ) :   1.4113 B( 59-N , 60-C ) :   1.6942
B( 60-C , 61-C ) :   1.1763 B( 60-C , 93-H ) :   0.9730 B( 61-C , 62-N ) :   1.7244
B( 61-C , 94-H ) :   0.9732

-----------------------------------------------------------------------------
         ABSORPTION SPECTRUM VIA TRANSITION ELECTRIC DIPOLE MOMENTS
-----------------------------------------------------------------------------
State   Energy  Wavelength   fosc         T2         TX        TY        TZ
        (cm-1)    (nm)                  (au**2)     (au)      (au)      (au)
-----------------------------------------------------------------------------
   0   17495.4    571.6   1.150805512  21.65475   0.95541   2.14608  -4.01700
   1   20409.4    490.0   0.008863964   0.14298  -0.33589  -0.01367  -0.17311
   2   21449.3    466.2   0.142543654   2.18782  -1.38565  -0.42987   0.28808
   3   24336.5    410.9   0.212054591   2.86857   0.68450   0.77567  -1.34103
   4   25790.0    387.7   0.118978345   1.51877   0.38047  -0.24109   1.14712
   5   25920.5    385.8   0.054126732   0.68745  -0.79390  -0.19257   0.14174
   6   26094.7    383.2   0.021525470   0.27157  -0.18497   0.12722  -0.47029
   7   26890.4    371.9   0.008651342   0.10592   0.25112  -0.07724  -0.19207
   8   27514.8    363.4   0.008903676   0.10653   0.22876   0.23277  -0.00380
   9   27576.5    362.6   0.009581533   0.11439   0.29708   0.08533  -0.13729
  10   27797.0    359.8   0.052843680   0.62585   0.19975  -0.21688   0.73411
  11   28894.9    346.1   0.168341716   1.91799   0.85692   0.69116  -0.84023
  12   29183.3    342.7   0.111020599   1.25241  -0.69660  -0.52034   0.70456
  13   30437.0    328.5   0.018873212   0.20414   0.00922   0.27199  -0.36066
  14   30614.2    326.6   0.002235164   0.02404   0.08450   0.00169  -0.12997
  15   31179.2    320.7   0.112527811   1.18815  -0.74545  -0.44544   0.65881
  16   31547.9    317.0   0.087107774   0.90899   0.54587  -0.75807  -0.19067
  17   32321.9    309.4   0.008797035   0.08960  -0.05261  -0.09403  -0.27927
  18   32642.0    306.4   0.164687623   1.66096  -0.52517  -1.15133   0.24413
  19   33287.5    300.4   0.112387780   1.11151  -0.45478  -0.36921   0.87657
  20   33504.5    298.5   0.001649787   0.01621  -0.00157   0.02381   0.12507
  21   34055.1    293.6   0.019483739   0.18835  -0.41288   0.02470  -0.13142
  22   34383.6    290.8   0.012143107   0.11627  -0.00328  -0.12587   0.31688
  23   34525.9    289.6   0.000553086   0.00527  -0.01734   0.01261  -0.06938
  24   34711.2    288.1   0.001704681   0.01617   0.11291  -0.00242   0.05842
  25   35278.5    283.5   0.018684333   0.17436  -0.13681   0.39364  -0.02626
  26   35501.5    281.7   0.032360046   0.30008   0.36849   0.22844  -0.33483
  27   35613.8    280.8   0.016661005   0.15401  -0.13795  -0.36525   0.03964
  28   36116.2    276.9   0.022095525   0.20141   0.11346   0.26396  -0.34476
  29   36687.1    272.6   0.549919615   4.93471   1.41391   1.09065  -1.32138
  30   37300.6    268.1   0.003356632   0.02963   0.12792   0.06005   0.09827
  31   37568.7    266.2   0.019072898   0.16713   0.30755   0.01716   0.26880
  32   38169.6    262.0   0.194539265   1.67790   0.63950   0.79023  -0.80279
  33   38298.1    261.1   0.000250719   0.00216   0.00827  -0.03290   0.03169
  34   38394.2    260.5   0.010384980   0.08905   0.09145   0.19715  -0.20448
  35   38905.3    257.0   0.013703021   0.11595   0.04108   0.33534  -0.04262
  36   39000.6    256.4   0.383785215   3.23961  -1.11457   1.35300   0.40833
  37   39076.2    255.9   0.141634622   1.19325   0.87619  -0.59996  -0.25611
  38   39637.4    252.3   0.009569734   0.07948   0.21292   0.15435   0.10160
  39   39863.7    250.9   0.110301084   0.91092   0.47836   0.28028  -0.77687
  40   40171.6    248.9   0.040826847   0.33458   0.27296  -0.26486   0.43580

FINAL SINGLE POINT ENERGY     -2764.650838522131

DIPOLE MOMENT
-------------
                                X             Y             Z
Electronic contribution:      3.96354      12.41566      -4.10433
Nuclear contribution   :     -2.27069     -12.98012       5.44636
                        -----------------------------------------
Total Dipole Moment    :      1.69286      -0.56445       1.34203
                        -----------------------------------------
Magnitude (a.u.)       :      2.23280
Magnitude (Debye)      :      5.67534

Rotational constants in cm-1:     0.003293     0.000285     0.000276
Rotational constants in MHz :    98.712812     8.556434     8.260814

                             ****ORCA TERMINATED NORMALLY****
TOTAL RUN TIME: 0 days 0 hours 10 minutes 8 seconds 279 msec
