                         Program Version 4.2.0 -  RELEASE  -
|  1> # ORCA input file
|  2> # SCF done       -156.597567889616          0.000658154502
|  3> ! CAM-B3LYP def2-SVP def2/J RIJCOSX Grid4 TightSCF
|  4> %maxcore 5000
|  5> %tddft
|  6>     Mode sTDDFT
|  7>     Ethresh 5.0
|  8>     maxcore 5000
|  9> end
| 10>
| 11> %pal
| 12>   nprocs 6
| 13>   end
| 14> * xyz 0 1
| 15>    C       -4.77065         3.95123         3.16910
| 16>    C       -4.62627         2.86030         2.31950
| 17>    C       -3.53405         2.80067         1.39140
| 18>    N       -3.42711         1.75211         0.53835
| 19>    C       -4.31489         0.80767         0.62041
| 20>    C       -5.37461         0.85049         1.56315
| 21>    N       -5.53145         1.84881         2.37770
| 22>    C       -2.58953         3.83982         1.32850
| 23>    C       -2.74856         4.93885         2.19066
| 24>    C       -3.84650         4.98855         3.11369
| 25>    N       -3.99482         6.05204         3.94551
| 26>    C       -3.11513         7.00371         3.87293
| 27>    C       -2.01960         6.94731         2.97413
| 28>    N       -1.84176         5.94733         2.16355
| 29>    C       -1.46627         3.76854         0.39774
| 30>    C       -1.06710         4.86659        -0.35397
| 31>    C        0.00818         4.75833        -1.23952
| 32>    C        0.64330         3.51082        -1.31337
| 33>    N        0.28427         2.47276        -0.58712
| 34>    C       -0.73303         2.58596         0.24153
| 35>    C        0.41172         5.90992        -2.01615
| 36>    C        1.17760         5.85406        -3.12423
| 37>    C        1.61252         6.90606        -3.98249
| 38>    N        1.54546         8.27406        -3.82547
| 39>    C        1.14463         9.03428        -2.66664
| 40>    C        2.12158         8.87050        -1.50567
| 41>    C        2.07731         8.95132        -4.94367
| 42>    O        2.13284        10.16464        -5.02057
| 43>    C        2.48109         7.90572        -5.85020
| 44>    C        2.19147         6.66758        -5.22189
| 45>    C        2.57704         5.60225        -6.11669
| 46>    O        2.52473         4.39363        -6.02200
| 47>    N        3.07632         6.27583        -7.24989
| 48>    C        3.61578         5.54579        -8.36986
| 49>    C        5.14260         5.51917        -8.35107
| 50>    C        3.02899         7.64508        -7.10320
| 51>    C        3.46027         8.55519        -8.10118
| 52>    C        3.42558         9.90064        -7.92694
| 53>    C        3.84493        10.84388        -8.90365
| 54>    S        3.69621        12.54141        -8.57334
| 55>    C        4.34544        12.95444       -10.12335
| 56>    C        4.34556        14.33567       -10.54027
| 57>    O        4.54753        14.74488       -11.66048
| 58>    C        4.68251        11.81288       -10.84855
| 59>    C        4.38726        10.63341       -10.15879
| 60>    C        5.31247        11.85955       -12.16061
| 61>    C        6.41624        12.69778       -12.38217
| 62>    C        6.97168        12.83081       -13.69635
| 63>    N        7.98898        13.70144       -13.92000
| 64>    C        8.43080        14.38477       -12.90972
| 65>    C        7.93948        14.18415       -11.59306
| 66>    N        6.97107        13.35871       -11.33804
| 67>    C        6.46199        12.08638       -14.75494
| 68>    C        5.40968        11.20530       -14.53077
| 69>    C        4.82635        11.08613       -13.22474
| 70>    N        3.78198        10.24487       -13.01839
| 71>    C        3.34094         9.56886       -14.03653
| 72>    C        3.91988         9.68306       -15.32672
| 73>    N        4.92357        10.47113       -15.56458
| 74>    H       -5.59262         3.99340         3.86462
| 75>    H       -4.21252        -0.01705        -0.07205
| 76>    H       -6.09976         0.04994         1.62480
| 77>    H       -3.24653         7.84433         4.54128
| 78>    H       -1.28377         7.73990         2.93776
| 79>    H       -1.60921         5.79718        -0.27375
| 80>    H        1.48650         3.34664        -1.96969
| 81>    H       -0.97007         1.70716         0.82318
| 82>    H        0.01514         6.84884        -1.65927
| 83>    H        1.49273         4.88647        -3.49330
| 84>    H        0.12726         8.76314        -2.37229
| 85>    H        1.13863        10.07865        -2.99507
| 86>    H        2.18357         7.83267        -1.18659
| 87>    H        1.79752         9.47753        -0.66461
| 88>    H        3.11261         9.19924        -1.80934
| 89>    H        3.24422         5.97683        -9.30416
| 90>    H        3.23130         4.52604        -8.27564
| 91>    H        5.55179         6.52634        -8.39445
| 92>    H        5.51254         4.95247        -9.20127
| 93>    H        5.49219         5.04381        -7.43800
| 94>    H        3.82058         8.14298        -9.03176
| 95>    H        3.05388        10.30371        -6.99401
| 96>    H        4.09725        15.03205        -9.71508
| 97>    H        4.57784         9.66094       -10.57242
| 98>    H        9.22446        15.09311       -13.10672
| 99>    H        8.38014        14.69596       -10.74778
|100>    H        6.86381        12.20862       -15.74751
|101>    H        2.51206         8.89762       -13.85328
|102>    H        3.54459         9.10296       -16.15945
|103> *
|104>
|105>                          ****END OF INPUT****

CARTESIAN COORDINATES (ANGSTROEM)
---------------------------------
  C     -4.770650    3.951230    3.169100
  C     -4.626270    2.860300    2.319500
  C     -3.534050    2.800670    1.391400
  N     -3.427110    1.752110    0.538350
  C     -4.314890    0.807670    0.620410
  C     -5.374610    0.850490    1.563150
  N     -5.531450    1.848810    2.377700
  C     -2.589530    3.839820    1.328500
  C     -2.748560    4.938850    2.190660
  C     -3.846500    4.988550    3.113690
  N     -3.994820    6.052040    3.945510
  C     -3.115130    7.003710    3.872930
  C     -2.019600    6.947310    2.974130
  N     -1.841760    5.947330    2.163550
  C     -1.466270    3.768540    0.397740
  C     -1.067100    4.866590   -0.353970
  C      0.008180    4.758330   -1.239520
  C      0.643300    3.510820   -1.313370
  N      0.284270    2.472760   -0.587120
  C     -0.733030    2.585960    0.241530
  C      0.411720    5.909920   -2.016150
  C      1.177600    5.854060   -3.124230
  C      1.612520    6.906060   -3.982490
  N      1.545460    8.274060   -3.825470
  C      1.144630    9.034280   -2.666640
  C      2.121580    8.870500   -1.505670
  C      2.077310    8.951320   -4.943670
  O      2.132840   10.164640   -5.020570
  C      2.481090    7.905720   -5.850200
  C      2.191470    6.667580   -5.221890
  C      2.577040    5.602250   -6.116690
  O      2.524730    4.393630   -6.022000
  N      3.076320    6.275830   -7.249890
  C      3.615780    5.545790   -8.369860
  C      5.142600    5.519170   -8.351070
  C      3.028990    7.645080   -7.103200
  C      3.460270    8.555190   -8.101180
  C      3.425580    9.900640   -7.926940
  C      3.844930   10.843880   -8.903650
  S      3.696210   12.541410   -8.573340
  C      4.345440   12.954440  -10.123350
  C      4.345560   14.335670  -10.540270
  O      4.547530   14.744880  -11.660480
  C      4.682510   11.812880  -10.848550
  C      4.387260   10.633410  -10.158790
  C      5.312470   11.859550  -12.160610
  C      6.416240   12.697780  -12.382170
  C      6.971680   12.830810  -13.696350
  N      7.988980   13.701440  -13.920000
  C      8.430800   14.384770  -12.909720
  C      7.939480   14.184150  -11.593060
  N      6.971070   13.358710  -11.338040
  C      6.461990   12.086380  -14.754940
  C      5.409680   11.205300  -14.530770
  C      4.826350   11.086130  -13.224740
  N      3.781980   10.244870  -13.018390
  C      3.340940    9.568860  -14.036530
  C      3.919880    9.683060  -15.326720
  N      4.923570   10.471130  -15.564580
  H     -5.592620    3.993400    3.864620
  H     -4.212520   -0.017050   -0.072050
  H     -6.099760    0.049940    1.624800
  H     -3.246530    7.844330    4.541280
  H     -1.283770    7.739900    2.937760
  H     -1.609210    5.797180   -0.273750
  H      1.486500    3.346640   -1.969690
  H     -0.970070    1.707160    0.823180
  H      0.015140    6.848840   -1.659270
  H      1.492730    4.886470   -3.493300
  H      0.127260    8.763140   -2.372290
  H      1.138630   10.078650   -2.995070
  H      2.183570    7.832670   -1.186590
  H      1.797520    9.477530   -0.664610
  H      3.112610    9.199240   -1.809340
  H      3.244220    5.976830   -9.304160
  H      3.231300    4.526040   -8.275640
  H      5.551790    6.526340   -8.394450
  H      5.512540    4.952470   -9.201270
  H      5.492190    5.043810   -7.438000
  H      3.820580    8.142980   -9.031760
  H      3.053880   10.303710   -6.994010
  H      4.097250   15.032050   -9.715080
  H      4.577840    9.660940  -10.572420
  H      9.224460   15.093110  -13.106720
  H      8.380140   14.695960  -10.747780
  H      6.863810   12.208620  -15.747510
  H      2.512060    8.897620  -13.853280
  H      3.544590    9.102960  -16.159450

 Total Charge           Charge          ....    0
 Multiplicity           Mult            ....    1
 Number of Electrons    NEL             ....  410
 Basis Dimension        Dim             ....  975

ORBITAL ENERGIES
----------------

  NO   OCC          E(Eh)            E(eV)
   0   2.0000     -88.963731     -2420.8262
   1   2.0000     -19.202432      -522.5247
   2   2.0000     -19.184126      -522.0266
   3   2.0000     -19.181714      -521.9610
   4   2.0000     -14.446306      -393.1040
   5   2.0000     -14.446150      -393.0997
   6   2.0000     -14.431131      -392.6910
   7   2.0000     -14.429103      -392.6359
   8   2.0000     -14.428492      -392.6192
   9   2.0000     -14.427553      -392.5937
  10   2.0000     -14.426944      -392.5771
  11   2.0000     -14.424445      -392.5091
  12   2.0000     -14.420462      -392.4007
  13   2.0000     -14.420218      -392.3941
  14   2.0000     -14.390581      -391.5876
  15   2.0000     -10.366400      -282.0841
  16   2.0000     -10.365742      -282.0662
  17   2.0000     -10.353170      -281.7241
  18   2.0000     -10.334687      -281.2211
  19   2.0000     -10.328448      -281.0513
  20   2.0000     -10.327279      -281.0195
  21   2.0000     -10.325633      -280.9748
  22   2.0000     -10.324752      -280.9508
  23   2.0000     -10.324550      -280.9453
  24   2.0000     -10.324277      -280.9378
  25   2.0000     -10.323682      -280.9217
  26   2.0000     -10.323112      -280.9062
  27   2.0000     -10.322678      -280.8944
  28   2.0000     -10.321976      -280.8753
  29   2.0000     -10.320605      -280.8379
  30   2.0000     -10.319964      -280.8205
  31   2.0000     -10.318084      -280.7693
  32   2.0000     -10.317082      -280.7421
  33   2.0000     -10.316831      -280.7352
  34   2.0000     -10.316461      -280.7252
  35   2.0000     -10.314490      -280.6715
  36   2.0000     -10.310199      -280.5548
  37   2.0000     -10.304300      -280.3943
  38   2.0000     -10.301496      -280.3180
  39   2.0000     -10.299041      -280.2512
  40   2.0000     -10.297855      -280.2189
  41   2.0000     -10.296456      -280.1808
  42   2.0000     -10.295091      -280.1437
  43   2.0000     -10.293598      -280.1030
  44   2.0000     -10.293322      -280.0955
  45   2.0000     -10.293304      -280.0950
  46   2.0000     -10.287218      -279.9294
  47   2.0000     -10.286605      -279.9128
  48   2.0000     -10.284120      -279.8451
  49   2.0000     -10.282021      -279.7880
  50   2.0000     -10.281325      -279.7691
  51   2.0000     -10.280803      -279.7549
  52   2.0000     -10.280407      -279.7441
  53   2.0000     -10.279665      -279.7239
  54   2.0000     -10.278862      -279.7021
  55   2.0000     -10.260965      -279.2150
  56   2.0000     -10.258581      -279.1502
  57   2.0000     -10.252171      -278.9758
  58   2.0000     -10.251833      -278.9666
  59   2.0000      -8.059359      -219.3063
  60   2.0000      -6.028323      -164.0390
  61   2.0000      -6.024337      -163.9305
  62   2.0000      -6.021965      -163.8660
  63   2.0000      -1.125493       -30.6262
  64   2.0000      -1.118783       -30.4436
  65   2.0000      -1.115603       -30.3571
  66   2.0000      -1.088489       -29.6193
  67   2.0000      -1.082600       -29.4591
  68   2.0000      -1.081101       -29.4182
  69   2.0000      -1.074364       -29.2349
  70   2.0000      -1.055270       -28.7154
  71   2.0000      -1.046513       -28.4771
  72   2.0000      -1.028958       -27.9994
  73   2.0000      -1.011133       -27.5143
  74   2.0000      -1.007672       -27.4202
  75   2.0000      -1.005946       -27.3732
  76   2.0000      -0.999711       -27.2035
  77   2.0000      -0.990004       -26.9394
  78   2.0000      -0.953693       -25.9513
  79   2.0000      -0.945802       -25.7366
  80   2.0000      -0.922636       -25.1062
  81   2.0000      -0.915731       -24.9183
  82   2.0000      -0.906817       -24.6757
  83   2.0000      -0.893558       -24.3149
  84   2.0000      -0.874821       -23.8051
  85   2.0000      -0.869271       -23.6541
  86   2.0000      -0.867094       -23.5948
  87   2.0000      -0.861042       -23.4302
  88   2.0000      -0.854936       -23.2640
  89   2.0000      -0.843012       -22.9395
  90   2.0000      -0.828462       -22.5436
  91   2.0000      -0.821498       -22.3541
  92   2.0000      -0.815067       -22.1791
  93   2.0000      -0.793266       -21.5859
  94   2.0000      -0.789949       -21.4956
  95   2.0000      -0.786781       -21.4094
  96   2.0000      -0.772295       -21.0152
  97   2.0000      -0.763953       -20.7882
  98   2.0000      -0.758023       -20.6268
  99   2.0000      -0.755534       -20.5591
 100   2.0000      -0.735554       -20.0155
 101   2.0000      -0.729559       -19.8523
 102   2.0000      -0.725746       -19.7485
 103   2.0000      -0.723487       -19.6871
 104   2.0000      -0.712655       -19.3923
 105   2.0000      -0.707631       -19.2556
 106   2.0000      -0.698696       -19.0125
 107   2.0000      -0.693102       -18.8603
 108   2.0000      -0.687413       -18.7055
 109   2.0000      -0.685763       -18.6605
 110   2.0000      -0.680344       -18.5131
 111   2.0000      -0.671758       -18.2795
 112   2.0000      -0.655650       -17.8411
 113   2.0000      -0.644260       -17.5312
 114   2.0000      -0.640038       -17.4163
 115   2.0000      -0.634872       -17.2757
 116   2.0000      -0.631310       -17.1788
 117   2.0000      -0.629087       -17.1183
 118   2.0000      -0.617139       -16.7932
 119   2.0000      -0.602417       -16.3926
 120   2.0000      -0.598493       -16.2858
 121   2.0000      -0.595443       -16.2028
 122   2.0000      -0.592415       -16.1204
 123   2.0000      -0.589513       -16.0415
 124   2.0000      -0.588525       -16.0146
 125   2.0000      -0.580162       -15.7870
 126   2.0000      -0.578472       -15.7410
 127   2.0000      -0.576451       -15.6860
 128   2.0000      -0.575123       -15.6499
 129   2.0000      -0.574511       -15.6332
 130   2.0000      -0.572050       -15.5663
 131   2.0000      -0.563493       -15.3334
 132   2.0000      -0.548971       -14.9383
 133   2.0000      -0.547724       -14.9043
 134   2.0000      -0.542916       -14.7735
 135   2.0000      -0.539364       -14.6768
 136   2.0000      -0.537877       -14.6364
 137   2.0000      -0.537085       -14.6148
 138   2.0000      -0.528047       -14.3689
 139   2.0000      -0.525801       -14.3078
 140   2.0000      -0.521820       -14.1994
 141   2.0000      -0.519188       -14.1278
 142   2.0000      -0.517856       -14.0916
 143   2.0000      -0.516984       -14.0678
 144   2.0000      -0.514198       -13.9920
 145   2.0000      -0.512716       -13.9517
 146   2.0000      -0.512239       -13.9387
 147   2.0000      -0.509790       -13.8721
 148   2.0000      -0.507017       -13.7966
 149   2.0000      -0.503814       -13.7095
 150   2.0000      -0.499015       -13.5789
 151   2.0000      -0.496729       -13.5167
 152   2.0000      -0.494228       -13.4486
 153   2.0000      -0.492260       -13.3951
 154   2.0000      -0.490903       -13.3582
 155   2.0000      -0.486369       -13.2348
 156   2.0000      -0.484149       -13.1744
 157   2.0000      -0.477017       -12.9803
 158   2.0000      -0.471536       -12.8311
 159   2.0000      -0.468291       -12.7428
 160   2.0000      -0.465754       -12.6738
 161   2.0000      -0.463286       -12.6067
 162   2.0000      -0.460530       -12.5317
 163   2.0000      -0.456292       -12.4163
 164   2.0000      -0.454068       -12.3558
 165   2.0000      -0.452753       -12.3200
 166   2.0000      -0.451304       -12.2806
 167   2.0000      -0.449616       -12.2347
 168   2.0000      -0.441960       -12.0264
 169   2.0000      -0.440068       -11.9748
 170   2.0000      -0.437348       -11.9009
 171   2.0000      -0.435983       -11.8637
 172   2.0000      -0.430658       -11.7188
 173   2.0000      -0.427640       -11.6367
 174   2.0000      -0.423372       -11.5206
 175   2.0000      -0.420098       -11.4315
 176   2.0000      -0.418704       -11.3935
 177   2.0000      -0.414782       -11.2868
 178   2.0000      -0.413002       -11.2384
 179   2.0000      -0.411657       -11.2018
 180   2.0000      -0.407009       -11.0753
 181   2.0000      -0.394015       -10.7217
 182   2.0000      -0.391572       -10.6552
 183   2.0000      -0.389030       -10.5860
 184   2.0000      -0.383310       -10.4304
 185   2.0000      -0.378569       -10.3014
 186   2.0000      -0.365443        -9.9442
 187   2.0000      -0.348936        -9.4950
 188   2.0000      -0.340831        -9.2745
 189   2.0000      -0.335750        -9.1362
 190   2.0000      -0.332729        -9.0540
 191   2.0000      -0.330953        -9.0057
 192   2.0000      -0.327729        -8.9180
 193   2.0000      -0.325997        -8.8708
 194   2.0000      -0.324573        -8.8321
 195   2.0000      -0.323343        -8.7986
 196   2.0000      -0.319182        -8.6854
 197   2.0000      -0.318686        -8.6719
 198   2.0000      -0.315871        -8.5953
 199   2.0000      -0.309083        -8.4106
 200   2.0000      -0.305289        -8.3073
 201   2.0000      -0.295105        -8.0302
 202   2.0000      -0.282471        -7.6864
 203   2.0000      -0.279160        -7.5963
 204   2.0000      -0.229230        -6.2377
 205   0.0000      -0.080743        -2.1971
 206   0.0000      -0.078535        -2.1370
 207   0.0000      -0.073237        -1.9929
 208   0.0000      -0.032117        -0.8739
 209   0.0000      -0.011319        -0.3080

MULLIKEN ATOMIC CHARGES
-----------------------
   0 C :   -0.071694
   1 C :    0.028555
   2 C :   -0.059533
   3 N :   -0.008600
   4 C :    0.025714
   5 C :    0.020476
   6 N :   -0.014729
   7 C :    0.098720
   8 C :   -0.055860
   9 C :    0.028901
  10 N :   -0.014754
  11 C :    0.020267
  12 C :    0.023210
  13 N :   -0.013727
  14 C :   -0.037459
  15 C :    0.033136
  16 C :    0.039435
  17 C :   -0.006830
  18 N :   -0.057187
  19 C :    0.040580
  20 C :    0.016823
  21 C :   -0.022332
  22 C :    0.105537
  23 N :   -0.267429
  24 C :    0.101979
  25 C :    0.000132
  26 C :    0.159926
  27 O :   -0.221514
  28 C :   -0.064358
  29 C :   -0.037420
  30 C :    0.146929
  31 O :   -0.198045
  32 N :   -0.268325
  33 C :    0.104014
  34 C :    0.003844
  35 C :    0.145607
  36 C :   -0.030474
  37 C :    0.084919
  38 C :   -0.089750
  39 S :    0.167319
  40 C :   -0.174685
  41 C :    0.188242
  42 O :   -0.194708
  43 C :    0.059786
  44 C :    0.022801
  45 C :    0.082152
  46 C :   -0.039962
  47 C :    0.025407
  48 N :   -0.014550
  49 C :    0.022094
  50 C :    0.036038
  51 N :   -0.003814
  52 C :   -0.067403
  53 C :    0.021012
  54 C :   -0.054804
  55 N :   -0.005867
  56 C :    0.022924
  57 C :    0.019368
  58 N :   -0.013494
  59 H :   -0.032598
  60 H :    0.019300
  61 H :    0.018402
  62 H :    0.017433
  63 H :    0.014890
  64 H :   -0.019890
  65 H :    0.006711
  66 H :   -0.007351
  67 H :   -0.025723
  68 H :    0.010586
  69 H :    0.021452
  70 H :    0.043282
  71 H :    0.026753
  72 H :    0.016456
  73 H :    0.023357
  74 H :    0.018788
  75 H :    0.042102
  76 H :    0.014617
  77 H :    0.020506
  78 H :    0.029405
  79 H :   -0.030170
  80 H :    0.008283
  81 H :   -0.023957
  82 H :   -0.020589
  83 H :    0.014849
  84 H :    0.011972
  85 H :   -0.034015
  86 H :    0.013394
  87 H :    0.015214
Sum of atomic charges:   -0.0000000

LOEWDIN ATOMIC CHARGES
----------------------
   0 C :   -0.000149
   1 C :   -0.013052
   2 C :   -0.009823
   3 N :   -0.026606
   4 C :    0.008794
   5 C :    0.008393
   6 N :   -0.034916
   7 C :   -0.004979
   8 C :   -0.011043
   9 C :   -0.013386
  10 N :   -0.033235
  11 C :    0.006199
  12 C :    0.005987
  13 N :   -0.031374
  14 C :   -0.038571
  15 C :    0.032988
  16 C :   -0.057722
  17 C :    0.035151
  18 N :   -0.068851
  19 C :    0.042998
  20 C :    0.000405
  21 C :   -0.032137
  22 C :    0.068647
  23 N :   -0.004777
  24 C :    0.034426
  25 C :   -0.062903
  26 C :    0.081332
  27 O :   -0.208042
  28 C :   -0.129993
  29 C :   -0.114935
  30 C :    0.078936
  31 O :   -0.200051
  32 N :   -0.006201
  33 C :    0.035597
  34 C :   -0.061357
  35 C :    0.081205
  36 C :   -0.047157
  37 C :    0.015275
  38 C :   -0.166634
  39 S :    0.479449
  40 C :   -0.220804
  41 C :    0.085495
  42 O :   -0.148957
  43 C :   -0.007888
  44 C :   -0.021038
  45 C :   -0.010252
  46 C :    0.003118
  47 C :   -0.010286
  48 N :   -0.034279
  49 C :    0.009723
  50 C :    0.012708
  51 N :   -0.029533
  52 C :    0.006165
  53 C :   -0.015069
  54 C :   -0.007432
  55 N :   -0.036264
  56 C :    0.006421
  57 C :    0.003295
  58 N :   -0.032431
  59 H :    0.042949
  60 H :    0.028914
  61 H :    0.028085
  62 H :    0.027860
  63 H :    0.026778
  64 H :    0.026874
  65 H :    0.023073
  66 H :    0.018683
  67 H :    0.026745
  68 H :    0.044792
  69 H :    0.018124
  70 H :    0.036468
  71 H :    0.023732
  72 H :    0.028535
  73 H :    0.030701
  74 H :    0.021086
  75 H :    0.037594
  76 H :    0.021409
  77 H :    0.029424
  78 H :    0.032493
  79 H :    0.027771
  80 H :    0.036944
  81 H :   -0.007523
  82 H :    0.028804
  83 H :    0.026845
  84 H :    0.026203
  85 H :    0.042716
  86 H :    0.026350
  87 H :    0.026990

  Mayer bond orders larger than 0.100000
B(  0-C ,  1-C ) :   1.2441 B(  0-C ,  7-C ) :   0.1430 B(  0-C ,  9-C ) :   1.2432
B(  0-C , 59-H ) :   1.0606 B(  1-C ,  2-C ) :   1.1669 B(  1-C ,  6-N ) :   1.3678
B(  2-C ,  3-N ) :   1.4314 B(  2-C ,  7-C ) :   1.3241 B(  3-N ,  4-C ) :   1.7146
B(  4-C ,  5-C ) :   1.1664 B(  4-C , 60-H ) :   0.9737 B(  5-C ,  6-N ) :   1.7313
B(  5-C , 61-H ) :   0.9731 B(  7-C ,  8-C ) :   1.3262 B(  7-C , 14-C ) :   0.9529
B(  8-C ,  9-C ) :   1.1698 B(  8-C , 13-N ) :   1.4248 B(  9-C , 10-N ) :   1.3685
B( 10-N , 11-C ) :   1.7306 B( 11-C , 12-C ) :   1.1699 B( 11-C , 62-H ) :   0.9732
B( 12-C , 13-N ) :   1.7113 B( 12-C , 63-H ) :   0.9731 B( 14-C , 15-C ) :   1.4053
B( 14-C , 19-C ) :   1.3509 B( 15-C , 16-C ) :   1.3485 B( 15-C , 64-H ) :   0.9865
B( 16-C , 17-C ) :   1.3313 B( 16-C , 20-C ) :   1.0499 B( 17-C , 18-N ) :   1.5689
B( 17-C , 65-H ) :   0.9816 B( 18-N , 19-C ) :   1.5560 B( 19-C , 66-H ) :   0.9798
B( 20-C , 21-C ) :   1.6243 B( 20-C , 67-H ) :   0.9859 B( 21-C , 22-C ) :   1.1639
B( 21-C , 68-H ) :   0.9442 B( 22-C , 23-N ) :   1.1595 B( 22-C , 29-C ) :   1.3669
B( 23-N , 24-C ) :   0.9481 B( 23-N , 26-C ) :   1.0593 B( 24-C , 25-C ) :   1.1164
B( 24-C , 69-H ) :   0.9504 B( 24-C , 70-H ) :   0.9227 B( 25-C , 71-H ) :   0.9673
B( 25-C , 72-H ) :   0.9674 B( 25-C , 73-H ) :   0.9624 B( 26-C , 27-O ) :   2.0092
B( 26-C , 28-C ) :   0.9976 B( 27-O , 80-H ) :   0.1121 B( 28-C , 29-C ) :   1.2296
B( 28-C , 35-C ) :   1.3351 B( 29-C , 30-C ) :   0.9780 B( 30-C , 31-O ) :   2.1244
B( 30-C , 32-N ) :   1.0331 B( 32-N , 33-C ) :   0.9498 B( 32-N , 35-C ) :   1.1593
B( 33-C , 34-C ) :   1.1192 B( 33-C , 74-H ) :   0.9501 B( 33-C , 75-H ) :   0.9268
B( 34-C , 76-H ) :   0.9684 B( 34-C , 77-H ) :   0.9682 B( 34-C , 78-H ) :   0.9642
B( 35-C , 36-C ) :   1.1617 B( 36-C , 37-C ) :   1.6307 B( 36-C , 79-H ) :   0.9617
B( 37-C , 38-C ) :   1.1131 B( 37-C , 80-H ) :   0.9392 B( 38-C , 39-S ) :   1.1551
B( 38-C , 44-C ) :   1.4337 B( 39-S , 40-C ) :   1.1156 B( 40-C , 41-C ) :   1.0155
B( 40-C , 43-C ) :   1.4673 B( 41-C , 42-O ) :   2.1331 B( 41-C , 81-H ) :   0.9465
B( 43-C , 44-C ) :   1.3386 B( 43-C , 45-C ) :   0.9498 B( 44-C , 82-H ) :   0.9932
B( 45-C , 46-C ) :   1.3353 B( 45-C , 52-C ) :   0.1468 B( 45-C , 54-C ) :   1.3453
B( 46-C , 47-C ) :   1.1688 B( 46-C , 51-N ) :   1.4336 B( 47-C , 48-N ) :   1.3690
B( 47-C , 52-C ) :   1.2332 B( 48-N , 49-C ) :   1.7327 B( 49-C , 50-C ) :   1.1671
B( 49-C , 83-H ) :   0.9729 B( 50-C , 51-N ) :   1.7103 B( 50-C , 84-H ) :   0.9721
B( 52-C , 53-C ) :   1.2412 B( 52-C , 85-H ) :   1.0614 B( 53-C , 54-C ) :   1.1683
B( 53-C , 58-N ) :   1.3674 B( 54-C , 55-N ) :   1.4395 B( 55-N , 56-C ) :   1.7112
B( 56-C , 57-C ) :   1.1709 B( 56-C , 86-H ) :   0.9730 B( 57-C , 58-N ) :   1.7312
B( 57-C , 87-H ) :   0.9730

-----------------------------------------------------------------------------
         ABSORPTION SPECTRUM VIA TRANSITION ELECTRIC DIPOLE MOMENTS
-----------------------------------------------------------------------------
State   Energy  Wavelength   fosc         T2         TX        TY        TZ
        (cm-1)    (nm)                  (au**2)     (au)      (au)      (au)
-----------------------------------------------------------------------------
   0   17047.1    586.6   0.947400290  18.29607   1.72030   1.72957  -3.51357
   1   21112.3    473.7   0.059234708   0.92367   0.49584  -0.02836  -0.82280
   2   21204.9    471.6   0.012825741   0.19912  -0.37308   0.05232   0.23915
   3   25825.1    387.2   0.167734424   2.13824  -1.07981  -0.13205   0.97714
   4   26270.5    380.7   0.062131790   0.77861  -0.57677   0.18447   0.64181
   5   26678.2    374.8   0.163062879   2.01221  -0.57771  -0.30718   1.25861
   6   26948.0    371.1   0.017978134   0.21963   0.03335  -0.25718   0.39035
   7   26975.6    370.7   0.015050807   0.18368   0.08438   0.24136  -0.34396
   8   27397.3    365.0   0.019643084   0.23604  -0.37694   0.25977   0.16271
   9   27835.8    359.2   0.049096684   0.58066   0.60530  -0.10035  -0.45189
  10   27901.7    358.4   0.116838515   1.37857  -0.30869  -0.96832   0.58791
  11   28361.3    352.6   0.014081905   0.16346  -0.20821   0.16322   0.30573
  12   29875.3    334.7   0.347770954   3.83227   0.29310   1.84111  -0.59722
  13   29948.8    333.9   0.076743433   0.84360   0.04654   0.89624  -0.19543
  14   30765.8    325.0   0.186395267   1.99454  -0.22543  -0.64141   1.23787
  15   31035.2    322.2   0.040804612   0.43284  -0.10797   0.30773  -0.57139
  16   31831.0    314.2   0.011711777   0.12113   0.33279   0.03363  -0.09616
  17   32044.3    312.1   0.014917575   0.15326  -0.25342   0.08215   0.28686
  18   32623.8    306.5   0.148550885   1.49905  -0.51385  -1.06560  -0.31546
  19   32665.6    306.1   0.179413612   1.80818   0.82166   1.04150   0.21986
  20   33339.3    299.9   0.040058039   0.39556  -0.31938   0.17521   0.51269
  21   33555.6    298.0   0.005467036   0.05364   0.15083  -0.00899  -0.17552
  22   34016.1    294.0   0.002757251   0.02668  -0.05172   0.15215   0.02931
  23   34419.7    290.5   0.101665366   0.97239  -0.07199  -0.80938   0.55868
  24   34927.5    286.3   0.109116270   1.02848  -0.21156  -0.90762   0.39994
  25   35657.4    280.4   0.066322165   0.61233   0.34691   0.49422  -0.49772
  26   36450.6    274.3   0.018620144   0.16817   0.15944   0.35578   0.12716
  27   36567.5    273.5   0.016511897   0.14865  -0.05578  -0.37167   0.08605
  28   36862.9    271.3   0.008465177   0.07560   0.19979   0.00128  -0.18890
  29   36974.8    270.5   0.009853673   0.08773  -0.26445  -0.06745  -0.11510
  30   37065.3    269.8   0.051838820   0.46043   0.30428   0.59379  -0.12350
  31   37357.1    267.7   0.021213377   0.18694  -0.02471  -0.41852   0.10570
  32   37368.0    267.6   0.010266190   0.09045   0.11736   0.23831  -0.14100
  33   37615.9    265.8   0.003638750   0.03185  -0.06109  -0.12738   0.10903
  34   37893.6    263.9   0.012156200   0.10561   0.25423  -0.04442  -0.19750
  35   38185.2    261.9   0.005764206   0.04970   0.11155  -0.18960  -0.03613
  36   38418.1    260.3   0.076454788   0.65515   0.55516  -0.04690  -0.58716
  37   38959.5    256.7   0.001352674   0.01143   0.03615  -0.09478   0.03376
  38   39219.5    255.0   0.009816939   0.08240   0.16474  -0.09047  -0.21698
  39   39435.3    253.6   0.000328796   0.00274  -0.00657   0.04296   0.02926
  40   39859.6    250.9   0.004921211   0.04065  -0.12219  -0.15645  -0.03521
  41   40043.8    249.7   0.005171975   0.04252  -0.10935  -0.09597   0.14612
  42   40144.1    249.1   0.006384438   0.05236  -0.14169  -0.17954   0.00690

FINAL SINGLE POINT ENERGY     -2917.000107781065

DIPOLE MOMENT
-------------
                                X             Y             Z
Electronic contribution:     -5.39675      12.85191     -10.79035
Nuclear contribution   :      4.93372     -12.93568      11.60266
                        -----------------------------------------
Total Dipole Moment    :     -0.46303      -0.08377       0.81232
                        -----------------------------------------
Magnitude (a.u.)       :      0.93876
Magnitude (Debye)      :      2.38614

Rotational constants in cm-1:     0.003843     0.000352     0.000336
Rotational constants in MHz :   115.198753    10.564298    10.075252

                             ****ORCA TERMINATED NORMALLY****
TOTAL RUN TIME: 0 days 0 hours 6 minutes 54 seconds 253 msec
