                         Program Version 4.2.0 -  RELEASE  -
|  1> # ORCA input file
|  2> # SCF done       -157.474454269313          0.000184249780
|  3> ! CAM-B3LYP def2-SVP def2/J RIJCOSX Grid4 TightSCF
|  4> %maxcore 5000
|  5> %tddft
|  6>     Mode sTDDFT
|  7>     Ethresh 5.0
|  8>     maxcore 5000
|  9> end
| 10>
| 11> %pal
| 12>   nprocs 6
| 13>   end
| 14> * xyz 0 1
| 15>    C       -1.46432        -0.34682        -0.69793
| 16>    C       -0.09546        -0.41680        -0.93396
| 17>    C        0.77093         0.63112        -0.48248
| 18>    N        2.11047         0.54131        -0.67935
| 19>    C        2.55833        -0.48759        -1.33309
| 20>    C        1.69474        -1.50157        -1.82172
| 21>    N        0.41394        -1.47799        -1.61188
| 22>    C        0.24864         1.76509         0.16037
| 23>    C       -1.13175         1.82309         0.39853
| 24>    C       -1.98829         0.75399        -0.02957
| 25>    N       -3.32560         0.81573         0.20266
| 26>    C       -3.78552         1.87075         0.80189
| 27>    C       -2.94093         2.94081         1.19997
| 28>    N       -1.65789         2.91634         1.00546
| 29>    C        1.13673         2.86250         0.56248
| 30>    C        2.03712         3.43360        -0.38809
| 31>    C        2.92755         4.40348         0.01467
| 32>    C        2.95643         4.84405         1.34828
| 33>    C        2.03586         4.29514         2.28554
| 34>    C        1.13382         3.30169         1.86131
| 35>    N        2.03130         4.70792         3.56935
| 36>    C        2.89825         5.62693         3.90258
| 37>    C        3.80776         6.17345         2.97373
| 38>    N        3.84094         5.79273         1.72492
| 39>    C        2.00164         3.02620        -1.77971
| 40>    S        0.51772         2.92396        -2.64847
| 41>    C        1.30277         2.47295        -4.13258
| 42>    C        2.68031         2.35095        -3.93289
| 43>    C        3.07543         2.68706        -2.59823
| 44>    C        4.42588         2.56227        -2.21872
| 45>    C        5.36544         2.12067        -3.11446
| 46>    C        6.76681         2.00058        -2.71238
| 47>    C        7.17477         1.66886        -1.49491
| 48>    C        4.96940         1.75857        -4.44106
| 49>    C        5.98569         1.21202        -5.39746
| 50>    C        3.66205         1.86604        -4.82384
| 51>    C        0.49418         2.30781        -5.29217
| 52>    C        0.91623         2.44356        -6.56676
| 53>    C        0.09370         2.26286        -7.73956
| 54>    C        0.53668         2.78381        -8.99500
| 55>    C       -0.25657         2.70291       -10.10891
| 56>    C       -1.50910         2.06409       -10.05589
| 57>    C       -1.94364         1.50554        -8.82024
| 58>    C       -1.13005         1.62299        -7.68517
| 59>    N       -3.13497         0.87146        -8.73378
| 60>    C       -3.85181         0.80405        -9.82265
| 61>    C       -3.42106         1.36183       -11.04424
| 62>    N       -2.27439         1.97822       -11.16197
| 63>    C        1.84946         3.43910        -9.13483
| 64>    C        3.04347         2.71060        -9.03944
| 65>    C        4.30919         3.35346        -9.24965
| 66>    N        5.45982         2.63449        -9.18061
| 67>    C        5.36320         1.36312        -8.93908
| 68>    C        4.11048         0.72752        -8.72881
| 69>    N        2.98986         1.38113        -8.76944
| 70>    C        4.36947         4.71134        -9.54358
| 71>    C        3.19098         5.44146        -9.64691
| 72>    C        1.92166         4.80323        -9.44667
| 73>    N        0.77306         5.51943        -9.54670
| 74>    C        0.87210         6.77862        -9.84349
| 75>    C        2.12800         7.40876       -10.05428
| 76>    N        3.24957         6.76424        -9.95349
| 77>    H       -2.11562        -1.13375        -1.04150
| 78>    H        3.62830        -0.53853        -1.48554
| 79>    H        2.08394        -2.34473        -2.37676
| 80>    H       -4.85148         1.90411         0.98439
| 81>    H       -3.34346         3.82074         1.68380
| 82>    H        3.59852         4.86944        -0.69040
| 83>    H        0.45928         2.87929         2.58850
| 84>    H        2.88865         5.95214         4.93445
| 85>    H        4.51879         6.93439         3.26761
| 86>    H        4.70922         2.80960        -1.20837
| 87>    H        7.49985         2.19717        -3.48325
| 88>    H        6.48274         1.43391        -0.70330
| 89>    H        8.22063         1.60674        -1.24718
| 90>    H        6.67664         1.99483        -5.71230
| 91>    H        5.49590         0.81751        -6.28457
| 92>    H        6.56500         0.41507        -4.93375
| 93>    H        3.36280         1.53567        -5.80680
| 94>    H       -0.55253         2.11960        -5.09192
| 95>    H        1.92946         2.76877        -6.74146
| 96>    H        0.06820         3.10961       -11.05409
| 97>    H       -1.49293         1.18448        -6.76941
| 98>    H       -4.80382         0.29503        -9.74603
| 99>    H       -4.03102         1.29688       -11.93557
|100>    H        6.28762         0.80177        -8.89802
|101>    H        4.04841        -0.33217        -8.51708
|102>    H        5.32123         5.18930        -9.70831
|103>    H       -0.05209         7.33579        -9.91945
|104>    H        2.18892         8.46013       -10.30258
|105> *
|106>
|107>                          ****END OF INPUT****

CARTESIAN COORDINATES (ANGSTROEM)
---------------------------------
  C     -1.464320   -0.346820   -0.697930
  C     -0.095460   -0.416800   -0.933960
  C      0.770930    0.631120   -0.482480
  N      2.110470    0.541310   -0.679350
  C      2.558330   -0.487590   -1.333090
  C      1.694740   -1.501570   -1.821720
  N      0.413940   -1.477990   -1.611880
  C      0.248640    1.765090    0.160370
  C     -1.131750    1.823090    0.398530
  C     -1.988290    0.753990   -0.029570
  N     -3.325600    0.815730    0.202660
  C     -3.785520    1.870750    0.801890
  C     -2.940930    2.940810    1.199970
  N     -1.657890    2.916340    1.005460
  C      1.136730    2.862500    0.562480
  C      2.037120    3.433600   -0.388090
  C      2.927550    4.403480    0.014670
  C      2.956430    4.844050    1.348280
  C      2.035860    4.295140    2.285540
  C      1.133820    3.301690    1.861310
  N      2.031300    4.707920    3.569350
  C      2.898250    5.626930    3.902580
  C      3.807760    6.173450    2.973730
  N      3.840940    5.792730    1.724920
  C      2.001640    3.026200   -1.779710
  S      0.517720    2.923960   -2.648470
  C      1.302770    2.472950   -4.132580
  C      2.680310    2.350950   -3.932890
  C      3.075430    2.687060   -2.598230
  C      4.425880    2.562270   -2.218720
  C      5.365440    2.120670   -3.114460
  C      6.766810    2.000580   -2.712380
  C      7.174770    1.668860   -1.494910
  C      4.969400    1.758570   -4.441060
  C      5.985690    1.212020   -5.397460
  C      3.662050    1.866040   -4.823840
  C      0.494180    2.307810   -5.292170
  C      0.916230    2.443560   -6.566760
  C      0.093700    2.262860   -7.739560
  C      0.536680    2.783810   -8.995000
  C     -0.256570    2.702910  -10.108910
  C     -1.509100    2.064090  -10.055890
  C     -1.943640    1.505540   -8.820240
  C     -1.130050    1.622990   -7.685170
  N     -3.134970    0.871460   -8.733780
  C     -3.851810    0.804050   -9.822650
  C     -3.421060    1.361830  -11.044240
  N     -2.274390    1.978220  -11.161970
  C      1.849460    3.439100   -9.134830
  C      3.043470    2.710600   -9.039440
  C      4.309190    3.353460   -9.249650
  N      5.459820    2.634490   -9.180610
  C      5.363200    1.363120   -8.939080
  C      4.110480    0.727520   -8.728810
  N      2.989860    1.381130   -8.769440
  C      4.369470    4.711340   -9.543580
  C      3.190980    5.441460   -9.646910
  C      1.921660    4.803230   -9.446670
  N      0.773060    5.519430   -9.546700
  C      0.872100    6.778620   -9.843490
  C      2.128000    7.408760  -10.054280
  N      3.249570    6.764240   -9.953490
  H     -2.115620   -1.133750   -1.041500
  H      3.628300   -0.538530   -1.485540
  H      2.083940   -2.344730   -2.376760
  H     -4.851480    1.904110    0.984390
  H     -3.343460    3.820740    1.683800
  H      3.598520    4.869440   -0.690400
  H      0.459280    2.879290    2.588500
  H      2.888650    5.952140    4.934450
  H      4.518790    6.934390    3.267610
  H      4.709220    2.809600   -1.208370
  H      7.499850    2.197170   -3.483250
  H      6.482740    1.433910   -0.703300
  H      8.220630    1.606740   -1.247180
  H      6.676640    1.994830   -5.712300
  H      5.495900    0.817510   -6.284570
  H      6.565000    0.415070   -4.933750
  H      3.362800    1.535670   -5.806800
  H     -0.552530    2.119600   -5.091920
  H      1.929460    2.768770   -6.741460
  H      0.068200    3.109610  -11.054090
  H     -1.492930    1.184480   -6.769410
  H     -4.803820    0.295030   -9.746030
  H     -4.031020    1.296880  -11.935570
  H      6.287620    0.801770   -8.898020
  H      4.048410   -0.332170   -8.517080
  H      5.321230    5.189300   -9.708310
  H     -0.052090    7.335790   -9.919450
  H      2.188920    8.460130  -10.302580

 Total Charge           Charge          ....    0
 Multiplicity           Mult            ....    1
 Number of Electrons    NEL             ....  422
 Basis Dimension        Dim             .... 1012

ORBITAL ENERGIES
----------------

  NO   OCC          E(Eh)            E(eV)
   0   2.0000     -88.956995     -2420.6429
   1   2.0000     -14.428373      -392.6160
   2   2.0000     -14.427242      -392.5852
   3   2.0000     -14.424422      -392.5085
   4   2.0000     -14.424019      -392.4975
   5   2.0000     -14.423174      -392.4745
   6   2.0000     -14.422627      -392.4596
   7   2.0000     -14.421289      -392.4232
   8   2.0000     -14.420126      -392.3916
   9   2.0000     -14.411353      -392.1529
  10   2.0000     -14.410961      -392.1422
  11   2.0000     -14.407269      -392.0417
  12   2.0000     -14.406252      -392.0140
  13   2.0000     -10.325028      -280.9583
  14   2.0000     -10.323998      -280.9303
  15   2.0000     -10.321337      -280.8578
  16   2.0000     -10.320947      -280.8472
  17   2.0000     -10.320699      -280.8405
  18   2.0000     -10.320060      -280.8231
  19   2.0000     -10.320034      -280.8224
  20   2.0000     -10.319518      -280.8084
  21   2.0000     -10.319034      -280.7952
  22   2.0000     -10.318886      -280.7912
  23   2.0000     -10.317889      -280.7640
  24   2.0000     -10.317341      -280.7491
  25   2.0000     -10.317009      -280.7401
  26   2.0000     -10.316115      -280.7158
  27   2.0000     -10.315812      -280.7075
  28   2.0000     -10.314585      -280.6741
  29   2.0000     -10.306019      -280.4410
  30   2.0000     -10.305189      -280.4184
  31   2.0000     -10.302988      -280.3586
  32   2.0000     -10.301894      -280.3288
  33   2.0000     -10.301518      -280.3186
  34   2.0000     -10.300735      -280.2972
  35   2.0000     -10.297446      -280.2078
  36   2.0000     -10.296818      -280.1907
  37   2.0000     -10.293748      -280.1071
  38   2.0000     -10.293431      -280.0985
  39   2.0000     -10.291660      -280.0503
  40   2.0000     -10.291365      -280.0423
  41   2.0000     -10.289174      -279.9826
  42   2.0000     -10.285396      -279.8798
  43   2.0000     -10.282158      -279.7917
  44   2.0000     -10.280898      -279.7575
  45   2.0000     -10.279439      -279.7178
  46   2.0000     -10.279048      -279.7071
  47   2.0000     -10.275435      -279.6088
  48   2.0000     -10.272303      -279.5236
  49   2.0000     -10.270491      -279.4743
  50   2.0000     -10.269568      -279.4491
  51   2.0000     -10.269404      -279.4447
  52   2.0000     -10.268620      -279.4234
  53   2.0000     -10.268071      -279.4084
  54   2.0000     -10.267371      -279.3894
  55   2.0000     -10.264726      -279.3174
  56   2.0000     -10.264405      -279.3087
  57   2.0000     -10.263440      -279.2824
  58   2.0000     -10.261967      -279.2423
  59   2.0000     -10.261206      -279.2216
  60   2.0000     -10.261138      -279.2198
  61   2.0000     -10.258905      -279.1590
  62   2.0000      -8.051363      -219.0887
  63   2.0000      -6.020324      -163.8213
  64   2.0000      -6.016233      -163.7100
  65   2.0000      -6.014359      -163.6590
  66   2.0000      -1.085350       -29.5339
  67   2.0000      -1.081529       -29.4299
  68   2.0000      -1.077598       -29.3229
  69   2.0000      -1.073871       -29.2215
  70   2.0000      -1.065808       -29.0021
  71   2.0000      -1.061107       -28.8742
  72   2.0000      -1.009261       -27.4634
  73   2.0000      -1.006384       -27.3851
  74   2.0000      -1.002803       -27.2877
  75   2.0000      -0.999678       -27.2026
  76   2.0000      -0.989038       -26.9131
  77   2.0000      -0.987381       -26.8680
  78   2.0000      -0.984278       -26.7836
  79   2.0000      -0.958830       -26.0911
  80   2.0000      -0.957154       -26.0455
  81   2.0000      -0.936597       -25.4861
  82   2.0000      -0.936441       -25.4819
  83   2.0000      -0.931627       -25.3509
  84   2.0000      -0.890759       -24.2388
  85   2.0000      -0.872603       -23.7447
  86   2.0000      -0.870712       -23.6933
  87   2.0000      -0.868980       -23.6462
  88   2.0000      -0.863674       -23.5018
  89   2.0000      -0.860220       -23.4078
  90   2.0000      -0.857168       -23.3247
  91   2.0000      -0.848144       -23.0792
  92   2.0000      -0.828267       -22.5383
  93   2.0000      -0.823402       -22.4059
  94   2.0000      -0.821646       -22.3581
  95   2.0000      -0.807635       -21.9769
  96   2.0000      -0.789961       -21.4959
  97   2.0000      -0.786493       -21.4016
  98   2.0000      -0.782817       -21.3015
  99   2.0000      -0.765453       -20.8290
 100   2.0000      -0.761351       -20.7174
 101   2.0000      -0.757167       -20.6036
 102   2.0000      -0.752578       -20.4787
 103   2.0000      -0.745668       -20.2907
 104   2.0000      -0.739488       -20.1225
 105   2.0000      -0.726597       -19.7717
 106   2.0000      -0.722522       -19.6608
 107   2.0000      -0.719158       -19.5693
 108   2.0000      -0.705435       -19.1959
 109   2.0000      -0.693461       -18.8700
 110   2.0000      -0.692448       -18.8425
 111   2.0000      -0.688087       -18.7238
 112   2.0000      -0.685277       -18.6473
 113   2.0000      -0.679784       -18.4979
 114   2.0000      -0.676579       -18.4106
 115   2.0000      -0.668293       -18.1852
 116   2.0000      -0.659046       -17.9336
 117   2.0000      -0.637106       -17.3365
 118   2.0000      -0.634063       -17.2537
 119   2.0000      -0.632076       -17.1997
 120   2.0000      -0.629186       -17.1210
 121   2.0000      -0.626299       -17.0425
 122   2.0000      -0.621635       -16.9156
 123   2.0000      -0.608770       -16.5655
 124   2.0000      -0.603092       -16.4110
 125   2.0000      -0.600505       -16.3406
 126   2.0000      -0.598497       -16.2859
 127   2.0000      -0.592095       -16.1117
 128   2.0000      -0.591835       -16.1046
 129   2.0000      -0.588200       -16.0057
 130   2.0000      -0.583047       -15.8655
 131   2.0000      -0.577082       -15.7032
 132   2.0000      -0.573827       -15.6146
 133   2.0000      -0.571233       -15.5440
 134   2.0000      -0.568200       -15.4615
 135   2.0000      -0.563989       -15.3469
 136   2.0000      -0.547925       -14.9098
 137   2.0000      -0.546590       -14.8735
 138   2.0000      -0.543758       -14.7964
 139   2.0000      -0.539159       -14.6713
 140   2.0000      -0.537034       -14.6134
 141   2.0000      -0.529269       -14.4022
 142   2.0000      -0.522186       -14.2094
 143   2.0000      -0.519538       -14.1373
 144   2.0000      -0.518674       -14.1138
 145   2.0000      -0.516946       -14.0668
 146   2.0000      -0.514984       -14.0134
 147   2.0000      -0.514387       -13.9972
 148   2.0000      -0.512662       -13.9502
 149   2.0000      -0.511252       -13.9119
 150   2.0000      -0.509269       -13.8579
 151   2.0000      -0.509131       -13.8542
 152   2.0000      -0.508372       -13.8335
 153   2.0000      -0.507909       -13.8209
 154   2.0000      -0.506246       -13.7757
 155   2.0000      -0.504325       -13.7234
 156   2.0000      -0.501581       -13.6487
 157   2.0000      -0.495926       -13.4948
 158   2.0000      -0.489729       -13.3262
 159   2.0000      -0.487159       -13.2563
 160   2.0000      -0.485870       -13.2212
 161   2.0000      -0.480556       -13.0766
 162   2.0000      -0.474675       -12.9166
 163   2.0000      -0.471508       -12.8304
 164   2.0000      -0.465247       -12.6600
 165   2.0000      -0.461394       -12.5552
 166   2.0000      -0.457659       -12.4535
 167   2.0000      -0.452053       -12.3010
 168   2.0000      -0.446746       -12.1566
 169   2.0000      -0.444405       -12.0929
 170   2.0000      -0.443073       -12.0566
 171   2.0000      -0.436446       -11.8763
 172   2.0000      -0.433395       -11.7933
 173   2.0000      -0.429981       -11.7004
 174   2.0000      -0.425179       -11.5697
 175   2.0000      -0.423479       -11.5234
 176   2.0000      -0.422045       -11.4844
 177   2.0000      -0.413922       -11.2634
 178   2.0000      -0.412263       -11.2182
 179   2.0000      -0.410532       -11.1712
 180   2.0000      -0.408982       -11.1290
 181   2.0000      -0.408235       -11.1086
 182   2.0000      -0.405548       -11.0355
 183   2.0000      -0.404018       -10.9939
 184   2.0000      -0.403183       -10.9712
 185   2.0000      -0.396077       -10.7778
 186   2.0000      -0.389172       -10.5899
 187   2.0000      -0.386635       -10.5209
 188   2.0000      -0.385695       -10.4953
 189   2.0000      -0.383536       -10.4365
 190   2.0000      -0.374227       -10.1832
 191   2.0000      -0.370213       -10.0740
 192   2.0000      -0.366628        -9.9765
 193   2.0000      -0.357117        -9.7176
 194   2.0000      -0.337053        -9.1717
 195   2.0000      -0.328740        -8.9455
 196   2.0000      -0.325855        -8.8670
 197   2.0000      -0.324497        -8.8300
 198   2.0000      -0.323132        -8.7929
 199   2.0000      -0.322282        -8.7697
 200   2.0000      -0.318818        -8.6755
 201   2.0000      -0.316615        -8.6155
 202   2.0000      -0.309767        -8.4292
 203   2.0000      -0.309232        -8.4146
 204   2.0000      -0.305905        -8.3241
 205   2.0000      -0.305317        -8.3081
 206   2.0000      -0.293311        -7.9814
 207   2.0000      -0.286109        -7.7854
 208   2.0000      -0.284714        -7.7475
 209   2.0000      -0.276327        -7.5192
 210   2.0000      -0.226128        -6.1533
 211   0.0000      -0.075051        -2.0422
 212   0.0000      -0.073635        -2.0037
 213   0.0000      -0.050394        -1.3713
 214   0.0000      -0.029357        -0.7989
 215   0.0000      -0.022157        -0.6029

MULLIKEN ATOMIC CHARGES
-----------------------
   0 C :   -0.083276
   1 C :    0.040174
   2 C :   -0.037267
   3 N :   -0.005388
   4 C :    0.041169
   5 C :    0.025089
   6 N :   -0.015606
   7 C :    0.002070
   8 C :   -0.039989
   9 C :    0.026930
  10 N :   -0.012892
  11 C :    0.017224
  12 C :    0.026843
  13 N :    0.005050
  14 C :    0.044340
  15 C :    0.144442
  16 C :   -0.085669
  17 C :   -0.003561
  18 C :   -0.012140
  19 C :   -0.020485
  20 N :   -0.014498
  21 C :    0.018603
  22 C :    0.018808
  23 N :   -0.016953
  24 C :   -0.216441
  25 S :    0.178943
  26 C :   -0.137285
  27 C :    0.099746
  28 C :    0.180466
  29 C :   -0.116359
  30 C :    0.075170
  31 C :   -0.035699
  32 C :   -0.016961
  33 C :   -0.071864
  34 C :    0.112002
  35 C :   -0.106874
  36 C :    0.051086
  37 C :   -0.020751
  38 C :    0.170006
  39 C :    0.038687
  40 C :   -0.021968
  41 C :   -0.022294
  42 C :    0.011694
  43 C :   -0.104003
  44 N :   -0.019471
  45 C :    0.019348
  46 C :    0.014469
  47 N :   -0.015569
  48 C :    0.011653
  49 C :   -0.070769
  50 C :    0.048874
  51 N :   -0.011502
  52 C :    0.012160
  53 C :    0.029827
  54 N :    0.002263
  55 C :   -0.093870
  56 C :    0.041998
  57 C :   -0.060174
  58 N :    0.016378
  59 C :    0.024779
  60 C :    0.021491
  61 N :   -0.015353
  62 H :   -0.034724
  63 H :    0.016041
  64 H :    0.012662
  65 H :    0.015772
  66 H :    0.014863
  67 H :   -0.024686
  68 H :   -0.035175
  69 H :    0.006583
  70 H :    0.007159
  71 H :   -0.028453
  72 H :   -0.002697
  73 H :    0.022401
  74 H :    0.021031
  75 H :    0.034566
  76 H :   -0.012178
  77 H :    0.023938
  78 H :   -0.053027
  79 H :   -0.015016
  80 H :   -0.004016
  81 H :   -0.038974
  82 H :   -0.037721
  83 H :    0.004937
  84 H :    0.004711
  85 H :    0.017223
  86 H :    0.020268
  87 H :   -0.035363
  88 H :    0.016336
  89 H :    0.016691
Sum of atomic charges:   -0.0000000

LOEWDIN ATOMIC CHARGES
----------------------
   0 C :    0.003987
   1 C :   -0.014847
   2 C :   -0.013691
   3 N :   -0.026698
   4 C :    0.014369
   5 C :    0.008680
   6 N :   -0.036975
   7 C :   -0.024369
   8 C :   -0.011786
   9 C :   -0.014961
  10 N :   -0.034379
  11 C :    0.005086
  12 C :    0.008245
  13 N :   -0.031595
  14 C :   -0.003364
  15 C :   -0.017144
  16 C :   -0.010172
  17 C :   -0.013460
  18 C :   -0.016941
  19 C :    0.015470
  20 N :   -0.040332
  21 C :   -0.004900
  22 C :   -0.001730
  23 N :   -0.043336
  24 C :   -0.174280
  25 S :    0.494208
  26 C :   -0.185284
  27 C :   -0.044568
  28 C :   -0.043984
  29 C :   -0.001510
  30 C :   -0.034643
  31 C :   -0.020993
  32 C :   -0.040946
  33 C :   -0.019320
  34 C :   -0.047678
  35 C :   -0.033785
  36 C :   -0.031296
  37 C :   -0.026432
  38 C :   -0.001030
  39 C :    0.003561
  40 C :    0.007471
  41 C :   -0.017081
  42 C :   -0.012584
  43 C :   -0.012243
  44 N :   -0.045006
  45 C :   -0.003724
  46 C :   -0.007756
  47 N :   -0.042024
  48 C :   -0.005561
  49 C :   -0.016905
  50 C :   -0.013817
  51 N :   -0.034120
  52 C :    0.004430
  53 C :    0.004686
  54 N :   -0.031312
  55 C :    0.001353
  56 C :   -0.012505
  57 C :   -0.010269
  58 N :   -0.028757
  59 C :    0.009014
  60 C :    0.008297
  61 N :   -0.035777
  62 H :    0.042641
  63 H :    0.027607
  64 H :    0.026650
  65 H :    0.027040
  66 H :    0.027322
  67 H :    0.037066
  68 H :    0.034602
  69 H :    0.023639
  70 H :    0.024016
  71 H :    0.029269
  72 H :    0.028038
  73 H :    0.022093
  74 H :    0.024205
  75 H :    0.036669
  76 H :    0.024802
  77 H :    0.032735
  78 H :    0.023231
  79 H :    0.026664
  80 H :    0.026479
  81 H :    0.033083
  82 H :    0.030576
  83 H :    0.023100
  84 H :    0.022685
  85 H :    0.026786
  86 H :    0.028039
  87 H :    0.042503
  88 H :    0.027974
  89 H :    0.027495

  Mayer bond orders larger than 0.100000
B(  0-C ,  1-C ) :   1.2264 B(  0-C ,  7-C ) :   0.1494 B(  0-C ,  9-C ) :   1.2371
B(  0-C , 62-H ) :   1.0629 B(  1-C ,  2-C ) :   1.1744 B(  1-C ,  6-N ) :   1.3691
B(  2-C ,  3-N ) :   1.4405 B(  2-C ,  7-C ) :   1.3325 B(  3-N ,  4-C ) :   1.6931
B(  4-C ,  5-C ) :   1.1695 B(  4-C , 63-H ) :   0.9711 B(  5-C ,  6-N ) :   1.7299
B(  5-C , 64-H ) :   0.9734 B(  7-C ,  8-C ) :   1.3440 B(  7-C , 14-C ) :   0.9283
B(  8-C ,  9-C ) :   1.1696 B(  8-C , 13-N ) :   1.4485 B(  9-C , 10-N ) :   1.3676
B( 10-N , 11-C ) :   1.7351 B( 11-C , 12-C ) :   1.1644 B( 11-C , 65-H ) :   0.9731
B( 12-C , 13-N ) :   1.7166 B( 12-C , 66-H ) :   0.9730 B( 14-C , 15-C ) :   1.2729
B( 14-C , 19-C ) :   1.4534 B( 15-C , 16-C ) :   1.4246 B( 15-C , 24-C ) :   0.9637
B( 16-C , 17-C ) :   1.2112 B( 16-C , 19-C ) :   0.1041 B( 16-C , 67-H ) :   1.0214
B( 17-C , 18-C ) :   1.2461 B( 17-C , 23-N ) :   1.4265 B( 18-C , 19-C ) :   1.2104
B( 18-C , 20-N ) :   1.4331 B( 19-C , 68-H ) :   1.0134 B( 20-N , 21-C ) :   1.6676
B( 21-C , 22-C ) :   1.2289 B( 21-C , 69-H ) :   0.9739 B( 22-C , 23-N ) :   1.6693
B( 22-C , 70-H ) :   0.9741 B( 24-C , 25-S ) :   1.1976 B( 24-C , 26-C ) :   0.1266
B( 24-C , 28-C ) :   1.3880 B( 25-S , 26-C ) :   1.1399 B( 26-C , 27-C ) :   1.3645
B( 26-C , 36-C ) :   1.1103 B( 27-C , 28-C ) :   1.1957 B( 27-C , 35-C ) :   1.1764
B( 28-C , 29-C ) :   1.1737 B( 29-C , 30-C ) :   1.5243 B( 29-C , 71-H ) :   0.9961
B( 30-C , 31-C ) :   1.0272 B( 30-C , 33-C ) :   1.1863 B( 31-C , 32-C ) :   1.9800
B( 31-C , 72-H ) :   0.9502 B( 32-C , 73-H ) :   0.9576 B( 32-C , 74-H ) :   0.9503
B( 33-C , 34-C ) :   1.0864 B( 33-C , 35-C ) :   1.5622 B( 34-C , 75-H ) :   0.9373
B( 34-C , 76-H ) :   0.9490 B( 34-C , 77-H ) :   0.9375 B( 35-C , 78-H ) :   0.9851
B( 36-C , 37-C ) :   1.7062 B( 36-C , 79-H ) :   0.9503 B( 37-C , 38-C ) :   1.0826
B( 37-C , 80-H ) :   0.9608 B( 38-C , 39-C ) :   1.2438 B( 38-C , 43-C ) :   1.3695
B( 39-C , 40-C ) :   1.4750 B( 39-C , 48-C ) :   0.9107 B( 40-C , 41-C ) :   1.2130
B( 40-C , 43-C ) :   0.1055 B( 40-C , 81-H ) :   1.0118 B( 41-C , 42-C ) :   1.2410
B( 41-C , 47-N ) :   1.4355 B( 42-C , 43-C ) :   1.2317 B( 42-C , 44-N ) :   1.4319
B( 43-C , 82-H ) :   1.0089 B( 44-N , 45-C ) :   1.6758 B( 45-C , 46-C ) :   1.2289
B( 45-C , 83-H ) :   0.9735 B( 46-C , 47-N ) :   1.6632 B( 46-C , 84-H ) :   0.9738
B( 48-C , 49-C ) :   1.3528 B( 48-C , 55-C ) :   0.1481 B( 48-C , 57-C ) :   1.3557
B( 49-C , 50-C ) :   1.1727 B( 49-C , 54-N ) :   1.4416 B( 50-C , 51-N ) :   1.3686
B( 50-C , 55-C ) :   1.2279 B( 51-N , 52-C ) :   1.7325 B( 52-C , 53-C ) :   1.1551
B( 52-C , 85-H ) :   0.9723 B( 53-C , 54-N ) :   1.7064 B( 53-C , 86-H ) :   0.9721
B( 55-C , 56-C ) :   1.2311 B( 55-C , 87-H ) :   1.0640 B( 56-C , 57-C ) :   1.1705
B( 56-C , 61-N ) :   1.3664 B( 57-C , 58-N ) :   1.4563 B( 58-N , 59-C ) :   1.7209
B( 59-C , 60-C ) :   1.1631 B( 59-C , 88-H ) :   0.9736 B( 60-C , 61-N ) :   1.7359
B( 60-C , 89-H ) :   0.9726

-----------------------------------------------------------------------------
         ABSORPTION SPECTRUM VIA TRANSITION ELECTRIC DIPOLE MOMENTS
-----------------------------------------------------------------------------
State   Energy  Wavelength   fosc         T2         TX        TY        TZ
        (cm-1)    (nm)                  (au**2)     (au)      (au)      (au)
-----------------------------------------------------------------------------
   0   15935.1    627.5   0.020231962   0.41798   0.09474  -0.01394   0.63939
   1   17030.4    587.2   0.001579817   0.03054   0.08675   0.05650   0.14079
   2   22172.9    451.0   0.911972731  13.54051   1.20273   0.54918   3.43400
   3   25701.3    389.1   0.189524197   2.42764  -0.89715  -1.07290  -0.68676
   4   26371.4    379.2   0.042332586   0.52847   0.43822   0.57862  -0.04035
   5   26435.7    378.3   0.040953845   0.51001  -0.47747   0.00593  -0.53103
   6   26748.4    373.9   0.028916237   0.35589  -0.55634   0.10376  -0.18872
   7   27343.8    365.7   0.017423535   0.20977   0.36374   0.03322  -0.27634
   8   27413.2    364.8   0.026310106   0.31596   0.26746   0.48040   0.11680
   9   27901.7    358.4   0.069570613   0.82086   0.86084   0.21768  -0.18007
  10   28057.0    356.4   0.106898598   1.25432  -1.01252  -0.47640   0.04661
  11   29353.7    340.7   0.006043522   0.06778  -0.17209  -0.16598   0.10303
  12   29865.4    334.8   0.014596240   0.16090   0.21414   0.21184   0.26489
  13   30882.9    323.8   0.009676213   0.10315   0.21469  -0.23883  -0.00395
  14   30922.7    323.4   0.004175736   0.04446  -0.02218   0.13150   0.16331
  15   31151.8    321.0   0.020005028   0.21141   0.08957  -0.22903  -0.38850
  16   31383.9    318.6   0.004589006   0.04814   0.00503  -0.19603  -0.09842
  17   31486.5    317.6   0.030263935   0.31643  -0.53016  -0.16044  -0.09806
  18   31576.6    316.7   0.021347702   0.22257  -0.28739   0.02170   0.37350
  19   31759.6    314.9   0.001849696   0.01917   0.10892   0.06011  -0.06079
  20   32067.2    311.8   0.097891806   1.00499   0.80775  -0.20635   0.55674
  21   32463.2    308.0   0.031159292   0.31599   0.21968   0.51337   0.06468
  22   32634.0    306.4   0.056684122   0.57183   0.17069  -0.70518   0.21312
  23   32822.5    304.7   0.072596445   0.72815  -0.13105   0.84222  -0.04046
  24   32998.1    303.0   0.074467431   0.74294  -0.73224   0.39579   0.22385
  25   33144.8    301.7   0.034239212   0.34008  -0.51309   0.27700   0.00954
  26   33633.9    297.3   0.043208472   0.42293   0.43253   0.46307   0.14632
  27   33915.7    294.8   0.046234547   0.44879  -0.34569  -0.30658   0.48507
  28   34233.9    292.1   0.077781547   0.74799  -0.37746   0.31788   0.71026
  29   34830.0    287.1   0.113486732   1.07267   0.97020  -0.10414   0.34719
  30   34923.2    286.3   0.329954688   3.11039   1.54777  -0.24089   0.81042
  31   35302.4    283.3   0.012867430   0.12000   0.31214  -0.03103   0.14698
  32   35722.4    279.9   0.059385909   0.54729   0.38397  -0.25630  -0.57807
  33   35991.9    277.8   0.046636205   0.42657  -0.06405  -0.20037  -0.61832
  34   36160.1    276.5   0.063506090   0.57818  -0.62449   0.12388  -0.41574
  35   36242.7    275.9   0.015915360   0.14457   0.05810  -0.30324  -0.22190
  36   36545.8    273.6   0.050547638   0.45534  -0.04957  -0.49230  -0.45883
  37   38317.9    261.0   0.134390301   1.15463   0.17232   0.57993   0.88804
  38   38491.4    259.8   0.040063100   0.34265  -0.27554  -0.00149  -0.51646
  39   38714.8    258.3   0.018172131   0.15453  -0.20324  -0.33297  -0.04852
  40   39193.8    255.1   0.050425597   0.42355   0.64103   0.06765  -0.08978
  41   39666.5    252.1   0.014941149   0.12400   0.02515  -0.15098  -0.31714
  42   39712.4    251.8   0.001067616   0.00885   0.06891  -0.03533   0.05342
  43   39856.2    250.9   0.037291445   0.30803   0.21624  -0.02397  -0.51058
  44   40129.2    249.2   0.006140441   0.05037  -0.09328   0.17231   0.10948
  45   40188.6    248.8   0.042205197   0.34573   0.01038   0.33167   0.48540
  46   40270.9    248.3   0.003039385   0.02485   0.02000   0.12290   0.09665

FINAL SINGLE POINT ENERGY     -2935.919042517820

DIPOLE MOMENT
-------------
                                X             Y             Z
Electronic contribution:    -21.57829       5.40255       2.52133
Nuclear contribution   :     22.02154      -5.37790      -2.47998
                        -----------------------------------------
Total Dipole Moment    :      0.44325       0.02465       0.04135
                        -----------------------------------------
Magnitude (a.u.)       :      0.44585
Magnitude (Debye)      :      1.13327

Rotational constants in cm-1:     0.001843     0.000854     0.000722
Rotational constants in MHz :    55.244717    25.594360    21.639342

                             ****ORCA TERMINATED NORMALLY****
TOTAL RUN TIME: 0 days 0 hours 8 minutes 24 seconds 603 msec
