                         Program Version 4.2.0 -  RELEASE  -
|  1> # ORCA input file
|  2> # SCF done       -148.975111175283          0.000388927030
|  3> ! CAM-B3LYP def2-SVP def2/J RIJCOSX Grid4 TightSCF
|  4> %maxcore 5000
|  5> %tddft
|  6>     Mode sTDDFT
|  7>     Ethresh 5.0
|  8>     maxcore 5000
|  9> end
| 10>
| 11> %pal
| 12>   nprocs 6
| 13>   end
| 14> * xyz 0 1
| 15>    C        3.81676        -0.09169        -0.10878
| 16>    C        2.78046         0.09254        -1.01879
| 17>    C        1.87680         1.20085        -0.89580
| 18>    N        0.98648         1.45372        -1.87790
| 19>    C        0.89885         0.60806        -2.86047
| 20>    C        1.70193        -0.55893        -2.91433
| 21>    N        2.63535        -0.78906        -2.04146
| 22>    C        1.96642         2.07313         0.21146
| 23>    C        3.06560         1.91102         1.08390
| 24>    C        3.98777         0.82664         0.92273
| 25>    N        5.03608         0.70023         1.77375
| 26>    C        5.17503         1.59361         2.70701
| 27>    C        4.26091         2.66356         2.86826
| 28>    N        3.23566         2.80075         2.07978
| 29>    C        1.02524         3.12080         0.46231
| 30>    C       -0.30689         3.21326         0.09647
| 31>    F       -1.01178         2.23668        -0.48319
| 32>    C       -0.91423         4.41147         0.48908
| 33>    F       -2.22159         4.61990         0.30063
| 34>    C       -0.06381         5.26702         1.16897
| 35>    S        1.47580         4.49804         1.42179
| 36>    C       -0.31257         6.57322         1.69020
| 37>    C        0.43824         7.03699         2.79424
| 38>    C        0.18125         8.30196         3.41241
| 39>    N        0.81246         8.61259         4.56067
| 40>    C        1.73082         7.80962         5.01118
| 41>    C        2.07298         6.61995         4.33039
| 42>    N        1.40922         6.23973         3.27818
| 43>    C       -0.77576         9.18903         2.86646
| 44>    C       -1.52602         8.72132         1.76264
| 45>    C       -1.27332         7.45588         1.14715
| 46>    N       -1.90740         7.13499         0.00268
| 47>    C       -2.82843         7.93536        -0.44780
| 48>    C       -3.17260         9.12433         0.23347
| 49>    N       -2.50431         9.51099         1.28051
| 50>    C       -1.03171        10.50296         3.37337
| 51>    C       -0.23348        11.34266         4.13261
| 52>    F        1.04334        11.11660         4.45800
| 53>    C       -0.84653        12.55826         4.46510
| 54>    F       -0.23271        13.43647         5.26472
| 55>    C       -2.13640        12.68249         3.98210
| 56>    S       -2.57141        11.25931         3.08642
| 57>    C       -3.05970        13.77344         4.09696
| 58>    C       -2.65801        15.11378         4.28791
| 59>    C       -3.63723        16.13856         4.51630
| 60>    N       -3.23924        17.40834         4.78682
| 61>    C       -1.96628        17.66348         4.76992
| 62>    C       -1.01266        16.67939         4.40589
| 63>    N       -1.35459        15.44681         4.17904
| 64>    C       -4.99777        15.85481         4.45781
| 65>    C       -5.41006        14.55990         4.15840
| 66>    C       -4.44391        13.51787         3.97855
| 67>    N       -4.84757        12.26512         3.68900
| 68>    C       -6.12193        12.03806         3.56150
| 69>    C       -7.07738        13.06826         3.74108
| 70>    N       -6.73323        14.28601         4.03677
| 71>    H        4.49216        -0.92406        -0.21654
| 72>    H        0.19713         0.84794        -3.64721
| 73>    H        1.58589        -1.28408        -3.70856
| 74>    H        6.02268         1.47914         3.36929
| 75>    H        4.37725         3.39602         3.65438
| 76>    H        2.20052         8.08589         5.94474
| 77>    H        2.86123         5.96654         4.67628
| 78>    H       -3.30284         7.65491        -1.37769
| 79>    H       -3.97046         9.77070        -0.10414
| 80>    H       -1.66673        18.67457         5.01140
| 81>    H        0.03336        16.92408         4.28354
| 82>    H       -5.72290        16.63352         4.62699
| 83>    H       -6.41648        11.02607         3.32068
| 84>    H       -8.13663        12.87091         3.64404
| 85> *
| 86>
| 87>                          ****END OF INPUT****

CARTESIAN COORDINATES (ANGSTROEM)
---------------------------------
  C      3.816760   -0.091690   -0.108780
  C      2.780460    0.092540   -1.018790
  C      1.876800    1.200850   -0.895800
  N      0.986480    1.453720   -1.877900
  C      0.898850    0.608060   -2.860470
  C      1.701930   -0.558930   -2.914330
  N      2.635350   -0.789060   -2.041460
  C      1.966420    2.073130    0.211460
  C      3.065600    1.911020    1.083900
  C      3.987770    0.826640    0.922730
  N      5.036080    0.700230    1.773750
  C      5.175030    1.593610    2.707010
  C      4.260910    2.663560    2.868260
  N      3.235660    2.800750    2.079780
  C      1.025240    3.120800    0.462310
  C     -0.306890    3.213260    0.096470
  F     -1.011780    2.236680   -0.483190
  C     -0.914230    4.411470    0.489080
  F     -2.221590    4.619900    0.300630
  C     -0.063810    5.267020    1.168970
  S      1.475800    4.498040    1.421790
  C     -0.312570    6.573220    1.690200
  C      0.438240    7.036990    2.794240
  C      0.181250    8.301960    3.412410
  N      0.812460    8.612590    4.560670
  C      1.730820    7.809620    5.011180
  C      2.072980    6.619950    4.330390
  N      1.409220    6.239730    3.278180
  C     -0.775760    9.189030    2.866460
  C     -1.526020    8.721320    1.762640
  C     -1.273320    7.455880    1.147150
  N     -1.907400    7.134990    0.002680
  C     -2.828430    7.935360   -0.447800
  C     -3.172600    9.124330    0.233470
  N     -2.504310    9.510990    1.280510
  C     -1.031710   10.502960    3.373370
  C     -0.233480   11.342660    4.132610
  F      1.043340   11.116600    4.458000
  C     -0.846530   12.558260    4.465100
  F     -0.232710   13.436470    5.264720
  C     -2.136400   12.682490    3.982100
  S     -2.571410   11.259310    3.086420
  C     -3.059700   13.773440    4.096960
  C     -2.658010   15.113780    4.287910
  C     -3.637230   16.138560    4.516300
  N     -3.239240   17.408340    4.786820
  C     -1.966280   17.663480    4.769920
  C     -1.012660   16.679390    4.405890
  N     -1.354590   15.446810    4.179040
  C     -4.997770   15.854810    4.457810
  C     -5.410060   14.559900    4.158400
  C     -4.443910   13.517870    3.978550
  N     -4.847570   12.265120    3.689000
  C     -6.121930   12.038060    3.561500
  C     -7.077380   13.068260    3.741080
  N     -6.733230   14.286010    4.036770
  H      4.492160   -0.924060   -0.216540
  H      0.197130    0.847940   -3.647210
  H      1.585890   -1.284080   -3.708560
  H      6.022680    1.479140    3.369290
  H      4.377250    3.396020    3.654380
  H      2.200520    8.085890    5.944740
  H      2.861230    5.966540    4.676280
  H     -3.302840    7.654910   -1.377690
  H     -3.970460    9.770700   -0.104140
  H     -1.666730   18.674570    5.011400
  H      0.033360   16.924080    4.283540
  H     -5.722900   16.633520    4.626990
  H     -6.416480   11.026070    3.320680
  H     -8.136630   12.870910    3.644040

 Total Charge           Charge          ....    0
 Multiplicity           Mult            ....    1
 Number of Electrons    NEL             ....  394
 Basis Dimension        Dim             ....  862

ORBITAL ENERGIES
----------------

  NO   OCC          E(Eh)            E(eV)
   0   2.0000     -88.942940     -2420.2604
   1   2.0000     -88.940780     -2420.2017
   2   2.0000     -24.769367      -674.0087
   3   2.0000     -24.769158      -674.0030
   4   2.0000     -24.767609      -673.9609
   5   2.0000     -24.767252      -673.9512
   6   2.0000     -14.429310      -392.6415
   7   2.0000     -14.427914      -392.6035
   8   2.0000     -14.427197      -392.5840
   9   2.0000     -14.426738      -392.5715
  10   2.0000     -14.425104      -392.5270
  11   2.0000     -14.423853      -392.4930
  12   2.0000     -14.422528      -392.4569
  13   2.0000     -14.421765      -392.4362
  14   2.0000     -14.419440      -392.3729
  15   2.0000     -14.418953      -392.3597
  16   2.0000     -14.418323      -392.3425
  17   2.0000     -14.417348      -392.3160
  18   2.0000     -10.346353      -281.5386
  19   2.0000     -10.345838      -281.5246
  20   2.0000     -10.345492      -281.5151
  21   2.0000     -10.344919      -281.4996
  22   2.0000     -10.325635      -280.9748
  23   2.0000     -10.325411      -280.9687
  24   2.0000     -10.324971      -280.9567
  25   2.0000     -10.323117      -280.9063
  26   2.0000     -10.322037      -280.8769
  27   2.0000     -10.321685      -280.8673
  28   2.0000     -10.321123      -280.8520
  29   2.0000     -10.321002      -280.8487
  30   2.0000     -10.320736      -280.8415
  31   2.0000     -10.320547      -280.8364
  32   2.0000     -10.319872      -280.8180
  33   2.0000     -10.319630      -280.8114
  34   2.0000     -10.319051      -280.7956
  35   2.0000     -10.318038      -280.7681
  36   2.0000     -10.317720      -280.7594
  37   2.0000     -10.317146      -280.7438
  38   2.0000     -10.316846      -280.7357
  39   2.0000     -10.316618      -280.7294
  40   2.0000     -10.316519      -280.7268
  41   2.0000     -10.316286      -280.7204
  42   2.0000     -10.315349      -280.6949
  43   2.0000     -10.315059      -280.6870
  44   2.0000     -10.314608      -280.6747
  45   2.0000     -10.314555      -280.6733
  46   2.0000     -10.300067      -280.2791
  47   2.0000     -10.298968      -280.2492
  48   2.0000     -10.298925      -280.2480
  49   2.0000     -10.298793      -280.2444
  50   2.0000     -10.292579      -280.0753
  51   2.0000     -10.291783      -280.0537
  52   2.0000     -10.291502      -280.0460
  53   2.0000     -10.289908      -280.0026
  54   2.0000     -10.276219      -279.6301
  55   2.0000     -10.275932      -279.6223
  56   2.0000      -8.035510      -218.6573
  57   2.0000      -8.033368      -218.5990
  58   2.0000      -6.005144      -163.4083
  59   2.0000      -6.003052      -163.3513
  60   2.0000      -6.000854      -163.2915
  61   2.0000      -5.998520      -163.2280
  62   2.0000      -5.996953      -163.1854
  63   2.0000      -5.994956      -163.1310
  64   2.0000      -1.290602       -35.1191
  65   2.0000      -1.289241       -35.0820
  66   2.0000      -1.277390       -34.7596
  67   2.0000      -1.275606       -34.7110
  68   2.0000      -1.088973       -29.6325
  69   2.0000      -1.085681       -29.5429
  70   2.0000      -1.083921       -29.4950
  71   2.0000      -1.081378       -29.4258
  72   2.0000      -1.074849       -29.2481
  73   2.0000      -1.074001       -29.2251
  74   2.0000      -1.014022       -27.5929
  75   2.0000      -1.010027       -27.4842
  76   2.0000      -1.008214       -27.4349
  77   2.0000      -1.004985       -27.3470
  78   2.0000      -0.998800       -27.1787
  79   2.0000      -0.997956       -27.1558
  80   2.0000      -0.978726       -26.6325
  81   2.0000      -0.973778       -26.4978
  82   2.0000      -0.950767       -25.8717
  83   2.0000      -0.942965       -25.6594
  84   2.0000      -0.938030       -25.5251
  85   2.0000      -0.887036       -24.1375
  86   2.0000      -0.868207       -23.6251
  87   2.0000      -0.867738       -23.6123
  88   2.0000      -0.862538       -23.4709
  89   2.0000      -0.861279       -23.4366
  90   2.0000      -0.857023       -23.3208
  91   2.0000      -0.820776       -22.3345
  92   2.0000      -0.810519       -22.0553
  93   2.0000      -0.808761       -22.0075
  94   2.0000      -0.791989       -21.5511
  95   2.0000      -0.790986       -21.5238
  96   2.0000      -0.786663       -21.4062
  97   2.0000      -0.780825       -21.2473
  98   2.0000      -0.765313       -20.8252
  99   2.0000      -0.759353       -20.6630
 100   2.0000      -0.757962       -20.6252
 101   2.0000      -0.730378       -19.8746
 102   2.0000      -0.725761       -19.7490
 103   2.0000      -0.723509       -19.6877
 104   2.0000      -0.722254       -19.6535
 105   2.0000      -0.715351       -19.4657
 106   2.0000      -0.696138       -18.9429
 107   2.0000      -0.691118       -18.8063
 108   2.0000      -0.683474       -18.5983
 109   2.0000      -0.682278       -18.5657
 110   2.0000      -0.666616       -18.1396
 111   2.0000      -0.661770       -18.0077
 112   2.0000      -0.650345       -17.6968
 113   2.0000      -0.643526       -17.5112
 114   2.0000      -0.638866       -17.3844
 115   2.0000      -0.635900       -17.3037
 116   2.0000      -0.626090       -17.0368
 117   2.0000      -0.624540       -16.9946
 118   2.0000      -0.618835       -16.8393
 119   2.0000      -0.617716       -16.8089
 120   2.0000      -0.613366       -16.6905
 121   2.0000      -0.606093       -16.4926
 122   2.0000      -0.593308       -16.1447
 123   2.0000      -0.589892       -16.0518
 124   2.0000      -0.588633       -16.0175
 125   2.0000      -0.584708       -15.9107
 126   2.0000      -0.582482       -15.8501
 127   2.0000      -0.577715       -15.7204
 128   2.0000      -0.575114       -15.6496
 129   2.0000      -0.573589       -15.6081
 130   2.0000      -0.571476       -15.5506
 131   2.0000      -0.561123       -15.2689
 132   2.0000      -0.557165       -15.1612
 133   2.0000      -0.555891       -15.1266
 134   2.0000      -0.549482       -14.9522
 135   2.0000      -0.546360       -14.8672
 136   2.0000      -0.542083       -14.7508
 137   2.0000      -0.539575       -14.6826
 138   2.0000      -0.537800       -14.6343
 139   2.0000      -0.529538       -14.4095
 140   2.0000      -0.520608       -14.1665
 141   2.0000      -0.519275       -14.1302
 142   2.0000      -0.517756       -14.0889
 143   2.0000      -0.516914       -14.0659
 144   2.0000      -0.515491       -14.0272
 145   2.0000      -0.513006       -13.9596
 146   2.0000      -0.512847       -13.9553
 147   2.0000      -0.511603       -13.9214
 148   2.0000      -0.510719       -13.8974
 149   2.0000      -0.507005       -13.7963
 150   2.0000      -0.505675       -13.7601
 151   2.0000      -0.499369       -13.5885
 152   2.0000      -0.498283       -13.5590
 153   2.0000      -0.486836       -13.2475
 154   2.0000      -0.484163       -13.1747
 155   2.0000      -0.478311       -13.0155
 156   2.0000      -0.472017       -12.8442
 157   2.0000      -0.466175       -12.6853
 158   2.0000      -0.463056       -12.6004
 159   2.0000      -0.459828       -12.5125
 160   2.0000      -0.458876       -12.4866
 161   2.0000      -0.456847       -12.4314
 162   2.0000      -0.450014       -12.2455
 163   2.0000      -0.448610       -12.2073
 164   2.0000      -0.440938       -11.9985
 165   2.0000      -0.433561       -11.7978
 166   2.0000      -0.427270       -11.6266
 167   2.0000      -0.425457       -11.5773
 168   2.0000      -0.417116       -11.3503
 169   2.0000      -0.416163       -11.3244
 170   2.0000      -0.412625       -11.2281
 171   2.0000      -0.408486       -11.1155
 172   2.0000      -0.407582       -11.0909
 173   2.0000      -0.405008       -11.0208
 174   2.0000      -0.402578       -10.9547
 175   2.0000      -0.387453       -10.5431
 176   2.0000      -0.384867       -10.4728
 177   2.0000      -0.377974       -10.2852
 178   2.0000      -0.376903       -10.2560
 179   2.0000      -0.363053        -9.8792
 180   2.0000      -0.360781        -9.8174
 181   2.0000      -0.344586        -9.3767
 182   2.0000      -0.331339        -9.0162
 183   2.0000      -0.329306        -8.9609
 184   2.0000      -0.326933        -8.8963
 185   2.0000      -0.326282        -8.8786
 186   2.0000      -0.325662        -8.8617
 187   2.0000      -0.324174        -8.8212
 188   2.0000      -0.316345        -8.6082
 189   2.0000      -0.315419        -8.5830
 190   2.0000      -0.314904        -8.5690
 191   2.0000      -0.305157        -8.3037
 192   2.0000      -0.294231        -8.0064
 193   2.0000      -0.281878        -7.6703
 194   2.0000      -0.280128        -7.6227
 195   2.0000      -0.263861        -7.1800
 196   2.0000      -0.231342        -6.2951
 197   0.0000      -0.093645        -2.5482
 198   0.0000      -0.075032        -2.0417
 199   0.0000      -0.067583        -1.8390
 200   0.0000      -0.008004        -0.2178
 201   0.0000      -0.005411        -0.1473

MULLIKEN ATOMIC CHARGES
-----------------------
   0 C :   -0.069084
   1 C :    0.031430
   2 C :   -0.095251
   3 N :    0.000588
   4 C :    0.023148
   5 C :    0.023462
   6 N :   -0.021328
   7 C :    0.183431
   8 C :   -0.048109
   9 C :    0.026805
  10 N :   -0.010197
  11 C :    0.018005
  12 C :    0.037636
  13 N :   -0.042916
  14 C :   -0.233889
  15 C :    0.220527
  16 F :   -0.169337
  17 C :    0.215691
  18 F :   -0.170403
  19 C :   -0.238099
  20 S :    0.219313
  21 C :    0.171932
  22 C :   -0.035406
  23 C :   -0.101587
  24 N :    0.008605
  25 C :    0.023078
  26 C :    0.042639
  27 N :   -0.049243
  28 C :    0.182363
  29 C :   -0.037293
  30 C :   -0.096167
  31 N :    0.008091
  32 C :    0.022721
  33 C :    0.044196
  34 N :   -0.055145
  35 C :   -0.239447
  36 C :    0.208137
  37 F :   -0.167382
  38 C :    0.221711
  39 F :   -0.169165
  40 C :   -0.234651
  41 S :    0.211673
  42 C :    0.178258
  43 C :   -0.093696
  44 C :    0.034475
  45 N :   -0.024097
  46 C :    0.024642
  47 C :    0.023355
  48 N :   -0.000420
  49 C :   -0.069833
  50 C :    0.029561
  51 C :   -0.043414
  52 N :   -0.041147
  53 C :    0.036271
  54 C :    0.017373
  55 N :   -0.015274
  56 H :   -0.035155
  57 H :    0.014196
  58 H :    0.015282
  59 H :    0.014782
  60 H :    0.006417
  61 H :    0.014967
  62 H :    0.005727
  63 H :    0.016033
  64 H :    0.012005
  65 H :    0.013363
  66 H :    0.014136
  67 H :   -0.035745
  68 H :    0.011217
  69 H :    0.015635
Sum of atomic charges:   -0.0000000

LOEWDIN ATOMIC CHARGES
----------------------
   0 C :   -0.009061
   1 C :   -0.010690
   2 C :   -0.013609
   3 N :   -0.022907
   4 C :    0.006033
   5 C :    0.009295
   6 N :   -0.038945
   7 C :   -0.020506
   8 C :   -0.016495
   9 C :   -0.013175
  10 N :   -0.032233
  11 C :    0.005417
  12 C :    0.010097
  13 N :   -0.042650
  14 C :   -0.207469
  15 C :    0.028831
  16 F :   -0.046201
  17 C :    0.026741
  18 F :   -0.047484
  19 C :   -0.205448
  20 S :    0.534541
  21 C :   -0.029657
  22 C :   -0.010685
  23 C :   -0.009090
  24 N :   -0.017757
  25 C :    0.007854
  26 C :    0.015113
  27 N :   -0.045063
  28 C :   -0.031875
  29 C :   -0.009970
  30 C :   -0.010262
  31 N :   -0.017631
  32 C :    0.007800
  33 C :    0.017553
  34 N :   -0.046901
  35 C :   -0.205202
  36 C :    0.025689
  37 F :   -0.045449
  38 C :    0.027864
  39 F :   -0.046222
  40 C :   -0.207970
  41 S :    0.531133
  42 C :   -0.022180
  43 C :   -0.012771
  44 C :   -0.011356
  45 N :   -0.039265
  46 C :    0.008987
  47 C :    0.006293
  48 N :   -0.023375
  49 C :   -0.007278
  50 C :   -0.013713
  51 C :   -0.015517
  52 N :   -0.043803
  53 C :    0.010027
  54 C :    0.005087
  55 N :   -0.033648
  56 H :    0.041367
  57 H :    0.026991
  58 H :    0.026592
  59 H :    0.026788
  60 H :    0.024010
  61 H :    0.027555
  62 H :    0.024010
  63 H :    0.027801
  64 H :    0.026721
  65 H :    0.026142
  66 H :    0.026851
  67 H :    0.041333
  68 H :    0.026211
  69 H :    0.026788

  Mayer bond orders larger than 0.100000
B(  0-C ,  1-C ) :   1.2521 B(  0-C ,  7-C ) :   0.1334 B(  0-C ,  9-C ) :   1.2460
B(  0-C , 56-H ) :   1.0563 B(  1-C ,  2-C ) :   1.1566 B(  1-C ,  6-N ) :   1.3670
B(  2-C ,  3-N ) :   1.4548 B(  2-C ,  7-C ) :   1.2763 B(  3-N ,  4-C ) :   1.7062
B(  4-C ,  5-C ) :   1.1676 B(  4-C , 57-H ) :   0.9742 B(  5-C ,  6-N ) :   1.7292
B(  5-C , 58-H ) :   0.9733 B(  7-C ,  8-C ) :   1.2671 B(  7-C , 14-C ) :   1.0922
B(  8-C ,  9-C ) :   1.1806 B(  8-C , 13-N ) :   1.4080 B(  9-C , 10-N ) :   1.3782
B( 10-N , 11-C ) :   1.7197 B( 11-C , 12-C ) :   1.1860 B( 11-C , 59-H ) :   0.9738
B( 12-C , 13-N ) :   1.6799 B( 12-C , 60-H ) :   0.9722 B( 14-C , 15-C ) :   1.4299
B( 14-C , 19-C ) :   0.1295 B( 14-C , 20-S ) :   1.0960 B( 15-C , 16-F ) :   1.1658
B( 15-C , 17-C ) :   1.2301 B( 17-C , 18-F ) :   1.1660 B( 17-C , 19-C ) :   1.4248
B( 19-C , 20-S ) :   1.0953 B( 19-C , 21-C ) :   1.0980 B( 21-C , 22-C ) :   1.2619
B( 21-C , 28-C ) :   0.1300 B( 21-C , 30-C ) :   1.2663 B( 22-C , 23-C ) :   1.1519
B( 22-C , 27-N ) :   1.4121 B( 23-C , 24-N ) :   1.4768 B( 23-C , 28-C ) :   1.2556
B( 24-N , 25-C ) :   1.6906 B( 25-C , 26-C ) :   1.1870 B( 25-C , 61-H ) :   0.9747
B( 26-C , 27-N ) :   1.6756 B( 26-C , 62-H ) :   0.9727 B( 28-C , 29-C ) :   1.2630
B( 28-C , 35-C ) :   1.0973 B( 29-C , 30-C ) :   1.1519 B( 29-C , 34-N ) :   1.4077
B( 30-C , 31-N ) :   1.4731 B( 31-N , 32-C ) :   1.6903 B( 32-C , 33-C ) :   1.1856
B( 32-C , 63-H ) :   0.9751 B( 33-C , 34-N ) :   1.6728 B( 33-C , 64-H ) :   0.9730
B( 35-C , 36-C ) :   1.4234 B( 35-C , 40-C ) :   0.1294 B( 35-C , 41-S ) :   1.1001
B( 36-C , 37-F ) :   1.1678 B( 36-C , 38-C ) :   1.2276 B( 38-C , 39-F ) :   1.1659
B( 38-C , 40-C ) :   1.4396 B( 40-C , 41-S ) :   1.0925 B( 40-C , 42-C ) :   1.0768
B( 42-C , 43-C ) :   1.2770 B( 42-C , 49-C ) :   0.1345 B( 42-C , 51-C ) :   1.2731
B( 43-C , 44-C ) :   1.1579 B( 43-C , 48-N ) :   1.4522 B( 44-C , 45-N ) :   1.3646
B( 44-C , 49-C ) :   1.2528 B( 45-N , 46-C ) :   1.7291 B( 46-C , 47-C ) :   1.1680
B( 46-C , 65-H ) :   0.9730 B( 47-C , 48-N ) :   1.7065 B( 47-C , 66-H ) :   0.9739
B( 49-C , 50-C ) :   1.2414 B( 49-C , 67-H ) :   1.0566 B( 50-C , 51-C ) :   1.1796
B( 50-C , 55-N ) :   1.3763 B( 51-C , 52-N ) :   1.4125 B( 52-N , 53-C ) :   1.6836
B( 53-C , 54-C ) :   1.1829 B( 53-C , 68-H ) :   0.9730 B( 54-C , 55-N ) :   1.7200
B( 54-C , 69-H ) :   0.9742

-----------------------------------------------------------------------------
         ABSORPTION SPECTRUM VIA TRANSITION ELECTRIC DIPOLE MOMENTS
-----------------------------------------------------------------------------
State   Energy  Wavelength   fosc         T2         TX        TY        TZ
        (cm-1)    (nm)                  (au**2)     (au)      (au)      (au)
-----------------------------------------------------------------------------
   0   13979.9    715.3   0.928427933  21.86357   1.79678  -4.09535  -1.36501
   1   18996.9    526.4   0.009565290   0.16576   0.29505  -0.26321  -0.09713
   2   19694.1    507.8   0.152485637   2.54899  -1.15196   1.09937   0.11559
   3   21154.0    472.7   0.011805672   0.18373   0.29720   0.28157   0.12696
   4   22059.0    453.3   0.002687878   0.04011   0.17294   0.02513   0.09785
   5   22399.5    446.4   0.009280876   0.13640   0.31158   0.14204   0.13836
   6   23880.5    418.8   0.006476402   0.08928   0.10720  -0.26293  -0.09306
   7   24008.0    416.5   0.003989018   0.05470   0.07901  -0.14732   0.16357
   8   26048.0    383.9   0.002079324   0.02628   0.06646   0.04537   0.14073
   9   26079.9    383.4   0.004485888   0.05663   0.10824   0.12754  -0.16925
  10   26383.1    379.0   0.000665333   0.00830   0.03507  -0.07906   0.02866
  11   26665.2    375.0   0.013349013   0.16481   0.35222  -0.18927   0.07017
  12   27814.4    359.5   0.000366652   0.00434  -0.06525  -0.00578   0.00703
  13   28004.7    357.1   0.029174234   0.34296   0.52778   0.16507   0.19276
  14   28659.9    348.9   0.002461001   0.02827  -0.14686   0.05643  -0.05930
  15   28776.1    347.5   0.000734187   0.00840  -0.03465   0.05650  -0.06330
  16   28897.0    346.1   0.000537409   0.00612  -0.06035  -0.01149  -0.04846
  17   29836.3    335.2   0.062600186   0.69073   0.56385  -0.58956  -0.15877
  18   30078.6    332.5   0.001162350   0.01272  -0.06848   0.08952  -0.00428
  19   30973.2    322.9   0.029852315   0.31730   0.26367   0.18534   0.46198
  20   31049.6    322.1   0.037818133   0.40098  -0.47082  -0.42115  -0.04407
  21   33418.5    299.2   0.165758183   1.63292   0.09093  -1.13545  -0.57914
  22   33551.1    298.1   0.026631852   0.26132   0.01322  -0.37943  -0.34231
  23   33611.0    297.5   0.064706739   0.63379   0.02436   0.79169   0.08014
  24   34050.7    293.7   0.040910173   0.39553  -0.32888   0.53532   0.02836
  25   34101.4    293.2   0.349095496   3.37014   0.76732  -1.58506  -0.51859
  26   34338.5    291.2   0.026684926   0.25584  -0.26048   0.43269  -0.02765
  27   34705.8    288.1   0.174056923   1.65107   0.54630  -1.10138  -0.37360
  28   35148.5    284.5   0.032285052   0.30239  -0.31763   0.41144  -0.17948
  29   35285.9    283.4   0.227013725   2.11800   0.91469  -1.00043   0.52961
  30   35583.2    281.0   0.215220154   1.99120  -1.07304   0.60998  -0.68388
  31   35795.6    279.4   0.030711615   0.28245  -0.13644   0.19256  -0.47619
  32   36020.9    277.6   0.106438392   0.97279  -0.48745   0.21080  -0.83111
  33   36604.5    273.2   0.446676141   4.01730  -0.83686  -0.28177  -1.79933
  34   36803.9    271.7   0.546068340   4.88459   1.59731   1.37402   0.66728
  35   37007.0    270.2   0.041858502   0.37237   0.51279   0.26780   0.19417
  36   37156.6    269.1   0.059142938   0.52401   0.47478   0.52735   0.14318
  37   37262.0    268.4   0.009564064   0.08450   0.16130   0.04792   0.23704
  38   37583.6    266.1   0.006652204   0.05827   0.11577   0.20547  -0.05148
  39   38264.7    261.3   0.011595841   0.09977  -0.13570   0.23638  -0.15961
  40   38559.0    259.3   0.002243265   0.01915  -0.11761   0.03198   0.06556
  41   38792.3    257.8   0.008419082   0.07145  -0.17983   0.16787  -0.10456
  42   39024.7    256.2   0.002887172   0.02436  -0.14177   0.00702  -0.06487
  43   39625.5    252.4   0.000817447   0.00679  -0.04181  -0.05700  -0.04236
  44   39722.7    251.7   0.022117038   0.18330  -0.31950  -0.25669  -0.12382
  45   39842.5    251.0   0.026097806   0.21564  -0.36566  -0.21327  -0.19092
  46   39864.3    250.9   0.025060039   0.20695   0.14603   0.38235   0.19858
  47   39979.0    250.1   0.012415167   0.10223   0.04180   0.04206  -0.31419
  48   40079.4    249.5   0.013202261   0.10844  -0.21539   0.04637  -0.24474
  49   40160.8    249.0   0.052169184   0.42765   0.38876   0.20604   0.48380
  50   40322.0    248.0   0.008904656   0.07270   0.05674  -0.18617  -0.18661

FINAL SINGLE POINT ENERGY     -3305.876780659180

DIPOLE MOMENT
-------------
                                X             Y             Z
Electronic contribution:     -0.42911      -0.65993       1.81516
Nuclear contribution   :      0.45948       0.61992      -1.92303
                        -----------------------------------------
Total Dipole Moment    :      0.03037      -0.04001      -0.10787
                        -----------------------------------------
Magnitude (a.u.)       :      0.11899
Magnitude (Debye)      :      0.30245

Rotational constants in cm-1:     0.004308     0.000584     0.000530
Rotational constants in MHz :   129.138270    17.496634    15.896765

                             ****ORCA TERMINATED NORMALLY****
TOTAL RUN TIME: 0 days 0 hours 6 minutes 10 seconds 10 msec
