                         Program Version 4.2.0 -  RELEASE  -
|  1> # ORCA input file
|  2> # SCF done       -143.578500937609          0.000952809876
|  3> ! CAM-B3LYP def2-SVP def2/J RIJCOSX Grid4 TightSCF
|  4> %maxcore 5000
|  5> %tddft
|  6>     Mode sTDDFT
|  7>     Ethresh 5.0
|  8>     maxcore 5000
|  9> end
| 10>
| 11> %pal
| 12>   nprocs 6
| 13>   end
| 14> * xyz 0 1
| 15>    C       -4.31476         0.84405         1.96600
| 16>    C       -3.12763         0.13600         1.81123
| 17>    C       -1.93454         0.75694         1.29664
| 18>    N       -0.82173         0.01035         1.16961
| 19>    C       -0.85331        -1.25444         1.51900
| 20>    C       -2.02111        -1.85003         2.02335
| 21>    N       -3.12490        -1.17371         2.16353
| 22>    C       -1.94408         2.13819         0.93194
| 23>    C       -3.18053         2.82744         1.10616
| 24>    C       -4.35427         2.18783         1.61641
| 25>    N       -5.50235         2.89345         1.75910
| 26>    C       -5.49412         4.15243         1.41978
| 27>    C       -4.34216         4.78625         0.91787
| 28>    N       -3.22419         4.12164         0.77297
| 29>    C       -0.85142         2.87593         0.42128
| 30>    S       -1.03204         4.58313         0.03292
| 31>    C        0.63488         4.76800        -0.49717
| 32>    C        1.30540         3.54512        -0.38013
| 33>    C        0.46613         2.51268         0.12996
| 34>    N        1.18797         1.37641         0.20740
| 35>    C        2.46370         1.63681        -0.23410
| 36>    C        3.45430         0.64959        -0.27624
| 37>    N        4.27938        -0.14881        -0.31292
| 38>    C        2.57232         2.96507        -0.60456
| 39>    C        1.10082         6.00835        -0.95140
| 40>    C        2.37237         6.31776        -1.39770
| 41>    C        2.38922         7.67540        -1.75833
| 42>    N        3.22700         8.61641        -2.25120
| 43>    C        2.53866         9.80175        -2.36963
| 44>    C        1.22020         9.59248        -1.93056
| 45>    C        1.12928         8.26585        -1.55033
| 46>    C        0.20632         7.23185        -1.01180
| 47>    C        3.18053        10.96289        -2.88221
| 48>    C        2.59543        12.16698        -3.04570
| 49>    C        3.22204        13.34948        -3.58795
| 50>    C        2.47983        14.52584        -3.71293
| 51>    C        3.05415        15.67503        -4.25677
| 52>    C        4.39235        15.56879        -4.66694
| 53>    N        5.11252        14.47170        -4.54904
| 54>    C        4.55377        13.39803        -4.02746
| 55>    C        2.35729        16.92603        -4.42620
| 56>    C        1.16984        17.25317        -3.87436
| 57>    C        0.50302        18.48957        -4.06433
| 58>    S        1.10714        19.70362        -5.14331
| 59>    C       -0.20625        20.78346        -4.82161
| 60>    C       -1.08871        20.22150        -3.89676
| 61>    C       -0.68959        18.91842        -3.46649
| 62>    C       -1.48002        18.23485        -2.52659
| 63>    C       -2.62489        18.80225        -2.02218
| 64>    C       -3.42384        18.08400        -1.03076
| 65>    C       -3.57741        16.76683        -0.99462
| 66>    C       -3.02535        20.10543        -2.45441
| 67>    C       -4.28405        20.71712        -1.91763
| 68>    C       -2.27104        20.78305        -3.36958
| 69>    C       -0.30354        22.05830        -5.46106
| 70>    C        0.57034        22.54348        -6.34451
| 71>    H       -5.18919         0.35005         2.35323
| 72>    H        0.06570        -1.81380         1.40041
| 73>    H       -2.04276        -2.89211         2.31257
| 74>    H       -6.42245         4.69451         1.54175
| 75>    H       -4.33139         5.82943         0.63661
| 76>    H        0.76418         0.51657         0.55582
| 77>    H        3.45944         3.42954        -0.98461
| 78>    H        3.20077         5.63863        -1.45851
| 79>    H        4.19410         8.49280        -2.50177
| 80>    H        0.44884        10.33582        -1.90628
| 81>    H       -0.65435         7.05430        -1.65830
| 82>    H       -0.17794         7.48205        -0.02177
| 83>    H        4.21834        10.82983        -3.15854
| 84>    H        1.55824        12.28297        -2.76065
| 85>    H        1.44545        14.52889        -3.39926
| 86>    H        4.90065        16.41843        -5.10423
| 87>    H        5.20088        12.53447        -3.96518
| 88>    H        2.86279        17.66221        -5.03925
| 89>    H        0.66551        16.55301        -3.22293
| 90>    H       -1.16927        17.26281        -2.17603
| 91>    H       -3.91834        18.69412        -0.28675
| 92>    H       -3.13541        16.11779        -1.73259
| 93>    H       -4.16712        16.28726        -0.23199
| 94>    H       -5.12562        20.03671        -2.04030
| 95>    H       -4.50813        21.64556        -2.43719
| 96>    H       -4.18090        20.93894        -0.85499
| 97>    H       -2.57958        21.76491        -3.69703
| 98>    H       -1.16767        22.64719        -5.18323
| 99>    H        1.43999        21.98174        -6.64265
|100>    H        0.44013        23.51215        -6.79251
|101> *
|102>
|103>                          ****END OF INPUT****

CARTESIAN COORDINATES (ANGSTROEM)
---------------------------------
  C     -4.314760    0.844050    1.966000
  C     -3.127630    0.136000    1.811230
  C     -1.934540    0.756940    1.296640
  N     -0.821730    0.010350    1.169610
  C     -0.853310   -1.254440    1.519000
  C     -2.021110   -1.850030    2.023350
  N     -3.124900   -1.173710    2.163530
  C     -1.944080    2.138190    0.931940
  C     -3.180530    2.827440    1.106160
  C     -4.354270    2.187830    1.616410
  N     -5.502350    2.893450    1.759100
  C     -5.494120    4.152430    1.419780
  C     -4.342160    4.786250    0.917870
  N     -3.224190    4.121640    0.772970
  C     -0.851420    2.875930    0.421280
  S     -1.032040    4.583130    0.032920
  C      0.634880    4.768000   -0.497170
  C      1.305400    3.545120   -0.380130
  C      0.466130    2.512680    0.129960
  N      1.187970    1.376410    0.207400
  C      2.463700    1.636810   -0.234100
  C      3.454300    0.649590   -0.276240
  N      4.279380   -0.148810   -0.312920
  C      2.572320    2.965070   -0.604560
  C      1.100820    6.008350   -0.951400
  C      2.372370    6.317760   -1.397700
  C      2.389220    7.675400   -1.758330
  N      3.227000    8.616410   -2.251200
  C      2.538660    9.801750   -2.369630
  C      1.220200    9.592480   -1.930560
  C      1.129280    8.265850   -1.550330
  C      0.206320    7.231850   -1.011800
  C      3.180530   10.962890   -2.882210
  C      2.595430   12.166980   -3.045700
  C      3.222040   13.349480   -3.587950
  C      2.479830   14.525840   -3.712930
  C      3.054150   15.675030   -4.256770
  C      4.392350   15.568790   -4.666940
  N      5.112520   14.471700   -4.549040
  C      4.553770   13.398030   -4.027460
  C      2.357290   16.926030   -4.426200
  C      1.169840   17.253170   -3.874360
  C      0.503020   18.489570   -4.064330
  S      1.107140   19.703620   -5.143310
  C     -0.206250   20.783460   -4.821610
  C     -1.088710   20.221500   -3.896760
  C     -0.689590   18.918420   -3.466490
  C     -1.480020   18.234850   -2.526590
  C     -2.624890   18.802250   -2.022180
  C     -3.423840   18.084000   -1.030760
  C     -3.577410   16.766830   -0.994620
  C     -3.025350   20.105430   -2.454410
  C     -4.284050   20.717120   -1.917630
  C     -2.271040   20.783050   -3.369580
  C     -0.303540   22.058300   -5.461060
  C      0.570340   22.543480   -6.344510
  H     -5.189190    0.350050    2.353230
  H      0.065700   -1.813800    1.400410
  H     -2.042760   -2.892110    2.312570
  H     -6.422450    4.694510    1.541750
  H     -4.331390    5.829430    0.636610
  H      0.764180    0.516570    0.555820
  H      3.459440    3.429540   -0.984610
  H      3.200770    5.638630   -1.458510
  H      4.194100    8.492800   -2.501770
  H      0.448840   10.335820   -1.906280
  H     -0.654350    7.054300   -1.658300
  H     -0.177940    7.482050   -0.021770
  H      4.218340   10.829830   -3.158540
  H      1.558240   12.282970   -2.760650
  H      1.445450   14.528890   -3.399260
  H      4.900650   16.418430   -5.104230
  H      5.200880   12.534470   -3.965180
  H      2.862790   17.662210   -5.039250
  H      0.665510   16.553010   -3.222930
  H     -1.169270   17.262810   -2.176030
  H     -3.918340   18.694120   -0.286750
  H     -3.135410   16.117790   -1.732590
  H     -4.167120   16.287260   -0.231990
  H     -5.125620   20.036710   -2.040300
  H     -4.508130   21.645560   -2.437190
  H     -4.180900   20.938940   -0.854990
  H     -2.579580   21.764910   -3.697030
  H     -1.167670   22.647190   -5.183230
  H      1.439990   21.981740   -6.642650
  H      0.440130   23.512150   -6.792510

 Total Charge           Charge          ....    0
 Multiplicity           Mult            ....    1
 Number of Electrons    NEL             ....  394
 Basis Dimension        Dim             ....  942

ORBITAL ENERGIES
----------------

  NO   OCC          E(Eh)            E(eV)
   0   2.0000     -88.956682     -2420.6344
   1   2.0000     -88.947805     -2420.3928
   2   2.0000     -14.468745      -393.7146
   3   2.0000     -14.446247      -393.1024
   4   2.0000     -14.437614      -392.8674
   5   2.0000     -14.429939      -392.6586
   6   2.0000     -14.419992      -392.3879
   7   2.0000     -14.419112      -392.3640
   8   2.0000     -14.401564      -391.8865
   9   2.0000     -14.394921      -391.7057
  10   2.0000     -10.327057      -281.0135
  11   2.0000     -10.323910      -280.9279
  12   2.0000     -10.322525      -280.8902
  13   2.0000     -10.320518      -280.8356
  14   2.0000     -10.319316      -280.8029
  15   2.0000     -10.318710      -280.7864
  16   2.0000     -10.316194      -280.7179
  17   2.0000     -10.314886      -280.6823
  18   2.0000     -10.313958      -280.6571
  19   2.0000     -10.308380      -280.5053
  20   2.0000     -10.306888      -280.4647
  21   2.0000     -10.304853      -280.4093
  22   2.0000     -10.302106      -280.3346
  23   2.0000     -10.297593      -280.2117
  24   2.0000     -10.297544      -280.2104
  25   2.0000     -10.296023      -280.1690
  26   2.0000     -10.295700      -280.1602
  27   2.0000     -10.295586      -280.1571
  28   2.0000     -10.294905      -280.1386
  29   2.0000     -10.293281      -280.0944
  30   2.0000     -10.287376      -279.9337
  31   2.0000     -10.283687      -279.8334
  32   2.0000     -10.282656      -279.8053
  33   2.0000     -10.282415      -279.7987
  34   2.0000     -10.282276      -279.7950
  35   2.0000     -10.280863      -279.7565
  36   2.0000     -10.280478      -279.7460
  37   2.0000     -10.278796      -279.7003
  38   2.0000     -10.278562      -279.6939
  39   2.0000     -10.276097      -279.6268
  40   2.0000     -10.276007      -279.6244
  41   2.0000     -10.275575      -279.6126
  42   2.0000     -10.275122      -279.6003
  43   2.0000     -10.274560      -279.5850
  44   2.0000     -10.274413      -279.5810
  45   2.0000     -10.274055      -279.5713
  46   2.0000     -10.272008      -279.5155
  47   2.0000     -10.270514      -279.4749
  48   2.0000     -10.267590      -279.3953
  49   2.0000     -10.266335      -279.3612
  50   2.0000     -10.264023      -279.2983
  51   2.0000     -10.263852      -279.2936
  52   2.0000     -10.263382      -279.2808
  53   2.0000     -10.263048      -279.2717
  54   2.0000     -10.262934      -279.2686
  55   2.0000     -10.261641      -279.2335
  56   2.0000      -8.051840      -219.1017
  57   2.0000      -8.039210      -218.7580
  58   2.0000      -6.020749      -163.8329
  59   2.0000      -6.016785      -163.7251
  60   2.0000      -6.014660      -163.6672
  61   2.0000      -6.009259      -163.5202
  62   2.0000      -6.004135      -163.3808
  63   2.0000      -6.001193      -163.3008
  64   2.0000      -1.087184       -29.5838
  65   2.0000      -1.083286       -29.4777
  66   2.0000      -1.080563       -29.4036
  67   2.0000      -1.077063       -29.3084
  68   2.0000      -1.029043       -28.0017
  69   2.0000      -1.008329       -27.4380
  70   2.0000      -1.002679       -27.2843
  71   2.0000      -0.990568       -26.9547
  72   2.0000      -0.983284       -26.7565
  73   2.0000      -0.968839       -26.3635
  74   2.0000      -0.950973       -25.8773
  75   2.0000      -0.939472       -25.5643
  76   2.0000      -0.934811       -25.4375
  77   2.0000      -0.918583       -24.9959
  78   2.0000      -0.909471       -24.7480
  79   2.0000      -0.887053       -24.1379
  80   2.0000      -0.886088       -24.1117
  81   2.0000      -0.873220       -23.7615
  82   2.0000      -0.871228       -23.7073
  83   2.0000      -0.864979       -23.5373
  84   2.0000      -0.858379       -23.3577
  85   2.0000      -0.853478       -23.2243
  86   2.0000      -0.847633       -23.0653
  87   2.0000      -0.837675       -22.7943
  88   2.0000      -0.830533       -22.5999
  89   2.0000      -0.814241       -22.1566
  90   2.0000      -0.809424       -22.0255
  91   2.0000      -0.795215       -21.6389
  92   2.0000      -0.791030       -21.5250
  93   2.0000      -0.782300       -21.2875
  94   2.0000      -0.768603       -20.9148
  95   2.0000      -0.761260       -20.7149
  96   2.0000      -0.758213       -20.6320
  97   2.0000      -0.737483       -20.0679
  98   2.0000      -0.732874       -19.9425
  99   2.0000      -0.724998       -19.7282
 100   2.0000      -0.722228       -19.6528
 101   2.0000      -0.710707       -19.3393
 102   2.0000      -0.704081       -19.1590
 103   2.0000      -0.698041       -18.9947
 104   2.0000      -0.686987       -18.6939
 105   2.0000      -0.684089       -18.6150
 106   2.0000      -0.680169       -18.5083
 107   2.0000      -0.674606       -18.3570
 108   2.0000      -0.662297       -18.0220
 109   2.0000      -0.650646       -17.7050
 110   2.0000      -0.647060       -17.6074
 111   2.0000      -0.640539       -17.4300
 112   2.0000      -0.635286       -17.2870
 113   2.0000      -0.629405       -17.1270
 114   2.0000      -0.626304       -17.0426
 115   2.0000      -0.616588       -16.7782
 116   2.0000      -0.613338       -16.6898
 117   2.0000      -0.609729       -16.5916
 118   2.0000      -0.596131       -16.2215
 119   2.0000      -0.594170       -16.1682
 120   2.0000      -0.591148       -16.0859
 121   2.0000      -0.582913       -15.8619
 122   2.0000      -0.576539       -15.6884
 123   2.0000      -0.566513       -15.4156
 124   2.0000      -0.563799       -15.3417
 125   2.0000      -0.559785       -15.2325
 126   2.0000      -0.556107       -15.1324
 127   2.0000      -0.552552       -15.0357
 128   2.0000      -0.545599       -14.8465
 129   2.0000      -0.545145       -14.8342
 130   2.0000      -0.541770       -14.7423
 131   2.0000      -0.533427       -14.5153
 132   2.0000      -0.531058       -14.4508
 133   2.0000      -0.527254       -14.3473
 134   2.0000      -0.524618       -14.2756
 135   2.0000      -0.521738       -14.1972
 136   2.0000      -0.519569       -14.1382
 137   2.0000      -0.518601       -14.1119
 138   2.0000      -0.516547       -14.0560
 139   2.0000      -0.514365       -13.9966
 140   2.0000      -0.509788       -13.8720
 141   2.0000      -0.505696       -13.7607
 142   2.0000      -0.503397       -13.6981
 143   2.0000      -0.499829       -13.6010
 144   2.0000      -0.498292       -13.5592
 145   2.0000      -0.490684       -13.3522
 146   2.0000      -0.488844       -13.3021
 147   2.0000      -0.488013       -13.2795
 148   2.0000      -0.485163       -13.2020
 149   2.0000      -0.484208       -13.1760
 150   2.0000      -0.481694       -13.1076
 151   2.0000      -0.478306       -13.0154
 152   2.0000      -0.477416       -12.9911
 153   2.0000      -0.469026       -12.7628
 154   2.0000      -0.467388       -12.7183
 155   2.0000      -0.459117       -12.4932
 156   2.0000      -0.458482       -12.4759
 157   2.0000      -0.453464       -12.3394
 158   2.0000      -0.450690       -12.2639
 159   2.0000      -0.449375       -12.2281
 160   2.0000      -0.440431       -11.9847
 161   2.0000      -0.437141       -11.8952
 162   2.0000      -0.434384       -11.8202
 163   2.0000      -0.432938       -11.7808
 164   2.0000      -0.430086       -11.7032
 165   2.0000      -0.428426       -11.6581
 166   2.0000      -0.426451       -11.6043
 167   2.0000      -0.419367       -11.4115
 168   2.0000      -0.418908       -11.3991
 169   2.0000      -0.417936       -11.3726
 170   2.0000      -0.416550       -11.3349
 171   2.0000      -0.414173       -11.2702
 172   2.0000      -0.410970       -11.1831
 173   2.0000      -0.409652       -11.1472
 174   2.0000      -0.409535       -11.1440
 175   2.0000      -0.403578       -10.9819
 176   2.0000      -0.398201       -10.8356
 177   2.0000      -0.391319       -10.6483
 178   2.0000      -0.375358       -10.2140
 179   2.0000      -0.372579       -10.1384
 180   2.0000      -0.360355        -9.8058
 181   2.0000      -0.358015        -9.7421
 182   2.0000      -0.354454        -9.6452
 183   2.0000      -0.330310        -8.9882
 184   2.0000      -0.328673        -8.9436
 185   2.0000      -0.327725        -8.9178
 186   2.0000      -0.325754        -8.8642
 187   2.0000      -0.321444        -8.7469
 188   2.0000      -0.318467        -8.6659
 189   2.0000      -0.310923        -8.4607
 190   2.0000      -0.308073        -8.3831
 191   2.0000      -0.301564        -8.2060
 192   2.0000      -0.293014        -7.9733
 193   2.0000      -0.284717        -7.7476
 194   2.0000      -0.256567        -6.9815
 195   2.0000      -0.227314        -6.1855
 196   2.0000      -0.205507        -5.5921
 197   0.0000      -0.089084        -2.4241
 198   0.0000      -0.057037        -1.5521
 199   0.0000      -0.041028        -1.1164
 200   0.0000      -0.011530        -0.3137
 201   0.0000      -0.006597        -0.1795

MULLIKEN ATOMIC CHARGES
-----------------------
   0 C :   -0.111800
   1 C :    0.027447
   2 C :   -0.049751
   3 N :   -0.108522
   4 C :    0.037612
   5 C :    0.033716
   6 N :   -0.019859
   7 C :    0.180994
   8 C :   -0.051429
   9 C :    0.048443
  10 N :   -0.018260
  11 C :    0.019907
  12 C :    0.047732
  13 N :   -0.089381
  14 C :   -0.263119
  15 S :    0.136525
  16 C :   -0.054908
  17 C :    0.100786
  18 C :    0.092870
  19 N :    0.015552
  20 C :   -0.099928
  21 C :   -0.151662
  22 N :    0.153312
  23 C :   -0.064849
  24 C :   -0.133894
  25 C :   -0.093447
  26 C :    0.081379
  27 N :   -0.008006
  28 C :    0.093251
  29 C :   -0.116561
  30 C :   -0.099413
  31 C :    0.290814
  32 C :    0.032103
  33 C :   -0.022445
  34 C :    0.095703
  35 C :   -0.042123
  36 C :    0.089824
  37 C :   -0.030717
  38 N :   -0.049121
  39 C :   -0.028969
  40 C :   -0.013885
  41 C :    0.012484
  42 C :   -0.100240
  43 S :    0.130493
  44 C :   -0.122292
  45 C :    0.135345
  46 C :    0.126452
  47 C :   -0.106350
  48 C :    0.082936
  49 C :   -0.035975
  50 C :   -0.014226
  51 C :   -0.076855
  52 C :    0.098699
  53 C :   -0.093232
  54 C :   -0.001115
  55 C :   -0.027157
  56 H :   -0.043966
  57 H :    0.015946
  58 H :    0.016270
  59 H :    0.014216
  60 H :    0.005226
  61 H :    0.128389
  62 H :   -0.026586
  63 H :   -0.042095
  64 H :    0.123303
  65 H :   -0.033599
  66 H :    0.036224
  67 H :    0.034955
  68 H :   -0.032969
  69 H :   -0.027191
  70 H :   -0.027031
  71 H :   -0.010164
  72 H :   -0.012141
  73 H :   -0.013267
  74 H :   -0.017835
  75 H :   -0.041290
  76 H :   -0.002766
  77 H :    0.016293
  78 H :    0.021046
  79 H :    0.030545
  80 H :    0.007522
  81 H :    0.029713
  82 H :   -0.045818
  83 H :   -0.010003
  84 H :    0.019402
  85 H :    0.022783
Sum of atomic charges:   -0.0000000

LOEWDIN ATOMIC CHARGES
----------------------
   0 C :   -0.046230
   1 C :   -0.002532
   2 C :   -0.017601
   3 N :   -0.032690
   4 C :   -0.003868
   5 C :    0.008557
   6 N :   -0.036235
   7 C :   -0.019753
   8 C :   -0.025037
   9 C :   -0.005490
  10 N :   -0.039604
  11 C :    0.008741
  12 C :    0.002789
  13 N :   -0.049712
  14 C :   -0.213676
  15 S :    0.475582
  16 C :   -0.152803
  17 C :   -0.083317
  18 C :    0.011712
  19 N :    0.087535
  20 C :   -0.043836
  21 C :   -0.044579
  22 N :   -0.057890
  23 C :   -0.038751
  24 C :   -0.047291
  25 C :   -0.013658
  26 C :   -0.022809
  27 N :    0.090774
  28 C :   -0.006446
  29 C :   -0.063844
  30 C :   -0.040605
  31 C :   -0.017511
  32 C :   -0.029625
  33 C :   -0.025258
  34 C :   -0.042729
  35 C :    0.006388
  36 C :   -0.043368
  37 C :    0.011631
  38 N :   -0.063306
  39 C :    0.015338
  40 C :   -0.032657
  41 C :   -0.031631
  42 C :   -0.177427
  43 S :    0.474568
  44 C :   -0.179821
  45 C :   -0.042783
  46 C :   -0.045013
  47 C :   -0.007857
  48 C :   -0.028567
  49 C :   -0.019446
  50 C :   -0.041702
  51 C :   -0.018608
  52 C :   -0.045256
  53 C :   -0.027274
  54 C :   -0.039075
  55 C :   -0.053329
  56 H :    0.038069
  57 H :    0.025301
  58 H :    0.028505
  59 H :    0.026696
  60 H :    0.024427
  61 H :    0.063259
  62 H :    0.027094
  63 H :    0.025601
  64 H :    0.091508
  65 H :    0.023407
  66 H :    0.049732
  67 H :    0.049678
  68 H :    0.025106
  69 H :    0.025913
  70 H :    0.024291
  71 H :    0.018058
  72 H :    0.014621
  73 H :    0.021830
  74 H :    0.029848
  75 H :    0.023676
  76 H :    0.028506
  77 H :    0.020126
  78 H :    0.024257
  79 H :    0.034890
  80 H :    0.029538
  81 H :    0.034199
  82 H :    0.022965
  83 H :    0.033370
  84 H :    0.016498
  85 H :    0.025913

  Mayer bond orders larger than 0.100000
B(  0-C ,  1-C ) :   1.2462 B(  0-C ,  7-C ) :   0.1090 B(  0-C ,  9-C ) :   1.2291
B(  0-C , 56-H ) :   1.0598 B(  1-C ,  2-C ) :   1.1590 B(  1-C ,  6-N ) :   1.3827
B(  2-C ,  3-N ) :   1.4386 B(  2-C ,  7-C ) :   1.1923 B(  3-N ,  4-C ) :   1.5771
B(  3-N , 61-H ) :   0.1293 B(  4-C ,  5-C ) :   1.2255 B(  4-C , 57-H ) :   0.9672
B(  5-C ,  6-N ) :   1.7012 B(  5-C , 58-H ) :   0.9761 B(  7-C ,  8-C ) :   1.1986
B(  7-C , 14-C ) :   1.2670 B(  8-C ,  9-C ) :   1.1814 B(  8-C , 13-N ) :   1.4097
B(  9-C , 10-N ) :   1.3880 B( 10-N , 11-C ) :   1.6937 B( 11-C , 12-C ) :   1.2183
B( 11-C , 59-H ) :   0.9754 B( 12-C , 13-N ) :   1.6069 B( 12-C , 60-H ) :   0.9716
B( 14-C , 15-S ) :   1.0706 B( 14-C , 18-C ) :   1.3106 B( 15-S , 16-C ) :   1.0687
B( 16-C , 17-C ) :   1.2790 B( 16-C , 24-C ) :   1.2468 B( 17-C , 18-C ) :   1.2431
B( 17-C , 23-C ) :   1.1819 B( 18-C , 19-N ) :   1.2844 B( 19-N , 20-C ) :   1.2058
B( 19-N , 61-H ) :   0.8608 B( 20-C , 21-C ) :   1.0585 B( 20-C , 23-C ) :   1.5638
B( 21-C , 22-N ) :   3.0542 B( 23-C , 62-H ) :   1.0105 B( 24-C , 25-C ) :   1.5221
B( 24-C , 31-C ) :   1.0382 B( 25-C , 26-C ) :   1.1166 B( 25-C , 63-H ) :   1.0247
B( 26-C , 27-N ) :   1.1987 B( 26-C , 30-C ) :   1.4184 B( 27-N , 28-C ) :   1.1911
B( 27-N , 64-H ) :   0.9319 B( 28-C , 29-C ) :   1.3788 B( 28-C , 32-C ) :   1.0940
B( 29-C , 30-C ) :   1.3644 B( 29-C , 65-H ) :   1.0188 B( 30-C , 31-C ) :   1.0120
B( 31-C , 66-H ) :   0.8711 B( 31-C , 67-H ) :   0.8699 B( 32-C , 33-C ) :   1.7013
B( 32-C , 68-H ) :   0.9537 B( 33-C , 34-C ) :   1.0653 B( 33-C , 69-H ) :   0.9863
B( 34-C , 35-C ) :   1.3676 B( 34-C , 39-C ) :   1.3041 B( 35-C , 36-C ) :   1.3517
B( 35-C , 70-H ) :   0.9904 B( 36-C , 37-C ) :   1.3125 B( 36-C , 40-C ) :   1.0653
B( 37-C , 38-N ) :   1.5561 B( 37-C , 71-H ) :   0.9879 B( 38-N , 39-C ) :   1.5802
B( 39-C , 72-H ) :   0.9834 B( 40-C , 41-C ) :   1.6764 B( 40-C , 73-H ) :   0.9779
B( 41-C , 42-C ) :   1.1767 B( 41-C , 74-H ) :   0.9626 B( 42-C , 43-S ) :   1.1397
B( 42-C , 44-C ) :   0.1064 B( 42-C , 46-C ) :   1.3268 B( 43-S , 44-C ) :   1.1352
B( 44-C , 45-C ) :   1.3597 B( 44-C , 54-C ) :   1.1434 B( 45-C , 46-C ) :   1.1996
B( 45-C , 53-C ) :   1.1716 B( 46-C , 47-C ) :   1.1855 B( 47-C , 48-C ) :   1.5342
B( 47-C , 75-H ) :   0.9905 B( 48-C , 49-C ) :   1.0285 B( 48-C , 51-C ) :   1.1875
B( 49-C , 50-C ) :   1.9789 B( 49-C , 76-H ) :   0.9500 B( 50-C , 77-H ) :   0.9571
B( 50-C , 78-H ) :   0.9496 B( 51-C , 52-C ) :   1.0865 B( 51-C , 53-C ) :   1.5794
B( 52-C , 79-H ) :   0.9438 B( 52-C , 80-H ) :   0.9538 B( 52-C , 81-H ) :   0.9410
B( 53-C , 82-H ) :   0.9883 B( 54-C , 55-C ) :   1.9048 B( 54-C , 83-H ) :   0.9589
B( 55-C , 84-H ) :   0.9566 B( 55-C , 85-H ) :   0.9485

-----------------------------------------------------------------------------
         ABSORPTION SPECTRUM VIA TRANSITION ELECTRIC DIPOLE MOMENTS
-----------------------------------------------------------------------------
State   Energy  Wavelength   fosc         T2         TX        TY        TZ
        (cm-1)    (nm)                  (au**2)     (au)      (au)      (au)
-----------------------------------------------------------------------------
   0   10806.0    925.4   0.848508789  25.85029  -2.71772  -3.89483   1.81512
   1   20359.5    491.2   1.193165405  19.29340  -0.54398   4.24364  -0.99451
   2   21664.0    461.6   0.332299750   5.04972  -1.73905   1.42173   0.06400
   3   21932.1    456.0   0.019883876   0.29847   0.53350  -0.03716  -0.11162
   4   22720.7    440.1   0.011044602   0.16003   0.06618  -0.38728   0.07528
   5   23247.6    430.2   0.002187924   0.03098  -0.10386   0.13531  -0.04347
   6   24451.4    409.0   0.031002412   0.41741   0.58263  -0.22437  -0.16616
   7   24582.5    406.8   0.006151895   0.08239  -0.27644   0.04306  -0.06412
   8   25988.4    384.8   0.141440010   1.79171   0.21086  -1.29183   0.28003
   9   26769.7    373.6   0.004052150   0.04983   0.06221  -0.21044   0.04099
  10   28343.0    352.8   0.215357282   2.50144   0.50353   1.41287  -0.50169
  11   28410.3    352.0   0.004697573   0.05443   0.05121   0.02046   0.22670
  12   30321.0    329.8   0.013301751   0.14442  -0.06281  -0.35083   0.13191
  13   30632.8    326.4   0.059047735   0.63459  -0.26229   0.74613  -0.09533
  14   31687.6    315.6   0.011377435   0.11820   0.06723   0.28981  -0.17232
  15   31954.0    313.0   0.105299051   1.08486   0.78623  -0.66442  -0.15890
  16   32179.9    310.8   0.007010972   0.07172  -0.02764  -0.23905   0.11754
  17   33388.4    299.5   0.052133863   0.51404  -0.59877   0.37054   0.13498
  18   33906.1    294.9   0.112582349   1.09312  -0.33243  -0.92763   0.34944
  19   34296.6    291.6   0.296155067   2.84279  -0.88056   1.43065  -0.14371
  20   34915.1    286.4   0.006724819   0.06341  -0.08092  -0.04954  -0.23325
  21   35231.7    283.8   0.014491206   0.13541  -0.29347   0.22091   0.02196
  22   35353.3    282.9   0.033176373   0.30894  -0.46098   0.28334   0.12712
  23   36333.0    275.2   0.001293432   0.01172  -0.01656  -0.08744   0.06164
  24   36498.2    274.0   0.062280146   0.56176   0.68230  -0.30860  -0.03146
  25   36672.2    272.7   0.006601889   0.05927   0.23671   0.01941   0.05346
  26   36737.5    272.2   0.112468822   1.00786   0.92408  -0.33019  -0.21190
  27   36963.4    270.5   0.591799969   5.27083   1.10002   1.39263  -1.45650
  28   37227.3    268.6   0.571960063   5.05801   1.94247  -0.52541  -1.00437
  29   37415.5    267.3   0.029470382   0.25930   0.26192   0.31559  -0.30184
  30   38627.8    258.9   0.235239925   2.00487   1.33824  -0.08847  -0.45404
  31   38730.8    258.2   0.004222422   0.03589  -0.14275  -0.03468  -0.11963
  32   38891.9    257.1   0.011312704   0.09576   0.30549   0.04629  -0.01707
  33   39320.6    254.3   0.024853696   0.20809   0.42431   0.01820  -0.16650
  34   39690.3    252.0   0.004722550   0.03917   0.10137   0.14936  -0.08116
  35   39884.2    250.7   0.004838841   0.03994   0.08407   0.12740  -0.12900
  36   40285.4    248.2   0.027568736   0.22529   0.27440  -0.35616  -0.15214

FINAL SINGLE POINT ENERGY     -3002.200091023311

DIPOLE MOMENT
-------------
                                X             Y             Z
Electronic contribution:      9.47488     -75.68124      12.73107
Nuclear contribution   :    -10.76861      77.53682     -12.66528
                        -----------------------------------------
Total Dipole Moment    :     -1.29373       1.85558       0.06579
                        -----------------------------------------
Magnitude (a.u.)       :      2.26302
Magnitude (Debye)      :      5.75214

Rotational constants in cm-1:     0.002579     0.000347     0.000307
Rotational constants in MHz :    77.319456    10.392185     9.202652

                             ****ORCA TERMINATED NORMALLY****
TOTAL RUN TIME: 0 days 0 hours 5 minutes 50 seconds 466 msec
