                         Program Version 4.2.0 -  RELEASE  -
|  1> # ORCA input file
|  2> # SCF done       -143.375522545762          0.000319451768
|  3> ! CAM-B3LYP def2-SVP def2/J RIJCOSX Grid4 TightSCF
|  4> %maxcore 5000
|  5> %tddft
|  6>     Mode sTDDFT
|  7>     Ethresh 5.0
|  8>     maxcore 5000
|  9> end
| 10>
| 11> %pal
| 12>   nprocs 6
| 13>   end
| 14> * xyz 0 1
| 15>    C       -5.20490         2.28575         2.07557
| 16>    S       -4.18909         0.89537         2.02594
| 17>    C       -5.41327        -0.07265         1.22807
| 18>    C       -6.53861         0.69599         1.03203
| 19>    C       -6.41736         2.02960         1.51339
| 20>    C       -7.65873         2.77563         1.26733
| 21>    O       -7.90717         3.91876         1.55186
| 22>    C       -8.59727         1.79813         0.56754
| 23>    C       -7.85326         0.47305         0.43925
| 24>    O       -8.28410        -0.54074        -0.05586
| 25>    C       -5.23574        -1.43687         0.86237
| 26>    C       -4.11849        -2.14667         1.10155
| 27>    C       -3.90115        -3.53533         0.76741
| 28>    C       -4.80103        -4.30834         0.03244
| 29>    C       -4.51805        -5.65016        -0.22512
| 30>    C       -3.31608        -6.15422         0.29788
| 31>    N       -2.45230        -5.43604         0.98588
| 32>    C       -2.73002        -4.16738         1.21141
| 33>    C       -5.38552        -6.53086        -0.97163
| 34>    C       -6.39604        -6.14337        -1.77729
| 35>    C       -7.24357        -7.01841        -2.51388
| 36>    S       -7.97137        -6.42820        -3.97185
| 37>    C       -8.68951        -7.95752        -4.35205
| 38>    C       -8.41080        -8.88909        -3.34281
| 39>    C       -7.60325        -8.35537        -2.29188
| 40>    C       -7.33062        -9.16065        -1.17147
| 41>    C       -7.77346       -10.46004        -1.11001
| 42>    C       -7.47317       -11.28041         0.06300
| 43>    C       -7.39405       -10.82150         1.30477
| 44>    C       -8.52443       -11.01153        -2.19256
| 45>    C       -9.00636       -12.42853        -2.12860
| 46>    C       -8.84233       -10.22779        -3.26646
| 47>    C       -9.42798        -8.18008        -5.54063
| 48>    C       -9.70884        -7.24603        -6.47381
| 49>    C      -10.44959        -7.47679        -7.69011
| 50>    C      -10.86678        -6.39532        -8.46958
| 51>    C      -11.59100        -6.61054        -9.64245
| 52>    C      -11.85781        -7.94432        -9.98564
| 53>    N      -11.45653        -8.97751        -9.27240
| 54>    C      -10.77558        -8.75721        -8.16639
| 55>    C      -12.07835        -5.55538       -10.49898
| 56>    C      -11.97677        -4.23263       -10.27263
| 57>    C      -12.49393        -3.23346       -11.14272
| 58>    S      -13.33248        -3.57573       -12.63640
| 59>    C      -13.59452        -1.88394       -12.99715
| 60>    C      -13.05005        -1.10546       -11.99601
| 61>    C      -12.43652        -1.86864       -10.96456
| 62>    C      -11.87429        -1.01057        -9.92805
| 63>    O      -11.28587        -1.34061        -8.92567
| 64>    C      -12.17864         0.41426       -10.36617
| 65>    C      -12.92643         0.32212       -11.69048
| 66>    O      -13.32103         1.27015       -12.32638
| 67>    C      -14.29721        -1.56720       -14.20859
| 68>    C      -14.58319        -0.33574       -14.62945
| 69>    H       -4.84255         3.19430         2.51385
| 70>    H       -8.88573         2.17673        -0.41556
| 71>    H       -9.52181         1.67317         1.13532
| 72>    H       -6.09676        -1.87308         0.37452
| 73>    H       -3.29398        -1.65707         1.60778
| 74>    H       -5.72064        -3.87387        -0.32733
| 75>    H       -3.04206        -7.18973         0.13940
| 76>    H       -1.99264        -3.62030         1.78491
| 77>    H       -5.13837        -7.58040        -0.90007
| 78>    H       -6.56055        -5.08855        -1.95791
| 79>    H       -6.77862        -8.75057        -0.34211
| 80>    H       -7.31600       -12.33424        -0.12301
| 81>    H       -7.57810        -9.78811         1.54734
| 82>    H       -7.15975       -11.46925         2.13208
| 83>    H       -9.56246       -12.60448        -1.20896
| 84>    H       -8.16499       -13.12131        -2.15212
| 85>    H       -9.65283       -12.65036        -2.97408
| 86>    H       -9.44500       -10.63521        -4.06452
| 87>    H       -9.78389        -9.19175        -5.67303
| 88>    H       -9.37455        -6.22858        -6.30978
| 89>    H      -10.62495        -5.39201        -8.15053
| 90>    H      -12.41958        -8.18164       -10.88004
| 91>    H      -10.46120        -9.64812        -7.64085
| 92>    H      -12.58311        -5.88677       -11.39992
| 93>    H      -11.49094        -3.83830        -9.39069
| 94>    H      -11.26026         0.99444       -10.48015
| 95>    H      -12.78257         0.93230        -9.61778
| 96>    H      -14.59765        -2.43031       -14.79003
| 97>    H      -14.29637         0.53787       -14.07003
| 98>    H      -15.11562        -0.17846       -15.55142
| 99> *
|100>
|101>                          ****END OF INPUT****

CARTESIAN COORDINATES (ANGSTROEM)
---------------------------------
  C     -5.204900    2.285750    2.075570
  S     -4.189090    0.895370    2.025940
  C     -5.413270   -0.072650    1.228070
  C     -6.538610    0.695990    1.032030
  C     -6.417360    2.029600    1.513390
  C     -7.658730    2.775630    1.267330
  O     -7.907170    3.918760    1.551860
  C     -8.597270    1.798130    0.567540
  C     -7.853260    0.473050    0.439250
  O     -8.284100   -0.540740   -0.055860
  C     -5.235740   -1.436870    0.862370
  C     -4.118490   -2.146670    1.101550
  C     -3.901150   -3.535330    0.767410
  C     -4.801030   -4.308340    0.032440
  C     -4.518050   -5.650160   -0.225120
  C     -3.316080   -6.154220    0.297880
  N     -2.452300   -5.436040    0.985880
  C     -2.730020   -4.167380    1.211410
  C     -5.385520   -6.530860   -0.971630
  C     -6.396040   -6.143370   -1.777290
  C     -7.243570   -7.018410   -2.513880
  S     -7.971370   -6.428200   -3.971850
  C     -8.689510   -7.957520   -4.352050
  C     -8.410800   -8.889090   -3.342810
  C     -7.603250   -8.355370   -2.291880
  C     -7.330620   -9.160650   -1.171470
  C     -7.773460  -10.460040   -1.110010
  C     -7.473170  -11.280410    0.063000
  C     -7.394050  -10.821500    1.304770
  C     -8.524430  -11.011530   -2.192560
  C     -9.006360  -12.428530   -2.128600
  C     -8.842330  -10.227790   -3.266460
  C     -9.427980   -8.180080   -5.540630
  C     -9.708840   -7.246030   -6.473810
  C    -10.449590   -7.476790   -7.690110
  C    -10.866780   -6.395320   -8.469580
  C    -11.591000   -6.610540   -9.642450
  C    -11.857810   -7.944320   -9.985640
  N    -11.456530   -8.977510   -9.272400
  C    -10.775580   -8.757210   -8.166390
  C    -12.078350   -5.555380  -10.498980
  C    -11.976770   -4.232630  -10.272630
  C    -12.493930   -3.233460  -11.142720
  S    -13.332480   -3.575730  -12.636400
  C    -13.594520   -1.883940  -12.997150
  C    -13.050050   -1.105460  -11.996010
  C    -12.436520   -1.868640  -10.964560
  C    -11.874290   -1.010570   -9.928050
  O    -11.285870   -1.340610   -8.925670
  C    -12.178640    0.414260  -10.366170
  C    -12.926430    0.322120  -11.690480
  O    -13.321030    1.270150  -12.326380
  C    -14.297210   -1.567200  -14.208590
  C    -14.583190   -0.335740  -14.629450
  H     -4.842550    3.194300    2.513850
  H     -8.885730    2.176730   -0.415560
  H     -9.521810    1.673170    1.135320
  H     -6.096760   -1.873080    0.374520
  H     -3.293980   -1.657070    1.607780
  H     -5.720640   -3.873870   -0.327330
  H     -3.042060   -7.189730    0.139400
  H     -1.992640   -3.620300    1.784910
  H     -5.138370   -7.580400   -0.900070
  H     -6.560550   -5.088550   -1.957910
  H     -6.778620   -8.750570   -0.342110
  H     -7.316000  -12.334240   -0.123010
  H     -7.578100   -9.788110    1.547340
  H     -7.159750  -11.469250    2.132080
  H     -9.562460  -12.604480   -1.208960
  H     -8.164990  -13.121310   -2.152120
  H     -9.652830  -12.650360   -2.974080
  H     -9.445000  -10.635210   -4.064520
  H     -9.783890   -9.191750   -5.673030
  H     -9.374550   -6.228580   -6.309780
  H    -10.624950   -5.392010   -8.150530
  H    -12.419580   -8.181640  -10.880040
  H    -10.461200   -9.648120   -7.640850
  H    -12.583110   -5.886770  -11.399920
  H    -11.490940   -3.838300   -9.390690
  H    -11.260260    0.994440  -10.480150
  H    -12.782570    0.932300   -9.617780
  H    -14.597650   -2.430310  -14.790030
  H    -14.296370    0.537870  -14.070030
  H    -15.115620   -0.178460  -15.551420

 Total Charge           Charge          ....    0
 Multiplicity           Mult            ....    1
 Number of Electrons    NEL             ....  394
 Basis Dimension        Dim             ....  918

ORBITAL ENERGIES
----------------

  NO   OCC          E(Eh)            E(eV)
   0   2.0000     -88.980233     -2421.2752
   1   2.0000     -88.974562     -2421.1209
   2   2.0000     -88.962107     -2420.7820
   3   2.0000     -19.212792      -522.8067
   4   2.0000     -19.212253      -522.7920
   5   2.0000     -19.210916      -522.7556
   6   2.0000     -19.210198      -522.7361
   7   2.0000     -14.401860      -391.8945
   8   2.0000     -14.399864      -391.8402
   9   2.0000     -10.367012      -282.1007
  10   2.0000     -10.366121      -282.0765
  11   2.0000     -10.365292      -282.0539
  12   2.0000     -10.364224      -282.0249
  13   2.0000     -10.327512      -281.0259
  14   2.0000     -10.327073      -281.0139
  15   2.0000     -10.323319      -280.9118
  16   2.0000     -10.319762      -280.8150
  17   2.0000     -10.303989      -280.3858
  18   2.0000     -10.303422      -280.3704
  19   2.0000     -10.303117      -280.3621
  20   2.0000     -10.301384      -280.3149
  21   2.0000     -10.300549      -280.2922
  22   2.0000     -10.300032      -280.2781
  23   2.0000     -10.293892      -280.1110
  24   2.0000     -10.291208      -280.0380
  25   2.0000     -10.290329      -280.0141
  26   2.0000     -10.290195      -280.0104
  27   2.0000     -10.289486      -279.9911
  28   2.0000     -10.287968      -279.9499
  29   2.0000     -10.287826      -279.9460
  30   2.0000     -10.287821      -279.9458
  31   2.0000     -10.286936      -279.9218
  32   2.0000     -10.286773      -279.9173
  33   2.0000     -10.286599      -279.9126
  34   2.0000     -10.286575      -279.9119
  35   2.0000     -10.286130      -279.8998
  36   2.0000     -10.285142      -279.8729
  37   2.0000     -10.284864      -279.8654
  38   2.0000     -10.284471      -279.8547
  39   2.0000     -10.283335      -279.8238
  40   2.0000     -10.279323      -279.7146
  41   2.0000     -10.278914      -279.7035
  42   2.0000     -10.278432      -279.6903
  43   2.0000     -10.278379      -279.6889
  44   2.0000     -10.278356      -279.6883
  45   2.0000     -10.278337      -279.6878
  46   2.0000     -10.276866      -279.6477
  47   2.0000     -10.275877      -279.6208
  48   2.0000     -10.271645      -279.5057
  49   2.0000     -10.271008      -279.4883
  50   2.0000     -10.270803      -279.4828
  51   2.0000     -10.268865      -279.4300
  52   2.0000     -10.264518      -279.3117
  53   2.0000     -10.263394      -279.2811
  54   2.0000      -8.075571      -219.7475
  55   2.0000      -8.069968      -219.5950
  56   2.0000      -8.057307      -219.2505
  57   2.0000      -6.044683      -164.4842
  58   2.0000      -6.040323      -164.3655
  59   2.0000      -6.039006      -164.3297
  60   2.0000      -6.038281      -164.3100
  61   2.0000      -6.034956      -164.2195
  62   2.0000      -6.032469      -164.1518
  63   2.0000      -6.026177      -163.9806
  64   2.0000      -6.022218      -163.8729
  65   2.0000      -6.020203      -163.8180
  66   2.0000      -1.130392       -30.7595
  67   2.0000      -1.129720       -30.7412
  68   2.0000      -1.124893       -30.6099
  69   2.0000      -1.124830       -30.6082
  70   2.0000      -1.037347       -28.2277
  71   2.0000      -1.034803       -28.1584
  72   2.0000      -1.005980       -27.3741
  73   2.0000      -1.004662       -27.3383
  74   2.0000      -0.994410       -27.0593
  75   2.0000      -0.942029       -25.6339
  76   2.0000      -0.930949       -25.3324
  77   2.0000      -0.928418       -25.2635
  78   2.0000      -0.922513       -25.1029
  79   2.0000      -0.918272       -24.9875
  80   2.0000      -0.914104       -24.8740
  81   2.0000      -0.908186       -24.7130
  82   2.0000      -0.892348       -24.2820
  83   2.0000      -0.882248       -24.0072
  84   2.0000      -0.871643       -23.7186
  85   2.0000      -0.868373       -23.6296
  86   2.0000      -0.854182       -23.2435
  87   2.0000      -0.850416       -23.1410
  88   2.0000      -0.834643       -22.7118
  89   2.0000      -0.821070       -22.3425
  90   2.0000      -0.819546       -22.3010
  91   2.0000      -0.815844       -22.2002
  92   2.0000      -0.810588       -22.0572
  93   2.0000      -0.801204       -21.8019
  94   2.0000      -0.781802       -21.2739
  95   2.0000      -0.767778       -20.8923
  96   2.0000      -0.748084       -20.3564
  97   2.0000      -0.745018       -20.2730
  98   2.0000      -0.740085       -20.1387
  99   2.0000      -0.724432       -19.7128
 100   2.0000      -0.719794       -19.5866
 101   2.0000      -0.710642       -19.3375
 102   2.0000      -0.706438       -19.2231
 103   2.0000      -0.703972       -19.1560
 104   2.0000      -0.698674       -19.0119
 105   2.0000      -0.689221       -18.7547
 106   2.0000      -0.680301       -18.5119
 107   2.0000      -0.666800       -18.1446
 108   2.0000      -0.663311       -18.0496
 109   2.0000      -0.651866       -17.7382
 110   2.0000      -0.646081       -17.5808
 111   2.0000      -0.629906       -17.1406
 112   2.0000      -0.625002       -17.0072
 113   2.0000      -0.623003       -16.9528
 114   2.0000      -0.619133       -16.8475
 115   2.0000      -0.613489       -16.6939
 116   2.0000      -0.604556       -16.4508
 117   2.0000      -0.602517       -16.3953
 118   2.0000      -0.593482       -16.1495
 119   2.0000      -0.587080       -15.9752
 120   2.0000      -0.576949       -15.6996
 121   2.0000      -0.569688       -15.5020
 122   2.0000      -0.565054       -15.3759
 123   2.0000      -0.560192       -15.2436
 124   2.0000      -0.559836       -15.2339
 125   2.0000      -0.559351       -15.2207
 126   2.0000      -0.554291       -15.0830
 127   2.0000      -0.552632       -15.0379
 128   2.0000      -0.545300       -14.8384
 129   2.0000      -0.544883       -14.8270
 130   2.0000      -0.541988       -14.7483
 131   2.0000      -0.538463       -14.6523
 132   2.0000      -0.531210       -14.4549
 133   2.0000      -0.525162       -14.2904
 134   2.0000      -0.523962       -14.2577
 135   2.0000      -0.522973       -14.2308
 136   2.0000      -0.514847       -14.0097
 137   2.0000      -0.513429       -13.9711
 138   2.0000      -0.510113       -13.8809
 139   2.0000      -0.508827       -13.8459
 140   2.0000      -0.505989       -13.7687
 141   2.0000      -0.503516       -13.7014
 142   2.0000      -0.501934       -13.6583
 143   2.0000      -0.499399       -13.5893
 144   2.0000      -0.497526       -13.5384
 145   2.0000      -0.493550       -13.4302
 146   2.0000      -0.492025       -13.3887
 147   2.0000      -0.490890       -13.3578
 148   2.0000      -0.489031       -13.3072
 149   2.0000      -0.487790       -13.2734
 150   2.0000      -0.486791       -13.2463
 151   2.0000      -0.485390       -13.2081
 152   2.0000      -0.480456       -13.0739
 153   2.0000      -0.475805       -12.9473
 154   2.0000      -0.474490       -12.9115
 155   2.0000      -0.473404       -12.8820
 156   2.0000      -0.472928       -12.8690
 157   2.0000      -0.470112       -12.7924
 158   2.0000      -0.465053       -12.6547
 159   2.0000      -0.460586       -12.5332
 160   2.0000      -0.457849       -12.4587
 161   2.0000      -0.456323       -12.4172
 162   2.0000      -0.452196       -12.3049
 163   2.0000      -0.445868       -12.1327
 164   2.0000      -0.442497       -12.0409
 165   2.0000      -0.440551       -11.9880
 166   2.0000      -0.433095       -11.7851
 167   2.0000      -0.430862       -11.7244
 168   2.0000      -0.430380       -11.7112
 169   2.0000      -0.429552       -11.6887
 170   2.0000      -0.425838       -11.5876
 171   2.0000      -0.422045       -11.4844
 172   2.0000      -0.418107       -11.3773
 173   2.0000      -0.415026       -11.2934
 174   2.0000      -0.411862       -11.2073
 175   2.0000      -0.407676       -11.0934
 176   2.0000      -0.405243       -11.0272
 177   2.0000      -0.389775       -10.6063
 178   2.0000      -0.381441       -10.3795
 179   2.0000      -0.368078       -10.0159
 180   2.0000      -0.356162        -9.6917
 181   2.0000      -0.352926        -9.6036
 182   2.0000      -0.343215        -9.3394
 183   2.0000      -0.342420        -9.3177
 184   2.0000      -0.341021        -9.2797
 185   2.0000      -0.340052        -9.2533
 186   2.0000      -0.328902        -8.9499
 187   2.0000      -0.326324        -8.8797
 188   2.0000      -0.323591        -8.8054
 189   2.0000      -0.319512        -8.6944
 190   2.0000      -0.319362        -8.6903
 191   2.0000      -0.312592        -8.5061
 192   2.0000      -0.306492        -8.3401
 193   2.0000      -0.293303        -7.9812
 194   2.0000      -0.278078        -7.5669
 195   2.0000      -0.265655        -7.2288
 196   2.0000      -0.227927        -6.2022
 197   0.0000      -0.065544        -1.7835
 198   0.0000      -0.062442        -1.6991
 199   0.0000      -0.062109        -1.6901
 200   0.0000      -0.034096        -0.9278
 201   0.0000      -0.022339        -0.6079

MULLIKEN ATOMIC CHARGES
-----------------------
   0 C :   -0.121773
   1 S :    0.147653
   2 C :   -0.124190
   3 C :    0.013744
   4 C :    0.045397
   5 C :    0.039846
   6 O :   -0.138470
   7 C :    0.034388
   8 C :    0.032866
   9 O :   -0.155357
  10 C :    0.010191
  11 C :    0.005484
  12 C :    0.075341
  13 C :   -0.017458
  14 C :    0.070404
  15 C :   -0.023202
  16 N :   -0.046064
  17 C :   -0.026715
  18 C :   -0.022398
  19 C :    0.050788
  20 C :   -0.133538
  21 S :    0.152748
  22 C :   -0.104457
  23 C :    0.124770
  24 C :    0.132064
  25 C :   -0.113345
  26 C :    0.085972
  27 C :   -0.041421
  28 C :   -0.012051
  29 C :   -0.072029
  30 C :    0.099834
  31 C :   -0.102023
  32 C :    0.023906
  33 C :   -0.022823
  34 C :    0.084937
  35 C :   -0.035264
  36 C :    0.080734
  37 C :   -0.025404
  38 N :   -0.049672
  39 C :   -0.018339
  40 C :    0.009340
  41 C :    0.010334
  42 C :   -0.112078
  43 S :    0.145213
  44 C :   -0.142073
  45 C :    0.033676
  46 C :    0.006540
  47 C :    0.027319
  48 O :   -0.157165
  49 C :    0.054202
  50 C :    0.033544
  51 O :   -0.154493
  52 C :    0.020102
  53 C :   -0.002736
  54 H :    0.040235
  55 H :    0.067247
  56 H :    0.066927
  57 H :    0.010013
  58 H :   -0.011788
  59 H :   -0.008438
  60 H :   -0.002710
  61 H :   -0.004439
  62 H :   -0.003486
  63 H :   -0.007599
  64 H :   -0.037788
  65 H :   -0.002394
  66 H :    0.022745
  67 H :    0.022995
  68 H :    0.031558
  69 H :    0.031103
  70 H :    0.008788
  71 H :   -0.043831
  72 H :   -0.013462
  73 H :   -0.014212
  74 H :   -0.010416
  75 H :   -0.006716
  76 H :   -0.006101
  77 H :   -0.014475
  78 H :    0.010845
  79 H :    0.065451
  80 H :    0.067264
  81 H :   -0.013547
  82 H :    0.050990
  83 H :    0.028442
Sum of atomic charges:    0.0000000

LOEWDIN ATOMIC CHARGES
----------------------
   0 C :   -0.140001
   1 S :    0.470957
   2 C :   -0.130245
   3 C :   -0.103389
   4 C :   -0.100082
   5 C :    0.076823
   6 O :   -0.130911
   7 C :   -0.072780
   8 C :    0.076781
   9 O :   -0.144214
  10 C :   -0.035366
  11 C :   -0.003854
  12 C :   -0.048840
  13 C :    0.021040
  14 C :   -0.042529
  15 C :    0.023189
  16 N :   -0.062835
  17 C :    0.018825
  18 C :   -0.026965
  19 C :   -0.033572
  20 C :   -0.173944
  21 S :    0.478159
  22 C :   -0.183708
  23 C :   -0.037579
  24 C :   -0.045508
  25 C :   -0.007461
  26 C :   -0.027096
  27 C :   -0.021692
  28 C :   -0.037627
  29 C :   -0.014570
  30 C :   -0.044633
  31 C :   -0.028977
  32 C :   -0.026570
  33 C :   -0.035316
  34 C :   -0.040086
  35 C :    0.016894
  36 C :   -0.049179
  37 C :    0.015779
  38 N :   -0.063201
  39 C :    0.024904
  40 C :   -0.005955
  41 C :   -0.035064
  42 C :   -0.133752
  43 S :    0.464359
  44 C :   -0.123326
  45 C :   -0.101818
  46 C :   -0.098526
  47 C :    0.076927
  48 O :   -0.145159
  49 C :   -0.068343
  50 C :    0.082875
  51 O :   -0.134920
  52 C :   -0.060773
  53 C :    0.002123
  54 H :    0.035057
  55 H :    0.062256
  56 H :    0.061759
  57 H :    0.039343
  58 H :    0.024100
  59 H :    0.029756
  60 H :    0.020881
  61 H :    0.019793
  62 H :    0.030968
  63 H :    0.028714
  64 H :    0.025736
  65 H :    0.028498
  66 H :    0.022376
  67 H :    0.025193
  68 H :    0.035843
  69 H :    0.035072
  70 H :    0.029970
  71 H :    0.023411
  72 H :    0.031911
  73 H :    0.022022
  74 H :    0.031515
  75 H :    0.019048
  76 H :    0.017723
  77 H :    0.023170
  78 H :    0.039017
  79 H :    0.061773
  80 H :    0.062334
  81 H :    0.027423
  82 H :    0.027681
  83 H :    0.028389

  Mayer bond orders larger than 0.100000
B(  0-C ,  1-S ) :   1.1794 B(  0-C ,  4-C ) :   1.5426 B(  0-C , 54-H ) :   0.9715
B(  1-S ,  2-C ) :   1.1396 B(  2-C ,  3-C ) :   1.4804 B(  2-C , 10-C ) :   1.1674
B(  3-C ,  4-C ) :   1.1879 B(  3-C ,  8-C ) :   0.9585 B(  4-C ,  5-C ) :   0.9208
B(  5-C ,  6-O ) :   2.2747 B(  5-C ,  7-C ) :   0.9830 B(  7-C ,  8-C ) :   0.9872
B(  7-C , 55-H ) :   0.8981 B(  7-C , 56-H ) :   0.8987 B(  8-C ,  9-O ) :   2.2057
B( 10-C , 11-C ) :   1.6762 B( 10-C , 57-H ) :   0.9603 B( 11-C , 12-C ) :   1.0603
B( 11-C , 58-H ) :   0.9814 B( 12-C , 13-C ) :   1.3746 B( 12-C , 17-C ) :   1.3070
B( 13-C , 14-C ) :   1.3807 B( 13-C , 59-H ) :   0.9795 B( 14-C , 15-C ) :   1.2993
B( 14-C , 18-C ) :   1.0646 B( 15-C , 16-N ) :   1.5708 B( 15-C , 60-H ) :   0.9884
B( 16-N , 17-C ) :   1.5627 B( 17-C , 61-H ) :   0.9893 B( 18-C , 19-C ) :   1.6998
B( 18-C , 62-H ) :   0.9763 B( 19-C , 20-C ) :   1.1255 B( 19-C , 63-H ) :   0.9480
B( 20-C , 21-S ) :   1.1570 B( 20-C , 22-C ) :   0.1078 B( 20-C , 24-C ) :   1.3413
B( 21-S , 22-C ) :   1.1336 B( 22-C , 23-C ) :   1.3260 B( 22-C , 32-C ) :   1.1751
B( 23-C , 24-C ) :   1.2088 B( 23-C , 31-C ) :   1.1831 B( 24-C , 25-C ) :   1.1824
B( 25-C , 26-C ) :   1.5219 B( 25-C , 64-H ) :   0.9918 B( 26-C , 27-C ) :   1.0275
B( 26-C , 29-C ) :   1.1949 B( 27-C , 28-C ) :   1.9803 B( 27-C , 65-H ) :   0.9502
B( 28-C , 66-H ) :   0.9576 B( 28-C , 67-H ) :   0.9497 B( 29-C , 30-C ) :   1.0874
B( 29-C , 31-C ) :   1.5661 B( 30-C , 68-H ) :   0.9429 B( 30-C , 69-H ) :   0.9404
B( 30-C , 70-H ) :   0.9538 B( 31-C , 71-H ) :   0.9888 B( 32-C , 33-C ) :   1.6719
B( 32-C , 72-H ) :   0.9619 B( 33-C , 34-C ) :   1.0656 B( 33-C , 73-H ) :   0.9839
B( 34-C , 35-C ) :   1.3696 B( 34-C , 39-C ) :   1.3056 B( 35-C , 36-C ) :   1.3514
B( 35-C , 74-H ) :   0.9941 B( 36-C , 37-C ) :   1.3154 B( 36-C , 40-C ) :   1.0645
B( 37-C , 38-N ) :   1.5531 B( 37-C , 75-H ) :   0.9888 B( 38-N , 39-C ) :   1.5796
B( 39-C , 76-H ) :   0.9821 B( 40-C , 41-C ) :   1.6654 B( 40-C , 77-H ) :   0.9804
B( 41-C , 42-C ) :   1.1688 B( 41-C , 78-H ) :   0.9602 B( 42-C , 43-S ) :   1.1140
B( 42-C , 46-C ) :   1.4857 B( 43-S , 44-C ) :   1.1491 B( 44-C , 45-C ) :   1.4882
B( 44-C , 52-C ) :   1.1155 B( 45-C , 46-C ) :   1.1860 B( 45-C , 50-C ) :   0.9490
B( 46-C , 47-C ) :   0.9566 B( 47-C , 48-O ) :   2.2012 B( 47-C , 49-C ) :   0.9960
B( 49-C , 50-C ) :   1.0020 B( 49-C , 79-H ) :   0.8971 B( 49-C , 80-H ) :   0.8970
B( 50-C , 51-O ) :   2.1614 B( 52-C , 53-C ) :   1.9277 B( 52-C , 81-H ) :   0.9500
B( 53-C , 82-H ) :   0.9283 B( 53-C , 83-H ) :   0.9448

-----------------------------------------------------------------------------
         ABSORPTION SPECTRUM VIA TRANSITION ELECTRIC DIPOLE MOMENTS
-----------------------------------------------------------------------------
State   Energy  Wavelength   fosc         T2         TX        TY        TZ
        (cm-1)    (nm)                  (au**2)     (au)      (au)      (au)
-----------------------------------------------------------------------------
   0   20560.2    486.4   1.056783452  16.92128  -2.38835  -1.03973  -3.18371
   1   23220.9    430.6   0.015834235   0.22449   0.33961  -0.32502   0.05928
   2   23517.1    425.2   0.072665347   1.01723  -0.51862   0.63580  -0.58653
   3   27995.9    357.2   1.217333064  14.31500  -0.82971   3.22253  -1.80053
   4   29693.7    336.8   0.004653546   0.05159  -0.08514   0.15167  -0.14609
   5   30334.1    329.7   0.774489832   8.40545  -0.90555   2.75030   0.14595
   6   31283.7    319.7   0.063948800   0.67296   0.56397  -0.38472  -0.45484
   7   31311.5    319.4   0.000799615   0.00841   0.03289  -0.03268  -0.07911
   8   31330.1    319.2   0.057891622   0.60832   0.28811  -0.13482   0.71213
   9   32208.8    310.5   0.102687276   1.04958   0.21893   0.84878   0.53030
  10   32289.6    309.7   0.000111916   0.00114   0.01196   0.01980   0.02462
  11   32549.5    307.2   0.069023089   0.69811  -0.83336   0.05498   0.02439
  12   33162.1    301.5   0.160391069   1.59226  -0.01108   1.13020  -0.56105
  13   33566.3    297.9   0.000034640   0.00034  -0.01214   0.00298   0.01355
  14   33851.6    295.4   0.583316314   5.67284  -0.39919   1.24077  -1.99348
  15   35033.2    285.4   0.000648934   0.00610  -0.06146  -0.01907   0.04424
  16   35035.7    285.4   0.008298781   0.07798  -0.26343   0.09162  -0.01366
  17   36006.7    277.7   0.000230398   0.00211  -0.02470  -0.01628  -0.03510
  18   36214.3    276.1   0.179326638   1.63020  -0.76700  -0.37226  -0.95044
  19   36468.3    274.2   0.007584693   0.06847   0.18367   0.17240   0.07079
  20   36990.9    270.3   0.085647508   0.76225   0.71359   0.43012   0.26085
  21   37721.3    265.1   0.018192164   0.15877  -0.19220  -0.33008   0.11347
  22   37902.1    263.8   0.034950892   0.30358  -0.47767  -0.19188  -0.19645
  23   38140.7    262.2   0.024054703   0.20763  -0.03022  -0.45423  -0.01977
  24   38279.0    261.2   0.004914045   0.04226  -0.14277   0.14765   0.00897
  25   38358.7    260.7   0.037323946   0.32033  -0.54819   0.06475  -0.12503
  26   38848.2    257.4   0.001190301   0.01009  -0.05292  -0.05373   0.06632
  27   39216.0    255.0   0.008796189   0.07384   0.03437   0.26955   0.00151
  28   39287.1    254.5   0.000408496   0.00342   0.04823   0.00292  -0.03299
  29   39423.3    253.7   0.000548082   0.00458   0.02174   0.01940  -0.06106
  30   39854.3    250.9   0.000687834   0.00568   0.06272   0.00543  -0.04146

FINAL SINGLE POINT ENERGY     -3334.680650636617

DIPOLE MOMENT
-------------
                                X             Y             Z
Electronic contribution:      2.92964      36.26728      -6.17586
Nuclear contribution   :     -2.69192     -37.23980       6.22101
                        -----------------------------------------
Total Dipole Moment    :      0.23772      -0.97252       0.04515
                        -----------------------------------------
Magnitude (a.u.)       :      1.00217
Magnitude (Debye)      :      2.54731

Rotational constants in cm-1:     0.001164     0.000558     0.000392
Rotational constants in MHz :    34.888834    16.725576    11.739372

                             ****ORCA TERMINATED NORMALLY****
TOTAL RUN TIME: 0 days 0 hours 5 minutes 9 seconds 865 msec
