                         Program Version 4.2.0 -  RELEASE  -
|  1> # ORCA input file
|  2> # SCF done       -147.556081999116          0.000551663708
|  3> ! CAM-B3LYP def2-SVP def2/J RIJCOSX Grid4 TightSCF
|  4> %maxcore 5000
|  5> %tddft
|  6>     Mode sTDDFT
|  7>     Ethresh 5.0
|  8>     maxcore 5000
|  9> end
| 10>
| 11> %pal
| 12>   nprocs 6
| 13>   end
| 14> * xyz 0 1
| 15>    C        1.79299        -6.87283        -0.20213
| 16>    S        0.58145        -6.08917        -1.09463
| 17>    C       -0.11837        -5.36422         0.32521
| 18>    C        0.53478        -5.83329         1.47379
| 19>    C        1.67417        -6.65151         1.15707
| 20>    C        2.56235        -7.06596         2.17073
| 21>    C        2.32746        -6.67942         3.46577
| 22>    C        3.27041        -6.93759         4.48716
| 23>    N        4.05114        -7.10534         5.30827
| 24>    C        1.11867        -5.99147         3.80002
| 25>    C        0.89730        -5.61787         5.14468
| 26>    N        0.75212        -5.24518         6.21856
| 27>    C        0.21390        -5.63050         2.82892
| 28>    C       -1.14478        -4.38753         0.12468
| 29>    C       -1.57772        -3.35636         0.97830
| 30>    N       -2.62820        -2.53935         0.71394
| 31>    C       -3.28407        -2.56100        -0.39483
| 32>    C       -2.88926        -3.46032        -1.41634
| 33>    C       -1.81951        -4.37839        -1.13132
| 34>    N       -1.64141        -5.11570        -2.21095
| 35>    O       -2.53229        -4.68359        -3.10044
| 36>    N       -3.28728        -3.70129        -2.64927
| 37>    C       -0.90960        -2.96204         2.19467
| 38>    O        0.41119        -3.14002         2.32757
| 39>    C        0.80965        -2.55620         3.48663
| 40>    C       -0.27388        -1.97595         4.11019
| 41>    C       -1.39237        -2.23148         3.28435
| 42>    C       -2.78398        -1.91982         3.57561
| 43>    O       -3.74917        -2.54614         3.23700
| 44>    C       -2.94879        -0.65819         4.47901
| 45>    F       -2.13580         0.33851         4.09871
| 46>    F       -4.19274        -0.19171         4.45568
| 47>    F       -2.64674        -0.93655         5.75780
| 48>    C        2.15958        -2.70379         3.94225
| 49>    C        3.24057        -3.23721         3.22459
| 50>    N        4.38058        -3.68153         3.83180
| 51>    C        4.62165        -3.53584         5.08945
| 52>    C        3.69148        -2.84123         5.89966
| 53>    C        2.43936        -2.43841         5.31175
| 54>    N        1.73430        -1.86231         6.26736
| 55>    O        2.49509        -1.89782         7.35590
| 56>    N        3.66460        -2.47814         7.16585
| 57>    C        3.31344        -3.50265         1.81468
| 58>    S        4.48987        -4.70491         1.39579
| 59>    C        4.02789        -4.69730        -0.23823
| 60>    C        3.02971        -3.77678        -0.49931
| 61>    C        2.65503        -3.03553         0.67648
| 62>    C        1.74510        -1.96840         0.54193
| 63>    C        1.05650        -1.81562        -0.63714
| 64>    C        0.03359        -0.84591        -0.74618
| 65>    N       -0.83287        -0.10005        -0.81940
| 66>    C        1.32428        -2.65854        -1.76330
| 67>    C        0.50641        -2.53505        -2.90999
| 68>    N       -0.19341        -2.46946        -3.81468
| 69>    C        2.34291        -3.57583        -1.71475
| 70>    H        2.53539        -7.46755        -0.69598
| 71>    H        3.43262        -7.65237         1.91949
| 72>    H       -0.73110        -5.19409         3.11524
| 73>    H       -4.10977        -1.87752        -0.51066
| 74>    H       -0.25201        -1.47319         5.05496
| 75>    H        5.52638        -3.96661         5.48914
| 76>    H        4.50099        -5.34936        -0.94511
| 77>    H        1.58650        -1.26956         1.34862
| 78>    H        2.59894        -4.16100        -2.58462
| 79> *
| 80>
| 81>                          ****END OF INPUT****

CARTESIAN COORDINATES (ANGSTROEM)
---------------------------------
  C      1.792990   -6.872830   -0.202130
  S      0.581450   -6.089170   -1.094630
  C     -0.118370   -5.364220    0.325210
  C      0.534780   -5.833290    1.473790
  C      1.674170   -6.651510    1.157070
  C      2.562350   -7.065960    2.170730
  C      2.327460   -6.679420    3.465770
  C      3.270410   -6.937590    4.487160
  N      4.051140   -7.105340    5.308270
  C      1.118670   -5.991470    3.800020
  C      0.897300   -5.617870    5.144680
  N      0.752120   -5.245180    6.218560
  C      0.213900   -5.630500    2.828920
  C     -1.144780   -4.387530    0.124680
  C     -1.577720   -3.356360    0.978300
  N     -2.628200   -2.539350    0.713940
  C     -3.284070   -2.561000   -0.394830
  C     -2.889260   -3.460320   -1.416340
  C     -1.819510   -4.378390   -1.131320
  N     -1.641410   -5.115700   -2.210950
  O     -2.532290   -4.683590   -3.100440
  N     -3.287280   -3.701290   -2.649270
  C     -0.909600   -2.962040    2.194670
  O      0.411190   -3.140020    2.327570
  C      0.809650   -2.556200    3.486630
  C     -0.273880   -1.975950    4.110190
  C     -1.392370   -2.231480    3.284350
  C     -2.783980   -1.919820    3.575610
  O     -3.749170   -2.546140    3.237000
  C     -2.948790   -0.658190    4.479010
  F     -2.135800    0.338510    4.098710
  F     -4.192740   -0.191710    4.455680
  F     -2.646740   -0.936550    5.757800
  C      2.159580   -2.703790    3.942250
  C      3.240570   -3.237210    3.224590
  N      4.380580   -3.681530    3.831800
  C      4.621650   -3.535840    5.089450
  C      3.691480   -2.841230    5.899660
  C      2.439360   -2.438410    5.311750
  N      1.734300   -1.862310    6.267360
  O      2.495090   -1.897820    7.355900
  N      3.664600   -2.478140    7.165850
  C      3.313440   -3.502650    1.814680
  S      4.489870   -4.704910    1.395790
  C      4.027890   -4.697300   -0.238230
  C      3.029710   -3.776780   -0.499310
  C      2.655030   -3.035530    0.676480
  C      1.745100   -1.968400    0.541930
  C      1.056500   -1.815620   -0.637140
  C      0.033590   -0.845910   -0.746180
  N     -0.832870   -0.100050   -0.819400
  C      1.324280   -2.658540   -1.763300
  C      0.506410   -2.535050   -2.909990
  N     -0.193410   -2.469460   -3.814680
  C      2.342910   -3.575830   -1.714750
  H      2.535390   -7.467550   -0.695980
  H      3.432620   -7.652370    1.919490
  H     -0.731100   -5.194090    3.115240
  H     -4.109770   -1.877520   -0.510660
  H     -0.252010   -1.473190    5.054960
  H      5.526380   -3.966610    5.489140
  H      4.500990   -5.349360   -0.945110
  H      1.586500   -1.269560    1.348620
  H      2.598940   -4.161000   -2.584620

 Total Charge           Charge          ....    0
 Multiplicity           Mult            ....    1
 Number of Electrons    NEL             ....  386
 Basis Dimension        Dim             ....  823

ORBITAL ENERGIES
----------------

  NO   OCC          E(Eh)            E(eV)
   0   2.0000     -89.006063     -2421.9781
   1   2.0000     -89.003808     -2421.9167
   2   2.0000     -24.808899      -675.0845
   3   2.0000     -24.808438      -675.0719
   4   2.0000     -24.804242      -674.9577
   5   2.0000     -19.378690      -527.3210
   6   2.0000     -19.376940      -527.2733
   7   2.0000     -19.335015      -526.1325
   8   2.0000     -19.244192      -523.6611
   9   2.0000     -14.506344      -394.7377
  10   2.0000     -14.505669      -394.7193
  11   2.0000     -14.501330      -394.6012
  12   2.0000     -14.497826      -394.5059
  13   2.0000     -14.452502      -393.2726
  14   2.0000     -14.442484      -393.0000
  15   2.0000     -14.427329      -392.5876
  16   2.0000     -14.426066      -392.5532
  17   2.0000     -14.425101      -392.5269
  18   2.0000     -14.424484      -392.5102
  19   2.0000     -10.518766      -286.2302
  20   2.0000     -10.395510      -282.8762
  21   2.0000     -10.377590      -282.3886
  22   2.0000     -10.371927      -282.2345
  23   2.0000     -10.366112      -282.0762
  24   2.0000     -10.361698      -281.9561
  25   2.0000     -10.360183      -281.9149
  26   2.0000     -10.351350      -281.6746
  27   2.0000     -10.351252      -281.6719
  28   2.0000     -10.350911      -281.6626
  29   2.0000     -10.347820      -281.5785
  30   2.0000     -10.347194      -281.5615
  31   2.0000     -10.347068      -281.5580
  32   2.0000     -10.346412      -281.5402
  33   2.0000     -10.346405      -281.5400
  34   2.0000     -10.346030      -281.5298
  35   2.0000     -10.345238      -281.5082
  36   2.0000     -10.344288      -281.4824
  37   2.0000     -10.341052      -281.3943
  38   2.0000     -10.337776      -281.3052
  39   2.0000     -10.336389      -281.2675
  40   2.0000     -10.335025      -281.2303
  41   2.0000     -10.332141      -281.1518
  42   2.0000     -10.331077      -281.1229
  43   2.0000     -10.330856      -281.1169
  44   2.0000     -10.329904      -281.0910
  45   2.0000     -10.327028      -281.0127
  46   2.0000     -10.325392      -280.9682
  47   2.0000     -10.325199      -280.9629
  48   2.0000     -10.324766      -280.9512
  49   2.0000     -10.323539      -280.9178
  50   2.0000     -10.322976      -280.9024
  51   2.0000     -10.322894      -280.9002
  52   2.0000     -10.322400      -280.8868
  53   2.0000     -10.315934      -280.7108
  54   2.0000     -10.309664      -280.5402
  55   2.0000      -8.099305      -220.3933
  56   2.0000      -8.096993      -220.3304
  57   2.0000      -6.068307      -165.1270
  58   2.0000      -6.065953      -165.0630
  59   2.0000      -6.063663      -165.0007
  60   2.0000      -6.062678      -164.9738
  61   2.0000      -6.061410      -164.9394
  62   2.0000      -6.060451      -164.9133
  63   2.0000      -1.397381       -38.0247
  64   2.0000      -1.335186       -36.3323
  65   2.0000      -1.334179       -36.3048
  66   2.0000      -1.299964       -35.3738
  67   2.0000      -1.299725       -35.3673
  68   2.0000      -1.259255       -34.2661
  69   2.0000      -1.160893       -31.5895
  70   2.0000      -1.091345       -29.6970
  71   2.0000      -1.083197       -29.4753
  72   2.0000      -1.045528       -28.4503
  73   2.0000      -1.037407       -28.2293
  74   2.0000      -1.035070       -28.1657
  75   2.0000      -1.034133       -28.1402
  76   2.0000      -1.018564       -27.7165
  77   2.0000      -1.016603       -27.6632
  78   2.0000      -1.007350       -27.4114
  79   2.0000      -1.005337       -27.3566
  80   2.0000      -0.992246       -27.0004
  81   2.0000      -0.990893       -26.9636
  82   2.0000      -0.978154       -26.6169
  83   2.0000      -0.974813       -26.5260
  84   2.0000      -0.950347       -25.8603
  85   2.0000      -0.946116       -25.7451
  86   2.0000      -0.934332       -25.4245
  87   2.0000      -0.912056       -24.8183
  88   2.0000      -0.904955       -24.6251
  89   2.0000      -0.893014       -24.3001
  90   2.0000      -0.888545       -24.1786
  91   2.0000      -0.881644       -23.9908
  92   2.0000      -0.860534       -23.4163
  93   2.0000      -0.839839       -22.8532
  94   2.0000      -0.833617       -22.6839
  95   2.0000      -0.820746       -22.3336
  96   2.0000      -0.810223       -22.0473
  97   2.0000      -0.791249       -21.5310
  98   2.0000      -0.786188       -21.3933
  99   2.0000      -0.776521       -21.1302
 100   2.0000      -0.772988       -21.0341
 101   2.0000      -0.762116       -20.7382
 102   2.0000      -0.757680       -20.6175
 103   2.0000      -0.742794       -20.2124
 104   2.0000      -0.736081       -20.0298
 105   2.0000      -0.733711       -19.9653
 106   2.0000      -0.723596       -19.6900
 107   2.0000      -0.715268       -19.4634
 108   2.0000      -0.699876       -19.0446
 109   2.0000      -0.688983       -18.7482
 110   2.0000      -0.684785       -18.6340
 111   2.0000      -0.680036       -18.5047
 112   2.0000      -0.678034       -18.4502
 113   2.0000      -0.665507       -18.1094
 114   2.0000      -0.663779       -18.0623
 115   2.0000      -0.661808       -18.0087
 116   2.0000      -0.651080       -17.7168
 117   2.0000      -0.643316       -17.5055
 118   2.0000      -0.634950       -17.2779
 119   2.0000      -0.631115       -17.1735
 120   2.0000      -0.630857       -17.1665
 121   2.0000      -0.629434       -17.1278
 122   2.0000      -0.626687       -17.0530
 123   2.0000      -0.624559       -16.9951
 124   2.0000      -0.615587       -16.7510
 125   2.0000      -0.607442       -16.5293
 126   2.0000      -0.598251       -16.2792
 127   2.0000      -0.584314       -15.9000
 128   2.0000      -0.581529       -15.8242
 129   2.0000      -0.577677       -15.7194
 130   2.0000      -0.572014       -15.5653
 131   2.0000      -0.564543       -15.3620
 132   2.0000      -0.562749       -15.3132
 133   2.0000      -0.561263       -15.2728
 134   2.0000      -0.560714       -15.2578
 135   2.0000      -0.557401       -15.1676
 136   2.0000      -0.555896       -15.1267
 137   2.0000      -0.544742       -14.8232
 138   2.0000      -0.542396       -14.7593
 139   2.0000      -0.540728       -14.7140
 140   2.0000      -0.539126       -14.6704
 141   2.0000      -0.535521       -14.5723
 142   2.0000      -0.531046       -14.4505
 143   2.0000      -0.527734       -14.3604
 144   2.0000      -0.524664       -14.2768
 145   2.0000      -0.518436       -14.1074
 146   2.0000      -0.515149       -14.0179
 147   2.0000      -0.513474       -13.9723
 148   2.0000      -0.509628       -13.8677
 149   2.0000      -0.507486       -13.8094
 150   2.0000      -0.503919       -13.7123
 151   2.0000      -0.501426       -13.6445
 152   2.0000      -0.497215       -13.5299
 153   2.0000      -0.492187       -13.3931
 154   2.0000      -0.487180       -13.2568
 155   2.0000      -0.484220       -13.1763
 156   2.0000      -0.480468       -13.0742
 157   2.0000      -0.477447       -12.9920
 158   2.0000      -0.471277       -12.8241
 159   2.0000      -0.468404       -12.7459
 160   2.0000      -0.462438       -12.5836
 161   2.0000      -0.459029       -12.4908
 162   2.0000      -0.454185       -12.3590
 163   2.0000      -0.453384       -12.3372
 164   2.0000      -0.451797       -12.2940
 165   2.0000      -0.450748       -12.2655
 166   2.0000      -0.448724       -12.2104
 167   2.0000      -0.444533       -12.0964
 168   2.0000      -0.435709       -11.8562
 169   2.0000      -0.434555       -11.8248
 170   2.0000      -0.432554       -11.7704
 171   2.0000      -0.427955       -11.6452
 172   2.0000      -0.426908       -11.6168
 173   2.0000      -0.425523       -11.5791
 174   2.0000      -0.424564       -11.5530
 175   2.0000      -0.415671       -11.3110
 176   2.0000      -0.415153       -11.2969
 177   2.0000      -0.413272       -11.2457
 178   2.0000      -0.409925       -11.1546
 179   2.0000      -0.406007       -11.0480
 180   2.0000      -0.398252       -10.8370
 181   2.0000      -0.390276       -10.6200
 182   2.0000      -0.378359       -10.2957
 183   2.0000      -0.376769       -10.2524
 184   2.0000      -0.373757       -10.1704
 185   2.0000      -0.371001       -10.0955
 186   2.0000      -0.363701        -9.8968
 187   2.0000      -0.357209        -9.7201
 188   2.0000      -0.346095        -9.4177
 189   2.0000      -0.336988        -9.1699
 190   2.0000      -0.325896        -8.8681
 191   2.0000      -0.285648        -7.7729
 192   2.0000      -0.282047        -7.6749
 193   0.0000      -0.113996        -3.1020
 194   0.0000      -0.104388        -2.8405
 195   0.0000      -0.074571        -2.0292
 196   0.0000      -0.062655        -1.7049
 197   0.0000      -0.049223        -1.3394

MULLIKEN ATOMIC CHARGES
-----------------------
   0 C :   -0.082464
   1 S :    0.219222
   2 C :   -0.229298
   3 C :    0.183537
   4 C :    0.066468
   5 C :   -0.013732
   6 C :   -0.077281
   7 C :   -0.174673
   8 N :    0.177686
   9 C :   -0.091055
  10 C :   -0.190676
  11 N :    0.180135
  12 C :   -0.015391
  13 C :    0.211865
  14 C :   -0.089130
  15 N :   -0.027471
  16 C :    0.020725
  17 C :   -0.001573
  18 C :   -0.117692
  19 N :    0.008296
  20 O :   -0.072258
  21 N :    0.100090
  22 C :    0.076638
  23 O :   -0.211581
  24 C :    0.038160
  25 C :   -0.029781
  26 C :    0.006339
  27 C :    0.031382
  28 O :   -0.110025
  29 C :    0.474650
  30 F :   -0.158066
  31 F :   -0.134812
  32 F :   -0.164099
  33 C :    0.207681
  34 C :   -0.016863
  35 N :   -0.092462
  36 C :    0.030426
  37 C :   -0.022329
  38 C :   -0.087315
  39 N :    0.041740
  40 O :   -0.077416
  41 N :    0.093987
  42 C :   -0.211371
  43 S :    0.232496
  44 C :   -0.095807
  45 C :    0.061936
  46 C :    0.193498
  47 C :   -0.012319
  48 C :   -0.094003
  49 C :   -0.187365
  50 N :    0.183022
  51 C :   -0.088827
  52 C :   -0.188994
  53 N :    0.188459
  54 C :   -0.005580
  55 H :    0.027374
  56 H :   -0.007630
  57 H :    0.015229
  58 H :    0.027762
  59 H :    0.024260
  60 H :    0.030999
  61 H :    0.024692
  62 H :    0.006131
  63 H :   -0.005546
Sum of atomic charges:   -0.0000000

LOEWDIN ATOMIC CHARGES
----------------------
   0 C :   -0.177183
   1 S :    0.582088
   2 C :   -0.179553
   3 C :   -0.036582
   4 C :   -0.057350
   5 C :    0.027190
   6 C :   -0.062085
   7 C :   -0.032476
   8 N :   -0.039283
   9 C :   -0.059500
  10 C :   -0.033608
  11 N :   -0.035518
  12 C :    0.036632
  13 C :   -0.048884
  14 C :   -0.012105
  15 N :   -0.026979
  16 C :    0.066757
  17 C :   -0.077339
  18 C :   -0.053988
  19 N :   -0.048260
  20 O :    0.101541
  21 N :    0.018206
  22 C :    0.048004
  23 O :    0.055439
  24 C :    0.020485
  25 C :   -0.010735
  26 C :   -0.088372
  27 C :    0.040830
  28 O :   -0.076760
  29 C :    0.137827
  30 F :   -0.056084
  31 F :   -0.034144
  32 F :   -0.056680
  33 C :   -0.062093
  34 C :   -0.005065
  35 N :   -0.069831
  36 C :    0.071433
  37 C :   -0.081917
  38 C :   -0.033242
  39 N :   -0.020494
  40 O :    0.098502
  41 N :    0.012753
  42 C :   -0.187155
  43 S :    0.575412
  44 C :   -0.177282
  45 C :   -0.058960
  46 C :   -0.039062
  47 C :    0.037180
  48 C :   -0.060898
  49 C :   -0.035886
  50 N :   -0.032690
  51 C :   -0.064123
  52 C :   -0.037744
  53 N :   -0.035458
  54 C :    0.026265
  55 H :    0.028043
  56 H :    0.041087
  57 H :    0.045681
  58 H :    0.040950
  59 H :    0.040254
  60 H :    0.041686
  61 H :    0.026592
  62 H :    0.043015
  63 H :    0.041515

  Mayer bond orders larger than 0.100000
B(  0-C ,  1-S ) :   1.2306 B(  0-C ,  2-C ) :   0.1020 B(  0-C ,  4-C ) :   1.3729
B(  0-C , 55-H ) :   0.9691 B(  1-S ,  2-C ) :   1.2086 B(  2-C ,  3-C ) :   1.2975
B(  2-C , 13-C ) :   1.1433 B(  3-C ,  4-C ) :   1.2194 B(  3-C , 12-C ) :   1.1979
B(  4-C ,  5-C ) :   1.1586 B(  5-C ,  6-C ) :   1.5519 B(  5-C , 56-H ) :   1.0098
B(  6-C ,  7-C ) :   1.0875 B(  6-C ,  9-C ) :   1.2485 B(  7-C ,  8-N ) :   3.0212
B(  9-C , 10-C ) :   1.0899 B(  9-C , 12-C ) :   1.5632 B( 10-C , 11-N ) :   3.0085
B( 12-C , 57-H ) :   0.9718 B( 13-C , 14-C ) :   1.3571 B( 13-C , 18-C ) :   1.1026
B( 14-C , 15-N ) :   1.3814 B( 14-C , 22-C ) :   1.0968 B( 15-N , 16-C ) :   1.7584
B( 16-C , 17-C ) :   1.0786 B( 16-C , 58-H ) :   0.9968 B( 17-C , 18-C ) :   1.1760
B( 17-C , 21-N ) :   1.6009 B( 18-C , 19-N ) :   1.5538 B( 19-N , 20-O ) :   1.0624
B( 19-N , 21-N ) :   0.1765 B( 20-O , 21-N ) :   1.1041 B( 22-C , 23-O ) :   1.1585
B( 22-C , 24-C ) :   0.1196 B( 22-C , 26-C ) :   1.4420 B( 23-O , 24-C ) :   1.0955
B( 24-C , 25-C ) :   1.4807 B( 24-C , 33-C ) :   1.0336 B( 25-C , 26-C ) :   1.1942
B( 25-C , 59-H ) :   0.9864 B( 26-C , 27-C ) :   0.9187 B( 27-C , 28-O ) :   2.2537
B( 27-C , 29-C ) :   0.8708 B( 29-C , 30-F ) :   1.1468 B( 29-C , 31-F ) :   1.1889
B( 29-C , 32-F ) :   1.1121 B( 33-C , 34-C ) :   1.3869 B( 33-C , 38-C ) :   1.1383
B( 34-C , 35-N ) :   1.3252 B( 34-C , 42-C ) :   1.1329 B( 35-N , 36-C ) :   1.7566
B( 36-C , 37-C ) :   1.0894 B( 36-C , 60-H ) :   0.9932 B( 37-C , 38-C ) :   1.1748
B( 37-C , 41-N ) :   1.6028 B( 38-C , 39-N ) :   1.5944 B( 39-N , 40-O ) :   1.0531
B( 39-N , 41-N ) :   0.1772 B( 40-O , 41-N ) :   1.1044 B( 42-C , 43-S ) :   1.2033
B( 42-C , 44-C ) :   0.1002 B( 42-C , 46-C ) :   1.3415 B( 43-S , 44-C ) :   1.2354
B( 44-C , 45-C ) :   1.3764 B( 44-C , 61-H ) :   0.9693 B( 45-C , 46-C ) :   1.2102
B( 45-C , 54-C ) :   1.1569 B( 46-C , 47-C ) :   1.1856 B( 47-C , 48-C ) :   1.5778
B( 47-C , 62-H ) :   0.9806 B( 48-C , 49-C ) :   1.0847 B( 48-C , 51-C ) :   1.2432
B( 49-C , 50-N ) :   3.0115 B( 51-C , 52-C ) :   1.0856 B( 51-C , 54-C ) :   1.5580
B( 52-C , 53-N ) :   3.0330 B( 54-C , 63-H ) :   1.0096

-----------------------------------------------------------------------------
         ABSORPTION SPECTRUM VIA TRANSITION ELECTRIC DIPOLE MOMENTS
-----------------------------------------------------------------------------
State   Energy  Wavelength   fosc         T2         TX        TY        TZ
        (cm-1)    (nm)                  (au**2)     (au)      (au)      (au)
-----------------------------------------------------------------------------
   0   17966.4    556.6   0.025611365   0.46930  -0.64638  -0.22684  -0.00560
   1   18938.0    528.0   0.136864157   2.37920   0.36054   1.49615   0.10358
   2   21259.9    470.4   0.224698456   3.47949  -1.86286   0.08214   0.04996
   3   21959.2    455.4   0.300389654   4.50343   0.98271  -1.31363  -1.34614
   4   26742.3    373.9   0.028411757   0.34976   0.46048  -0.37058  -0.01982
   5   27259.3    366.8   0.131808066   1.59185  -0.83675   0.23246  -0.91524
   6   27758.2    360.3   0.008297282   0.09841  -0.04740   0.28397   0.12458
   7   28891.9    346.1   0.007940307   0.09048   0.25329   0.00170  -0.16223
   8   29374.0    340.4   0.206680641   2.31639  -0.55947   0.42805  -1.34914
   9   29698.3    336.7   0.005182854   0.05745  -0.05176   0.22636   0.05945
  10   30174.9    331.4   0.010448194   0.11399  -0.00641   0.14914   0.30283
  11   30660.4    326.2   0.044551638   0.47837  -0.26619  -0.00963  -0.63829
  12   31472.3    317.7   0.042655734   0.44619  -0.04327   0.16911   0.64477
  13   32020.7    312.3   0.200111953   2.05740  -0.55497   0.65912  -1.14672
  14   32208.8    310.5   0.064860652   0.66295  -0.26675  -0.09625  -0.76324
  15   33220.4    301.0   0.024502533   0.24282  -0.04279   0.14401  -0.46931
  16   33411.4    299.3   0.050518688   0.49777  -0.11731  -0.03490  -0.69483
  17   33581.1    297.8   0.035829633   0.35126   0.33639  -0.08706   0.48013
  18   34064.2    293.6   0.007827425   0.07565  -0.05487  -0.18662  -0.19444
  19   35205.6    284.0   0.019719103   0.18440   0.17422  -0.35523   0.16690
  20   35401.4    282.5   0.012251487   0.11393   0.03075  -0.00063  -0.33613
  21   35564.3    281.2   0.053550567   0.49571  -0.42572   0.22766  -0.51249
  22   35977.1    278.0   0.194931372   1.78374  -0.68895   0.43448  -1.05845
  23   36537.3    273.7   0.053065819   0.47814  -0.08001   0.23945   0.64374
  24   36732.1    272.2   0.020099610   0.18014   0.30220  -0.16014  -0.25134
  25   37752.5    264.9   0.001039306   0.00906  -0.07224   0.01715   0.05958
  26   38023.7    263.0   0.046592304   0.40340  -0.01789   0.09279   0.62807
  27   38317.6    261.0   0.191098563   1.64186  -0.32861   0.16438  -1.22754
  28   38725.0    258.2   0.034469069   0.29303  -0.37397   0.34638   0.18220
  29   39139.3    255.5   0.123150290   1.03585  -0.03147  -0.13039   1.00889
  30   39311.4    254.4   0.020285819   0.16988  -0.32955   0.24732  -0.01081
  31   39520.1    253.0   0.044268521   0.36877   0.06177  -0.02659  -0.60353
  32   39592.9    252.6   0.049153281   0.40871  -0.12538   0.27591  -0.56290
  33   40195.0    248.8   0.003028916   0.02481   0.02748  -0.15360  -0.02146

FINAL SINGLE POINT ENERGY     -3317.985708875960

DIPOLE MOMENT
-------------
                                X             Y             Z
Electronic contribution:    -16.61668      13.38518      11.01859
Nuclear contribution   :     19.13895     -15.11904     -12.58339
                        -----------------------------------------
Total Dipole Moment    :      2.52227      -1.73386      -1.56480
                        -----------------------------------------
Magnitude (a.u.)       :      3.43755
Magnitude (Debye)      :      8.73755

Rotational constants in cm-1:     0.002393     0.001919     0.001359
Rotational constants in MHz :    71.732490    57.517380    40.733798

                             ****ORCA TERMINATED NORMALLY****
TOTAL RUN TIME: 0 days 0 hours 7 minutes 3 seconds 123 msec
