                         Program Version 4.2.0 -  RELEASE  -
|  1> # ORCA input file
|  2> # SCF done       -154.620399456068          0.000527657100
|  3> ! CAM-B3LYP def2-SVP def2/J RIJCOSX Grid4 TightSCF
|  4> %maxcore 5000
|  5> %tddft
|  6>     Mode sTDDFT
|  7>     Ethresh 5.0
|  8>     maxcore 5000
|  9> end
| 10>
| 11> %pal
| 12>   nprocs 6
| 13>   end
| 14> * xyz 0 1
| 15>    C        0.21418         0.36948        -0.63085
| 16>    S        0.19375        -1.27645        -1.06805
| 17>    C       -1.23495        -1.59483        -0.14138
| 18>    C       -1.69212        -0.42797         0.47024
| 19>    C       -0.84293         0.70187         0.18707
| 20>    C       -1.14699         1.97015         0.72923
| 21>    C       -2.26722         2.11998         1.50228
| 22>    C       -2.58617         3.38104         2.05741
| 23>    N       -2.82655         4.40984         2.50062
| 24>    C       -3.14241         1.00832         1.74247
| 25>    C       -4.31394         1.20904         2.50718
| 26>    N       -5.26793         1.35398         3.12540
| 27>    C       -2.86082        -0.23500         1.23363
| 28>    C       -1.77208        -2.92401        -0.08760
| 29>    C       -2.41870        -3.46386         1.03908
| 30>    N       -2.92435        -4.66843         1.04842
| 31>    C       -2.79486        -5.42272        -0.05376
| 32>    N       -2.13654        -5.03121        -1.15517
| 33>    C       -1.64547        -3.81868        -1.16388
| 34>    C       -3.39340        -6.71308        -0.00641
| 35>    S       -4.24567        -7.15824         1.42204
| 36>    C       -4.67207        -8.70929         0.77430
| 37>    C       -4.15800        -8.86919        -0.52876
| 38>    C       -3.42591        -7.73068        -0.97306
| 39>    C       -2.83951        -7.73360        -2.24600
| 40>    C       -2.97798        -8.82636        -3.07326
| 41>    C       -2.35259        -8.82512        -4.39448
| 42>    C       -2.16207        -7.74155        -5.13584
| 43>    C       -3.71904        -9.96459        -2.63456
| 44>    C       -3.89379       -11.14495        -3.53912
| 45>    C       -4.29025        -9.97250        -1.38767
| 46>    C       -5.43564        -9.64045         1.50141
| 47>    C       -5.92119        -9.43527         2.75640
| 48>    C       -6.69154       -10.37953         3.46346
| 49>    S       -7.09107       -11.92737         2.76538
| 50>    C       -8.00714       -12.42682         4.16868
| 51>    C       -7.97915       -11.41728         5.13617
| 52>    C       -7.25678       -10.26120         4.72852
| 53>    C       -7.14880        -9.06082         5.55443
| 54>    O       -6.47195        -8.08942         5.25589
| 55>    C       -7.95225        -9.08732         6.79598
| 56>    C       -7.98911        -7.94169         7.58724
| 57>    C       -8.72794        -7.91479         8.75451
| 58>    C       -9.43670        -9.04021         9.15210
| 59>    C       -9.40077       -10.18605         8.38149
| 60>    C       -8.66561       -10.22252         7.19759
| 61>    C       -8.63962       -11.47792         6.42540
| 62>    O       -9.14422       -12.50180         6.87838
| 63>    C       -8.60631       -13.71291         4.17763
| 64>    S       -9.00369       -14.54640         5.65138
| 65>    C       -9.42328       -15.96581         4.82884
| 66>    C       -9.33970       -15.84246         3.45448
| 67>    C       -8.86741       -14.54272         3.06541
| 68>    C       -8.78657       -14.24790         1.69463
| 69>    C       -9.09664       -15.20973         0.75955
| 70>    C       -8.99577       -14.89534        -0.61406
| 71>    N       -8.89356       -14.61758        -1.72155
| 72>    C       -9.51827       -16.51643         1.15561
| 73>    C       -9.81265       -17.48318         0.16713
| 74>    N      -10.05454       -18.27873        -0.62134
| 75>    C       -9.65250       -16.81736         2.48771
| 76>    H        0.99369         1.01088        -0.98997
| 77>    H       -0.50025         2.81044         0.52659
| 78>    H       -3.54815        -1.04959         1.40199
| 79>    H       -2.49099        -2.91362         1.96821
| 80>    H       -1.12899        -3.51902        -2.06905
| 81>    H       -2.26642        -6.87387        -2.54994
| 82>    H       -2.04047        -9.78814        -4.77457
| 83>    H       -2.48974        -6.76585        -4.81870
| 84>    H       -1.69008        -7.79617        -6.10187
| 85>    H       -2.93937       -11.64397        -3.70786
| 86>    H       -4.28598       -10.83313        -4.50568
| 87>    H       -4.58056       -11.86473        -3.10133
| 88>    H       -4.85213       -10.83590        -1.06407
| 89>    H       -5.64354       -10.58287         1.00867
| 90>    H       -5.72712        -8.50382         3.27071
| 91>    H       -7.42572        -7.08057         7.25979
| 92>    H       -8.75193        -7.01920         9.35697
| 93>    H      -10.01375        -9.02256        10.06443
| 94>    H       -9.93872       -11.07485         8.67622
| 95>    H       -9.75332       -16.82947         5.37231
| 96>    H       -8.50512       -13.26730         1.34713
| 97>    H       -9.99581       -17.79198         2.80024
| 98> *
| 99>
|100>                          ****END OF INPUT****

CARTESIAN COORDINATES (ANGSTROEM)
---------------------------------
  C      0.214180    0.369480   -0.630850
  S      0.193750   -1.276450   -1.068050
  C     -1.234950   -1.594830   -0.141380
  C     -1.692120   -0.427970    0.470240
  C     -0.842930    0.701870    0.187070
  C     -1.146990    1.970150    0.729230
  C     -2.267220    2.119980    1.502280
  C     -2.586170    3.381040    2.057410
  N     -2.826550    4.409840    2.500620
  C     -3.142410    1.008320    1.742470
  C     -4.313940    1.209040    2.507180
  N     -5.267930    1.353980    3.125400
  C     -2.860820   -0.235000    1.233630
  C     -1.772080   -2.924010   -0.087600
  C     -2.418700   -3.463860    1.039080
  N     -2.924350   -4.668430    1.048420
  C     -2.794860   -5.422720   -0.053760
  N     -2.136540   -5.031210   -1.155170
  C     -1.645470   -3.818680   -1.163880
  C     -3.393400   -6.713080   -0.006410
  S     -4.245670   -7.158240    1.422040
  C     -4.672070   -8.709290    0.774300
  C     -4.158000   -8.869190   -0.528760
  C     -3.425910   -7.730680   -0.973060
  C     -2.839510   -7.733600   -2.246000
  C     -2.977980   -8.826360   -3.073260
  C     -2.352590   -8.825120   -4.394480
  C     -2.162070   -7.741550   -5.135840
  C     -3.719040   -9.964590   -2.634560
  C     -3.893790  -11.144950   -3.539120
  C     -4.290250   -9.972500   -1.387670
  C     -5.435640   -9.640450    1.501410
  C     -5.921190   -9.435270    2.756400
  C     -6.691540  -10.379530    3.463460
  S     -7.091070  -11.927370    2.765380
  C     -8.007140  -12.426820    4.168680
  C     -7.979150  -11.417280    5.136170
  C     -7.256780  -10.261200    4.728520
  C     -7.148800   -9.060820    5.554430
  O     -6.471950   -8.089420    5.255890
  C     -7.952250   -9.087320    6.795980
  C     -7.989110   -7.941690    7.587240
  C     -8.727940   -7.914790    8.754510
  C     -9.436700   -9.040210    9.152100
  C     -9.400770  -10.186050    8.381490
  C     -8.665610  -10.222520    7.197590
  C     -8.639620  -11.477920    6.425400
  O     -9.144220  -12.501800    6.878380
  C     -8.606310  -13.712910    4.177630
  S     -9.003690  -14.546400    5.651380
  C     -9.423280  -15.965810    4.828840
  C     -9.339700  -15.842460    3.454480
  C     -8.867410  -14.542720    3.065410
  C     -8.786570  -14.247900    1.694630
  C     -9.096640  -15.209730    0.759550
  C     -8.995770  -14.895340   -0.614060
  N     -8.893560  -14.617580   -1.721550
  C     -9.518270  -16.516430    1.155610
  C     -9.812650  -17.483180    0.167130
  N    -10.054540  -18.278730   -0.621340
  C     -9.652500  -16.817360    2.487710
  H      0.993690    1.010880   -0.989970
  H     -0.500250    2.810440    0.526590
  H     -3.548150   -1.049590    1.401990
  H     -2.490990   -2.913620    1.968210
  H     -1.128990   -3.519020   -2.069050
  H     -2.266420   -6.873870   -2.549940
  H     -2.040470   -9.788140   -4.774570
  H     -2.489740   -6.765850   -4.818700
  H     -1.690080   -7.796170   -6.101870
  H     -2.939370  -11.643970   -3.707860
  H     -4.285980  -10.833130   -4.505680
  H     -4.580560  -11.864730   -3.101330
  H     -4.852130  -10.835900   -1.064070
  H     -5.643540  -10.582870    1.008670
  H     -5.727120   -8.503820    3.270710
  H     -7.425720   -7.080570    7.259790
  H     -8.751930   -7.019200    9.356970
  H    -10.013750   -9.022560   10.064430
  H     -9.938720  -11.074850    8.676220
  H     -9.753320  -16.829470    5.372310
  H     -8.505120  -13.267300    1.347130
  H     -9.995810  -17.791980    2.800240

 Total Charge           Charge          ....    0
 Multiplicity           Mult            ....    1
 Number of Electrons    NEL             ....  438
 Basis Dimension        Dim             ....  980

ORBITAL ENERGIES
----------------

  NO   OCC          E(Eh)            E(eV)
   0   2.0000     -88.998684     -2421.7773
   1   2.0000     -88.989636     -2421.5311
   2   2.0000     -88.982332     -2421.3324
   3   2.0000     -88.970656     -2421.0146
   4   2.0000     -19.222116      -523.0604
   5   2.0000     -19.212102      -522.7879
   6   2.0000     -14.427320      -392.5873
   7   2.0000     -14.426002      -392.5515
   8   2.0000     -14.411499      -392.1568
   9   2.0000     -14.410904      -392.1406
  10   2.0000     -14.409690      -392.1076
  11   2.0000     -14.408133      -392.0652
  12   2.0000     -10.375458      -282.3306
  13   2.0000     -10.368336      -282.1368
  14   2.0000     -10.362157      -281.9686
  15   2.0000     -10.346589      -281.5450
  16   2.0000     -10.340675      -281.3841
  17   2.0000     -10.340368      -281.3757
  18   2.0000     -10.336242      -281.2634
  19   2.0000     -10.335504      -281.2434
  20   2.0000     -10.335124      -281.2330
  21   2.0000     -10.331623      -281.1378
  22   2.0000     -10.331335      -281.1299
  23   2.0000     -10.330900      -281.1181
  24   2.0000     -10.330125      -281.0970
  25   2.0000     -10.324800      -280.9521
  26   2.0000     -10.319836      -280.8170
  27   2.0000     -10.319563      -280.8096
  28   2.0000     -10.314860      -280.6816
  29   2.0000     -10.314797      -280.6799
  30   2.0000     -10.314782      -280.6795
  31   2.0000     -10.313862      -280.6545
  32   2.0000     -10.313227      -280.6372
  33   2.0000     -10.312261      -280.6109
  34   2.0000     -10.312202      -280.6093
  35   2.0000     -10.311861      -280.6000
  36   2.0000     -10.309921      -280.5472
  37   2.0000     -10.309317      -280.5308
  38   2.0000     -10.308361      -280.5048
  39   2.0000     -10.306830      -280.4631
  40   2.0000     -10.305651      -280.4310
  41   2.0000     -10.305449      -280.4255
  42   2.0000     -10.301896      -280.3288
  43   2.0000     -10.301855      -280.3277
  44   2.0000     -10.296065      -280.1702
  45   2.0000     -10.294259      -280.1210
  46   2.0000     -10.292708      -280.0788
  47   2.0000     -10.289054      -279.9794
  48   2.0000     -10.288657      -279.9686
  49   2.0000     -10.287798      -279.9452
  50   2.0000     -10.287071      -279.9254
  51   2.0000     -10.286888      -279.9204
  52   2.0000     -10.286409      -279.9074
  53   2.0000     -10.285217      -279.8750
  54   2.0000     -10.283056      -279.8162
  55   2.0000     -10.279536      -279.7204
  56   2.0000     -10.273886      -279.5666
  57   2.0000     -10.273104      -279.5454
  58   2.0000     -10.267695      -279.3982
  59   2.0000     -10.265670      -279.3431
  60   2.0000     -10.265033      -279.3257
  61   2.0000      -8.093906      -220.2464
  62   2.0000      -8.082516      -219.9364
  63   2.0000      -8.077561      -219.8016
  64   2.0000      -8.064838      -219.4554
  65   2.0000      -6.062760      -164.9761
  66   2.0000      -6.058390      -164.8572
  67   2.0000      -6.057200      -164.8248
  68   2.0000      -6.051462      -164.6687
  69   2.0000      -6.046862      -164.5435
  70   2.0000      -6.046796      -164.5417
  71   2.0000      -6.045934      -164.5182
  72   2.0000      -6.042664      -164.4292
  73   2.0000      -6.039641      -164.3470
  74   2.0000      -6.033751      -164.1867
  75   2.0000      -6.029592      -164.0735
  76   2.0000      -6.027881      -164.0270
  77   2.0000      -1.139366       -31.0037
  78   2.0000      -1.128141       -30.6983
  79   2.0000      -1.101344       -29.9691
  80   2.0000      -1.030122       -28.0311
  81   2.0000      -1.026410       -27.9300
  82   2.0000      -1.009781       -27.4776
  83   2.0000      -1.005492       -27.3608
  84   2.0000      -1.001188       -27.2437
  85   2.0000      -0.997573       -27.1453
  86   2.0000      -0.996290       -27.1104
  87   2.0000      -0.991628       -26.9836
  88   2.0000      -0.989423       -26.9236
  89   2.0000      -0.971300       -26.4304
  90   2.0000      -0.966315       -26.2948
  91   2.0000      -0.960019       -26.1235
  92   2.0000      -0.946308       -25.7503
  93   2.0000      -0.932004       -25.3611
  94   2.0000      -0.917409       -24.9640
  95   2.0000      -0.908409       -24.7191
  96   2.0000      -0.897331       -24.4176
  97   2.0000      -0.889239       -24.1974
  98   2.0000      -0.880987       -23.9729
  99   2.0000      -0.876893       -23.8615
 100   2.0000      -0.875524       -23.8242
 101   2.0000      -0.870611       -23.6905
 102   2.0000      -0.856975       -23.3195
 103   2.0000      -0.855713       -23.2851
 104   2.0000      -0.850062       -23.1314
 105   2.0000      -0.841385       -22.8952
 106   2.0000      -0.826616       -22.4934
 107   2.0000      -0.816286       -22.2123
 108   2.0000      -0.796572       -21.6758
 109   2.0000      -0.781032       -21.2530
 110   2.0000      -0.774191       -21.0668
 111   2.0000      -0.767203       -20.8766
 112   2.0000      -0.761450       -20.7201
 113   2.0000      -0.759154       -20.6576
 114   2.0000      -0.757949       -20.6248
 115   2.0000      -0.744634       -20.2625
 116   2.0000      -0.734028       -19.9739
 117   2.0000      -0.729978       -19.8637
 118   2.0000      -0.718815       -19.5599
 119   2.0000      -0.717067       -19.5124
 120   2.0000      -0.708014       -19.2660
 121   2.0000      -0.695850       -18.9350
 122   2.0000      -0.681904       -18.5556
 123   2.0000      -0.677586       -18.4381
 124   2.0000      -0.670810       -18.2537
 125   2.0000      -0.654783       -17.8176
 126   2.0000      -0.652556       -17.7569
 127   2.0000      -0.646474       -17.5915
 128   2.0000      -0.638454       -17.3732
 129   2.0000      -0.635679       -17.2977
 130   2.0000      -0.632239       -17.2041
 131   2.0000      -0.629018       -17.1165
 132   2.0000      -0.620443       -16.8831
 133   2.0000      -0.616797       -16.7839
 134   2.0000      -0.612537       -16.6680
 135   2.0000      -0.608682       -16.5631
 136   2.0000      -0.602182       -16.3862
 137   2.0000      -0.594327       -16.1725
 138   2.0000      -0.576111       -15.6768
 139   2.0000      -0.572375       -15.5751
 140   2.0000      -0.565657       -15.3923
 141   2.0000      -0.563340       -15.3293
 142   2.0000      -0.558671       -15.2022
 143   2.0000      -0.556849       -15.1526
 144   2.0000      -0.550975       -14.9928
 145   2.0000      -0.547504       -14.8983
 146   2.0000      -0.546255       -14.8644
 147   2.0000      -0.545191       -14.8354
 148   2.0000      -0.538480       -14.6528
 149   2.0000      -0.535638       -14.5754
 150   2.0000      -0.534242       -14.5375
 151   2.0000      -0.531890       -14.4735
 152   2.0000      -0.529787       -14.4162
 153   2.0000      -0.527399       -14.3513
 154   2.0000      -0.527100       -14.3431
 155   2.0000      -0.525043       -14.2871
 156   2.0000      -0.523583       -14.2474
 157   2.0000      -0.520186       -14.1550
 158   2.0000      -0.518157       -14.0998
 159   2.0000      -0.512952       -13.9581
 160   2.0000      -0.509621       -13.8675
 161   2.0000      -0.505885       -13.7658
 162   2.0000      -0.501374       -13.6431
 163   2.0000      -0.496109       -13.4998
 164   2.0000      -0.495388       -13.4802
 165   2.0000      -0.491299       -13.3689
 166   2.0000      -0.490659       -13.3515
 167   2.0000      -0.487205       -13.2575
 168   2.0000      -0.484909       -13.1950
 169   2.0000      -0.480894       -13.0858
 170   2.0000      -0.474417       -12.9095
 171   2.0000      -0.472919       -12.8688
 172   2.0000      -0.469462       -12.7747
 173   2.0000      -0.464868       -12.6497
 174   2.0000      -0.463759       -12.6195
 175   2.0000      -0.458817       -12.4850
 176   2.0000      -0.455921       -12.4062
 177   2.0000      -0.454529       -12.3684
 178   2.0000      -0.447596       -12.1797
 179   2.0000      -0.447118       -12.1667
 180   2.0000      -0.444334       -12.0909
 181   2.0000      -0.440901       -11.9975
 182   2.0000      -0.438548       -11.9335
 183   2.0000      -0.437843       -11.9143
 184   2.0000      -0.437534       -11.9059
 185   2.0000      -0.436245       -11.8708
 186   2.0000      -0.435256       -11.8439
 187   2.0000      -0.429912       -11.6985
 188   2.0000      -0.427728       -11.6391
 189   2.0000      -0.423690       -11.5292
 190   2.0000      -0.422552       -11.4982
 191   2.0000      -0.420594       -11.4450
 192   2.0000      -0.418663       -11.3924
 193   2.0000      -0.416133       -11.3236
 194   2.0000      -0.413760       -11.2590
 195   2.0000      -0.412850       -11.2342
 196   2.0000      -0.411617       -11.2007
 197   2.0000      -0.410980       -11.1833
 198   2.0000      -0.408473       -11.1151
 199   2.0000      -0.404993       -11.0204
 200   2.0000      -0.398674       -10.8485
 201   2.0000      -0.388324       -10.5668
 202   2.0000      -0.385415       -10.4877
 203   2.0000      -0.371649       -10.1131
 204   2.0000      -0.359653        -9.7866
 205   2.0000      -0.350434        -9.5358
 206   2.0000      -0.347613        -9.4590
 207   2.0000      -0.345582        -9.4038
 208   2.0000      -0.338594        -9.2136
 209   2.0000      -0.338053        -9.1989
 210   2.0000      -0.336881        -9.1670
 211   2.0000      -0.335726        -9.1356
 212   2.0000      -0.335106        -9.1187
 213   2.0000      -0.325339        -8.8529
 214   2.0000      -0.319192        -8.6857
 215   2.0000      -0.298105        -8.1119
 216   2.0000      -0.289559        -7.8793
 217   2.0000      -0.273198        -7.4341
 218   2.0000      -0.235988        -6.4216
 219   0.0000      -0.097593        -2.6556
 220   0.0000      -0.081643        -2.2216
 221   0.0000      -0.072069        -1.9611
 222   0.0000      -0.053298        -1.4503
 223   0.0000      -0.038865        -1.0576

MULLIKEN ATOMIC CHARGES
-----------------------
   0 C :   -0.124120
   1 S :    0.193357
   2 C :   -0.144300
   3 C :    0.157987
   4 C :    0.097033
   5 C :   -0.014994
   6 C :   -0.074142
   7 C :   -0.173524
   8 N :    0.173544
   9 C :   -0.071379
  10 C :   -0.174272
  11 N :    0.170968
  12 C :   -0.054076
  13 C :   -0.017790
  14 C :    0.030211
  15 N :   -0.065071
  16 C :   -0.080303
  17 N :   -0.048694
  18 C :    0.036519
  19 C :   -0.069304
  20 S :    0.218930
  21 C :   -0.092389
  22 C :    0.136575
  23 C :    0.094422
  24 C :   -0.104918
  25 C :    0.104638
  26 C :   -0.040097
  27 C :   -0.004953
  28 C :   -0.073567
  29 C :    0.095040
  30 C :   -0.103145
  31 C :   -0.002252
  32 C :   -0.015278
  33 C :   -0.112072
  34 S :    0.113004
  35 C :   -0.117425
  36 C :    0.047101
  37 C :    0.038027
  38 C :    0.122270
  39 O :   -0.169494
  40 C :   -0.014561
  41 C :   -0.020872
  42 C :    0.051791
  43 C :    0.049467
  44 C :   -0.018615
  45 C :   -0.007424
  46 C :    0.131584
  47 O :   -0.213478
  48 C :   -0.148437
  49 S :    0.273740
  50 C :   -0.106388
  51 C :    0.089787
  52 C :    0.127300
  53 C :   -0.059317
  54 C :   -0.070928
  55 C :   -0.178841
  56 N :    0.165633
  57 C :   -0.073886
  58 C :   -0.174622
  59 N :    0.168929
  60 C :   -0.016327
  61 H :    0.031873
  62 H :   -0.003894
  63 H :   -0.000551
  64 H :    0.017783
  65 H :    0.006429
  66 H :   -0.023910
  67 H :   -0.004222
  68 H :    0.022096
  69 H :    0.021913
  70 H :    0.032846
  71 H :    0.034242
  72 H :    0.017190
  73 H :   -0.041289
  74 H :   -0.001003
  75 H :    0.029257
  76 H :    0.002665
  77 H :   -0.000250
  78 H :   -0.002184
  79 H :   -0.001530
  80 H :    0.028241
  81 H :    0.003847
  82 H :   -0.006156
Sum of atomic charges:   -0.0000000

LOEWDIN ATOMIC CHARGES
----------------------
   0 C :   -0.186618
   1 S :    0.517894
   2 C :   -0.170796
   3 C :   -0.047595
   4 C :   -0.049965
   5 C :    0.036800
   6 C :   -0.055687
   7 C :   -0.032527
   8 N :   -0.034617
   9 C :   -0.055506
  10 C :   -0.033323
  11 N :   -0.035154
  12 C :    0.030146
  13 C :   -0.104030
  14 C :    0.053189
  15 N :   -0.089337
  16 C :    0.019091
  17 N :   -0.073080
  18 C :    0.048351
  19 C :   -0.196651
  20 S :    0.531076
  21 C :   -0.171052
  22 C :   -0.035503
  23 C :   -0.028521
  24 C :   -0.001563
  25 C :   -0.021277
  26 C :   -0.021903
  27 C :   -0.031868
  28 C :   -0.009021
  29 C :   -0.044498
  30 C :   -0.030058
  31 C :   -0.020361
  32 C :   -0.050152
  33 C :   -0.118007
  34 S :    0.473388
  35 C :   -0.130604
  36 C :   -0.099321
  37 C :   -0.094508
  38 C :    0.084098
  39 O :   -0.152598
  40 C :   -0.046658
  41 C :    0.016159
  42 C :   -0.002634
  43 C :   -0.005619
  44 C :    0.014971
  45 C :   -0.050179
  46 C :    0.087664
  47 O :   -0.183619
  48 C :   -0.209481
  49 S :    0.601358
  50 C :   -0.188139
  51 C :   -0.055247
  52 C :   -0.043189
  53 C :    0.012873
  54 C :   -0.053396
  55 C :   -0.031568
  56 N :   -0.041388
  57 C :   -0.060439
  58 C :   -0.032318
  59 N :   -0.038446
  60 C :    0.037881
  61 H :    0.030416
  62 H :    0.045679
  63 H :    0.043663
  64 H :    0.028983
  65 H :    0.020680
  66 H :    0.025812
  67 H :    0.028444
  68 H :    0.023187
  69 H :    0.025123
  70 H :    0.036025
  71 H :    0.037422
  72 H :    0.032964
  73 H :    0.024458
  74 H :    0.025386
  75 H :    0.034442
  76 H :    0.037939
  77 H :    0.034349
  78 H :    0.033703
  79 H :    0.036176
  80 H :    0.029246
  81 H :    0.024005
  82 H :    0.044982

  Mayer bond orders larger than 0.100000
B(  0-C ,  1-S ) :   1.2056 B(  0-C ,  2-C ) :   0.1106 B(  0-C ,  4-C ) :   1.4199
B(  0-C , 61-H ) :   0.9710 B(  1-S ,  2-C ) :   1.2061 B(  2-C ,  3-C ) :   1.3767
B(  2-C , 13-C ) :   1.0498 B(  3-C ,  4-C ) :   1.1844 B(  3-C , 12-C ) :   1.1745
B(  4-C ,  5-C ) :   1.1518 B(  5-C ,  6-C ) :   1.5875 B(  5-C , 62-H ) :   1.0067
B(  6-C ,  7-C ) :   1.0765 B(  6-C ,  9-C ) :   1.2164 B(  7-C ,  8-N ) :   3.0482
B(  9-C , 10-C ) :   1.0807 B(  9-C , 12-C ) :   1.5862 B( 10-C , 11-N ) :   3.0420
B( 12-C , 63-H ) :   0.9938 B( 13-C , 14-C ) :   1.3021 B( 13-C , 18-C ) :   1.3052
B( 14-C , 15-N ) :   1.5994 B( 14-C , 64-H ) :   0.9857 B( 15-N , 16-C ) :   1.5529
B( 16-C , 17-N ) :   1.5236 B( 16-C , 19-C ) :   1.0814 B( 17-N , 18-C ) :   1.5900
B( 18-C , 65-H ) :   0.9838 B( 19-C , 20-S ) :   1.1610 B( 19-C , 21-C ) :   0.1152
B( 19-C , 23-C ) :   1.3278 B( 20-S , 21-C ) :   1.1451 B( 21-C , 22-C ) :   1.2821
B( 21-C , 31-C ) :   1.2172 B( 22-C , 23-C ) :   1.2111 B( 22-C , 30-C ) :   1.1999
B( 23-C , 24-C ) :   1.2287 B( 24-C , 25-C ) :   1.4629 B( 24-C , 66-H ) :   0.9850
B( 25-C , 26-C ) :   1.0330 B( 25-C , 28-C ) :   1.2074 B( 26-C , 27-C ) :   1.9769
B( 26-C , 67-H ) :   0.9520 B( 27-C , 68-H ) :   0.9565 B( 27-C , 69-H ) :   0.9492
B( 28-C , 29-C ) :   1.0861 B( 28-C , 30-C ) :   1.5484 B( 29-C , 70-H ) :   0.9398
B( 29-C , 71-H ) :   0.9433 B( 29-C , 72-H ) :   0.9543 B( 30-C , 73-H ) :   0.9891
B( 31-C , 32-C ) :   1.5510 B( 31-C , 74-H ) :   0.9655 B( 32-C , 33-C ) :   1.2188
B( 32-C , 75-H ) :   0.9544 B( 33-C , 34-S ) :   1.0942 B( 33-C , 37-C ) :   1.4561
B( 34-S , 35-C ) :   1.1348 B( 35-C , 36-C ) :   1.4534 B( 35-C , 48-C ) :   1.1913
B( 36-C , 37-C ) :   1.1749 B( 36-C , 46-C ) :   0.9970 B( 37-C , 38-C ) :   0.9751
B( 38-C , 39-O ) :   2.1555 B( 38-C , 40-C ) :   0.9518 B( 40-C , 41-C ) :   1.4042
B( 40-C , 45-C ) :   1.3440 B( 41-C , 42-C ) :   1.3608 B( 41-C , 76-H ) :   0.9934
B( 42-C , 43-C ) :   1.3519 B( 42-C , 77-H ) :   0.9927 B( 43-C , 44-C ) :   1.3645
B( 43-C , 78-H ) :   0.9926 B( 44-C , 45-C ) :   1.3967 B( 44-C , 79-H ) :   0.9933
B( 45-C , 46-C ) :   0.9755 B( 46-C , 47-O ) :   2.0575 B( 48-C , 49-S ) :   1.1982
B( 48-C , 52-C ) :   1.2916 B( 49-S , 50-C ) :   1.2441 B( 50-C , 51-C ) :   1.3611
B( 50-C , 80-H ) :   0.9688 B( 51-C , 52-C ) :   1.2117 B( 51-C , 60-C ) :   1.1761
B( 52-C , 53-C ) :   1.1915 B( 53-C , 54-C ) :   1.5752 B( 53-C , 81-H ) :   0.9714
B( 54-C , 55-C ) :   1.0827 B( 54-C , 57-C ) :   1.2457 B( 55-C , 56-N ) :   3.0418
B( 57-C , 58-C ) :   1.0748 B( 57-C , 60-C ) :   1.5516 B( 58-C , 59-N ) :   3.0461
B( 60-C , 82-H ) :   1.0068

-----------------------------------------------------------------------------
         ABSORPTION SPECTRUM VIA TRANSITION ELECTRIC DIPOLE MOMENTS
-----------------------------------------------------------------------------
State   Energy  Wavelength   fosc         T2         TX        TY        TZ
        (cm-1)    (nm)                  (au**2)     (au)      (au)      (au)
-----------------------------------------------------------------------------
   0   15124.1    661.2   1.281485847  27.89454   2.69802   4.11379  -1.92143
   1   19379.1    516.0   0.196935304   3.34554  -0.18190  -1.36801  -1.20042
   2   22235.5    449.7   0.267695553   3.96342  -0.26275   1.36271   1.42738
   3   23774.3    420.6   0.021145515   0.29281   0.36393   0.04673  -0.39772
   4   25112.3    398.2   0.121261016   1.58968  -0.23994  -1.05824  -0.64206
   5   25933.9    385.6   0.058919459   0.74794  -0.31657  -0.76126  -0.26117
   6   27299.8    366.3   0.211214661   2.54707   0.28252   1.53947   0.31191
   7   27562.1    362.8   0.027969408   0.33408   0.12736   0.53889   0.16570
   8   28282.0    353.6   0.138957565   1.61751   0.23077  -0.58792  -1.10390
   9   28369.2    352.5   0.190926336   2.21561   0.45674  -0.44209  -1.34594
  10   29480.2    339.2   0.034190277   0.38181  -0.04192  -0.40924  -0.46106
  11   29828.4    335.3   0.006355227   0.07014   0.11697   0.22045  -0.08867
  12   30858.4    324.1   0.035069825   0.37414  -0.21547  -0.57245   0.00456
  13   31323.7    319.2   0.002283369   0.02400  -0.02163  -0.14229   0.05731
  14   32051.7    312.0   0.063026032   0.64736  -0.50773   0.00761   0.62411
  15   32753.6    305.3   0.022501259   0.22616  -0.12686   0.04468   0.45615
  16   33386.2    299.5   0.109490111   1.07965   0.02214   0.90562   0.50893
  17   33716.0    296.6   0.005157849   0.05036  -0.05732  -0.21654   0.01375
  18   34398.1    290.7   0.071133499   0.68079   0.21929  -0.15168  -0.78083
  19   34908.7    286.5   0.026478681   0.24971   0.14378  -0.15637  -0.45231
  20   35032.5    285.4   0.073017977   0.68617  -0.04733   0.38637   0.73120
  21   35114.6    284.8   0.016825103   0.15774  -0.06012  -0.36870  -0.13485
  22   35516.1    281.6   0.014379810   0.13329   0.11452  -0.17245  -0.30073
  23   35858.3    278.9   0.010264715   0.09424   0.30470  -0.02953  -0.02293
  24   36093.1    277.1   0.167257030   1.52558  -0.07954   1.03827   0.66427
  25   36322.7    275.3   0.061500554   0.55741   0.35517   0.12871  -0.64397
  26   36444.5    274.4   0.068496781   0.61875   0.27944   0.43928  -0.58966
  27   36782.7    271.9   0.034765549   0.31116  -0.18999  -0.52445  -0.00425
  28   37259.6    268.4   0.061044027   0.53936  -0.16670   0.46695  -0.54178
  29   37400.2    267.4   0.127817828   1.12510   0.11164   0.38984   0.98014
  30   37624.5    265.8   0.011415031   0.09988  -0.14382   0.02954   0.27986
  31   37827.7    264.4   0.067287085   0.58559   0.39446   0.13703  -0.64126
  32   37938.4    263.6   0.185785298   1.61216   0.46218  -0.54864  -1.04763
  33   38033.2    262.9   0.380877496   3.29684  -0.44317   0.59105   1.65864
  34   38810.5    257.7   0.024353040   0.20658   0.32945   0.25157  -0.18641
  35   38927.0    256.9   0.068327645   0.57786   0.28334   0.68245   0.17845
  36   39276.1    254.6   0.010437879   0.08749  -0.06831   0.17371   0.22945
  37   39451.6    253.5   0.025321881   0.21130   0.01022  -0.39017   0.24283
  38   39519.2    253.0   0.015286339   0.12734   0.08364   0.25325   0.23709
  39   39628.6    252.3   0.104289276   0.86638  -0.02661   0.53395   0.76195
  40   40143.8    249.1   0.090495126   0.74213  -0.33672   0.78766   0.09136

FINAL SINGLE POINT ENERGY     -3948.651761540822

DIPOLE MOMENT
-------------
                                X             Y             Z
Electronic contribution:     -9.27120       2.55690      21.26932
Nuclear contribution   :     11.68905      -2.98919     -20.61739
                        -----------------------------------------
Total Dipole Moment    :      2.41786      -0.43229       0.65193
                        -----------------------------------------
Magnitude (a.u.)       :      2.54124
Magnitude (Debye)      :      6.45933

Rotational constants in cm-1:     0.001643     0.000463     0.000370
Rotational constants in MHz :    49.248111    13.875675    11.103599

                             ****ORCA TERMINATED NORMALLY****
TOTAL RUN TIME: 0 days 0 hours 7 minutes 18 seconds 965 msec
