                         Program Version 4.2.0 -  RELEASE  -
|  1> # ORCA input file
|  2> # SCF done       -158.183521545686          0.000269424241
|  3> ! CAM-B3LYP def2-SVP def2/J RIJCOSX Grid4 TightSCF
|  4> %maxcore 5000
|  5> %tddft
|  6>     Mode sTDDFT
|  7>     Ethresh 5.0
|  8>     maxcore 5000
|  9> end
| 10>
| 11> %pal
| 12>   nprocs 6
| 13>   end
| 14> * xyz 0 1
| 15>    C        2.17108        -0.87184         0.57242
| 16>    S        1.62611        -2.24206        -0.26733
| 17>    C        0.32946        -2.51030         0.84582
| 18>    C        0.36066        -1.57364         1.88085
| 19>    C        1.42566        -0.62022         1.70709
| 20>    C        1.62018         0.41091         2.64992
| 21>    C        0.81031         0.47341         3.75361
| 22>    C        0.98824         1.49881         4.71186
| 23>    N        1.14740         2.33753         5.47576
| 24>    C       -0.20893        -0.51222         3.96213
| 25>    C       -0.98703        -0.45496         5.14188
| 26>    N       -1.61817        -0.42463         6.09756
| 27>    C       -0.42572        -1.51384         3.04865
| 28>    C       -0.58173        -3.59262         0.58773
| 29>    C       -1.94334        -3.57041         0.84724
| 30>    F       -2.51866        -2.46452         1.34635
| 31>    C       -2.79662        -4.64638         0.55817
| 32>    F       -4.09562        -4.48592         0.85797
| 33>    C       -2.38185        -5.81780        -0.05940
| 34>    C       -0.99151        -5.87935        -0.34247
| 35>    C       -0.11593        -4.78408        -0.02845
| 36>    N        1.14796        -5.04988        -0.35014
| 37>    S        1.23324        -6.52761        -0.97204
| 38>    N       -0.32285        -6.90453        -0.86836
| 39>    C       -3.28889        -6.89661        -0.35664
| 40>    S       -4.56655        -7.28427         0.73016
| 41>    C       -5.08615        -8.63493        -0.20481
| 42>    C       -4.33207        -8.74616        -1.37807
| 43>    C       -3.30015        -7.75188        -1.46317
| 44>    C       -2.50366        -7.67275        -2.62007
| 45>    C       -2.69400        -8.56870        -3.64249
| 46>    C       -1.88025        -8.49825        -4.79645
| 47>    N       -1.20378        -8.42339        -5.71827
| 48>    C       -3.72577        -9.55432        -3.56117
| 49>    C       -3.92734       -10.44767        -4.63829
| 50>    N       -4.10778       -11.18556        -5.49610
| 51>    C       -4.53953        -9.62398        -2.45772
| 52>    C       -6.15485        -9.47521         0.27048
| 53>    C       -7.23689        -8.97125         0.97872
| 54>    F       -7.31412        -7.65223         1.21749
| 55>    C       -8.29740        -9.76296         1.43798
| 56>    F       -9.29530        -9.12979         2.07766
| 57>    C       -8.35084       -11.14091         1.28311
| 58>    C       -7.24300       -11.70172         0.59436
| 59>    C       -6.16876       -10.88401         0.09237
| 60>    N       -5.23361       -11.61821        -0.50842
| 61>    S       -5.66911       -13.16177        -0.48263
| 62>    N       -7.05734       -12.98777         0.30102
| 63>    C       -9.47490       -11.92332         1.73069
| 64>    S      -11.07399       -11.26916         1.61982
| 65>    C      -11.79202       -12.69866         2.18160
| 66>    C      -10.85801       -13.66872         2.48464
| 67>    C       -9.51168       -13.22502         2.23437
| 68>    C       -8.43968       -14.07134         2.57611
| 69>    C       -8.69454       -15.32481         3.07347
| 70>    C       -7.61516       -16.17578         3.40463
| 71>    N       -6.72310       -16.84734         3.66202
| 72>    C      -10.03798       -15.78492         3.26918
| 73>    C      -10.25573       -17.08997         3.76968
| 74>    N      -10.44931       -18.14516         4.17161
| 75>    C      -11.09898       -14.96367         2.99142
| 76>    H        3.01238        -0.31392         0.21192
| 77>    H        2.40782         1.13403         2.50177
| 78>    H       -1.18537        -2.25211         3.24692
| 79>    H       -1.75238        -6.90700        -2.71365
| 80>    H       -5.34003       -10.34347        -2.42969
| 81>    H      -12.85795       -12.76931         2.26978
| 82>    H       -7.42178       -13.74238         2.45187
| 83>    H      -12.11225       -15.29487         3.16136
| 84> *
| 85>
| 86>                          ****END OF INPUT****

CARTESIAN COORDINATES (ANGSTROEM)
---------------------------------
  C      2.171080   -0.871840    0.572420
  S      1.626110   -2.242060   -0.267330
  C      0.329460   -2.510300    0.845820
  C      0.360660   -1.573640    1.880850
  C      1.425660   -0.620220    1.707090
  C      1.620180    0.410910    2.649920
  C      0.810310    0.473410    3.753610
  C      0.988240    1.498810    4.711860
  N      1.147400    2.337530    5.475760
  C     -0.208930   -0.512220    3.962130
  C     -0.987030   -0.454960    5.141880
  N     -1.618170   -0.424630    6.097560
  C     -0.425720   -1.513840    3.048650
  C     -0.581730   -3.592620    0.587730
  C     -1.943340   -3.570410    0.847240
  F     -2.518660   -2.464520    1.346350
  C     -2.796620   -4.646380    0.558170
  F     -4.095620   -4.485920    0.857970
  C     -2.381850   -5.817800   -0.059400
  C     -0.991510   -5.879350   -0.342470
  C     -0.115930   -4.784080   -0.028450
  N      1.147960   -5.049880   -0.350140
  S      1.233240   -6.527610   -0.972040
  N     -0.322850   -6.904530   -0.868360
  C     -3.288890   -6.896610   -0.356640
  S     -4.566550   -7.284270    0.730160
  C     -5.086150   -8.634930   -0.204810
  C     -4.332070   -8.746160   -1.378070
  C     -3.300150   -7.751880   -1.463170
  C     -2.503660   -7.672750   -2.620070
  C     -2.694000   -8.568700   -3.642490
  C     -1.880250   -8.498250   -4.796450
  N     -1.203780   -8.423390   -5.718270
  C     -3.725770   -9.554320   -3.561170
  C     -3.927340  -10.447670   -4.638290
  N     -4.107780  -11.185560   -5.496100
  C     -4.539530   -9.623980   -2.457720
  C     -6.154850   -9.475210    0.270480
  C     -7.236890   -8.971250    0.978720
  F     -7.314120   -7.652230    1.217490
  C     -8.297400   -9.762960    1.437980
  F     -9.295300   -9.129790    2.077660
  C     -8.350840  -11.140910    1.283110
  C     -7.243000  -11.701720    0.594360
  C     -6.168760  -10.884010    0.092370
  N     -5.233610  -11.618210   -0.508420
  S     -5.669110  -13.161770   -0.482630
  N     -7.057340  -12.987770    0.301020
  C     -9.474900  -11.923320    1.730690
  S    -11.073990  -11.269160    1.619820
  C    -11.792020  -12.698660    2.181600
  C    -10.858010  -13.668720    2.484640
  C     -9.511680  -13.225020    2.234370
  C     -8.439680  -14.071340    2.576110
  C     -8.694540  -15.324810    3.073470
  C     -7.615160  -16.175780    3.404630
  N     -6.723100  -16.847340    3.662020
  C    -10.037980  -15.784920    3.269180
  C    -10.255730  -17.089970    3.769680
  N    -10.449310  -18.145160    4.171610
  C    -11.098980  -14.963670    2.991420
  H      3.012380   -0.313920    0.211920
  H      2.407820    1.134030    2.501770
  H     -1.185370   -2.252110    3.246920
  H     -1.752380   -6.907000   -2.713650
  H     -5.340030  -10.343470   -2.429690
  H    -12.857950  -12.769310    2.269780
  H     -7.421780  -13.742380    2.451870
  H    -12.112250  -15.294870    3.161360

 Total Charge           Charge          ....    0
 Multiplicity           Mult            ....    1
 Number of Electrons    NEL             ....  446
 Basis Dimension        Dim             ....  914

ORBITAL ENERGIES
----------------

  NO   OCC          E(Eh)            E(eV)
   0   2.0000     -89.056968     -2423.3633
   1   2.0000     -89.056064     -2423.3387
   2   2.0000     -89.006339     -2421.9856
   3   2.0000     -89.003681     -2421.9133
   4   2.0000     -89.003497     -2421.9083
   5   2.0000     -24.830786      -675.6800
   6   2.0000     -24.830211      -675.6644
   7   2.0000     -24.829055      -675.6329
   8   2.0000     -24.828468      -675.6170
   9   2.0000     -14.471409      -393.7871
  10   2.0000     -14.470336      -393.7579
  11   2.0000     -14.468786      -393.7157
  12   2.0000     -14.468714      -393.7137
  13   2.0000     -14.415740      -392.2722
  14   2.0000     -14.415255      -392.2590
  15   2.0000     -14.414419      -392.2363
  16   2.0000     -14.413674      -392.2160
  17   2.0000     -14.413238      -392.2041
  18   2.0000     -14.413067      -392.1995
  19   2.0000     -10.412773      -283.3460
  20   2.0000     -10.412291      -283.3328
  21   2.0000     -10.411169      -283.3023
  22   2.0000     -10.410709      -283.2898
  23   2.0000     -10.364142      -282.0226
  24   2.0000     -10.363553      -282.0066
  25   2.0000     -10.363123      -281.9949
  26   2.0000     -10.362944      -281.9901
  27   2.0000     -10.347811      -281.5783
  28   2.0000     -10.347677      -281.5746
  29   2.0000     -10.346361      -281.5388
  30   2.0000     -10.346174      -281.5337
  31   2.0000     -10.346113      -281.5320
  32   2.0000     -10.345939      -281.5273
  33   2.0000     -10.342573      -281.4357
  34   2.0000     -10.341967      -281.4192
  35   2.0000     -10.338947      -281.3370
  36   2.0000     -10.337847      -281.3071
  37   2.0000     -10.337830      -281.3067
  38   2.0000     -10.337454      -281.2964
  39   2.0000     -10.336975      -281.2834
  40   2.0000     -10.336034      -281.2578
  41   2.0000     -10.331282      -281.1285
  42   2.0000     -10.330677      -281.1120
  43   2.0000     -10.322844      -280.8989
  44   2.0000     -10.322462      -280.8885
  45   2.0000     -10.322182      -280.8808
  46   2.0000     -10.321289      -280.8565
  47   2.0000     -10.321187      -280.8538
  48   2.0000     -10.320926      -280.8467
  49   2.0000     -10.319817      -280.8165
  50   2.0000     -10.319786      -280.8157
  51   2.0000     -10.319465      -280.8069
  52   2.0000     -10.317961      -280.7660
  53   2.0000     -10.317073      -280.7418
  54   2.0000     -10.316890      -280.7368
  55   2.0000     -10.314371      -280.6683
  56   2.0000     -10.313819      -280.6533
  57   2.0000     -10.312627      -280.6208
  58   2.0000     -10.312125      -280.6072
  59   2.0000     -10.311807      -280.5985
  60   2.0000     -10.311472      -280.5894
  61   2.0000      -8.148554      -221.7334
  62   2.0000      -8.147553      -221.7062
  63   2.0000      -8.101029      -220.4402
  64   2.0000      -8.098792      -220.3793
  65   2.0000      -8.098072      -220.3597
  66   2.0000      -6.119754      -166.5270
  67   2.0000      -6.118750      -166.4997
  68   2.0000      -6.111997      -166.3159
  69   2.0000      -6.110941      -166.2872
  70   2.0000      -6.110928      -166.2868
  71   2.0000      -6.110018      -166.2620
  72   2.0000      -6.069869      -165.1695
  73   2.0000      -6.067595      -165.1077
  74   2.0000      -6.066904      -165.0889
  75   2.0000      -6.065551      -165.0520
  76   2.0000      -6.064191      -165.0150
  77   2.0000      -6.063175      -164.9874
  78   2.0000      -6.062378      -164.9657
  79   2.0000      -6.062186      -164.9605
  80   2.0000      -6.061565      -164.9436
  81   2.0000      -1.353749       -36.8374
  82   2.0000      -1.353177       -36.8218
  83   2.0000      -1.336055       -36.3559
  84   2.0000      -1.335191       -36.3324
  85   2.0000      -1.159866       -31.5615
  86   2.0000      -1.158453       -31.5231
  87   2.0000      -1.042816       -28.3765
  88   2.0000      -1.037464       -28.2308
  89   2.0000      -1.036536       -28.2056
  90   2.0000      -1.016158       -27.6511
  91   2.0000      -1.013595       -27.5813
  92   2.0000      -1.013139       -27.5689
  93   2.0000      -1.011538       -27.5254
  94   2.0000      -1.005902       -27.3720
  95   2.0000      -1.002429       -27.2775
  96   2.0000      -0.997905       -27.1544
  97   2.0000      -0.996180       -27.1074
  98   2.0000      -0.994468       -27.0609
  99   2.0000      -0.993707       -27.0401
 100   2.0000      -0.971160       -26.4266
 101   2.0000      -0.968097       -26.3433
 102   2.0000      -0.967173       -26.3181
 103   2.0000      -0.935025       -25.4433
 104   2.0000      -0.918804       -25.0019
 105   2.0000      -0.907048       -24.6820
 106   2.0000      -0.896576       -24.3971
 107   2.0000      -0.895242       -24.3608
 108   2.0000      -0.893714       -24.3192
 109   2.0000      -0.891628       -24.2624
 110   2.0000      -0.884419       -24.0663
 111   2.0000      -0.881625       -23.9902
 112   2.0000      -0.880674       -23.9644
 113   2.0000      -0.861201       -23.4345
 114   2.0000      -0.843106       -22.9421
 115   2.0000      -0.821574       -22.3562
 116   2.0000      -0.796628       -21.6773
 117   2.0000      -0.788295       -21.4506
 118   2.0000      -0.771579       -20.9957
 119   2.0000      -0.769515       -20.9396
 120   2.0000      -0.768141       -20.9022
 121   2.0000      -0.757905       -20.6236
 122   2.0000      -0.754773       -20.5384
 123   2.0000      -0.750513       -20.4225
 124   2.0000      -0.747257       -20.3339
 125   2.0000      -0.740535       -20.1510
 126   2.0000      -0.734095       -19.9757
 127   2.0000      -0.720875       -19.6160
 128   2.0000      -0.708498       -19.2792
 129   2.0000      -0.696713       -18.9585
 130   2.0000      -0.692403       -18.8412
 131   2.0000      -0.679592       -18.4927
 132   2.0000      -0.674619       -18.3573
 133   2.0000      -0.671595       -18.2750
 134   2.0000      -0.669272       -18.2118
 135   2.0000      -0.663285       -18.0489
 136   2.0000      -0.659906       -17.9570
 137   2.0000      -0.651925       -17.7398
 138   2.0000      -0.644151       -17.5282
 139   2.0000      -0.634733       -17.2719
 140   2.0000      -0.632771       -17.2186
 141   2.0000      -0.626126       -17.0378
 142   2.0000      -0.623887       -16.9768
 143   2.0000      -0.620514       -16.8850
 144   2.0000      -0.618122       -16.8200
 145   2.0000      -0.617718       -16.8090
 146   2.0000      -0.616873       -16.7860
 147   2.0000      -0.613789       -16.7021
 148   2.0000      -0.591564       -16.0973
 149   2.0000      -0.589793       -16.0491
 150   2.0000      -0.583400       -15.8751
 151   2.0000      -0.582949       -15.8628
 152   2.0000      -0.580391       -15.7932
 153   2.0000      -0.578468       -15.7409
 154   2.0000      -0.574490       -15.6327
 155   2.0000      -0.569258       -15.4903
 156   2.0000      -0.566696       -15.4206
 157   2.0000      -0.556488       -15.1428
 158   2.0000      -0.554795       -15.0967
 159   2.0000      -0.551385       -15.0040
 160   2.0000      -0.550665       -14.9844
 161   2.0000      -0.539739       -14.6871
 162   2.0000      -0.537480       -14.6256
 163   2.0000      -0.536863       -14.6088
 164   2.0000      -0.534942       -14.5565
 165   2.0000      -0.533816       -14.5259
 166   2.0000      -0.531440       -14.4612
 167   2.0000      -0.528649       -14.3853
 168   2.0000      -0.517597       -14.0845
 169   2.0000      -0.516785       -14.0624
 170   2.0000      -0.511909       -13.9297
 171   2.0000      -0.509067       -13.8524
 172   2.0000      -0.507106       -13.7991
 173   2.0000      -0.498827       -13.5738
 174   2.0000      -0.497168       -13.5286
 175   2.0000      -0.495378       -13.4799
 176   2.0000      -0.492617       -13.4048
 177   2.0000      -0.491819       -13.3831
 178   2.0000      -0.476153       -12.9568
 179   2.0000      -0.474700       -12.9172
 180   2.0000      -0.471308       -12.8249
 181   2.0000      -0.465153       -12.6575
 182   2.0000      -0.463903       -12.6234
 183   2.0000      -0.461440       -12.5564
 184   2.0000      -0.460603       -12.5336
 185   2.0000      -0.454569       -12.3695
 186   2.0000      -0.451471       -12.2852
 187   2.0000      -0.450544       -12.2599
 188   2.0000      -0.448783       -12.2120
 189   2.0000      -0.447379       -12.1738
 190   2.0000      -0.445235       -12.1155
 191   2.0000      -0.442598       -12.0437
 192   2.0000      -0.441828       -12.0228
 193   2.0000      -0.441180       -12.0051
 194   2.0000      -0.440636       -11.9903
 195   2.0000      -0.440501       -11.9866
 196   2.0000      -0.439798       -11.9675
 197   2.0000      -0.437655       -11.9092
 198   2.0000      -0.435095       -11.8395
 199   2.0000      -0.422858       -11.5065
 200   2.0000      -0.421365       -11.4659
 201   2.0000      -0.420831       -11.4514
 202   2.0000      -0.417989       -11.3741
 203   2.0000      -0.416031       -11.3208
 204   2.0000      -0.415609       -11.3093
 205   2.0000      -0.415202       -11.2982
 206   2.0000      -0.414197       -11.2709
 207   2.0000      -0.409943       -11.1551
 208   2.0000      -0.404333       -11.0025
 209   2.0000      -0.399827       -10.8798
 210   2.0000      -0.393613       -10.7107
 211   2.0000      -0.391470       -10.6524
 212   2.0000      -0.379958       -10.3392
 213   2.0000      -0.359614        -9.7856
 214   2.0000      -0.358862        -9.7651
 215   2.0000      -0.348403        -9.4805
 216   2.0000      -0.346754        -9.4356
 217   2.0000      -0.342035        -9.3072
 218   2.0000      -0.339741        -9.2448
 219   2.0000      -0.338718        -9.2170
 220   2.0000      -0.305999        -8.3267
 221   2.0000      -0.291001        -7.9185
 222   2.0000      -0.269972        -7.3463
 223   0.0000      -0.115111        -3.1323
 224   0.0000      -0.097133        -2.6431
 225   0.0000      -0.072458        -1.9717
 226   0.0000      -0.069981        -1.9043
 227   0.0000      -0.069477        -1.8906

MULLIKEN ATOMIC CHARGES
-----------------------
   0 C :   -0.113834
   1 S :    0.250553
   2 C :   -0.215453
   3 C :    0.174693
   4 C :    0.087881
   5 C :   -0.012836
   6 C :   -0.074054
   7 C :   -0.176228
   8 N :    0.172619
   9 C :   -0.072142
  10 C :   -0.178642
  11 N :    0.174444
  12 C :   -0.038316
  13 C :    0.050304
  14 C :    0.140516
  15 F :   -0.160449
  16 C :    0.158016
  17 F :   -0.161505
  18 C :    0.009075
  19 C :    0.008730
  20 C :   -0.022849
  21 N :   -0.282267
  22 S :    0.545424
  23 N :   -0.272865
  24 C :   -0.170290
  25 S :    0.260113
  26 C :   -0.174419
  27 C :    0.136860
  28 C :    0.134689
  29 C :   -0.017024
  30 C :   -0.075811
  31 C :   -0.181944
  32 N :    0.172141
  33 C :   -0.078191
  34 C :   -0.181100
  35 N :    0.172702
  36 C :   -0.015205
  37 C :    0.018035
  38 C :    0.151072
  39 F :   -0.162043
  40 C :    0.143801
  41 F :   -0.164706
  42 C :    0.020609
  43 C :    0.008742
  44 C :    0.005889
  45 N :   -0.278000
  46 S :    0.553549
  47 N :   -0.277459
  48 C :   -0.217291
  49 S :    0.226645
  50 C :   -0.114813
  51 C :    0.088868
  52 C :    0.179678
  53 C :   -0.008751
  54 C :   -0.079873
  55 C :   -0.175224
  56 N :    0.169232
  57 C :   -0.070158
  58 C :   -0.175505
  59 N :    0.174785
  60 C :   -0.019705
  61 H :    0.034249
  62 H :   -0.001682
  63 H :   -0.004457
  64 H :   -0.011474
  65 H :   -0.010063
  66 H :    0.036609
  67 H :   -0.010249
  68 H :   -0.003644
Sum of atomic charges:   -0.0000000

LOEWDIN ATOMIC CHARGES
----------------------
   0 C :   -0.177371
   1 S :    0.563499
   2 C :   -0.183205
   3 C :   -0.037015
   4 C :   -0.053233
   5 C :    0.037527
   6 C :   -0.057057
   7 C :   -0.032921
   8 N :   -0.033995
   9 C :   -0.050407
  10 C :   -0.032127
  11 N :   -0.033362
  12 C :    0.030937
  13 C :   -0.067828
  14 C :    0.065250
  15 F :   -0.035644
  16 C :    0.070673
  17 F :   -0.043483
  18 C :   -0.077174
  19 C :   -0.045863
  20 C :   -0.051385
  21 N :   -0.293594
  22 S :    0.671408
  23 N :   -0.275524
  24 C :   -0.172237
  25 S :    0.552559
  26 C :   -0.172389
  27 C :   -0.032190
  28 C :   -0.032816
  29 C :    0.039752
  30 C :   -0.055133
  31 C :   -0.031632
  32 N :   -0.038225
  33 C :   -0.055664
  34 C :   -0.031909
  35 N :   -0.037492
  36 C :    0.040805
  37 C :   -0.074519
  38 C :    0.067787
  39 F :   -0.043734
  40 C :    0.064410
  41 F :   -0.046108
  42 C :   -0.068917
  43 C :   -0.044893
  44 C :   -0.045181
  45 N :   -0.276437
  46 S :    0.677797
  47 N :   -0.274840
  48 C :   -0.183309
  49 S :    0.541257
  50 C :   -0.177211
  51 C :   -0.051697
  52 C :   -0.032277
  53 C :    0.041639
  54 C :   -0.055543
  55 C :   -0.031674
  56 N :   -0.037919
  57 C :   -0.055295
  58 C :   -0.032772
  59 N :   -0.034147
  60 C :    0.034656
  61 H :    0.031927
  62 H :    0.046251
  63 H :    0.039709
  64 H :    0.037082
  65 H :    0.037191
  66 H :    0.032622
  67 H :    0.036942
  68 H :    0.045669

  Mayer bond orders larger than 0.100000
B(  0-C ,  1-S ) :   1.2446 B(  0-C ,  2-C ) :   0.1124 B(  0-C ,  4-C ) :   1.3880
B(  0-C , 61-H ) :   0.9715 B(  1-S ,  2-C ) :   1.2137 B(  2-C ,  3-C ) :   1.3609
B(  2-C , 13-C ) :   1.0574 B(  3-C ,  4-C ) :   1.1937 B(  3-C , 12-C ) :   1.1822
B(  4-C ,  5-C ) :   1.1608 B(  5-C ,  6-C ) :   1.5770 B(  5-C , 62-H ) :   1.0067
B(  6-C ,  7-C ) :   1.0771 B(  6-C ,  9-C ) :   1.2230 B(  7-C ,  8-N ) :   3.0484
B(  9-C , 10-C ) :   1.0809 B(  9-C , 12-C ) :   1.5876 B( 10-C , 11-N ) :   3.0445
B( 12-C , 63-H ) :   0.9921 B( 13-C , 14-C ) :   1.4103 B( 13-C , 18-C ) :   0.1217
B( 13-C , 20-C ) :   1.1825 B( 14-C , 15-F ) :   1.1643 B( 14-C , 16-C ) :   1.1284
B( 16-C , 17-F ) :   1.1679 B( 16-C , 18-C ) :   1.4143 B( 18-C , 19-C ) :   1.2001
B( 18-C , 24-C ) :   1.0447 B( 19-C , 20-C ) :   1.1421 B( 19-C , 23-N ) :   1.5436
B( 20-C , 21-N ) :   1.5449 B( 21-N , 22-S ) :   1.2665 B( 21-N , 23-N ) :   0.1424
B( 22-S , 23-N ) :   1.2669 B( 24-C , 25-S ) :   1.1988 B( 24-C , 26-C ) :   0.1209
B( 24-C , 28-C ) :   1.3673 B( 25-S , 26-C ) :   1.1983 B( 26-C , 27-C ) :   1.3633
B( 26-C , 37-C ) :   1.0526 B( 27-C , 28-C ) :   1.2007 B( 27-C , 36-C ) :   1.1941
B( 28-C , 29-C ) :   1.1933 B( 29-C , 30-C ) :   1.5877 B( 29-C , 64-H ) :   0.9819
B( 30-C , 31-C ) :   1.0772 B( 30-C , 33-C ) :   1.2247 B( 31-C , 32-N ) :   3.0472
B( 33-C , 34-C ) :   1.0772 B( 33-C , 36-C ) :   1.5869 B( 34-C , 35-N ) :   3.0469
B( 36-C , 65-H ) :   0.9809 B( 37-C , 38-C ) :   1.4007 B( 37-C , 42-C ) :   0.1255
B( 37-C , 44-C ) :   1.2026 B( 38-C , 39-F ) :   1.1672 B( 38-C , 40-C ) :   1.1360
B( 40-C , 41-F ) :   1.1643 B( 40-C , 42-C ) :   1.4035 B( 42-C , 43-C ) :   1.1993
B( 42-C , 48-C ) :   1.0646 B( 43-C , 44-C ) :   1.1364 B( 43-C , 47-N ) :   1.5387
B( 44-C , 45-N ) :   1.5408 B( 45-N , 46-S ) :   1.2669 B( 45-N , 47-N ) :   0.1419
B( 46-S , 47-N ) :   1.2678 B( 48-C , 49-S ) :   1.2010 B( 48-C , 50-C ) :   0.1127
B( 48-C , 52-C ) :   1.3701 B( 49-S , 50-C ) :   1.2367 B( 50-C , 51-C ) :   1.3943
B( 50-C , 66-H ) :   0.9717 B( 51-C , 52-C ) :   1.1941 B( 51-C , 60-C ) :   1.1553
B( 52-C , 53-C ) :   1.1909 B( 53-C , 54-C ) :   1.5912 B( 53-C , 67-H ) :   0.9808
B( 54-C , 55-C ) :   1.0791 B( 54-C , 57-C ) :   1.2191 B( 55-C , 56-N ) :   3.0454
B( 57-C , 58-C ) :   1.0770 B( 57-C , 60-C ) :   1.5793 B( 58-C , 59-N ) :   3.0481
B( 60-C , 68-H ) :   1.0083

-----------------------------------------------------------------------------
         ABSORPTION SPECTRUM VIA TRANSITION ELECTRIC DIPOLE MOMENTS
-----------------------------------------------------------------------------
State   Energy  Wavelength   fosc         T2         TX        TY        TZ
        (cm-1)    (nm)                  (au**2)     (au)      (au)      (au)
-----------------------------------------------------------------------------
   0   17842.3    560.5   1.197907952  22.10281   3.11994   3.51524  -0.10899
   1   21233.6    471.0   0.191647234   2.97136   0.39117  -0.43090  -1.62255
   2   23999.2    416.7   0.014415927   0.19775   0.01829  -0.15863  -0.41504
   3   25038.6    399.4   0.061651978   0.81061   0.39017   0.78940   0.18770
   4   25971.7    385.0   0.071262262   0.90331   0.71410   0.60691  -0.15822
   5   28235.1    354.2   0.044258878   0.51604  -0.21549   0.28192   0.62460
   6   28436.5    351.7   0.145732550   1.68716  -0.98424  -0.82253   0.20465
   7   30668.4    326.1   0.010937737   0.11741   0.19730   0.16657  -0.22525
   8   30805.3    324.6   0.032183187   0.34394   0.04300  -0.10570  -0.57525
   9   32190.3    310.7   0.006626780   0.06777   0.03921  -0.12246  -0.22636
  10   32961.3    303.4   0.021232394   0.21207   0.30696   0.08503  -0.33258
  11   33635.4    297.3   0.039884808   0.39038   0.55645  -0.16386  -0.23216
  12   33992.0    294.2   0.016295510   0.15782  -0.21193  -0.31810   0.10826
  13   34402.8    290.7   0.099910262   0.95608   0.22047   0.07146   0.94993
  14   34454.3    290.2   0.019290880   0.18433  -0.39261  -0.11997  -0.12567
  15   34638.5    288.7   0.034206535   0.32511   0.26900  -0.01117  -0.50261
  16   34771.2    287.6   0.006735030   0.06377  -0.04577  -0.09207  -0.23064
  17   35279.5    283.5   0.065882202   0.61478   0.24871  -0.73182  -0.13176
  18   35466.5    282.0   0.104081109   0.96612  -0.81697   0.50691   0.20424
  19   35980.2    277.9   0.045985176   0.42076   0.53012   0.08095  -0.36494
  20   36366.4    275.0   0.146193087   1.32343   0.40182  -0.36677  -1.01363
  21   36559.4    273.5   0.059857138   0.53900  -0.12019  -0.59072  -0.41906
  22   36934.5    270.7   0.011766848   0.10488  -0.29820   0.12552  -0.01423
  23   37379.0    267.5   0.062960173   0.55452   0.40520   0.62296   0.04742
  24   37525.4    266.5   0.029705539   0.26061   0.03882  -0.49581   0.11520
  25   38451.1    260.1   0.067892195   0.58128   0.15846   0.54861   0.50517
  26   39644.3    252.2   0.361878462   3.00509   0.68260   1.59319  -0.02994
  27   40128.9    249.2   0.083382455   0.68406  -0.16052  -0.71037  -0.39201

FINAL SINGLE POINT ENERGY     -4539.257286033127

DIPOLE MOMENT
-------------
                                X             Y             Z
Electronic contribution:     -4.54342       6.51913      -1.59199
Nuclear contribution   :      4.24628      -4.90787       0.27464
                        -----------------------------------------
Total Dipole Moment    :     -0.29713       1.61125      -1.31735
                        -----------------------------------------
Magnitude (a.u.)       :      2.10234
Magnitude (Debye)      :      5.34373

Rotational constants in cm-1:     0.002007     0.000463     0.000408
Rotational constants in MHz :    60.155440    13.886333    12.228949

                             ****ORCA TERMINATED NORMALLY****
TOTAL RUN TIME: 0 days 0 hours 5 minutes 57 seconds 892 msec
