                         Program Version 4.2.0 -  RELEASE  -
|  1> # ORCA input file
|  2> # SCF done       -130.957237189341          0.000596390344
|  3> ! CAM-B3LYP def2-SVP def2/J RIJCOSX Grid4 TightSCF
|  4> %maxcore 5000
|  5> %tddft
|  6>     Mode sTDDFT
|  7>     Ethresh 5.0
|  8>     maxcore 5000
|  9> end
| 10>
| 11> %pal
| 12>   nprocs 6
| 13>   end
| 14> * xyz 0 1
| 15>    C       -1.40824       -13.23851        -0.69747
| 16>    S       -2.79368       -12.43059        -0.12225
| 17>    C       -2.58075       -11.10649        -1.20828
| 18>    C       -1.43613       -11.28407        -1.97976
| 19>    C       -0.76922       -12.52881        -1.69011
| 20>    C        0.39322       -12.89090        -2.40706
| 21>    C        0.88615       -12.04277        -3.36254
| 22>    C        2.03223       -12.38981        -4.11373
| 23>    N        2.95865       -12.67576        -4.72471
| 24>    C        0.25815       -10.77494        -3.60624
| 25>    C        0.79868        -9.89761        -4.56900
| 26>    N        1.19740        -9.16324        -5.35481
| 27>    C       -0.86828       -10.40143        -2.91931
| 28>    C       -3.54053       -10.02728        -1.26016
| 29>    C       -3.85486        -9.39105        -2.46186
| 30>    C       -4.77862        -8.35278        -2.46533
| 31>    C       -5.38118        -8.01209        -1.25332
| 32>    N       -5.10696        -8.62434        -0.11665
| 33>    C       -4.21829        -9.59463        -0.11317
| 34>    C       -5.11906        -7.68543        -3.72545
| 35>    C       -4.12591        -7.24354        -4.59366
| 36>    C       -4.48660        -6.66397        -5.80791
| 37>    C       -5.85730        -6.52469        -6.06659
| 38>    N       -6.79824        -6.91456        -5.23672
| 39>    C       -6.44802        -7.48346        -4.09966
| 40>    C       -3.52237        -6.14255        -6.75761
| 41>    S       -3.85687        -4.59149        -7.43909
| 42>    C       -2.39936        -4.58021        -8.37628
| 43>    C       -1.70239        -5.77473        -8.20298
| 44>    C       -2.33650        -6.66280        -7.26211
| 45>    C       -1.74238        -7.93862        -7.02671
| 46>    C       -2.30457        -8.91351        -6.18025
| 47>    N       -2.69135        -9.76882        -5.51862
| 48>    C       -0.57909        -8.29143        -7.68093
| 49>    C        0.00722        -7.44281        -8.62290
| 50>    C       -0.54919        -6.21411        -8.91127
| 51>    C       -0.01254        -5.49109        -9.99859
| 52>    N        0.42521        -4.98141       -10.92842
| 53>    C       -2.02966        -3.39748        -9.08583
| 54>    S       -0.44642        -2.71544        -8.94216
| 55>    C       -0.84592        -1.32601        -9.88107
| 56>    C       -2.17106        -1.38874       -10.31605
| 57>    C       -2.85470        -2.55919        -9.83865
| 58>    C       -4.19710        -2.78548       -10.19536
| 59>    C       -4.84821        -1.88274       -10.99774
| 60>    C       -6.20056        -2.09476       -11.35032
| 61>    N       -7.29749        -2.28239       -11.62300
| 62>    C       -4.15996        -0.73402       -11.50410
| 63>    C       -4.84277         0.15935       -12.36117
| 64>    N       -5.38159         0.90007       -13.04965
| 65>    C       -2.84673        -0.50281       -11.17816
| 66>    C        0.17126        -0.32899       -10.07854
| 67>    C       -0.02729         0.97102       -10.28928
| 68>    H       -1.13402       -14.19102        -0.29030
| 69>    H        0.88157       -13.83139        -2.20083
| 70>    H       -1.30262        -9.43013        -3.09254
| 71>    H       -3.43750        -9.73368        -3.39713
| 72>    H       -6.10868        -7.21358        -1.19707
| 73>    H       -4.02498       -10.05699         0.84663
| 74>    H       -3.08641        -7.31016        -4.30671
| 75>    H       -6.19832        -6.07753        -6.99186
| 76>    H       -7.25925        -7.80025        -3.45859
| 77>    H       -0.12904        -9.25125        -7.48233
| 78>    H        0.88634        -7.76888        -9.15667
| 79>    H       -4.71304        -3.66893        -9.85054
| 80>    H       -2.33024         0.34103       -11.60623
| 81>    H        1.18398        -0.70393        -9.99750
| 82>    H       -1.00594         1.41709       -10.30749
| 83>    H        0.80463         1.63935       -10.42410
| 84> *
| 85>
| 86>                          ****END OF INPUT****

CARTESIAN COORDINATES (ANGSTROEM)
---------------------------------
  C     -1.408240  -13.238510   -0.697470
  S     -2.793680  -12.430590   -0.122250
  C     -2.580750  -11.106490   -1.208280
  C     -1.436130  -11.284070   -1.979760
  C     -0.769220  -12.528810   -1.690110
  C      0.393220  -12.890900   -2.407060
  C      0.886150  -12.042770   -3.362540
  C      2.032230  -12.389810   -4.113730
  N      2.958650  -12.675760   -4.724710
  C      0.258150  -10.774940   -3.606240
  C      0.798680   -9.897610   -4.569000
  N      1.197400   -9.163240   -5.354810
  C     -0.868280  -10.401430   -2.919310
  C     -3.540530  -10.027280   -1.260160
  C     -3.854860   -9.391050   -2.461860
  C     -4.778620   -8.352780   -2.465330
  C     -5.381180   -8.012090   -1.253320
  N     -5.106960   -8.624340   -0.116650
  C     -4.218290   -9.594630   -0.113170
  C     -5.119060   -7.685430   -3.725450
  C     -4.125910   -7.243540   -4.593660
  C     -4.486600   -6.663970   -5.807910
  C     -5.857300   -6.524690   -6.066590
  N     -6.798240   -6.914560   -5.236720
  C     -6.448020   -7.483460   -4.099660
  C     -3.522370   -6.142550   -6.757610
  S     -3.856870   -4.591490   -7.439090
  C     -2.399360   -4.580210   -8.376280
  C     -1.702390   -5.774730   -8.202980
  C     -2.336500   -6.662800   -7.262110
  C     -1.742380   -7.938620   -7.026710
  C     -2.304570   -8.913510   -6.180250
  N     -2.691350   -9.768820   -5.518620
  C     -0.579090   -8.291430   -7.680930
  C      0.007220   -7.442810   -8.622900
  C     -0.549190   -6.214110   -8.911270
  C     -0.012540   -5.491090   -9.998590
  N      0.425210   -4.981410  -10.928420
  C     -2.029660   -3.397480   -9.085830
  S     -0.446420   -2.715440   -8.942160
  C     -0.845920   -1.326010   -9.881070
  C     -2.171060   -1.388740  -10.316050
  C     -2.854700   -2.559190   -9.838650
  C     -4.197100   -2.785480  -10.195360
  C     -4.848210   -1.882740  -10.997740
  C     -6.200560   -2.094760  -11.350320
  N     -7.297490   -2.282390  -11.623000
  C     -4.159960   -0.734020  -11.504100
  C     -4.842770    0.159350  -12.361170
  N     -5.381590    0.900070  -13.049650
  C     -2.846730   -0.502810  -11.178160
  C      0.171260   -0.328990  -10.078540
  C     -0.027290    0.971020  -10.289280
  H     -1.134020  -14.191020   -0.290300
  H      0.881570  -13.831390   -2.200830
  H     -1.302620   -9.430130   -3.092540
  H     -3.437500   -9.733680   -3.397130
  H     -6.108680   -7.213580   -1.197070
  H     -4.024980  -10.056990    0.846630
  H     -3.086410   -7.310160   -4.306710
  H     -6.198320   -6.077530   -6.991860
  H     -7.259250   -7.800250   -3.458590
  H     -0.129040   -9.251250   -7.482330
  H      0.886340   -7.768880   -9.156670
  H     -4.713040   -3.668930   -9.850540
  H     -2.330240    0.341030  -11.606230
  H      1.183980   -0.703930   -9.997500
  H     -1.005940    1.417090  -10.307490
  H      0.804630    1.639350  -10.424100

 Total Charge           Charge          ....    0
 Multiplicity           Mult            ....    1
 Number of Electrons    NEL             ....  372
 Basis Dimension        Dim             ....  834

ORBITAL ENERGIES
----------------

  NO   OCC          E(Eh)            E(eV)
   0   2.0000     -89.002356     -2421.8772
   1   2.0000     -88.998693     -2421.7776
   2   2.0000     -88.995374     -2421.6873
   3   2.0000     -14.435459      -392.8088
   4   2.0000     -14.425634      -392.5415
   5   2.0000     -14.423651      -392.4875
   6   2.0000     -14.417678      -392.3250
   7   2.0000     -14.417483      -392.3197
   8   2.0000     -14.415929      -392.2774
   9   2.0000     -14.410893      -392.1403
  10   2.0000     -14.409278      -392.0964
  11   2.0000     -10.346328      -281.5379
  12   2.0000     -10.344660      -281.4925
  13   2.0000     -10.344175      -281.4793
  14   2.0000     -10.339844      -281.3615
  15   2.0000     -10.337858      -281.3074
  16   2.0000     -10.337473      -281.2969
  17   2.0000     -10.337172      -281.2887
  18   2.0000     -10.336274      -281.2643
  19   2.0000     -10.334723      -281.2221
  20   2.0000     -10.333718      -281.1948
  21   2.0000     -10.332819      -281.1703
  22   2.0000     -10.332483      -281.1612
  23   2.0000     -10.329220      -281.0724
  24   2.0000     -10.328300      -281.0473
  25   2.0000     -10.324776      -280.9514
  26   2.0000     -10.324590      -280.9464
  27   2.0000     -10.324403      -280.9413
  28   2.0000     -10.322630      -280.8930
  29   2.0000     -10.322075      -280.8779
  30   2.0000     -10.321556      -280.8638
  31   2.0000     -10.321092      -280.8512
  32   2.0000     -10.320502      -280.8351
  33   2.0000     -10.320144      -280.8254
  34   2.0000     -10.319473      -280.8071
  35   2.0000     -10.319056      -280.7958
  36   2.0000     -10.317670      -280.7581
  37   2.0000     -10.316838      -280.7354
  38   2.0000     -10.315621      -280.7023
  39   2.0000     -10.315373      -280.6956
  40   2.0000     -10.314515      -280.6722
  41   2.0000     -10.314097      -280.6608
  42   2.0000     -10.313457      -280.6434
  43   2.0000     -10.312267      -280.6110
  44   2.0000     -10.312201      -280.6093
  45   2.0000     -10.310722      -280.5690
  46   2.0000     -10.309164      -280.5266
  47   2.0000     -10.307788      -280.4892
  48   2.0000     -10.305006      -280.4135
  49   2.0000     -10.303690      -280.3777
  50   2.0000     -10.303573      -280.3745
  51   2.0000     -10.301657      -280.3223
  52   2.0000     -10.289285      -279.9857
  53   2.0000      -8.097037      -220.3316
  54   2.0000      -8.093866      -220.2453
  55   2.0000      -8.090240      -220.1466
  56   2.0000      -6.065976      -165.0636
  57   2.0000      -6.062671      -164.9737
  58   2.0000      -6.061669      -164.9464
  59   2.0000      -6.060090      -164.9034
  60   2.0000      -6.059091      -164.8763
  61   2.0000      -6.058292      -164.8545
  62   2.0000      -6.057283      -164.8270
  63   2.0000      -6.054841      -164.7606
  64   2.0000      -6.053357      -164.7202
  65   2.0000      -1.058393       -28.8003
  66   2.0000      -1.053518       -28.6677
  67   2.0000      -1.044024       -28.4093
  68   2.0000      -1.030758       -28.0483
  69   2.0000      -1.028207       -27.9789
  70   2.0000      -1.019545       -27.7432
  71   2.0000      -1.012232       -27.5442
  72   2.0000      -1.010680       -27.5020
  73   2.0000      -1.003626       -27.3101
  74   2.0000      -0.999924       -27.2093
  75   2.0000      -0.990567       -26.9547
  76   2.0000      -0.975267       -26.5384
  77   2.0000      -0.969445       -26.3799
  78   2.0000      -0.964814       -26.2539
  79   2.0000      -0.944053       -25.6890
  80   2.0000      -0.937032       -25.4979
  81   2.0000      -0.921257       -25.0687
  82   2.0000      -0.914235       -24.8776
  83   2.0000      -0.904967       -24.6254
  84   2.0000      -0.891450       -24.2576
  85   2.0000      -0.883116       -24.0308
  86   2.0000      -0.880617       -23.9628
  87   2.0000      -0.878552       -23.9066
  88   2.0000      -0.871249       -23.7079
  89   2.0000      -0.859860       -23.3980
  90   2.0000      -0.845793       -23.0152
  91   2.0000      -0.827245       -22.5105
  92   2.0000      -0.808393       -21.9975
  93   2.0000      -0.795348       -21.6425
  94   2.0000      -0.768108       -20.9013
  95   2.0000      -0.763803       -20.7841
  96   2.0000      -0.763676       -20.7807
  97   2.0000      -0.758318       -20.6349
  98   2.0000      -0.753457       -20.5026
  99   2.0000      -0.744232       -20.2516
 100   2.0000      -0.735567       -20.0158
 101   2.0000      -0.724289       -19.7089
 102   2.0000      -0.715036       -19.4571
 103   2.0000      -0.708681       -19.2842
 104   2.0000      -0.693879       -18.8814
 105   2.0000      -0.686310       -18.6755
 106   2.0000      -0.682360       -18.5680
 107   2.0000      -0.662136       -18.0177
 108   2.0000      -0.658624       -17.9221
 109   2.0000      -0.642671       -17.4880
 110   2.0000      -0.633637       -17.2421
 111   2.0000      -0.622224       -16.9316
 112   2.0000      -0.619579       -16.8596
 113   2.0000      -0.617027       -16.7902
 114   2.0000      -0.612118       -16.6566
 115   2.0000      -0.609836       -16.5945
 116   2.0000      -0.607613       -16.5340
 117   2.0000      -0.604401       -16.4466
 118   2.0000      -0.599446       -16.3118
 119   2.0000      -0.586252       -15.9527
 120   2.0000      -0.578252       -15.7350
 121   2.0000      -0.568483       -15.4692
 122   2.0000      -0.565666       -15.3925
 123   2.0000      -0.559401       -15.2221
 124   2.0000      -0.556729       -15.1494
 125   2.0000      -0.553317       -15.0565
 126   2.0000      -0.550321       -14.9750
 127   2.0000      -0.540436       -14.7060
 128   2.0000      -0.537830       -14.6351
 129   2.0000      -0.535908       -14.5828
 130   2.0000      -0.527999       -14.3676
 131   2.0000      -0.526370       -14.3233
 132   2.0000      -0.523507       -14.2453
 133   2.0000      -0.516768       -14.0620
 134   2.0000      -0.513565       -13.9748
 135   2.0000      -0.512249       -13.9390
 136   2.0000      -0.508139       -13.8272
 137   2.0000      -0.501114       -13.6360
 138   2.0000      -0.499534       -13.5930
 139   2.0000      -0.498645       -13.5688
 140   2.0000      -0.495054       -13.4711
 141   2.0000      -0.492719       -13.4076
 142   2.0000      -0.487135       -13.2556
 143   2.0000      -0.485574       -13.2131
 144   2.0000      -0.481199       -13.0941
 145   2.0000      -0.479594       -13.0504
 146   2.0000      -0.472825       -12.8662
 147   2.0000      -0.470008       -12.7896
 148   2.0000      -0.469464       -12.7748
 149   2.0000      -0.461964       -12.5707
 150   2.0000      -0.459698       -12.5090
 151   2.0000      -0.456369       -12.4184
 152   2.0000      -0.454569       -12.3694
 153   2.0000      -0.451543       -12.2871
 154   2.0000      -0.451204       -12.2779
 155   2.0000      -0.449571       -12.2334
 156   2.0000      -0.447477       -12.1765
 157   2.0000      -0.446132       -12.1399
 158   2.0000      -0.442734       -12.0474
 159   2.0000      -0.439661       -11.9638
 160   2.0000      -0.437338       -11.9006
 161   2.0000      -0.436506       -11.8779
 162   2.0000      -0.433973       -11.8090
 163   2.0000      -0.427920       -11.6443
 164   2.0000      -0.424456       -11.5500
 165   2.0000      -0.419979       -11.4282
 166   2.0000      -0.417020       -11.3477
 167   2.0000      -0.414381       -11.2759
 168   2.0000      -0.413382       -11.2487
 169   2.0000      -0.411271       -11.1913
 170   2.0000      -0.402215       -10.9448
 171   2.0000      -0.400072       -10.8865
 172   2.0000      -0.390600       -10.6288
 173   2.0000      -0.383561       -10.4372
 174   2.0000      -0.364533        -9.9194
 175   2.0000      -0.360619        -9.8130
 176   2.0000      -0.359000        -9.7689
 177   2.0000      -0.353993        -9.6326
 178   2.0000      -0.344399        -9.3716
 179   2.0000      -0.341771        -9.3000
 180   2.0000      -0.339635        -9.2419
 181   2.0000      -0.333728        -9.0812
 182   2.0000      -0.327576        -8.9138
 183   2.0000      -0.309514        -8.4223
 184   2.0000      -0.284635        -7.7453
 185   2.0000      -0.261986        -7.1290
 186   0.0000      -0.099377        -2.7042
 187   0.0000      -0.076118        -2.0713
 188   0.0000      -0.072684        -1.9778
 189   0.0000      -0.032464        -0.8834
 190   0.0000      -0.031482        -0.8567

MULLIKEN ATOMIC CHARGES
-----------------------
   0 C :   -0.126979
   1 S :    0.205577
   2 C :   -0.150049
   3 C :    0.148580
   4 C :    0.097512
   5 C :   -0.012348
   6 C :   -0.065734
   7 C :   -0.181244
   8 N :    0.168398
   9 C :   -0.082018
  10 C :   -0.142936
  11 N :    0.128831
  12 C :   -0.017413
  13 C :    0.037272
  14 C :   -0.008143
  15 C :    0.021381
  16 C :   -0.002396
  17 N :   -0.045782
  18 C :   -0.018757
  19 C :    0.028446
  20 C :    0.034335
  21 C :    0.008838
  22 C :   -0.009912
  23 N :   -0.042673
  24 C :    0.005563
  25 C :   -0.193466
  26 S :    0.227042
  27 C :   -0.200768
  28 C :    0.158985
  29 C :    0.199425
  30 C :   -0.125380
  31 C :   -0.159454
  32 N :    0.111961
  33 C :    0.069165
  34 C :    0.013929
  35 C :   -0.075114
  36 C :   -0.215448
  37 N :    0.138739
  38 C :   -0.161200
  39 S :    0.236301
  40 C :   -0.139807
  41 C :    0.118823
  42 C :    0.144503
  43 C :   -0.056167
  44 C :   -0.070034
  45 C :   -0.175565
  46 N :    0.175747
  47 C :   -0.069361
  48 C :   -0.179577
  49 N :    0.173028
  50 C :   -0.053988
  51 C :    0.018428
  52 C :   -0.021855
  53 H :    0.030759
  54 H :   -0.005199
  55 H :   -0.013356
  56 H :   -0.004995
  57 H :    0.005195
  58 H :    0.000539
  59 H :   -0.003284
  60 H :    0.006071
  61 H :    0.005635
  62 H :    0.017166
  63 H :    0.014245
  64 H :   -0.006504
  65 H :   -0.002595
  66 H :    0.013480
  67 H :    0.034977
  68 H :    0.040626
Sum of atomic charges:   -0.0000000

LOEWDIN ATOMIC CHARGES
----------------------
   0 C :   -0.187263
   1 S :    0.528668
   2 C :   -0.165835
   3 C :   -0.046479
   4 C :   -0.049335
   5 C :    0.036655
   6 C :   -0.057283
   7 C :   -0.033070
   8 N :   -0.038910
   9 C :   -0.065046
  10 C :   -0.013476
  11 N :   -0.060148
  12 C :    0.047870
  13 C :   -0.064568
  14 C :    0.016609
  15 C :   -0.038421
  16 C :    0.025941
  17 N :   -0.057225
  18 C :    0.016463
  19 C :   -0.034493
  20 C :    0.026740
  21 C :   -0.072708
  22 C :    0.017136
  23 N :   -0.055022
  24 C :    0.030468
  25 C :   -0.168355
  26 S :    0.535461
  27 C :   -0.195079
  28 C :   -0.035801
  29 C :   -0.032358
  30 C :   -0.058338
  31 C :    0.000378
  32 N :   -0.061254
  33 C :    0.042190
  34 C :    0.023495
  35 C :   -0.046229
  36 C :   -0.044022
  37 N :   -0.044578
  38 C :   -0.207686
  39 S :    0.551160
  40 C :   -0.161102
  41 C :   -0.045008
  42 C :   -0.040139
  43 C :    0.021718
  44 C :   -0.051578
  45 C :   -0.032464
  46 N :   -0.034116
  47 C :   -0.056460
  48 C :   -0.032883
  49 N :   -0.036323
  50 C :    0.037270
  51 C :   -0.044220
  52 C :   -0.024922
  53 H :    0.029945
  54 H :    0.045368
  55 H :    0.039907
  56 H :    0.031489
  57 H :    0.024300
  58 H :    0.017216
  59 H :    0.032079
  60 H :    0.018688
  61 H :    0.025308
  62 H :    0.047323
  63 H :    0.050181
  64 H :    0.032448
  65 H :    0.043952
  66 H :    0.036611
  67 H :    0.025792
  68 H :    0.033370

  Mayer bond orders larger than 0.100000
B(  0-C ,  1-S ) :   1.2097 B(  0-C ,  2-C ) :   0.1108 B(  0-C ,  4-C ) :   1.4191
B(  0-C , 53-H ) :   0.9708 B(  1-S ,  2-C ) :   1.2171 B(  2-C ,  3-C ) :   1.3857
B(  2-C , 13-C ) :   1.0221 B(  3-C ,  4-C ) :   1.1835 B(  3-C , 12-C ) :   1.1875
B(  4-C ,  5-C ) :   1.1488 B(  5-C ,  6-C ) :   1.5860 B(  5-C , 54-H ) :   1.0063
B(  6-C ,  7-C ) :   1.0780 B(  6-C ,  9-C ) :   1.2107 B(  7-C ,  8-N ) :   3.0444
B(  9-C , 10-C ) :   1.0924 B(  9-C , 12-C ) :   1.5842 B( 10-C , 11-N ) :   2.9743
B( 12-C , 55-H ) :   0.9899 B( 13-C , 14-C ) :   1.3777 B( 13-C , 18-C ) :   1.3246
B( 14-C , 15-C ) :   1.4190 B( 14-C , 56-H ) :   0.9684 B( 15-C , 16-C ) :   1.3560
B( 15-C , 19-C ) :   0.9300 B( 16-C , 17-N ) :   1.5487 B( 16-C , 57-H ) :   0.9888
B( 17-N , 18-C ) :   1.5816 B( 18-C , 58-H ) :   0.9886 B( 19-C , 20-C ) :   1.4220
B( 19-C , 24-C ) :   1.3650 B( 20-C , 21-C ) :   1.3978 B( 20-C , 59-H ) :   0.9770
B( 21-C , 22-C ) :   1.3291 B( 21-C , 25-C ) :   0.9836 B( 22-C , 23-N ) :   1.5808
B( 22-C , 60-H ) :   0.9873 B( 23-N , 24-C ) :   1.5496 B( 24-C , 61-H ) :   0.9873
B( 25-C , 26-S ) :   1.1915 B( 25-C , 27-C ) :   0.1344 B( 25-C , 29-C ) :   1.4277
B( 26-S , 27-C ) :   1.1764 B( 27-C , 28-C ) :   1.3934 B( 27-C , 38-C ) :   1.0709
B( 28-C , 29-C ) :   1.1606 B( 28-C , 35-C ) :   1.1989 B( 29-C , 30-C ) :   1.1726
B( 30-C , 31-C ) :   1.1169 B( 30-C , 33-C ) :   1.5412 B( 31-C , 32-N ) :   2.9258
B( 33-C , 34-C ) :   1.1945 B( 33-C , 62-H ) :   0.9822 B( 34-C , 35-C ) :   1.5371
B( 34-C , 63-H ) :   0.9982 B( 35-C , 36-C ) :   1.0812 B( 36-C , 37-N ) :   3.0336
B( 38-C , 39-S ) :   1.1949 B( 38-C , 40-C ) :   0.1124 B( 38-C , 42-C ) :   1.3504
B( 39-S , 40-C ) :   1.2018 B( 40-C , 41-C ) :   1.3599 B( 40-C , 51-C ) :   1.0862
B( 41-C , 42-C ) :   1.1908 B( 41-C , 50-C ) :   1.1821 B( 42-C , 43-C ) :   1.1827
B( 43-C , 44-C ) :   1.5807 B( 43-C , 64-H ) :   0.9861 B( 44-C , 45-C ) :   1.0774
B( 44-C , 47-C ) :   1.2328 B( 45-C , 46-N ) :   3.0449 B( 47-C , 48-C ) :   1.0785
B( 47-C , 50-C ) :   1.5668 B( 48-C , 49-N ) :   3.0456 B( 50-C , 65-H ) :   0.9965
B( 51-C , 52-C ) :   1.9313 B( 51-C , 66-H ) :   0.9494 B( 52-C , 67-H ) :   0.9618
B( 52-C , 68-H ) :   0.9484

-----------------------------------------------------------------------------
         ABSORPTION SPECTRUM VIA TRANSITION ELECTRIC DIPOLE MOMENTS
-----------------------------------------------------------------------------
State   Energy  Wavelength   fosc         T2         TX        TY        TZ
        (cm-1)    (nm)                  (au**2)     (au)      (au)      (au)
-----------------------------------------------------------------------------
   0   18307.1    546.2   0.426561415   7.67076   0.59556   2.17667  -1.60567
   1   23520.8    425.2   0.234067628   3.27615  -0.49591  -1.59754   0.69145
   2   27145.3    368.4   0.047835732   0.58014  -0.48793   0.56932  -0.13395
   3   28165.1    355.0   0.260144557   3.04074  -1.22515   1.22297   0.20994
   4   28266.2    353.8   0.019596297   0.22823  -0.03017   0.25206  -0.40471
   5   29332.1    340.9   0.025261732   0.28353  -0.14535   0.39572  -0.32528
   6   32066.4    311.9   0.061510160   0.63150  -0.15724   0.34313  -0.69931
   7   32482.0    307.9   0.168613568   1.70894   0.02036   0.74827  -1.07173
   8   33349.4    299.9   0.006958989   0.06870   0.19080  -0.00877   0.17949
   9   34135.9    292.9   0.219387041   2.11580  -1.30057  -0.51244   0.40214
  10   34501.1    289.8   0.088437560   0.84388   0.79530  -0.07529   0.45355
  11   35217.6    283.9   0.008296064   0.07755   0.25659  -0.07230  -0.08053
  12   35696.0    280.1   0.058143505   0.53624  -0.64158   0.33317   0.11670
  13   36145.7    276.7   0.004076668   0.03713   0.12525  -0.14192  -0.03606
  14   36232.4    276.0   0.053245851   0.48380  -0.10912  -0.53370   0.43250
  15   36399.5    274.7   0.029098590   0.26318   0.13842  -0.44622   0.21192
  16   36782.4    271.9   0.030070976   0.26914   0.47783   0.12876  -0.15568
  17   38088.6    262.5   0.016738590   0.14468  -0.37663  -0.05278   0.00647
  18   38603.1    259.0   0.064308486   0.54843  -0.63983   0.28637   0.23884
  19   39129.5    255.6   0.042243261   0.35541   0.12524  -0.53697  -0.22669
  20   39150.1    255.4   0.082554835   0.69420   0.04555  -0.81605   0.16184
  21   39568.8    252.7   0.102138499   0.84979  -0.45491   0.36207   0.71537
  22   39679.9    252.0   0.009353913   0.07761  -0.02361  -0.26630   0.07833
  23   40229.6    248.6   0.000957908   0.00784  -0.02957  -0.01342   0.08237

FINAL SINGLE POINT ENERGY     -3239.598800869553

DIPOLE MOMENT
-------------
                                X             Y             Z
Electronic contribution:     -0.59257      -4.27484      -3.89987
Nuclear contribution   :      2.14951       2.85736       7.29907
                        -----------------------------------------
Total Dipole Moment    :      1.55695      -1.41748       3.39920
                        -----------------------------------------
Magnitude (a.u.)       :      3.99849
Magnitude (Debye)      :     10.16334

Rotational constants in cm-1:     0.003171     0.000765     0.000657
Rotational constants in MHz :    95.071232    22.936320    19.691069

                             ****ORCA TERMINATED NORMALLY****
TOTAL RUN TIME: 0 days 0 hours 5 minutes 38 seconds 298 msec
