                         Program Version 4.2.0 -  RELEASE  -
|  1> # ORCA input file
|  2> # SCF done       -155.614490671944          0.000711097088
|  3> ! CAM-B3LYP def2-SVP def2/J RIJCOSX Grid4 TightSCF
|  4> %maxcore 5000
|  5> %tddft
|  6>     Mode sTDDFT
|  7>     Ethresh 5.0
|  8>     maxcore 5000
|  9> end
| 10>
| 11> %pal
| 12>   nprocs 6
| 13>   end
| 14> * xyz 0 1
| 15>    C        0.28653        -7.48921         1.58743
| 16>    S        0.63032        -5.84965         1.78692
| 17>    C       -0.80117        -5.35852         0.95306
| 18>    C       -1.52644        -6.48495         0.50984
| 19>    C       -0.90488        -7.71176         0.90530
| 20>    C       -1.50066        -8.94413         0.58277
| 21>    C       -2.68479        -8.95013        -0.11666
| 22>    C       -3.30456       -10.17956        -0.44456
| 23>    N       -3.79002       -11.18674        -0.69357
| 24>    C       -3.30260        -7.72402        -0.51318
| 25>    C       -4.52386        -7.77904        -1.22578
| 26>    N       -5.51838        -7.82633        -1.79210
| 27>    C       -2.73178        -6.50796        -0.20492
| 28>    C       -1.07139        -4.01316         0.64089
| 29>    N       -1.84935        -3.72537        -0.40437
| 30>    C       -1.70437        -2.41558        -0.63808
| 31>    C       -0.79672        -1.80592         0.33698
| 32>    C       -0.54640        -0.39971         0.01435
| 33>    O        0.23268         0.35854         0.56802
| 34>    C       -1.39801        -0.18049        -1.15727
| 35>    C       -2.08755        -1.43646        -1.53077
| 36>    N       -2.86330        -1.24958        -2.61767
| 37>    C       -2.70386         0.01416        -2.94332
| 38>    C       -1.80499         0.73827        -2.07440
| 39>    C       -0.44651        -2.79716         1.22390
| 40>    C        0.27212        -2.59879         2.43004
| 41>    C        0.36433        -3.36196         3.60707
| 42>    C        1.22135        -2.77665         4.59064
| 43>    N        1.44809        -3.38207         5.76726
| 44>    C        0.81542        -4.50384         5.97351
| 45>    C       -0.06244        -5.08701         5.01986
| 46>    C       -0.76168        -6.37145         5.30589
| 47>    N       -0.26829        -4.52284         3.85301
| 48>    C        1.78962        -1.56198         4.17134
| 49>    S        1.15223        -1.12274         2.61648
| 50>    C        2.85566        -0.85456         4.75227
| 51>    C        3.41561         0.20980         4.10613
| 52>    C        4.66374         0.79368         4.39349
| 53>    N        5.32236         0.67696         5.53955
| 54>    C        6.42067         1.43924         5.41750
| 55>    C        6.47071         2.10089         4.10185
| 56>    C        7.67684         2.93796         3.97661
| 57>    O        8.01256         3.62619         3.03725
| 58>    C        8.34414         2.71991         5.27052
| 59>    C        7.54687         1.80868         6.11892
| 60>    N        8.16792         1.59066         7.30084
| 61>    C        9.28015         2.28561         7.23809
| 62>    C        9.45793         3.00538         5.99652
| 63>    C        5.38230         1.65587         3.41132
| 64>    C        4.96446         1.94603         2.07686
| 65>    S        5.18026         3.53637         1.43420
| 66>    C        4.33968         3.15973         0.00503
| 67>    C        3.91776         1.84529        -0.02928
| 68>    C        4.31309         1.12358         1.15182
| 69>    C        4.06433        -0.26102         1.22602
| 70>    C        3.31851        -0.86886         0.24478
| 71>    C        2.98289        -2.23543         0.34845
| 72>    N        2.67552        -3.33450         0.47168
| 73>    C        2.81887        -0.11752        -0.86984
| 74>    C        1.96208        -0.76800        -1.78403
| 75>    N        1.23279        -1.29366        -2.49563
| 76>    C        3.14802         1.20368        -1.02282
| 77>    H        0.95929        -8.23629         1.96208
| 78>    H       -1.03395        -9.87051         0.88168
| 79>    H       -3.18486        -5.58054        -0.51716
| 80>    H       -3.21861         0.42256        -3.79535
| 81>    H       -1.54392         1.77386        -2.16882
| 82>    H        0.99058        -4.98761         6.92451
| 83>    H       -0.03354        -7.16765         5.45521
| 84>    H       -1.41512        -6.63010         4.47743
| 85>    H       -1.35085        -6.28400         6.21703
| 86>    H        3.29369        -1.24616         5.65900
| 87>    H        2.90945         0.58820         3.22700
| 88>    H        9.96361         2.29062         8.06936
| 89>    H       10.29805         3.62260         5.74656
| 90>    H        4.17912         3.91199        -0.74158
| 91>    H        4.45286        -0.84416         2.04791
| 92>    H        2.80461         1.75971        -1.88172
| 93> *
| 94>
| 95>                          ****END OF INPUT****

CARTESIAN COORDINATES (ANGSTROEM)
---------------------------------
  C      0.286530   -7.489210    1.587430
  S      0.630320   -5.849650    1.786920
  C     -0.801170   -5.358520    0.953060
  C     -1.526440   -6.484950    0.509840
  C     -0.904880   -7.711760    0.905300
  C     -1.500660   -8.944130    0.582770
  C     -2.684790   -8.950130   -0.116660
  C     -3.304560  -10.179560   -0.444560
  N     -3.790020  -11.186740   -0.693570
  C     -3.302600   -7.724020   -0.513180
  C     -4.523860   -7.779040   -1.225780
  N     -5.518380   -7.826330   -1.792100
  C     -2.731780   -6.507960   -0.204920
  C     -1.071390   -4.013160    0.640890
  N     -1.849350   -3.725370   -0.404370
  C     -1.704370   -2.415580   -0.638080
  C     -0.796720   -1.805920    0.336980
  C     -0.546400   -0.399710    0.014350
  O      0.232680    0.358540    0.568020
  C     -1.398010   -0.180490   -1.157270
  C     -2.087550   -1.436460   -1.530770
  N     -2.863300   -1.249580   -2.617670
  C     -2.703860    0.014160   -2.943320
  C     -1.804990    0.738270   -2.074400
  C     -0.446510   -2.797160    1.223900
  C      0.272120   -2.598790    2.430040
  C      0.364330   -3.361960    3.607070
  C      1.221350   -2.776650    4.590640
  N      1.448090   -3.382070    5.767260
  C      0.815420   -4.503840    5.973510
  C     -0.062440   -5.087010    5.019860
  C     -0.761680   -6.371450    5.305890
  N     -0.268290   -4.522840    3.853010
  C      1.789620   -1.561980    4.171340
  S      1.152230   -1.122740    2.616480
  C      2.855660   -0.854560    4.752270
  C      3.415610    0.209800    4.106130
  C      4.663740    0.793680    4.393490
  N      5.322360    0.676960    5.539550
  C      6.420670    1.439240    5.417500
  C      6.470710    2.100890    4.101850
  C      7.676840    2.937960    3.976610
  O      8.012560    3.626190    3.037250
  C      8.344140    2.719910    5.270520
  C      7.546870    1.808680    6.118920
  N      8.167920    1.590660    7.300840
  C      9.280150    2.285610    7.238090
  C      9.457930    3.005380    5.996520
  C      5.382300    1.655870    3.411320
  C      4.964460    1.946030    2.076860
  S      5.180260    3.536370    1.434200
  C      4.339680    3.159730    0.005030
  C      3.917760    1.845290   -0.029280
  C      4.313090    1.123580    1.151820
  C      4.064330   -0.261020    1.226020
  C      3.318510   -0.868860    0.244780
  C      2.982890   -2.235430    0.348450
  N      2.675520   -3.334500    0.471680
  C      2.818870   -0.117520   -0.869840
  C      1.962080   -0.768000   -1.784030
  N      1.232790   -1.293660   -2.495630
  C      3.148020    1.203680   -1.022820
  H      0.959290   -8.236290    1.962080
  H     -1.033950   -9.870510    0.881680
  H     -3.184860   -5.580540   -0.517160
  H     -3.218610    0.422560   -3.795350
  H     -1.543920    1.773860   -2.168820
  H      0.990580   -4.987610    6.924510
  H     -0.033540   -7.167650    5.455210
  H     -1.415120   -6.630100    4.477430
  H     -1.350850   -6.284000    6.217030
  H      3.293690   -1.246160    5.659000
  H      2.909450    0.588200    3.227000
  H      9.963610    2.290620    8.069360
  H     10.298050    3.622600    5.746560
  H      4.179120    3.911990   -0.741580
  H      4.452860   -0.844160    2.047910
  H      2.804610    1.759710   -1.881720

 Total Charge           Charge          ....    0
 Multiplicity           Mult            ....    1
 Number of Electrons    NEL             ....  432
 Basis Dimension        Dim             ....  960

ORBITAL ENERGIES
----------------

  NO   OCC          E(Eh)            E(eV)
   0   2.0000     -89.006665     -2421.9945
   1   2.0000     -88.996303     -2421.7125
   2   2.0000     -88.993507     -2421.6364
   3   2.0000     -19.222809      -523.0792
   4   2.0000     -19.212401      -522.7960
   5   2.0000     -14.446975      -393.1222
   6   2.0000     -14.444172      -393.0459
   7   2.0000     -14.425819      -392.5465
   8   2.0000     -14.420085      -392.3905
   9   2.0000     -14.416793      -392.3009
  10   2.0000     -14.411282      -392.1509
  11   2.0000     -14.409027      -392.0895
  12   2.0000     -14.406518      -392.0213
  13   2.0000     -14.405067      -391.9818
  14   2.0000     -14.403040      -391.9266
  15   2.0000     -10.382138      -282.5123
  16   2.0000     -10.373385      -282.2741
  17   2.0000     -10.362328      -281.9733
  18   2.0000     -10.349292      -281.6186
  19   2.0000     -10.347107      -281.5591
  20   2.0000     -10.343537      -281.4619
  21   2.0000     -10.339138      -281.3423
  22   2.0000     -10.338699      -281.3303
  23   2.0000     -10.338412      -281.3225
  24   2.0000     -10.338381      -281.3216
  25   2.0000     -10.337201      -281.2895
  26   2.0000     -10.336536      -281.2714
  27   2.0000     -10.336272      -281.2643
  28   2.0000     -10.335109      -281.2326
  29   2.0000     -10.334375      -281.2126
  30   2.0000     -10.333204      -281.1808
  31   2.0000     -10.332505      -281.1618
  32   2.0000     -10.327661      -281.0299
  33   2.0000     -10.327420      -281.0234
  34   2.0000     -10.326624      -281.0017
  35   2.0000     -10.325526      -280.9718
  36   2.0000     -10.325043      -280.9587
  37   2.0000     -10.324588      -280.9463
  38   2.0000     -10.324193      -280.9356
  39   2.0000     -10.323038      -280.9041
  40   2.0000     -10.321720      -280.8683
  41   2.0000     -10.321360      -280.8585
  42   2.0000     -10.320910      -280.8462
  43   2.0000     -10.320732      -280.8414
  44   2.0000     -10.318646      -280.7846
  45   2.0000     -10.318604      -280.7835
  46   2.0000     -10.318273      -280.7745
  47   2.0000     -10.315923      -280.7105
  48   2.0000     -10.315721      -280.7050
  49   2.0000     -10.314357      -280.6679
  50   2.0000     -10.313204      -280.6365
  51   2.0000     -10.307499      -280.4813
  52   2.0000     -10.305742      -280.4335
  53   2.0000     -10.304286      -280.3939
  54   2.0000     -10.303684      -280.3775
  55   2.0000     -10.298378      -280.2331
  56   2.0000     -10.297201      -280.2011
  57   2.0000     -10.291429      -280.0440
  58   2.0000     -10.290708      -280.0244
  59   2.0000     -10.290083      -280.0074
  60   2.0000     -10.287438      -279.9354
  61   2.0000     -10.286535      -279.9108
  62   2.0000      -8.100171      -220.4169
  63   2.0000      -8.091212      -220.1731
  64   2.0000      -8.086478      -220.0443
  65   2.0000      -6.068776      -165.1398
  66   2.0000      -6.064322      -165.0186
  67   2.0000      -6.064133      -165.0134
  68   2.0000      -6.059986      -164.9006
  69   2.0000      -6.055517      -164.7790
  70   2.0000      -6.055401      -164.7758
  71   2.0000      -6.054685      -164.7563
  72   2.0000      -6.051242      -164.6627
  73   2.0000      -6.049422      -164.6132
  74   2.0000      -1.136709       -30.9314
  75   2.0000      -1.126930       -30.6653
  76   2.0000      -1.104616       -30.0581
  77   2.0000      -1.087196       -29.5841
  78   2.0000      -1.080347       -29.3977
  79   2.0000      -1.062038       -28.8995
  80   2.0000      -1.058030       -28.7905
  81   2.0000      -1.030955       -28.0537
  82   2.0000      -1.030835       -28.0505
  83   2.0000      -1.025991       -27.9186
  84   2.0000      -1.013961       -27.5913
  85   2.0000      -1.008103       -27.4319
  86   2.0000      -1.002716       -27.2853
  87   2.0000      -1.002425       -27.2774
  88   2.0000      -0.987868       -26.8813
  89   2.0000      -0.970025       -26.3957
  90   2.0000      -0.963790       -26.2261
  91   2.0000      -0.944996       -25.7147
  92   2.0000      -0.942100       -25.6358
  93   2.0000      -0.927889       -25.2491
  94   2.0000      -0.914975       -24.8977
  95   2.0000      -0.902703       -24.5638
  96   2.0000      -0.899377       -24.4733
  97   2.0000      -0.889896       -24.2153
  98   2.0000      -0.886302       -24.1175
  99   2.0000      -0.879479       -23.9318
 100   2.0000      -0.876442       -23.8492
 101   2.0000      -0.866564       -23.5804
 102   2.0000      -0.858144       -23.3513
 103   2.0000      -0.846901       -23.0453
 104   2.0000      -0.838966       -22.8294
 105   2.0000      -0.825975       -22.4759
 106   2.0000      -0.820592       -22.3294
 107   2.0000      -0.790378       -21.5073
 108   2.0000      -0.779909       -21.2224
 109   2.0000      -0.771003       -20.9801
 110   2.0000      -0.767853       -20.8943
 111   2.0000      -0.763094       -20.7648
 112   2.0000      -0.762309       -20.7435
 113   2.0000      -0.754683       -20.5360
 114   2.0000      -0.743375       -20.2283
 115   2.0000      -0.739975       -20.1357
 116   2.0000      -0.730642       -19.8818
 117   2.0000      -0.718782       -19.5591
 118   2.0000      -0.714291       -19.4368
 119   2.0000      -0.707962       -19.2646
 120   2.0000      -0.690560       -18.7911
 121   2.0000      -0.682476       -18.5711
 122   2.0000      -0.669845       -18.2274
 123   2.0000      -0.663526       -18.0555
 124   2.0000      -0.660290       -17.9674
 125   2.0000      -0.651679       -17.7331
 126   2.0000      -0.647760       -17.6265
 127   2.0000      -0.636483       -17.3196
 128   2.0000      -0.631990       -17.1973
 129   2.0000      -0.629414       -17.1272
 130   2.0000      -0.622185       -16.9305
 131   2.0000      -0.618876       -16.8405
 132   2.0000      -0.616571       -16.7777
 133   2.0000      -0.615316       -16.7436
 134   2.0000      -0.611754       -16.6467
 135   2.0000      -0.605364       -16.4728
 136   2.0000      -0.586474       -15.9588
 137   2.0000      -0.582748       -15.8574
 138   2.0000      -0.578595       -15.7444
 139   2.0000      -0.569828       -15.5058
 140   2.0000      -0.566647       -15.4193
 141   2.0000      -0.564413       -15.3585
 142   2.0000      -0.561759       -15.2863
 143   2.0000      -0.558430       -15.1957
 144   2.0000      -0.553495       -15.0614
 145   2.0000      -0.551416       -15.0048
 146   2.0000      -0.547966       -14.9109
 147   2.0000      -0.545879       -14.8541
 148   2.0000      -0.541950       -14.7472
 149   2.0000      -0.538238       -14.6462
 150   2.0000      -0.534144       -14.5348
 151   2.0000      -0.532496       -14.4899
 152   2.0000      -0.530409       -14.4332
 153   2.0000      -0.527067       -14.3422
 154   2.0000      -0.526113       -14.3163
 155   2.0000      -0.522943       -14.2300
 156   2.0000      -0.519370       -14.1328
 157   2.0000      -0.514499       -14.0002
 158   2.0000      -0.512392       -13.9429
 159   2.0000      -0.506191       -13.7742
 160   2.0000      -0.501863       -13.6564
 161   2.0000      -0.499890       -13.6027
 162   2.0000      -0.498617       -13.5681
 163   2.0000      -0.497965       -13.5503
 164   2.0000      -0.493231       -13.4215
 165   2.0000      -0.488346       -13.2886
 166   2.0000      -0.486156       -13.2290
 167   2.0000      -0.483478       -13.1561
 168   2.0000      -0.482210       -13.1216
 169   2.0000      -0.481188       -13.0938
 170   2.0000      -0.475959       -12.9515
 171   2.0000      -0.472815       -12.8660
 172   2.0000      -0.471730       -12.8364
 173   2.0000      -0.468975       -12.7615
 174   2.0000      -0.468790       -12.7564
 175   2.0000      -0.464911       -12.6509
 176   2.0000      -0.462274       -12.5791
 177   2.0000      -0.462007       -12.5719
 178   2.0000      -0.456775       -12.4295
 179   2.0000      -0.450869       -12.2688
 180   2.0000      -0.447604       -12.1799
 181   2.0000      -0.445515       -12.1231
 182   2.0000      -0.442655       -12.0453
 183   2.0000      -0.440587       -11.9890
 184   2.0000      -0.436308       -11.8725
 185   2.0000      -0.433743       -11.8027
 186   2.0000      -0.431931       -11.7534
 187   2.0000      -0.429898       -11.6981
 188   2.0000      -0.423578       -11.5261
 189   2.0000      -0.423170       -11.5150
 190   2.0000      -0.416164       -11.3244
 191   2.0000      -0.415618       -11.3095
 192   2.0000      -0.408464       -11.1149
 193   2.0000      -0.406383       -11.0582
 194   2.0000      -0.395710       -10.7678
 195   2.0000      -0.392093       -10.6694
 196   2.0000      -0.389532       -10.5997
 197   2.0000      -0.371548       -10.1103
 198   2.0000      -0.365897        -9.9566
 199   2.0000      -0.362528        -9.8649
 200   2.0000      -0.355217        -9.6659
 201   2.0000      -0.352294        -9.5864
 202   2.0000      -0.351555        -9.5663
 203   2.0000      -0.348955        -9.4955
 204   2.0000      -0.345862        -9.4114
 205   2.0000      -0.339759        -9.2453
 206   2.0000      -0.338545        -9.2123
 207   2.0000      -0.335582        -9.1317
 208   2.0000      -0.332362        -9.0440
 209   2.0000      -0.331372        -9.0171
 210   2.0000      -0.328606        -8.9418
 211   2.0000      -0.323910        -8.8140
 212   2.0000      -0.322190        -8.7672
 213   2.0000      -0.284392        -7.7387
 214   2.0000      -0.278356        -7.5744
 215   2.0000      -0.263110        -7.1596
 216   0.0000      -0.130120        -3.5407
 217   0.0000      -0.117551        -3.1987
 218   0.0000      -0.090794        -2.4706
 219   0.0000      -0.072706        -1.9784
 220   0.0000      -0.055532        -1.5111

MULLIKEN ATOMIC CHARGES
-----------------------
   0 C :   -0.110379
   1 S :    0.291245
   2 C :   -0.168838
   3 C :    0.145836
   4 C :    0.094667
   5 C :   -0.022001
   6 C :   -0.074056
   7 C :   -0.174608
   8 N :    0.173228
   9 C :   -0.062361
  10 C :   -0.166954
  11 N :    0.177872
  12 C :   -0.029879
  13 C :    0.047449
  14 N :   -0.058767
  15 C :    0.093362
  16 C :   -0.201297
  17 C :    0.217254
  18 O :   -0.178412
  19 C :    0.000618
  20 C :   -0.024109
  21 N :   -0.049803
  22 C :    0.098224
  23 C :   -0.095801
  24 C :    0.083072
  25 C :   -0.202563
  26 C :    0.080550
  27 C :    0.014979
  28 N :    0.016788
  29 C :    0.030574
  30 C :   -0.137535
  31 C :    0.099512
  32 N :   -0.032471
  33 C :   -0.121968
  34 S :    0.190484
  35 C :    0.056944
  36 C :   -0.112353
  37 C :    0.046155
  38 N :   -0.032928
  39 C :    0.070301
  40 C :   -0.156003
  41 C :    0.203203
  42 O :   -0.135985
  43 C :   -0.046257
  44 C :   -0.034680
  45 N :   -0.054738
  46 C :    0.085111
  47 C :   -0.090653
  48 C :    0.025724
  49 C :   -0.224862
  50 S :    0.270006
  51 C :   -0.118455
  52 C :    0.091410
  53 C :    0.158701
  54 C :   -0.070661
  55 C :   -0.065238
  56 C :   -0.164375
  57 N :    0.145577
  58 C :   -0.042781
  59 C :   -0.186433
  60 N :    0.164861
  61 C :   -0.003537
  62 H :    0.035576
  63 H :   -0.006149
  64 H :    0.017687
  65 H :    0.009486
  66 H :   -0.013038
  67 H :    0.008704
  68 H :    0.034412
  69 H :    0.036833
  70 H :    0.042654
  71 H :    0.033710
  72 H :    0.042113
  73 H :    0.007494
  74 H :   -0.008083
  75 H :    0.032489
  76 H :    0.011841
  77 H :   -0.007690
Sum of atomic charges:   -0.0000000

LOEWDIN ATOMIC CHARGES
----------------------
   0 C :   -0.166107
   1 S :    0.632431
   2 C :   -0.198384
   3 C :   -0.010040
   4 C :   -0.057151
   5 C :    0.031809
   6 C :   -0.054262
   7 C :   -0.032495
   8 N :   -0.035201
   9 C :   -0.044716
  10 C :   -0.029738
  11 N :   -0.029831
  12 C :    0.042214
  13 C :    0.069052
  14 N :   -0.101334
  15 C :    0.049508
  16 C :   -0.037988
  17 C :    0.063428
  18 O :   -0.172525
  19 C :   -0.038221
  20 C :    0.029124
  21 N :   -0.089926
  22 C :    0.078054
  23 C :   -0.036732
  24 C :   -0.049183
  25 C :   -0.162755
  26 C :   -0.057051
  27 C :   -0.037410
  28 N :   -0.028830
  29 C :    0.016181
  30 C :   -0.002894
  31 C :   -0.053007
  32 N :   -0.072461
  33 C :   -0.188252
  34 S :    0.593537
  35 C :    0.050613
  36 C :   -0.068021
  37 C :    0.063151
  38 N :   -0.109000
  39 C :    0.046065
  40 C :   -0.044499
  41 C :    0.060981
  42 O :   -0.148631
  43 C :   -0.047809
  44 C :    0.013415
  45 N :   -0.097249
  46 C :    0.067184
  47 C :   -0.038990
  48 C :   -0.056101
  49 C :   -0.180860
  50 S :    0.569680
  51 C :   -0.179671
  52 C :   -0.050238
  53 C :   -0.046893
  54 C :    0.027473
  55 C :   -0.065790
  56 C :   -0.028280
  57 N :   -0.065546
  58 C :   -0.058652
  59 C :   -0.026364
  60 N :   -0.046383
  61 C :    0.046749
  62 H :    0.032762
  63 H :    0.044375
  64 H :    0.047297
  65 H :    0.024320
  66 H :    0.031591
  67 H :    0.028705
  68 H :    0.040952
  69 H :    0.040248
  70 H :    0.045060
  71 H :    0.054163
  72 H :    0.028501
  73 H :    0.022556
  74 H :    0.033317
  75 H :    0.030972
  76 H :    0.045010
  77 H :    0.044995

  Mayer bond orders larger than 0.100000
B(  0-C ,  1-S ) :   1.3263 B(  0-C ,  4-C ) :   1.3087 B(  0-C , 62-H ) :   0.9706
B(  1-S ,  2-C ) :   1.1821 B(  2-C ,  3-C ) :   1.2649 B(  2-C , 13-C ) :   1.2152
B(  3-C ,  4-C ) :   1.2162 B(  3-C , 12-C ) :   1.2479 B(  4-C ,  5-C ) :   1.1820
B(  5-C ,  6-C ) :   1.5449 B(  5-C , 63-H ) :   1.0076 B(  6-C ,  7-C ) :   1.0785
B(  6-C ,  9-C ) :   1.2563 B(  7-C ,  8-N ) :   3.0492 B(  9-C , 10-C ) :   1.0870
B(  9-C , 12-C ) :   1.4959 B( 10-C , 11-N ) :   3.0412 B( 12-C , 64-H ) :   0.9856
B( 13-C , 14-N ) :   1.5522 B( 13-C , 15-C ) :   0.1070 B( 13-C , 24-C ) :   1.0109
B( 14-N , 15-C ) :   1.3894 B( 15-C , 16-C ) :   1.0573 B( 15-C , 20-C ) :   1.3876
B( 16-C , 17-C ) :   0.9006 B( 16-C , 24-C ) :   1.5507 B( 17-C , 18-O ) :   2.1482
B( 17-C , 19-C ) :   0.9387 B( 19-C , 20-C ) :   1.0781 B( 19-C , 23-C ) :   1.5805
B( 20-C , 21-N ) :   1.3423 B( 21-N , 22-C ) :   1.6257 B( 22-C , 23-C ) :   1.0864
B( 22-C , 65-H ) :   0.9898 B( 23-C , 66-H ) :   1.0109 B( 24-C , 25-C ) :   1.1225
B( 25-C , 26-C ) :   1.2931 B( 25-C , 33-C ) :   0.1337 B( 25-C , 34-S ) :   1.2390
B( 26-C , 27-C ) :   1.2311 B( 26-C , 32-N ) :   1.3888 B( 27-C , 28-N ) :   1.4418
B( 27-C , 33-C ) :   1.2764 B( 28-N , 29-C ) :   1.7036 B( 29-C , 30-C ) :   1.1664
B( 29-C , 67-H ) :   0.9807 B( 30-C , 31-C ) :   1.0513 B( 30-C , 32-N ) :   1.6525
B( 31-C , 68-H ) :   0.9509 B( 31-C , 69-H ) :   0.9532 B( 31-C , 70-H ) :   0.9506
B( 33-C , 34-S ) :   1.1131 B( 33-C , 35-C ) :   1.2138 B( 35-C , 36-C ) :   1.5226
B( 35-C , 71-H ) :   1.0046 B( 36-C , 37-C ) :   1.1845 B( 36-C , 72-H ) :   0.9412
B( 37-C , 38-N ) :   1.5797 B( 37-C , 39-C ) :   0.1113 B( 37-C , 48-C ) :   1.0235
B( 38-N , 39-C ) :   1.3740 B( 39-C , 40-C ) :   1.0429 B( 39-C , 44-C ) :   1.3828
B( 40-C , 41-C ) :   0.8846 B( 40-C , 48-C ) :   1.6254 B( 41-C , 42-O ) :   2.2874
B( 41-C , 43-C ) :   0.9040 B( 43-C , 44-C ) :   1.0672 B( 43-C , 47-C ) :   1.5891
B( 44-C , 45-N ) :   1.3326 B( 45-N , 46-C ) :   1.6358 B( 46-C , 47-C ) :   1.0914
B( 46-C , 73-H ) :   0.9894 B( 47-C , 74-H ) :   1.0097 B( 48-C , 49-C ) :   1.0688
B( 49-C , 50-S ) :   1.2384 B( 49-C , 51-C ) :   0.1126 B( 49-C , 53-C ) :   1.3371
B( 50-S , 51-C ) :   1.2351 B( 51-C , 52-C ) :   1.4005 B( 51-C , 75-H ) :   0.9695
B( 52-C , 53-C ) :   1.1894 B( 52-C , 61-C ) :   1.1604 B( 53-C , 54-C ) :   1.1832
B( 54-C , 55-C ) :   1.5574 B( 54-C , 76-H ) :   0.9866 B( 55-C , 56-C ) :   1.0879
B( 55-C , 58-C ) :   1.2287 B( 56-C , 57-N ) :   2.9940 B( 58-C , 59-C ) :   1.0880
B( 58-C , 61-C ) :   1.5677 B( 59-C , 60-N ) :   3.0115 B( 61-C , 77-H ) :   1.0024

-----------------------------------------------------------------------------
         ABSORPTION SPECTRUM VIA TRANSITION ELECTRIC DIPOLE MOMENTS
-----------------------------------------------------------------------------
State   Energy  Wavelength   fosc         T2         TX        TY        TZ
        (cm-1)    (nm)                  (au**2)     (au)      (au)      (au)
-----------------------------------------------------------------------------
   0   14391.0    694.9   0.710072464  16.24383  -3.21317  -1.46250  -1.94433
   1   16005.0    624.8   0.191189681   3.93264   1.56461   1.19013   0.26119
   2   16084.7    621.7   0.147131173   3.01140  -1.15446  -0.86337  -0.96604
   3   18175.1    550.2   0.508001442   9.20160   0.07177   2.91575  -0.83359
   4   20220.7    494.5   0.140353622   2.28509  -0.85005   1.17377  -0.42984
   5   21239.4    470.8   0.054977122   0.85215   0.60617   0.07789   0.69184
   6   21587.1    463.2   0.045917402   0.70026   0.01786   0.68957  -0.47374
   7   21833.4    458.0   0.001944679   0.02932   0.15759   0.06601  -0.01143
   8   21942.8    455.7   0.006124614   0.09189   0.13137   0.18457   0.20141
   9   24275.2    411.9   0.040788094   0.55315   0.36838   0.61768   0.18951
  10   24426.6    409.4   0.042369373   0.57104  -0.33960   0.05703  -0.67265
  11   24858.1    402.3   0.035027227   0.46389  -0.14144   0.58367  -0.32127
  12   24920.9    401.3   0.076854686   1.01527   0.22752  -0.14750   0.97044
  13   25444.2    393.0   0.265947801   3.44099  -1.44305  -0.86686  -0.77920
  14   25504.6    392.1   0.028314212   0.36548   0.55699  -0.00603   0.23496
  15   25694.1    389.2   0.057467289   0.73631  -0.65278  -0.20241  -0.51886
  16   26499.0    377.4   0.027200736   0.33793  -0.36669  -0.40351  -0.20161
  17   26817.4    372.9   0.016949492   0.20807  -0.23306  -0.04640  -0.38936
  18   27302.1    366.3   0.187140759   2.25657   0.96111   1.04300   0.49496
  19   27371.1    365.3   0.007502328   0.09024   0.29140  -0.00961  -0.07231
  20   27599.0    362.3   0.092935735   1.10857   0.39510   0.14446   0.96520
  21   27814.0    359.5   0.068734764   0.81356  -0.57415   0.20678  -0.66420
  22   28314.5    353.2   0.077853347   0.90520   0.33394  -0.51603   0.72622
  23   28947.6    345.5   0.072541320   0.82499   0.64210   0.61385  -0.18942
  24   29237.2    342.0   0.105575341   1.18878   0.38962   0.80646  -0.62177
  25   29446.6    339.6   0.004104464   0.04589  -0.10180   0.00066  -0.18848
  26   29617.1    337.6   0.012242980   0.13609  -0.10304   0.16585  -0.31299
  27   30077.3    332.5   0.090290203   0.98827   0.40243   0.55552  -0.71953
  28   30344.7    329.5   0.005079841   0.05511   0.00838  -0.11130   0.20653
  29   30700.8    325.7   0.020601428   0.22091   0.05796   0.10891  -0.45353
  30   31127.5    321.3   0.027605618   0.29196   0.08825  -0.10871   0.52188
  31   31303.5    319.5   0.030902938   0.32500  -0.01411   0.49396  -0.28427
  32   31707.2    315.4   0.055237586   0.57352  -0.30268  -0.69061  -0.07047
  33   32000.1    312.5   0.007907579   0.08135   0.21376   0.18883   0.00210
  34   32293.1    309.7   0.029736315   0.30315   0.01316   0.40595  -0.37172
  35   32436.5    308.3   0.088259305   0.89578   0.49121  -0.00602   0.80899
  36   32678.5    306.0   0.013506493   0.13607   0.06372  -0.30090   0.20364
  37   32885.9    304.1   0.074302352   0.74382  -0.38214   0.74091  -0.22102
  38   33289.0    300.4   0.244711100   2.42007   0.72968   1.33860  -0.30949
  39   33337.1    300.0   0.164498072   1.62446  -1.10359  -0.48829  -0.41003
  40   33687.3    296.8   0.093646629   0.91517  -0.07492   0.69426  -0.65388
  41   33739.6    296.4   0.023356015   0.22789  -0.13789  -0.28495   0.35733
  42   33989.5    294.2   0.057197678   0.55400   0.26407   0.67840   0.15507
  43   34269.1    291.8   0.025459757   0.24458  -0.39685  -0.20966  -0.20770
  44   34559.3    289.4   0.019942548   0.18997   0.08872   0.20497   0.37429
  45   34584.1    289.2   0.083458034   0.79445   0.16438   0.83454  -0.26642
  46   35399.6    282.5   0.051797330   0.48171   0.38119  -0.04866   0.57796
  47   35434.6    282.2   0.011214347   0.10419   0.10151   0.26615   0.15182
  48   35708.5    280.0   0.010522939   0.09702   0.16794   0.25272   0.07030
  49   35866.9    278.8   0.003379736   0.03102  -0.10138   0.01845  -0.14284
  50   36011.6    277.7   0.107528240   0.98301   0.67245   0.67307   0.27892
  51   36125.4    276.8   0.105458457   0.96105  -0.52545  -0.80665   0.18512
  52   36370.5    274.9   0.161556381   1.46235   0.63122   1.01014  -0.20861
  53   36809.0    271.7   0.039015908   0.34895   0.13005  -0.22240   0.53158
  54   36922.4    270.8   0.033295734   0.29688   0.04451   0.50198  -0.20714
  55   37202.3    268.8   0.003725360   0.03297  -0.11420  -0.14111   0.00333
  56   37422.1    267.2   0.041734398   0.36715   0.11270   0.50405  -0.31683
  57   37556.5    266.3   0.113163107   0.99196  -0.01316   0.74593  -0.65983
  58   37975.1    263.3   0.003994571   0.03463   0.16224  -0.08867  -0.02116
  59   38055.0    262.8   0.047496492   0.41089   0.22524   0.58495  -0.13410
  60   38240.1    261.5   0.032004203   0.27553  -0.05189   0.27652  -0.44314
  61   38662.5    258.6   0.030029131   0.25570  -0.38457   0.14004  -0.29697
  62   38809.8    257.7   0.056270316   0.47732   0.46309   0.46311   0.22000
  63   39078.1    255.9   0.075805703   0.63862  -0.39274  -0.54566  -0.43201
  64   39123.8    255.6   0.232161221   1.95355  -0.85670  -0.15652  -1.09321
  65   39446.6    253.5   0.065701832   0.54833  -0.37211  -0.47289  -0.43156
  66   39618.0    252.4   0.026691106   0.22179   0.26472  -0.14142   0.36293
  67   39805.1    251.2   0.014726936   0.12180   0.19612   0.06832   0.28048
  68   39818.5    251.1   0.019288588   0.15947  -0.24972   0.08043  -0.30107
  69   39878.0    250.8   0.024412324   0.20154  -0.07019   0.38278  -0.22380
  70   40007.2    250.0   0.017423011   0.14337   0.09730  -0.21181   0.29840
  71   40180.5    248.9   0.014867406   0.12181  -0.32871  -0.11372   0.02884

FINAL SINGLE POINT ENERGY     -3689.420657005510

DIPOLE MOMENT
-------------
                                X             Y             Z
Electronic contribution:      0.45635       6.73685     -10.37001
Nuclear contribution   :      1.92997      -4.64403      12.53939
                        -----------------------------------------
Total Dipole Moment    :      2.38632       2.09283       2.16938
                        -----------------------------------------
Magnitude (a.u.)       :      3.84456
Magnitude (Debye)      :      9.77209

Rotational constants in cm-1:     0.002472     0.000708     0.000593
Rotational constants in MHz :    74.122351    21.237360    17.783767

                             ****ORCA TERMINATED NORMALLY****
TOTAL RUN TIME: 0 days 0 hours 8 minutes 48 seconds 297 msec
