                         Program Version 4.2.0 -  RELEASE  -
|  1> # ORCA input file
|  2> # SCF done       -158.264682646870          0.000541576668
|  3> ! CAM-B3LYP def2-SVP def2/J RIJCOSX Grid4 TightSCF
|  4> %maxcore 5000
|  5> %tddft
|  6>     Mode sTDDFT
|  7>     Ethresh 5.0
|  8>     maxcore 5000
|  9> end
| 10>
| 11> %pal
| 12>   nprocs 6
| 13>   end
| 14> * xyz 0 1
| 15>    C        0.95726         2.72197         3.13782
| 16>    S        1.14636         1.03876         3.13569
| 17>    C        0.69408         0.90614         1.46576
| 18>    C        0.41457         2.17640         0.93110
| 19>    C        0.54889         3.21537         1.90942
| 20>    C        0.27637         4.55390         1.56144
| 21>    C       -0.11876         4.84160         0.27873
| 22>    C       -0.40680         6.17822        -0.08989
| 23>    N       -0.64006         7.26504        -0.36492
| 24>    C       -0.25070         3.80203        -0.69708
| 25>    C       -0.66601         4.14941        -2.00504
| 26>    N       -1.00817         4.43656        -3.05944
| 27>    C        0.01208         2.48998        -0.37712
| 28>    C        0.68684        -0.32463         0.77010
| 29>    N        0.73622        -0.34438        -0.56174
| 30>    C        0.88716        -1.63167        -0.91099
| 31>    C        0.92978        -2.49811         0.28096
| 32>    C        1.14111        -3.90580        -0.11239
| 33>    O        1.30088        -4.87128         0.60456
| 34>    C        1.17665        -3.82826        -1.57850
| 35>    C        1.04037        -2.42116        -2.02466
| 36>    N        1.09076        -2.34461        -3.37472
| 37>    C        1.22742        -3.58215        -3.78684
| 38>    C        1.27517        -4.56142        -2.71735
| 39>    C        0.74713        -1.68199         1.35849
| 40>    C        0.70942        -2.08841         2.75482
| 41>    C        1.61887        -3.05561         3.11915
| 42>    C        1.69997        -3.52569         4.43563
| 43>    C        0.85248        -2.98341         5.39601
| 44>    C       -0.10320        -2.02042         5.06351
| 45>    C       -0.22211        -1.60435         3.70932
| 46>    C       -1.31304        -0.77989         3.32334
| 47>    C       -2.19188        -0.30791         4.24010
| 48>    C       -2.04463        -0.60344         5.62293
| 49>    C       -1.00581        -1.46561         6.04786
| 50>    C       -0.89763        -1.73852         7.41981
| 51>    C       -1.77293        -1.18920         8.32573
| 52>    C       -2.79991        -0.34565         7.90032
| 53>    C       -2.93139        -0.05865         6.56615
| 54>    C        2.57860        -4.61963         4.75813
| 55>    N        2.34609        -5.41985         5.77931
| 56>    C        3.20612        -6.45079         5.65525
| 57>    C        4.04765        -6.29254         4.45202
| 58>    C        4.98005        -7.42772         4.30845
| 59>    O        5.79218        -7.62482         3.43471
| 60>    C        4.66094        -8.24257         5.49549
| 61>    C        3.57621        -7.61065         6.28379
| 62>    N        3.30632        -8.34190         7.39340
| 63>    C        4.13739        -9.35268         7.34901
| 64>    C        5.02026        -9.34624         6.19809
| 65>    C        3.70438        -5.09350         3.90911
| 66>    C        4.26763        -4.39290         2.78941
| 67>    S        4.88230        -2.78405         2.97781
| 68>    C        5.20597        -2.63037         1.31064
| 69>    C        4.85036        -3.75975         0.60623
| 70>    C        4.33163        -4.79624         1.46101
| 71>    C        3.86400        -6.00366         0.90412
| 72>    C        3.89469        -6.16433        -0.45636
| 73>    C        3.37767        -7.33402        -1.05776
| 74>    N        2.94510        -8.26685        -1.56354
| 75>    C        4.40757        -5.12986        -1.31117
| 76>    C        4.37897        -5.31725        -2.71233
| 77>    N        4.34159        -5.44109        -3.85107
| 78>    C        4.88821        -3.95785        -0.79153
| 79>    H        1.15215         3.28390         4.03031
| 80>    H        0.37390         5.33722         2.29764
| 81>    H       -0.07215         1.70303        -1.11025
| 82>    H        1.30462        -3.80247        -4.83661
| 83>    H        1.37334        -5.62112        -2.84859
| 84>    H        2.23286        -3.49042         2.35239
| 85>    H        0.94098        -3.36359         6.39972
| 86>    H       -1.44839        -0.55628         2.27495
| 87>    H       -3.02573         0.30740         3.93400
| 88>    H       -0.11229        -2.38058         7.78405
| 89>    H       -1.66567        -1.41128         9.37679
| 90>    H       -3.48375         0.07647         8.62096
| 91>    H       -3.72051         0.59301         6.21967
| 92>    H        4.12233       -10.10236         8.12115
| 93>    H        5.77338       -10.07883         5.98553
| 94>    H        5.64104        -1.72841         0.92911
| 95>    H        3.46786        -6.77765         1.54178
| 96>    H        5.26684        -3.18013        -1.43794
| 97> *
| 98>
| 99>                          ****END OF INPUT****

CARTESIAN COORDINATES (ANGSTROEM)
---------------------------------
  C      0.957260    2.721970    3.137820
  S      1.146360    1.038760    3.135690
  C      0.694080    0.906140    1.465760
  C      0.414570    2.176400    0.931100
  C      0.548890    3.215370    1.909420
  C      0.276370    4.553900    1.561440
  C     -0.118760    4.841600    0.278730
  C     -0.406800    6.178220   -0.089890
  N     -0.640060    7.265040   -0.364920
  C     -0.250700    3.802030   -0.697080
  C     -0.666010    4.149410   -2.005040
  N     -1.008170    4.436560   -3.059440
  C      0.012080    2.489980   -0.377120
  C      0.686840   -0.324630    0.770100
  N      0.736220   -0.344380   -0.561740
  C      0.887160   -1.631670   -0.910990
  C      0.929780   -2.498110    0.280960
  C      1.141110   -3.905800   -0.112390
  O      1.300880   -4.871280    0.604560
  C      1.176650   -3.828260   -1.578500
  C      1.040370   -2.421160   -2.024660
  N      1.090760   -2.344610   -3.374720
  C      1.227420   -3.582150   -3.786840
  C      1.275170   -4.561420   -2.717350
  C      0.747130   -1.681990    1.358490
  C      0.709420   -2.088410    2.754820
  C      1.618870   -3.055610    3.119150
  C      1.699970   -3.525690    4.435630
  C      0.852480   -2.983410    5.396010
  C     -0.103200   -2.020420    5.063510
  C     -0.222110   -1.604350    3.709320
  C     -1.313040   -0.779890    3.323340
  C     -2.191880   -0.307910    4.240100
  C     -2.044630   -0.603440    5.622930
  C     -1.005810   -1.465610    6.047860
  C     -0.897630   -1.738520    7.419810
  C     -1.772930   -1.189200    8.325730
  C     -2.799910   -0.345650    7.900320
  C     -2.931390   -0.058650    6.566150
  C      2.578600   -4.619630    4.758130
  N      2.346090   -5.419850    5.779310
  C      3.206120   -6.450790    5.655250
  C      4.047650   -6.292540    4.452020
  C      4.980050   -7.427720    4.308450
  O      5.792180   -7.624820    3.434710
  C      4.660940   -8.242570    5.495490
  C      3.576210   -7.610650    6.283790
  N      3.306320   -8.341900    7.393400
  C      4.137390   -9.352680    7.349010
  C      5.020260   -9.346240    6.198090
  C      3.704380   -5.093500    3.909110
  C      4.267630   -4.392900    2.789410
  S      4.882300   -2.784050    2.977810
  C      5.205970   -2.630370    1.310640
  C      4.850360   -3.759750    0.606230
  C      4.331630   -4.796240    1.461010
  C      3.864000   -6.003660    0.904120
  C      3.894690   -6.164330   -0.456360
  C      3.377670   -7.334020   -1.057760
  N      2.945100   -8.266850   -1.563540
  C      4.407570   -5.129860   -1.311170
  C      4.378970   -5.317250   -2.712330
  N      4.341590   -5.441090   -3.851070
  C      4.888210   -3.957850   -0.791530
  H      1.152150    3.283900    4.030310
  H      0.373900    5.337220    2.297640
  H     -0.072150    1.703030   -1.110250
  H      1.304620   -3.802470   -4.836610
  H      1.373340   -5.621120   -2.848590
  H      2.232860   -3.490420    2.352390
  H      0.940980   -3.363590    6.399720
  H     -1.448390   -0.556280    2.274950
  H     -3.025730    0.307400    3.934000
  H     -0.112290   -2.380580    7.784050
  H     -1.665670   -1.411280    9.376790
  H     -3.483750    0.076470    8.620960
  H     -3.720510    0.593010    6.219670
  H      4.122330  -10.102360    8.121150
  H      5.773380  -10.078830    5.985530
  H      5.641040   -1.728410    0.929110
  H      3.467860   -6.777650    1.541780
  H      5.266840   -3.180130   -1.437940

 Total Charge           Charge          ....    0
 Multiplicity           Mult            ....    1
 Number of Electrons    NEL             ....  434
 Basis Dimension        Dim             ....  994

ORBITAL ENERGIES
----------------

  NO   OCC          E(Eh)            E(eV)
   0   2.0000     -89.016471     -2422.2613
   1   2.0000     -88.998734     -2421.7787
   2   2.0000     -19.225634      -523.1561
   3   2.0000     -19.221359      -523.0398
   4   2.0000     -14.425037      -392.5252
   5   2.0000     -14.423001      -392.4698
   6   2.0000     -14.417675      -392.3249
   7   2.0000     -14.415659      -392.2700
   8   2.0000     -14.414994      -392.2519
   9   2.0000     -14.413739      -392.2178
  10   2.0000     -14.412357      -392.1802
  11   2.0000     -14.407359      -392.0442
  12   2.0000     -10.385179      -282.5951
  13   2.0000     -10.382365      -282.5185
  14   2.0000     -10.366106      -282.0761
  15   2.0000     -10.357825      -281.8507
  16   2.0000     -10.346633      -281.5462
  17   2.0000     -10.344800      -281.4963
  18   2.0000     -10.343836      -281.4701
  19   2.0000     -10.342998      -281.4473
  20   2.0000     -10.342772      -281.4411
  21   2.0000     -10.341166      -281.3974
  22   2.0000     -10.336108      -281.2598
  23   2.0000     -10.335453      -281.2420
  24   2.0000     -10.334978      -281.2290
  25   2.0000     -10.333995      -281.2023
  26   2.0000     -10.333120      -281.1785
  27   2.0000     -10.331439      -281.1328
  28   2.0000     -10.328614      -281.0559
  29   2.0000     -10.328086      -281.0415
  30   2.0000     -10.327316      -281.0206
  31   2.0000     -10.326399      -280.9956
  32   2.0000     -10.325836      -280.9803
  33   2.0000     -10.324541      -280.9450
  34   2.0000     -10.322846      -280.8989
  35   2.0000     -10.316735      -280.7326
  36   2.0000     -10.315972      -280.7119
  37   2.0000     -10.315740      -280.7056
  38   2.0000     -10.313057      -280.6326
  39   2.0000     -10.313005      -280.6311
  40   2.0000     -10.312768      -280.6247
  41   2.0000     -10.312516      -280.6178
  42   2.0000     -10.312415      -280.6151
  43   2.0000     -10.311514      -280.5905
  44   2.0000     -10.310685      -280.5680
  45   2.0000     -10.308619      -280.5118
  46   2.0000     -10.307314      -280.4763
  47   2.0000     -10.307116      -280.4709
  48   2.0000     -10.306189      -280.4457
  49   2.0000     -10.305992      -280.4403
  50   2.0000     -10.303501      -280.3725
  51   2.0000     -10.301326      -280.3133
  52   2.0000     -10.299736      -280.2701
  53   2.0000     -10.299075      -280.2521
  54   2.0000     -10.298989      -280.2497
  55   2.0000     -10.298192      -280.2281
  56   2.0000     -10.297040      -280.1967
  57   2.0000     -10.296754      -280.1889
  58   2.0000     -10.295959      -280.1673
  59   2.0000     -10.295055      -280.1427
  60   2.0000     -10.288717      -279.9702
  61   2.0000     -10.288231      -279.9570
  62   2.0000     -10.287668      -279.9417
  63   2.0000     -10.286849      -279.9194
  64   2.0000      -8.110142      -220.6882
  65   2.0000      -8.093511      -220.2356
  66   2.0000      -6.078969      -165.4172
  67   2.0000      -6.074483      -165.2951
  68   2.0000      -6.073802      -165.2766
  69   2.0000      -6.062407      -164.9665
  70   2.0000      -6.058037      -164.8476
  71   2.0000      -6.056794      -164.8137
  72   2.0000      -1.140097       -31.0236
  73   2.0000      -1.136268       -30.9194
  74   2.0000      -1.093246       -29.7487
  75   2.0000      -1.092016       -29.7153
  76   2.0000      -1.071120       -29.1467
  77   2.0000      -1.069390       -29.0996
  78   2.0000      -1.039184       -28.2776
  79   2.0000      -1.027885       -27.9702
  80   2.0000      -1.011946       -27.5364
  81   2.0000      -1.005629       -27.3646
  82   2.0000      -1.004444       -27.3323
  83   2.0000      -0.996372       -27.1127
  84   2.0000      -0.990553       -26.9543
  85   2.0000      -0.973818       -26.4989
  86   2.0000      -0.972045       -26.4507
  87   2.0000      -0.963228       -26.2108
  88   2.0000      -0.949795       -25.8452
  89   2.0000      -0.947857       -25.7925
  90   2.0000      -0.928431       -25.2639
  91   2.0000      -0.919577       -25.0229
  92   2.0000      -0.914077       -24.8733
  93   2.0000      -0.909198       -24.7405
  94   2.0000      -0.889679       -24.2094
  95   2.0000      -0.888451       -24.1760
  96   2.0000      -0.881274       -23.9807
  97   2.0000      -0.875558       -23.8252
  98   2.0000      -0.874222       -23.7888
  99   2.0000      -0.868651       -23.6372
 100   2.0000      -0.861535       -23.4436
 101   2.0000      -0.854239       -23.2450
 102   2.0000      -0.834426       -22.7059
 103   2.0000      -0.830945       -22.6112
 104   2.0000      -0.827651       -22.5215
 105   2.0000      -0.791190       -21.5294
 106   2.0000      -0.785484       -21.3741
 107   2.0000      -0.776473       -21.1289
 108   2.0000      -0.771750       -21.0004
 109   2.0000      -0.768086       -20.9007
 110   2.0000      -0.762477       -20.7481
 111   2.0000      -0.748822       -20.3765
 112   2.0000      -0.742735       -20.2109
 113   2.0000      -0.739981       -20.1359
 114   2.0000      -0.734916       -19.9981
 115   2.0000      -0.724994       -19.7281
 116   2.0000      -0.721086       -19.6218
 117   2.0000      -0.706831       -19.2339
 118   2.0000      -0.702246       -19.1091
 119   2.0000      -0.693183       -18.8625
 120   2.0000      -0.691011       -18.8034
 121   2.0000      -0.668655       -18.1950
 122   2.0000      -0.665693       -18.1144
 123   2.0000      -0.657561       -17.8931
 124   2.0000      -0.647576       -17.6215
 125   2.0000      -0.641280       -17.4501
 126   2.0000      -0.638864       -17.3844
 127   2.0000      -0.637090       -17.3361
 128   2.0000      -0.629174       -17.1207
 129   2.0000      -0.625129       -17.0106
 130   2.0000      -0.623436       -16.9645
 131   2.0000      -0.620422       -16.8825
 132   2.0000      -0.613559       -16.6958
 133   2.0000      -0.612545       -16.6682
 134   2.0000      -0.607103       -16.5201
 135   2.0000      -0.588694       -16.0192
 136   2.0000      -0.587003       -15.9732
 137   2.0000      -0.585723       -15.9383
 138   2.0000      -0.576058       -15.6753
 139   2.0000      -0.570666       -15.5286
 140   2.0000      -0.567064       -15.4306
 141   2.0000      -0.562752       -15.3133
 142   2.0000      -0.561376       -15.2758
 143   2.0000      -0.556494       -15.1430
 144   2.0000      -0.554395       -15.0858
 145   2.0000      -0.553203       -15.0534
 146   2.0000      -0.549644       -14.9566
 147   2.0000      -0.548089       -14.9143
 148   2.0000      -0.544556       -14.8181
 149   2.0000      -0.544264       -14.8102
 150   2.0000      -0.538321       -14.6485
 151   2.0000      -0.533746       -14.5240
 152   2.0000      -0.532764       -14.4973
 153   2.0000      -0.530093       -14.4246
 154   2.0000      -0.527915       -14.3653
 155   2.0000      -0.522015       -14.2048
 156   2.0000      -0.520823       -14.1723
 157   2.0000      -0.519156       -14.1270
 158   2.0000      -0.516017       -14.0415
 159   2.0000      -0.513748       -13.9798
 160   2.0000      -0.511232       -13.9113
 161   2.0000      -0.508281       -13.8310
 162   2.0000      -0.506453       -13.7813
 163   2.0000      -0.499448       -13.5907
 164   2.0000      -0.496931       -13.5222
 165   2.0000      -0.491332       -13.3698
 166   2.0000      -0.486433       -13.2365
 167   2.0000      -0.485475       -13.2104
 168   2.0000      -0.484710       -13.1896
 169   2.0000      -0.482889       -13.1401
 170   2.0000      -0.479786       -13.0556
 171   2.0000      -0.478102       -13.0098
 172   2.0000      -0.476496       -12.9661
 173   2.0000      -0.475412       -12.9366
 174   2.0000      -0.469873       -12.7859
 175   2.0000      -0.468017       -12.7354
 176   2.0000      -0.462718       -12.5912
 177   2.0000      -0.459115       -12.4931
 178   2.0000      -0.457950       -12.4615
 179   2.0000      -0.454326       -12.3628
 180   2.0000      -0.451466       -12.2850
 181   2.0000      -0.445078       -12.1112
 182   2.0000      -0.444317       -12.0905
 183   2.0000      -0.441337       -12.0094
 184   2.0000      -0.441007       -12.0004
 185   2.0000      -0.435145       -11.8409
 186   2.0000      -0.432798       -11.7770
 187   2.0000      -0.428057       -11.6480
 188   2.0000      -0.424899       -11.5621
 189   2.0000      -0.423713       -11.5298
 190   2.0000      -0.419347       -11.4110
 191   2.0000      -0.416773       -11.3410
 192   2.0000      -0.410797       -11.1783
 193   2.0000      -0.410571       -11.1722
 194   2.0000      -0.406808       -11.0698
 195   2.0000      -0.402140       -10.9428
 196   2.0000      -0.394809       -10.7433
 197   2.0000      -0.393203       -10.6996
 198   2.0000      -0.378216       -10.2918
 199   2.0000      -0.371197       -10.1008
 200   2.0000      -0.369319       -10.0497
 201   2.0000      -0.363707        -9.8970
 202   2.0000      -0.361970        -9.8497
 203   2.0000      -0.355567        -9.6755
 204   2.0000      -0.350396        -9.5348
 205   2.0000      -0.348024        -9.4702
 206   2.0000      -0.343774        -9.3546
 207   2.0000      -0.343060        -9.3351
 208   2.0000      -0.341271        -9.2864
 209   2.0000      -0.339504        -9.2384
 210   2.0000      -0.338868        -9.2211
 211   2.0000      -0.333206        -9.0670
 212   2.0000      -0.329649        -8.9702
 213   2.0000      -0.307234        -8.3603
 214   2.0000      -0.292843        -7.9687
 215   2.0000      -0.289132        -7.8677
 216   2.0000      -0.283429        -7.7125
 217   0.0000      -0.127956        -3.4818
 218   0.0000      -0.122145        -3.3237
 219   0.0000      -0.078261        -2.1296
 220   0.0000      -0.072660        -1.9772
 221   0.0000      -0.058422        -1.5897

MULLIKEN ATOMIC CHARGES
-----------------------
   0 C :   -0.089426
   1 S :    0.235936
   2 C :   -0.230188
   3 C :    0.156401
   4 C :    0.090755
   5 C :   -0.016480
   6 C :   -0.071137
   7 C :   -0.178068
   8 N :    0.179221
   9 C :   -0.060643
  10 C :   -0.169370
  11 N :    0.187840
  12 C :   -0.033387
  13 C :    0.041300
  14 N :   -0.055276
  15 C :    0.069846
  16 C :   -0.148124
  17 C :    0.220571
  18 O :   -0.147372
  19 C :   -0.034577
  20 C :   -0.024327
  21 N :   -0.052254
  22 C :    0.103671
  23 C :   -0.089148
  24 C :   -0.005602
  25 C :    0.033221
  26 C :   -0.042622
  27 C :    0.067684
  28 C :   -0.083871
  29 C :    0.117031
  30 C :    0.037368
  31 C :   -0.034855
  32 C :   -0.001701
  33 C :    0.058184
  34 C :    0.092644
  35 C :   -0.046031
  36 C :    0.035799
  37 C :    0.035630
  38 C :   -0.024592
  39 C :    0.031909
  40 N :   -0.028149
  41 C :    0.065314
  42 C :   -0.113867
  43 C :    0.199851
  44 O :   -0.116063
  45 C :   -0.049927
  46 C :   -0.009139
  47 N :   -0.050747
  48 C :    0.090803
  49 C :   -0.084684
  50 C :   -0.001836
  51 C :   -0.315599
  52 S :    0.214863
  53 C :   -0.127143
  54 C :    0.089172
  55 C :    0.211573
  56 C :    0.038208
  57 C :   -0.083679
  58 C :   -0.176402
  59 N :    0.173417
  60 C :   -0.069400
  61 C :   -0.186361
  62 N :    0.168295
  63 C :   -0.027570
  64 H :    0.041000
  65 H :   -0.001095
  66 H :    0.021127
  67 H :    0.024162
  68 H :    0.014647
  69 H :   -0.011126
  70 H :   -0.010262
  71 H :   -0.007331
  72 H :   -0.019030
  73 H :   -0.020532
  74 H :   -0.007917
  75 H :   -0.007605
  76 H :   -0.022692
  77 H :    0.015755
  78 H :    0.000502
  79 H :    0.030413
  80 H :   -0.002839
  81 H :   -0.004065
Sum of atomic charges:   -0.0000000

LOEWDIN ATOMIC CHARGES
----------------------
   0 C :   -0.157358
   1 S :    0.579588
   2 C :   -0.202774
   3 C :   -0.014346
   4 C :   -0.053963
   5 C :    0.033848
   6 C :   -0.050849
   7 C :   -0.033100
   8 N :   -0.029496
   9 C :   -0.043146
  10 C :   -0.031176
  11 N :   -0.024240
  12 C :    0.041497
  13 C :    0.043158
  14 N :   -0.105640
  15 C :    0.034244
  16 C :   -0.034261
  17 C :    0.069883
  18 O :   -0.138588
  19 C :   -0.050604
  20 C :    0.029464
  21 N :   -0.095006
  22 C :    0.094627
  23 C :   -0.019704
  24 C :   -0.031068
  25 C :   -0.043354
  26 C :    0.021483
  27 C :   -0.053877
  28 C :    0.043177
  29 C :   -0.011224
  30 C :   -0.011171
  31 C :   -0.041659
  32 C :    0.005063
  33 C :   -0.021898
  34 C :   -0.005904
  35 C :   -0.012582
  36 C :   -0.013235
  37 C :   -0.018407
  38 C :   -0.011794
  39 C :    0.080939
  40 N :   -0.097957
  41 C :    0.044340
  42 C :   -0.027841
  43 C :    0.062986
  44 O :   -0.129067
  45 C :   -0.040889
  46 C :    0.027964
  47 N :   -0.094637
  48 C :    0.080231
  49 C :   -0.031137
  50 C :   -0.055583
  51 C :   -0.182834
  52 S :    0.520087
  53 C :   -0.184086
  54 C :   -0.053196
  55 C :   -0.036797
  56 C :    0.062889
  57 C :   -0.056820
  58 C :   -0.028043
  59 N :   -0.042440
  60 C :   -0.055521
  61 C :   -0.026451
  62 N :   -0.045445
  63 C :    0.030030
  64 H :    0.035134
  65 H :    0.046168
  66 H :    0.048011
  67 H :    0.030746
  68 H :    0.040668
  69 H :    0.032278
  70 H :    0.036027
  71 H :    0.031928
  72 H :    0.033600
  73 H :    0.030345
  74 H :    0.032318
  75 H :    0.031918
  76 H :    0.029591
  77 H :    0.026006
  78 H :    0.036877
  79 H :    0.030320
  80 H :    0.046651
  81 H :    0.045089

  Mayer bond orders larger than 0.100000
B(  0-C ,  1-S ) :   1.2718 B(  0-C ,  2-C ) :   0.1082 B(  0-C ,  4-C ) :   1.3529
B(  0-C , 64-H ) :   0.9705 B(  1-S ,  2-C ) :   1.1891 B(  2-C ,  3-C ) :   1.2833
B(  2-C , 13-C ) :   1.1529 B(  3-C ,  4-C ) :   1.2024 B(  3-C , 12-C ) :   1.2363
B(  4-C ,  5-C ) :   1.1646 B(  5-C ,  6-C ) :   1.5642 B(  5-C , 65-H ) :   1.0070
B(  6-C ,  7-C ) :   1.0799 B(  6-C ,  9-C ) :   1.2411 B(  7-C ,  8-N ) :   3.0504
B(  9-C , 10-C ) :   1.0883 B(  9-C , 12-C ) :   1.5090 B( 10-C , 11-N ) :   3.0434
B( 12-C , 66-H ) :   0.9841 B( 13-C , 14-N ) :   1.5718 B( 13-C , 15-C ) :   0.1124
B( 13-C , 24-C ) :   1.0510 B( 14-N , 15-C ) :   1.3657 B( 15-C , 16-C ) :   1.0460
B( 15-C , 20-C ) :   1.4096 B( 16-C , 17-C ) :   0.8913 B( 16-C , 24-C ) :   1.6481
B( 17-C , 18-O ) :   2.1768 B( 17-C , 19-C ) :   0.9172 B( 19-C , 20-C ) :   1.0526
B( 19-C , 23-C ) :   1.5986 B( 20-C , 21-N ) :   1.3238 B( 21-N , 22-C ) :   1.6405
B( 22-C , 23-C ) :   1.0646 B( 22-C , 67-H ) :   0.9906 B( 23-C , 68-H ) :   1.0087
B( 24-C , 25-C ) :   0.9223 B( 25-C , 26-C ) :   1.4799 B( 25-C , 30-C ) :   1.2555
B( 26-C , 27-C ) :   1.2685 B( 26-C , 69-H ) :   0.9804 B( 27-C , 28-C ) :   1.3652
B( 27-C , 39-C ) :   1.0177 B( 28-C , 29-C ) :   1.2823 B( 28-C , 70-H ) :   0.9976
B( 29-C , 30-C ) :   1.2697 B( 29-C , 34-C ) :   1.0821 B( 30-C , 31-C ) :   1.1665
B( 31-C , 32-C ) :   1.5587 B( 31-C , 71-H ) :   0.9835 B( 32-C , 33-C ) :   1.1419
B( 32-C , 72-H ) :   0.9981 B( 33-C , 34-C ) :   1.3026 B( 33-C , 38-C ) :   1.2795
B( 34-C , 35-C ) :   1.3122 B( 35-C , 36-C ) :   1.4569 B( 35-C , 73-H ) :   0.9887
B( 36-C , 37-C ) :   1.3020 B( 36-C , 74-H ) :   0.9855 B( 37-C , 38-C ) :   1.4525
B( 37-C , 75-H ) :   0.9903 B( 38-C , 76-H ) :   0.9982 B( 39-C , 40-N ) :   1.6429
B( 39-C , 41-C ) :   0.1124 B( 39-C , 50-C ) :   1.0455 B( 40-N , 41-C ) :   1.3353
B( 41-C , 42-C ) :   1.0341 B( 41-C , 46-C ) :   1.4266 B( 42-C , 43-C ) :   0.8778
B( 42-C , 50-C ) :   1.6717 B( 43-C , 44-O ) :   2.3073 B( 43-C , 45-C ) :   0.8898
B( 45-C , 46-C ) :   1.0444 B( 45-C , 49-C ) :   1.6172 B( 46-C , 47-N ) :   1.3113
B( 47-N , 48-C ) :   1.6564 B( 48-C , 49-C ) :   1.0698 B( 48-C , 77-H ) :   0.9889
B( 49-C , 78-H ) :   1.0103 B( 50-C , 51-C ) :   0.9972 B( 51-C , 52-S ) :   1.2167
B( 51-C , 53-C ) :   0.1202 B( 51-C , 55-C ) :   1.3906 B( 52-S , 53-C ) :   1.2100
B( 53-C , 54-C ) :   1.4138 B( 53-C , 79-H ) :   0.9699 B( 54-C , 55-C ) :   1.1783
B( 54-C , 63-C ) :   1.1474 B( 55-C , 56-C ) :   1.1835 B( 56-C , 57-C ) :   1.5771
B( 56-C , 80-H ) :   0.9907 B( 57-C , 58-C ) :   1.0956 B( 57-C , 60-C ) :   1.2136
B( 58-C , 59-N ) :   3.0232 B( 60-C , 61-C ) :   1.0905 B( 60-C , 63-C ) :   1.5794
B( 61-C , 62-N ) :   3.0291 B( 63-C , 81-H ) :   1.0065

-----------------------------------------------------------------------------
         ABSORPTION SPECTRUM VIA TRANSITION ELECTRIC DIPOLE MOMENTS
-----------------------------------------------------------------------------
State   Energy  Wavelength   fosc         T2         TX        TY        TZ
        (cm-1)    (nm)                  (au**2)     (au)      (au)      (au)
-----------------------------------------------------------------------------
   0   17632.5    567.1   0.050244573   0.93811  -0.14995   0.86926  -0.40001
   1   17760.8    563.0   0.037182166   0.68920  -0.06174  -0.42590   0.70993
   2   18324.7    545.7   0.013657800   0.24537   0.05342  -0.44332   0.21445
   3   20253.8    493.7   0.505857813   8.22238   0.10124   2.35167   1.63762
   4   21385.0    467.6   0.645853969   9.94263   1.59274  -2.71306  -0.21250
   5   22432.1    445.8   0.006562751   0.09631   0.19755   0.11006   0.21254
   6   22471.4    445.0   0.086473001   1.26685  -0.61350   0.93624  -0.11800
   7   23079.4    433.3   0.015334823   0.21874  -0.04995  -0.36528  -0.28778
   8   23999.2    416.7   0.199192955   2.73246  -0.84710   1.29903  -0.57219
   9   24922.4    401.2   0.012136903   0.16032  -0.14335   0.13011  -0.35049
  10   25001.4    400.0   0.013324651   0.17546  -0.05513   0.41342  -0.03877
  11   25874.1    386.5   0.039962535   0.50847   0.51781  -0.42884  -0.23757
  12   26065.6    383.6   0.000589380   0.00744  -0.00083  -0.08401   0.01965
  13   26589.7    376.1   0.003119197   0.03862   0.01006   0.01307  -0.19582
  14   27088.5    369.2   0.000254241   0.00309   0.04481  -0.02741   0.01817
  15   27397.8    365.0   0.078882455   0.94785   0.44245   0.33141  -0.80141
  16   28022.0    356.9   0.006692905   0.07863   0.27633   0.03288  -0.03452
  17   28253.1    353.9   0.040271155   0.46925  -0.09062  -0.21626   0.64364
  18   28433.9    351.7   0.031547561   0.36526  -0.05421   0.47305  -0.37222
  19   28883.7    346.2   0.321083439   3.65966  -0.31755  -0.79410   1.71121
  20   29436.9    339.7   0.014464042   0.16176   0.13965  -0.18936  -0.32620
  21   29591.1    337.9   0.047378177   0.52710   0.02813   0.52348   0.50228
  22   29956.6    333.8   0.038867301   0.42714  -0.16991  -0.27707   0.56701
  23   30093.0    332.3   0.016732660   0.18305   0.01080  -0.24380  -0.35142
  24   30740.4    325.3   0.182200873   1.95127   0.47939  -1.10667   0.70479
  25   30765.0    325.0   0.062111578   0.66465  -0.15643   0.75293  -0.27071
  26   31254.0    320.0   0.064646217   0.68095  -0.40515   0.71884  -0.00782
  27   31418.7    318.3   0.018849585   0.19751   0.18325  -0.29805  -0.27404
  28   31481.8    317.6   0.024640252   0.25767   0.15653  -0.44238   0.19357
  29   31641.0    316.0   0.014285031   0.14863  -0.18570  -0.11134   0.31898
  30   32089.6    311.6   0.216860361   2.22480  -0.75544   0.94835  -0.86876
  31   32267.0    309.9   0.026716742   0.27258   0.33565  -0.36092  -0.17223
  32   32631.4    306.5   0.117958696   1.19006   0.01880   0.01297   1.09066
  33   32664.4    306.1   0.044957132   0.45311   0.07646  -0.32393  -0.58509
  34   32789.2    305.0   0.032879610   0.33012  -0.22405   0.52600   0.05697
  35   32965.4    303.3   0.093158820   0.93034   0.42918  -0.65695   0.56086
  36   33335.6    300.0   0.069917955   0.69049   0.31476  -0.51183   0.57398
  37   33434.1    299.1   0.029661716   0.29207  -0.21832   0.32913   0.36888
  38   34248.0    292.0   0.024477826   0.23529   0.04021  -0.31549  -0.36626
  39   34637.8    288.7   0.001312205   0.01247   0.02901  -0.08362  -0.06810
  40   34690.4    288.3   0.123597091   1.17293  -0.15060   0.79306   0.72202
  41   34780.1    287.5   0.008566641   0.08109   0.03883  -0.13701  -0.24660
  42   35257.7    283.6   0.068399728   0.63867  -0.35821   0.50186  -0.50842
  43   36346.6    275.1   0.092169224   0.83483  -0.49038   0.74274  -0.20664
  44   36791.5    271.8   0.021186359   0.18958   0.04851  -0.36009  -0.23991
  45   36901.9    271.0   0.000775306   0.00692  -0.04630  -0.02219  -0.06542
  46   37126.5    269.3   0.018408773   0.16324   0.16738  -0.24802  -0.27149
  47   37384.6    267.5   0.022364744   0.19695   0.07260   0.42091   0.12045
  48   37480.1    266.8   0.152703380   1.34129  -0.84482   0.60082   0.51632
  49   37928.0    263.7   0.052921297   0.45935   0.34561  -0.41223  -0.41228
  50   38122.1    262.3   0.040697196   0.35145  -0.12208   0.56311   0.13947
  51   38254.4    261.4   0.005712017   0.04916   0.03177   0.19123  -0.10761
  52   38464.9    260.0   0.030313297   0.25944  -0.16803   0.33857   0.34143
  53   38738.2    258.1   0.024364089   0.20706  -0.07953   0.03847   0.44637
  54   38988.5    256.5   0.011373801   0.09604  -0.01709   0.00036  -0.30943
  55   39185.3    255.2   0.134009370   1.12587  -0.26048   1.01720  -0.15269
  56   39293.4    254.5   0.114198431   0.95679  -0.17732   0.91754  -0.28889
  57   39600.1    252.5   0.014330237   0.11913  -0.00528  -0.03171  -0.34366
  58   39666.8    252.1   0.024427881   0.20274   0.19012   0.02650   0.40729
  59   39753.7    251.5   0.087597772   0.72542   0.28992  -0.16062   0.78458
  60   39848.1    251.0   0.024021726   0.19846  -0.07842   0.25283  -0.35831
  61   40148.7    249.1   0.007018791   0.05755  -0.02962  -0.02007   0.23722
  62   40274.6    248.3   0.032551933   0.26609  -0.33777   0.18126   0.34517

FINAL SINGLE POINT ENERGY     -3373.525737218054

DIPOLE MOMENT
-------------
                                X             Y             Z
Electronic contribution:     12.61382      -1.31936     -15.42057
Nuclear contribution   :    -12.08382       2.00828      20.60686
                        -----------------------------------------
Total Dipole Moment    :      0.53000       0.68891       5.18629
                        -----------------------------------------
Magnitude (a.u.)       :      5.25862
Magnitude (Debye)      :     13.36635

Rotational constants in cm-1:     0.001664     0.000953     0.000683
Rotational constants in MHz :    49.885555    28.572068    20.478396

                             ****ORCA TERMINATED NORMALLY****
TOTAL RUN TIME: 0 days 0 hours 8 minutes 54 seconds 77 msec
