                         Program Version 4.2.0 -  RELEASE  -
|  1> # ORCA input file
|  2> # SCF done       -133.371852199265          0.000696636014
|  3> ! CAM-B3LYP def2-SVP def2/J RIJCOSX Grid4 TightSCF
|  4> %maxcore 5000
|  5> %tddft
|  6>     Mode sTDDFT
|  7>     Ethresh 5.0
|  8>     maxcore 5000
|  9> end
| 10>
| 11> %pal
| 12>   nprocs 6
| 13>   end
| 14> * xyz 0 1
| 15>    C       -4.46881        -4.99374         5.64193
| 16>    S       -3.84680        -3.96373         4.43645
| 17>    C       -5.01647        -4.47132         3.27376
| 18>    C       -5.88758        -5.40466         3.82849
| 19>    C       -5.55751        -5.71148         5.19895
| 20>    C       -6.32449        -6.65454         5.91859
| 21>    C       -7.39381        -7.25652         5.31118
| 22>    C       -8.17442        -8.21137         6.00052
| 23>    N       -8.80964        -8.98848         6.55439
| 24>    C       -7.75710        -6.91142         3.96486
| 25>    C       -8.88915        -7.51980         3.38410
| 26>    N       -9.80256        -8.00617         2.88966
| 27>    C       -7.02410        -6.00139         3.24589
| 28>    C       -4.99346        -3.93775         1.92873
| 29>    C       -5.30221        -4.72182         0.82080
| 30>    C       -5.29773        -4.16701        -0.46201
| 31>    C       -4.93360        -2.81654        -0.56074
| 32>    N       -4.61056        -2.07398         0.47865
| 33>    C       -4.64271        -2.60306         1.68352
| 34>    C       -5.66731        -5.00299        -1.57885
| 35>    C       -5.69327        -4.66300        -2.88200
| 36>    C       -6.12877        -5.55394        -3.90772
| 37>    S       -5.70374        -5.23561        -5.59016
| 38>    C       -6.48242        -6.67729        -6.13809
| 39>    C       -7.04568        -7.35146        -5.10903
| 40>    C       -6.86217        -6.71610        -3.83771
| 41>    C       -7.55304        -7.48953        -2.84954
| 42>    C       -8.11722        -8.59340        -3.42419
| 43>    C       -7.82478        -8.59280        -4.89663
| 44>    O       -8.15809        -9.42291        -5.70642
| 45>    C       -8.85934        -9.64727        -2.80550
| 46>    C       -9.20614        -9.64059        -1.50369
| 47>    C       -9.88356       -10.67525        -0.76076
| 48>    C      -10.18291       -10.44532         0.58259
| 49>    C      -10.77379       -11.43855         1.36259
| 50>    C      -11.07824       -12.64398         0.71532
| 51>    N      -10.81567       -12.87216        -0.55742
| 52>    C      -10.23136       -11.93308        -1.27506
| 53>    C      -11.02240       -11.16594         2.75830
| 54>    C      -11.24026       -12.07590         3.72594
| 55>    C      -11.42675       -11.73088         5.09494
| 56>    S      -11.57168       -10.08337         5.60943
| 57>    C      -11.72542       -10.51513         7.24648
| 58>    C      -11.66615       -11.87920         7.43569
| 59>    C      -11.49753       -12.59065         6.19504
| 60>    C      -11.40865       -13.99391         6.21141
| 61>    C      -11.48481       -14.66756         7.40616
| 62>    C      -11.38982       -16.07634         7.42929
| 63>    N      -11.30737       -17.21992         7.42734
| 64>    C      -11.65684       -13.95708         8.64089
| 65>    C      -11.73170       -14.68442         9.85037
| 66>    N      -11.79315       -15.25600        10.84199
| 67>    C      -11.74651       -12.58959         8.65220
| 68>    H       -4.00994        -5.02857         6.60958
| 69>    H       -6.06513        -6.89215         6.93916
| 70>    H       -7.33471        -5.72801         2.24903
| 71>    H       -5.51244        -5.77509         0.94404
| 72>    H       -4.89207        -2.31455        -1.51662
| 73>    H       -4.38744        -1.94158         2.50135
| 74>    H       -5.94486        -6.01250        -1.30942
| 75>    H       -5.35408        -3.69083        -3.21013
| 76>    H       -6.46945        -6.92058        -7.18233
| 77>    H       -7.62868        -7.22387        -1.81116
| 78>    H       -9.12393       -10.46856        -3.45658
| 79>    H       -8.94673        -8.77454        -0.90637
| 80>    H       -9.94280        -9.49362         1.03716
| 81>    H      -11.56802       -13.45425         1.23812
| 82>    H      -10.02882       -12.19597        -2.30381
| 83>    H      -10.96858       -10.11988         3.03477
| 84>    H      -11.24948       -13.13214         3.49518
| 85>    H      -11.83873        -9.75525         7.99324
| 86>    H      -11.27754       -14.54766         5.29385
| 87>    H      -11.87417       -12.05467         9.58139
| 88> *
| 89>
| 90>                          ****END OF INPUT****

CARTESIAN COORDINATES (ANGSTROEM)
---------------------------------
  C     -4.468810   -4.993740    5.641930
  S     -3.846800   -3.963730    4.436450
  C     -5.016470   -4.471320    3.273760
  C     -5.887580   -5.404660    3.828490
  C     -5.557510   -5.711480    5.198950
  C     -6.324490   -6.654540    5.918590
  C     -7.393810   -7.256520    5.311180
  C     -8.174420   -8.211370    6.000520
  N     -8.809640   -8.988480    6.554390
  C     -7.757100   -6.911420    3.964860
  C     -8.889150   -7.519800    3.384100
  N     -9.802560   -8.006170    2.889660
  C     -7.024100   -6.001390    3.245890
  C     -4.993460   -3.937750    1.928730
  C     -5.302210   -4.721820    0.820800
  C     -5.297730   -4.167010   -0.462010
  C     -4.933600   -2.816540   -0.560740
  N     -4.610560   -2.073980    0.478650
  C     -4.642710   -2.603060    1.683520
  C     -5.667310   -5.002990   -1.578850
  C     -5.693270   -4.663000   -2.882000
  C     -6.128770   -5.553940   -3.907720
  S     -5.703740   -5.235610   -5.590160
  C     -6.482420   -6.677290   -6.138090
  C     -7.045680   -7.351460   -5.109030
  C     -6.862170   -6.716100   -3.837710
  C     -7.553040   -7.489530   -2.849540
  C     -8.117220   -8.593400   -3.424190
  C     -7.824780   -8.592800   -4.896630
  O     -8.158090   -9.422910   -5.706420
  C     -8.859340   -9.647270   -2.805500
  C     -9.206140   -9.640590   -1.503690
  C     -9.883560  -10.675250   -0.760760
  C    -10.182910  -10.445320    0.582590
  C    -10.773790  -11.438550    1.362590
  C    -11.078240  -12.643980    0.715320
  N    -10.815670  -12.872160   -0.557420
  C    -10.231360  -11.933080   -1.275060
  C    -11.022400  -11.165940    2.758300
  C    -11.240260  -12.075900    3.725940
  C    -11.426750  -11.730880    5.094940
  S    -11.571680  -10.083370    5.609430
  C    -11.725420  -10.515130    7.246480
  C    -11.666150  -11.879200    7.435690
  C    -11.497530  -12.590650    6.195040
  C    -11.408650  -13.993910    6.211410
  C    -11.484810  -14.667560    7.406160
  C    -11.389820  -16.076340    7.429290
  N    -11.307370  -17.219920    7.427340
  C    -11.656840  -13.957080    8.640890
  C    -11.731700  -14.684420    9.850370
  N    -11.793150  -15.256000   10.841990
  C    -11.746510  -12.589590    8.652200
  H     -4.009940   -5.028570    6.609580
  H     -6.065130   -6.892150    6.939160
  H     -7.334710   -5.728010    2.249030
  H     -5.512440   -5.775090    0.944040
  H     -4.892070   -2.314550   -1.516620
  H     -4.387440   -1.941580    2.501350
  H     -5.944860   -6.012500   -1.309420
  H     -5.354080   -3.690830   -3.210130
  H     -6.469450   -6.920580   -7.182330
  H     -7.628680   -7.223870   -1.811160
  H     -9.123930  -10.468560   -3.456580
  H     -8.946730   -8.774540   -0.906370
  H     -9.942800   -9.493620    1.037160
  H    -11.568020  -13.454250    1.238120
  H    -10.028820  -12.195970   -2.303810
  H    -10.968580  -10.119880    3.034770
  H    -11.249480  -13.132140    3.495180
  H    -11.838730   -9.755250    7.993240
  H    -11.277540  -14.547660    5.293850
  H    -11.874170  -12.054670    9.581390

 Total Charge           Charge          ....    0
 Multiplicity           Mult            ....    1
 Number of Electrons    NEL             ....  376
 Basis Dimension        Dim             ....  854

ORBITAL ENERGIES
----------------

  NO   OCC          E(Eh)            E(eV)
   0   2.0000     -89.010633     -2422.1025
   1   2.0000     -88.972939     -2421.0768
   2   2.0000     -88.970149     -2421.0008
   3   2.0000     -19.220734      -523.0228
   4   2.0000     -14.439608      -392.9217
   5   2.0000     -14.430621      -392.6772
   6   2.0000     -14.426542      -392.5662
   7   2.0000     -14.397348      -391.7717
   8   2.0000     -14.396635      -391.7524
   9   2.0000     -14.395963      -391.7341
  10   2.0000     -10.367682      -282.1190
  11   2.0000     -10.352398      -281.7031
  12   2.0000     -10.351416      -281.6764
  13   2.0000     -10.346559      -281.5442
  14   2.0000     -10.340716      -281.3852
  15   2.0000     -10.337752      -281.3045
  16   2.0000     -10.336231      -281.2632
  17   2.0000     -10.335297      -281.2377
  18   2.0000     -10.329612      -281.0830
  19   2.0000     -10.329495      -281.0798
  20   2.0000     -10.327565      -281.0273
  21   2.0000     -10.327288      -281.0198
  22   2.0000     -10.326926      -281.0099
  23   2.0000     -10.323095      -280.9057
  24   2.0000     -10.321541      -280.8634
  25   2.0000     -10.321363      -280.8586
  26   2.0000     -10.316928      -280.7379
  27   2.0000     -10.316603      -280.7290
  28   2.0000     -10.316537      -280.7272
  29   2.0000     -10.313456      -280.6434
  30   2.0000     -10.309941      -280.5478
  31   2.0000     -10.308686      -280.5136
  32   2.0000     -10.302305      -280.3400
  33   2.0000     -10.302215      -280.3375
  34   2.0000     -10.302165      -280.3362
  35   2.0000     -10.301623      -280.3214
  36   2.0000     -10.301482      -280.3176
  37   2.0000     -10.299453      -280.2624
  38   2.0000     -10.299392      -280.2607
  39   2.0000     -10.295775      -280.1623
  40   2.0000     -10.295195      -280.1465
  41   2.0000     -10.295110      -280.1442
  42   2.0000     -10.291965      -280.0586
  43   2.0000     -10.291697      -280.0513
  44   2.0000     -10.291480      -280.0454
  45   2.0000     -10.286356      -279.9060
  46   2.0000     -10.285572      -279.8846
  47   2.0000     -10.283354      -279.8243
  48   2.0000     -10.283041      -279.8158
  49   2.0000     -10.281992      -279.7872
  50   2.0000     -10.280698      -279.7520
  51   2.0000     -10.279910      -279.7306
  52   2.0000     -10.276768      -279.6451
  53   2.0000      -8.105852      -220.5715
  54   2.0000      -8.067686      -219.5329
  55   2.0000      -8.065934      -219.4852
  56   2.0000      -6.074644      -165.2995
  57   2.0000      -6.070237      -165.1795
  58   2.0000      -6.069279      -165.1535
  59   2.0000      -6.036503      -164.2616
  60   2.0000      -6.035462      -164.2333
  61   2.0000      -6.032142      -164.1429
  62   2.0000      -6.031070      -164.1138
  63   2.0000      -6.031026      -164.1126
  64   2.0000      -6.027830      -164.0256
  65   2.0000      -1.133217       -30.8364
  66   2.0000      -1.063476       -28.9386
  67   2.0000      -1.044112       -28.4117
  68   2.0000      -1.031718       -28.0745
  69   2.0000      -1.026997       -27.9460
  70   2.0000      -1.014820       -27.6146
  71   2.0000      -1.008858       -27.4524
  72   2.0000      -1.008462       -27.4417
  73   2.0000      -0.987769       -26.8786
  74   2.0000      -0.983684       -26.7674
  75   2.0000      -0.976974       -26.5848
  76   2.0000      -0.949885       -25.8477
  77   2.0000      -0.947749       -25.7896
  78   2.0000      -0.943790       -25.6818
  79   2.0000      -0.930025       -25.3073
  80   2.0000      -0.918375       -24.9903
  81   2.0000      -0.907991       -24.7077
  82   2.0000      -0.905697       -24.6453
  83   2.0000      -0.894732       -24.3469
  84   2.0000      -0.884888       -24.0790
  85   2.0000      -0.882401       -24.0113
  86   2.0000      -0.864124       -23.5140
  87   2.0000      -0.856047       -23.2942
  88   2.0000      -0.844618       -22.9832
  89   2.0000      -0.840414       -22.8688
  90   2.0000      -0.820983       -22.3401
  91   2.0000      -0.800124       -21.7725
  92   2.0000      -0.794697       -21.6248
  93   2.0000      -0.781578       -21.2678
  94   2.0000      -0.773719       -21.0540
  95   2.0000      -0.764700       -20.8085
  96   2.0000      -0.748512       -20.3681
  97   2.0000      -0.745204       -20.2780
  98   2.0000      -0.743275       -20.2256
  99   2.0000      -0.733967       -19.9722
 100   2.0000      -0.724215       -19.7069
 101   2.0000      -0.718401       -19.5487
 102   2.0000      -0.708690       -19.2844
 103   2.0000      -0.703874       -19.1534
 104   2.0000      -0.692644       -18.8478
 105   2.0000      -0.678887       -18.4734
 106   2.0000      -0.656661       -17.8686
 107   2.0000      -0.653719       -17.7886
 108   2.0000      -0.648411       -17.6442
 109   2.0000      -0.639090       -17.3905
 110   2.0000      -0.633860       -17.2482
 111   2.0000      -0.633245       -17.2315
 112   2.0000      -0.625897       -17.0315
 113   2.0000      -0.617824       -16.8118
 114   2.0000      -0.613158       -16.6849
 115   2.0000      -0.607402       -16.5282
 116   2.0000      -0.600091       -16.3293
 117   2.0000      -0.597460       -16.2577
 118   2.0000      -0.594933       -16.1889
 119   2.0000      -0.580078       -15.7847
 120   2.0000      -0.573984       -15.6189
 121   2.0000      -0.572673       -15.5832
 122   2.0000      -0.564306       -15.3555
 123   2.0000      -0.561963       -15.2918
 124   2.0000      -0.557933       -15.1821
 125   2.0000      -0.551559       -15.0087
 126   2.0000      -0.548714       -14.9313
 127   2.0000      -0.538986       -14.6665
 128   2.0000      -0.537560       -14.6277
 129   2.0000      -0.530377       -14.4323
 130   2.0000      -0.526968       -14.3395
 131   2.0000      -0.526463       -14.3258
 132   2.0000      -0.524463       -14.2714
 133   2.0000      -0.516317       -14.0497
 134   2.0000      -0.515273       -14.0213
 135   2.0000      -0.512248       -13.9390
 136   2.0000      -0.511301       -13.9132
 137   2.0000      -0.505890       -13.7660
 138   2.0000      -0.502546       -13.6750
 139   2.0000      -0.498608       -13.5678
 140   2.0000      -0.495186       -13.4747
 141   2.0000      -0.492437       -13.3999
 142   2.0000      -0.489563       -13.3217
 143   2.0000      -0.488075       -13.2812
 144   2.0000      -0.484756       -13.1909
 145   2.0000      -0.482313       -13.1244
 146   2.0000      -0.478383       -13.0175
 147   2.0000      -0.477013       -12.9802
 148   2.0000      -0.472676       -12.8622
 149   2.0000      -0.470762       -12.8101
 150   2.0000      -0.467380       -12.7181
 151   2.0000      -0.463881       -12.6228
 152   2.0000      -0.460652       -12.5350
 153   2.0000      -0.456589       -12.4244
 154   2.0000      -0.452200       -12.3050
 155   2.0000      -0.451181       -12.2773
 156   2.0000      -0.448694       -12.2096
 157   2.0000      -0.440894       -11.9973
 158   2.0000      -0.436307       -11.8725
 159   2.0000      -0.436140       -11.8680
 160   2.0000      -0.432683       -11.7739
 161   2.0000      -0.431996       -11.7552
 162   2.0000      -0.428834       -11.6692
 163   2.0000      -0.427235       -11.6256
 164   2.0000      -0.424546       -11.5525
 165   2.0000      -0.424195       -11.5429
 166   2.0000      -0.423695       -11.5293
 167   2.0000      -0.417568       -11.3626
 168   2.0000      -0.412442       -11.2231
 169   2.0000      -0.408675       -11.1206
 170   2.0000      -0.403209       -10.9719
 171   2.0000      -0.398407       -10.8412
 172   2.0000      -0.386383       -10.5140
 173   2.0000      -0.384303       -10.4574
 174   2.0000      -0.379184       -10.3181
 175   2.0000      -0.367936       -10.0120
 176   2.0000      -0.359882        -9.7929
 177   2.0000      -0.354065        -9.6346
 178   2.0000      -0.348913        -9.4944
 179   2.0000      -0.336805        -9.1649
 180   2.0000      -0.336059        -9.1446
 181   2.0000      -0.319539        -8.6951
 182   2.0000      -0.318486        -8.6664
 183   2.0000      -0.315604        -8.5880
 184   2.0000      -0.302572        -8.2334
 185   2.0000      -0.293717        -7.9925
 186   2.0000      -0.262257        -7.1364
 187   2.0000      -0.249254        -6.7826
 188   0.0000      -0.089087        -2.4242
 189   0.0000      -0.080458        -2.1894
 190   0.0000      -0.061178        -1.6647
 191   0.0000      -0.044984        -1.2241
 192   0.0000      -0.039991        -1.0882

MULLIKEN ATOMIC CHARGES
-----------------------
   0 C :   -0.125219
   1 S :    0.215555
   2 C :   -0.154568
   3 C :    0.152386
   4 C :    0.095602
   5 C :   -0.005344
   6 C :   -0.071262
   7 C :   -0.173006
   8 N :    0.165564
   9 C :   -0.080621
  10 C :   -0.123883
  11 N :    0.149933
  12 C :   -0.048302
  13 C :    0.046384
  14 C :   -0.044568
  15 C :    0.079717
  16 C :   -0.008021
  17 N :   -0.042888
  18 C :   -0.016821
  19 C :   -0.017320
  20 C :    0.073293
  21 C :   -0.153001
  22 S :    0.120098
  23 C :   -0.122658
  24 C :    0.020820
  25 C :    0.097353
  26 C :   -0.031820
  27 C :   -0.039306
  28 C :    0.155419
  29 O :   -0.123614
  30 C :    0.028924
  31 C :    0.017348
  32 C :    0.089855
  33 C :   -0.036714
  34 C :    0.074410
  35 C :   -0.019249
  36 N :   -0.054139
  37 C :   -0.015109
  38 C :   -0.015718
  39 C :    0.023917
  40 C :   -0.131338
  41 S :    0.193765
  42 C :   -0.092072
  43 C :    0.101611
  44 C :    0.131615
  45 C :   -0.043799
  46 C :   -0.071535
  47 C :   -0.178377
  48 N :    0.159759
  49 C :   -0.077620
  50 C :   -0.176077
  51 N :    0.160317
  52 C :   -0.017929
  53 H :    0.035390
  54 H :   -0.000272
  55 H :   -0.001627
  56 H :   -0.004322
  57 H :    0.004903
  58 H :    0.002577
  59 H :   -0.025475
  60 H :   -0.010558
  61 H :    0.038415
  62 H :   -0.015623
  63 H :   -0.000763
  64 H :   -0.031117
  65 H :   -0.026236
  66 H :   -0.004530
  67 H :   -0.001234
  68 H :    0.003646
  69 H :   -0.009153
  70 H :    0.022075
  71 H :   -0.007988
  72 H :   -0.009859
Sum of atomic charges:    0.0000000

LOEWDIN ATOMIC CHARGES
----------------------
   0 C :   -0.184552
   1 S :    0.537118
   2 C :   -0.165170
   3 C :   -0.049517
   4 C :   -0.050229
   5 C :    0.042531
   6 C :   -0.059994
   7 C :   -0.027624
   8 N :   -0.046568
   9 C :   -0.064537
  10 C :   -0.005191
  11 N :   -0.048179
  12 C :    0.037222
  13 C :   -0.066128
  14 C :    0.007097
  15 C :   -0.037937
  16 C :    0.032749
  17 N :   -0.053372
  18 C :    0.013600
  19 C :   -0.024851
  20 C :   -0.019816
  21 C :   -0.169669
  22 S :    0.425917
  23 C :   -0.124882
  24 C :   -0.097742
  25 C :   -0.048495
  26 C :    0.011290
  27 C :   -0.048751
  28 C :    0.087618
  29 O :   -0.118676
  30 C :   -0.021533
  31 C :    0.004231
  32 C :   -0.052326
  33 C :    0.017059
  34 C :   -0.046240
  35 C :    0.025090
  36 N :   -0.063562
  37 C :    0.028685
  38 C :   -0.016910
  39 C :   -0.038555
  40 C :   -0.169499
  41 S :    0.539813
  42 C :   -0.174520
  43 C :   -0.053103
  44 C :   -0.050523
  45 C :    0.033478
  46 C :   -0.062283
  47 C :   -0.032566
  48 N :   -0.046031
  49 C :   -0.062232
  50 C :   -0.031519
  51 N :   -0.045674
  52 C :    0.036396
  53 H :    0.031947
  54 H :    0.047412
  55 H :    0.043017
  56 H :    0.030748
  57 H :    0.022696
  58 H :    0.018052
  59 H :    0.027746
  60 H :    0.030406
  61 H :    0.035217
  62 H :    0.021951
  63 H :    0.034285
  64 H :    0.024176
  65 H :    0.026447
  66 H :    0.018537
  67 H :    0.020443
  68 H :    0.023161
  69 H :    0.031458
  70 H :    0.027275
  71 H :    0.040938
  72 H :    0.043150

  Mayer bond orders larger than 0.100000
B(  0-C ,  1-S ) :   1.2136 B(  0-C ,  2-C ) :   0.1091 B(  0-C ,  4-C ) :   1.4186
B(  0-C , 53-H ) :   0.9718 B(  1-S ,  2-C ) :   1.2234 B(  2-C ,  3-C ) :   1.3857
B(  2-C , 13-C ) :   1.0142 B(  3-C ,  4-C ) :   1.1800 B(  3-C , 12-C ) :   1.1793
B(  4-C ,  5-C ) :   1.1537 B(  5-C ,  6-C ) :   1.5835 B(  5-C , 54-H ) :   1.0059
B(  6-C ,  7-C ) :   1.0799 B(  6-C ,  9-C ) :   1.2103 B(  7-C ,  8-N ) :   3.0269
B(  9-C , 10-C ) :   1.0935 B(  9-C , 12-C ) :   1.5799 B( 10-C , 11-N ) :   2.9221
B( 12-C , 55-H ) :   0.9936 B( 13-C , 14-C ) :   1.3753 B( 13-C , 18-C ) :   1.3282
B( 14-C , 15-C ) :   1.3581 B( 14-C , 56-H ) :   0.9937 B( 15-C , 16-C ) :   1.3184
B( 15-C , 19-C ) :   1.0707 B( 16-C , 17-N ) :   1.5716 B( 16-C , 57-H ) :   0.9831
B( 17-N , 18-C ) :   1.5677 B( 18-C , 58-H ) :   0.9872 B( 19-C , 20-C ) :   1.7130
B( 19-C , 59-H ) :   0.9772 B( 20-C , 21-C ) :   1.1044 B( 20-C , 60-H ) :   0.9551
B( 21-C , 22-S ) :   1.0877 B( 21-C , 25-C ) :   1.4827 B( 22-S , 23-C ) :   1.1524
B( 23-C , 24-C ) :   1.5937 B( 23-C , 61-H ) :   0.9701 B( 24-C , 25-C ) :   1.2143
B( 24-C , 28-C ) :   0.9036 B( 25-C , 26-C ) :   1.0481 B( 26-C , 27-C ) :   1.6362
B( 26-C , 62-H ) :   0.9953 B( 27-C , 28-C ) :   0.9347 B( 27-C , 30-C ) :   1.1027
B( 28-C , 29-O ) :   2.2648 B( 30-C , 31-C ) :   1.6690 B( 30-C , 63-H ) :   0.9753
B( 31-C , 32-C ) :   1.0687 B( 31-C , 64-H ) :   0.9794 B( 32-C , 33-C ) :   1.3375
B( 32-C , 37-C ) :   1.3146 B( 33-C , 34-C ) :   1.3555 B( 33-C , 65-H ) :   0.9924
B( 34-C , 35-C ) :   1.3220 B( 34-C , 38-C ) :   1.0629 B( 35-C , 36-N ) :   1.5614
B( 35-C , 66-H ) :   0.9837 B( 36-N , 37-C ) :   1.5711 B( 37-C , 67-H ) :   0.9847
B( 38-C , 39-C ) :   1.6973 B( 38-C , 68-H ) :   0.9736 B( 39-C , 40-C ) :   1.1543
B( 39-C , 69-H ) :   0.9643 B( 40-C , 41-S ) :   1.1949 B( 40-C , 44-C ) :   1.3294
B( 41-S , 42-C ) :   1.2152 B( 42-C , 43-C ) :   1.4238 B( 42-C , 70-H ) :   0.9685
B( 43-C , 44-C ) :   1.1841 B( 43-C , 52-C ) :   1.1552 B( 44-C , 45-C ) :   1.1932
B( 45-C , 46-C ) :   1.5773 B( 45-C , 71-H ) :   0.9959 B( 46-C , 47-C ) :   1.0811
B( 46-C , 49-C ) :   1.2175 B( 47-C , 48-N ) :   3.0404 B( 49-C , 50-C ) :   1.0772
B( 49-C , 52-C ) :   1.5802 B( 50-C , 51-N ) :   3.0462 B( 52-C , 72-H ) :   1.0068

-----------------------------------------------------------------------------
         ABSORPTION SPECTRUM VIA TRANSITION ELECTRIC DIPOLE MOMENTS
-----------------------------------------------------------------------------
State   Energy  Wavelength   fosc         T2         TX        TY        TZ
        (cm-1)    (nm)                  (au**2)     (au)      (au)      (au)
-----------------------------------------------------------------------------
   0   21467.8    465.8   0.492743988   7.55631   1.55325   2.18140  -0.62064
   1   22607.4    442.3   0.002536903   0.03694  -0.14251  -0.12894  -0.00270
   2   24231.8    412.7   0.005900086   0.08016  -0.03819  -0.27751  -0.04107
   3   24364.5    410.4   0.494789368   6.68556   0.24567  -0.14385  -2.56993
   4   25373.8    394.1   0.040149803   0.52092  -0.04241  -0.14996  -0.70472
   5   28078.6    356.1   0.388076614   4.55006  -0.10869   0.33402  -2.10397
   6   28280.3    353.6   0.005695096   0.06630   0.00580   0.06200   0.24984
   7   28482.7    351.1   0.101980074   1.17872  -0.01492   0.11897   1.07905
   8   29801.3    335.6   0.405927723   4.48424  -0.97347  -1.80169  -0.53899
   9   30259.1    330.5   0.003556619   0.03870   0.06570   0.12655  -0.13551
  10   31055.2    322.0   0.011012136   0.11674   0.10127   0.23604  -0.22532
  11   31284.5    319.6   0.042472027   0.44694  -0.02946   0.08362   0.66263
  12   32468.2    308.0   0.404313120   4.09954  -0.21899  -0.50298   1.94900
  13   33106.6    302.1   0.001648545   0.01639  -0.06277  -0.08324  -0.07432
  14   33336.0    300.0   0.003643171   0.03598   0.04598   0.11334  -0.14498
  15   34103.2    293.2   0.005757049   0.05558   0.00161  -0.13468   0.19348
  16   35265.5    283.6   0.084660881   0.79033   0.25827   0.32616  -0.78565
  17   35527.0    281.5   0.048126940   0.44597   0.32154   0.51607  -0.27615
  18   35542.7    281.4   0.014761401   0.13673  -0.17617  -0.25470   0.20204
  19   35876.6    278.7   0.093533029   0.85828  -0.30481  -0.57526   0.65913
  20   36509.5    273.9   0.904357374   8.15474  -0.77478  -1.19880   2.47333
  21   36827.5    271.5   0.030089063   0.26897  -0.26492  -0.27076   0.35423
  22   37441.7    267.1   0.027524692   0.24202  -0.00950  -0.17118   0.46111
  23   37482.1    266.8   0.008588875   0.07544   0.07913   0.18028  -0.19151
  24   37923.4    263.7   0.005208824   0.04522  -0.01427  -0.13916   0.16015
  25   38035.1    262.9   0.021820541   0.18887   0.05584   0.19590  -0.38389
  26   38533.6    259.5   0.001531692   0.01309   0.03157  -0.01016  -0.10948
  27   38961.1    256.7   0.029688387   0.25086  -0.23610  -0.38027   0.22476
  28   39213.8    255.0   0.173697787   1.45825  -0.01530   0.50914  -1.09489
  29   39528.0    253.0   0.011965027   0.09965   0.11469  -0.03667  -0.29181
  30   39595.4    252.6   0.109120337   0.90727   0.17639   0.77028  -0.53181
  31   39847.5    251.0   0.173248898   1.43135   0.32963   0.76484  -0.85891
  32   40037.6    249.8   0.235750130   1.93847   0.19178  -0.00218  -1.37902

FINAL SINGLE POINT ENERGY     -3245.825780775528

DIPOLE MOMENT
-------------
                                X             Y             Z
Electronic contribution:      1.06930      -0.41694      11.70495
Nuclear contribution   :      2.10501       6.62541     -12.69189
                        -----------------------------------------
Total Dipole Moment    :      3.17432       6.20847      -0.98693
                        -----------------------------------------
Magnitude (a.u.)       :      7.04240
Magnitude (Debye)      :     17.90037

Rotational constants in cm-1:     0.001938     0.000744     0.000555
Rotational constants in MHz :    58.090002    22.310147    16.636468

                             ****ORCA TERMINATED NORMALLY****
TOTAL RUN TIME: 0 days 0 hours 5 minutes 35 seconds 8 msec
