                         Program Version 4.2.0 -  RELEASE  -
|  1> # ORCA input file
|  2> # SCF done       -172.667640925156          0.000917008065
|  3> ! CAM-B3LYP def2-SVP def2/J RIJCOSX Grid4 TightSCF
|  4> %maxcore 5000
|  5> %tddft
|  6>     Mode sTDDFT
|  7>     Ethresh 5.0
|  8>     maxcore 5000
|  9> end
| 10>
| 11> %pal
| 12>   nprocs 6
| 13>   end
| 14> * xyz 0 1
| 15>    C       -4.54084        -0.83452        -3.89047
| 16>    S       -3.59791        -0.80594        -2.47703
| 17>    C       -4.04470        -2.42824        -2.03092
| 18>    C       -4.92602        -2.96140        -2.98746
| 19>    C       -5.20315        -2.03308        -4.05126
| 20>    C       -6.07600        -2.39010        -5.10174
| 21>    C       -6.67418        -3.62265        -5.09026
| 22>    C       -7.55301        -4.00198        -6.13249
| 23>    N       -8.26095        -4.29453        -6.98389
| 24>    C       -6.43093        -4.53469        -4.01360
| 25>    C       -7.08651        -5.78692        -4.00327
| 26>    N       -7.60425        -6.80880        -3.97531
| 27>    C       -5.57600        -4.20712        -2.98776
| 28>    C       -3.50079        -3.04867        -0.88093
| 29>    S       -3.37938        -4.77883        -0.78289
| 30>    C       -2.66058        -4.74676         0.79234
| 31>    C       -2.46107        -3.42187         1.20806
| 32>    C       -2.95215        -2.45720         0.27265
| 33>    C       -2.88412        -1.09256         0.60353
| 34>    C       -2.28508        -0.70361         1.77888
| 35>    C       -2.22704         0.66970         2.11211
| 36>    N       -2.18610         1.78797         2.35767
| 37>    C       -1.69177        -1.66598         2.65044
| 38>    C       -1.00478        -1.23352         3.80808
| 39>    N       -0.43309        -0.89971         4.74275
| 40>    C       -1.78000        -3.00645         2.36417
| 41>    C       -2.49188        -5.89971         1.59545
| 42>    N       -2.19305        -7.16812         1.15147
| 43>    C       -1.79265        -7.54877        -0.18197
| 44>    C       -0.44296        -6.95212        -0.56727
| 45>    C       -2.17884        -8.09451         2.20629
| 46>    O       -1.89880        -9.27199         2.06106
| 47>    C       -2.55167        -7.32725         3.36891
| 48>    C       -2.70379        -5.97725         2.97066
| 49>    C       -3.21490        -5.22902         4.10350
| 50>    O       -3.52173        -4.06145         4.23254
| 51>    N       -3.31096        -6.18113         5.12932
| 52>    C       -3.80862        -5.82314         6.43661
| 53>    C       -5.29301        -6.14496         6.58908
| 54>    C       -2.94518        -7.43945         4.70771
| 55>    C       -3.02407        -8.60120         5.49869
| 56>    C       -2.62413        -9.81651         5.01747
| 57>    C       -2.74037       -11.03580         5.69365
| 58>    S       -3.52321       -11.19139         7.23474
| 59>    C       -3.29662       -12.91195         7.30108
| 60>    C       -2.60675       -13.35710         6.15378
| 61>    C       -2.30273       -12.29660         5.24350
| 62>    C       -1.63066       -12.55982         4.03997
| 63>    C       -1.26555       -13.85203         3.73953
| 64>    C       -0.57266       -14.13933         2.54019
| 65>    N       -0.00502       -14.36623         1.57169
| 66>    C       -1.59037       -14.91784         4.63063
| 67>    C       -1.23114       -16.24405         4.29413
| 68>    N       -0.94549       -17.32517         4.04521
| 69>    C       -2.25415       -14.67309         5.81096
| 70>    C       -3.74786       -13.65582         8.41589
| 71>    S       -3.01268       -15.17283         8.85296
| 72>    C       -3.99857       -15.36457        10.22375
| 73>    C       -4.88726       -14.32143        10.37683
| 74>    C       -4.75327       -13.32874         9.34427
| 75>    C       -5.63106       -12.23243         9.34068
| 76>    C       -6.57326       -12.10324        10.33428
| 77>    C       -7.45041       -10.99515        10.31944
| 78>    N       -8.14480       -10.08420        10.28451
| 79>    C       -6.67982       -13.07526        11.37965
| 80>    C       -7.65770       -12.90193        12.38776
| 81>    N       -8.44565       -12.77543        13.20930
| 82>    C       -5.85501       -14.16936        11.39332
| 83>    H       -4.57203         0.02375        -4.53122
| 84>    H       -6.26987        -1.68980        -5.89981
| 85>    H       -5.43075        -4.91065        -2.18335
| 86>    H       -3.30522        -0.34155        -0.04570
| 87>    H       -1.31312        -3.73129         3.00985
| 88>    H       -2.56448        -7.25538        -0.90009
| 89>    H       -1.72700        -8.64044        -0.16809
| 90>    H       -0.48153        -5.86469        -0.57255
| 91>    H       -0.16309        -7.29407        -1.55933
| 92>    H        0.32176        -7.26860         0.13800
| 93>    H       -3.65773        -4.74458         6.53534
| 94>    H       -3.21612        -6.33384         7.20041
| 95>    H       -5.86925        -5.58911         5.85377
| 96>    H       -5.63059        -5.86012         7.58138
| 97>    H       -5.48230        -7.20670         6.44661
| 98>    H       -3.42384        -8.52458         6.50036
| 99>    H       -2.20177        -9.86170         4.02302
|100>    H       -1.40670       -11.76105         3.34975
|101>    H       -2.50414       -15.50251         6.45276
|102>    H       -3.88683       -16.22897        10.84704
|103>    H       -5.59188       -11.49097         8.55877
|104>    H       -5.94207       -14.91658        12.16725
|105> *
|106>
|107>                          ****END OF INPUT****

CARTESIAN COORDINATES (ANGSTROEM)
---------------------------------
  C     -4.540840   -0.834520   -3.890470
  S     -3.597910   -0.805940   -2.477030
  C     -4.044700   -2.428240   -2.030920
  C     -4.926020   -2.961400   -2.987460
  C     -5.203150   -2.033080   -4.051260
  C     -6.076000   -2.390100   -5.101740
  C     -6.674180   -3.622650   -5.090260
  C     -7.553010   -4.001980   -6.132490
  N     -8.260950   -4.294530   -6.983890
  C     -6.430930   -4.534690   -4.013600
  C     -7.086510   -5.786920   -4.003270
  N     -7.604250   -6.808800   -3.975310
  C     -5.576000   -4.207120   -2.987760
  C     -3.500790   -3.048670   -0.880930
  S     -3.379380   -4.778830   -0.782890
  C     -2.660580   -4.746760    0.792340
  C     -2.461070   -3.421870    1.208060
  C     -2.952150   -2.457200    0.272650
  C     -2.884120   -1.092560    0.603530
  C     -2.285080   -0.703610    1.778880
  C     -2.227040    0.669700    2.112110
  N     -2.186100    1.787970    2.357670
  C     -1.691770   -1.665980    2.650440
  C     -1.004780   -1.233520    3.808080
  N     -0.433090   -0.899710    4.742750
  C     -1.780000   -3.006450    2.364170
  C     -2.491880   -5.899710    1.595450
  N     -2.193050   -7.168120    1.151470
  C     -1.792650   -7.548770   -0.181970
  C     -0.442960   -6.952120   -0.567270
  C     -2.178840   -8.094510    2.206290
  O     -1.898800   -9.271990    2.061060
  C     -2.551670   -7.327250    3.368910
  C     -2.703790   -5.977250    2.970660
  C     -3.214900   -5.229020    4.103500
  O     -3.521730   -4.061450    4.232540
  N     -3.310960   -6.181130    5.129320
  C     -3.808620   -5.823140    6.436610
  C     -5.293010   -6.144960    6.589080
  C     -2.945180   -7.439450    4.707710
  C     -3.024070   -8.601200    5.498690
  C     -2.624130   -9.816510    5.017470
  C     -2.740370  -11.035800    5.693650
  S     -3.523210  -11.191390    7.234740
  C     -3.296620  -12.911950    7.301080
  C     -2.606750  -13.357100    6.153780
  C     -2.302730  -12.296600    5.243500
  C     -1.630660  -12.559820    4.039970
  C     -1.265550  -13.852030    3.739530
  C     -0.572660  -14.139330    2.540190
  N     -0.005020  -14.366230    1.571690
  C     -1.590370  -14.917840    4.630630
  C     -1.231140  -16.244050    4.294130
  N     -0.945490  -17.325170    4.045210
  C     -2.254150  -14.673090    5.810960
  C     -3.747860  -13.655820    8.415890
  S     -3.012680  -15.172830    8.852960
  C     -3.998570  -15.364570   10.223750
  C     -4.887260  -14.321430   10.376830
  C     -4.753270  -13.328740    9.344270
  C     -5.631060  -12.232430    9.340680
  C     -6.573260  -12.103240   10.334280
  C     -7.450410  -10.995150   10.319440
  N     -8.144800  -10.084200   10.284510
  C     -6.679820  -13.075260   11.379650
  C     -7.657700  -12.901930   12.387760
  N     -8.445650  -12.775430   13.209300
  C     -5.855010  -14.169360   11.393320
  H     -4.572030    0.023750   -4.531220
  H     -6.269870   -1.689800   -5.899810
  H     -5.430750   -4.910650   -2.183350
  H     -3.305220   -0.341550   -0.045700
  H     -1.313120   -3.731290    3.009850
  H     -2.564480   -7.255380   -0.900090
  H     -1.727000   -8.640440   -0.168090
  H     -0.481530   -5.864690   -0.572550
  H     -0.163090   -7.294070   -1.559330
  H      0.321760   -7.268600    0.138000
  H     -3.657730   -4.744580    6.535340
  H     -3.216120   -6.333840    7.200410
  H     -5.869250   -5.589110    5.853770
  H     -5.630590   -5.860120    7.581380
  H     -5.482300   -7.206700    6.446610
  H     -3.423840   -8.524580    6.500360
  H     -2.201770   -9.861700    4.023020
  H     -1.406700  -11.761050    3.349750
  H     -2.504140  -15.502510    6.452760
  H     -3.886830  -16.228970   10.847040
  H     -5.591880  -11.490970    8.558770
  H     -5.942070  -14.916580   12.167250

 Total Charge           Charge          ....    0
 Multiplicity           Mult            ....    1
 Number of Electrons    NEL             ....  484
 Basis Dimension        Dim             .... 1078

ORBITAL ENERGIES
----------------

  NO   OCC          E(Eh)            E(eV)
   0   2.0000     -89.018942     -2422.3286
   1   2.0000     -89.013738     -2422.1869
   2   2.0000     -89.013642     -2422.1843
   3   2.0000     -89.012649     -2422.1573
   4   2.0000     -19.211617      -522.7747
   5   2.0000     -19.211412      -522.7691
   6   2.0000     -14.476297      -393.9201
   7   2.0000     -14.473783      -393.8517
   8   2.0000     -14.426041      -392.5525
   9   2.0000     -14.424385      -392.5075
  10   2.0000     -14.423528      -392.4842
  11   2.0000     -14.421590      -392.4314
  12   2.0000     -14.421070      -392.4173
  13   2.0000     -14.420648      -392.4058
  14   2.0000     -14.417326      -392.3154
  15   2.0000     -14.412970      -392.1968
  16   2.0000     -10.395106      -282.8652
  17   2.0000     -10.394404      -282.8461
  18   2.0000     -10.365012      -282.0463
  19   2.0000     -10.364640      -282.0362
  20   2.0000     -10.362873      -281.9881
  21   2.0000     -10.359856      -281.9060
  22   2.0000     -10.357808      -281.8503
  23   2.0000     -10.354844      -281.7696
  24   2.0000     -10.352194      -281.6975
  25   2.0000     -10.351078      -281.6671
  26   2.0000     -10.349940      -281.6362
  27   2.0000     -10.348644      -281.6009
  28   2.0000     -10.347552      -281.5712
  29   2.0000     -10.347269      -281.5635
  30   2.0000     -10.346733      -281.5489
  31   2.0000     -10.346393      -281.5397
  32   2.0000     -10.344877      -281.4984
  33   2.0000     -10.342470      -281.4329
  34   2.0000     -10.339414      -281.3498
  35   2.0000     -10.337601      -281.3004
  36   2.0000     -10.335300      -281.2378
  37   2.0000     -10.335241      -281.2362
  38   2.0000     -10.334611      -281.2191
  39   2.0000     -10.334259      -281.2095
  40   2.0000     -10.333101      -281.1780
  41   2.0000     -10.332049      -281.1493
  42   2.0000     -10.331911      -281.1456
  43   2.0000     -10.330921      -281.1187
  44   2.0000     -10.330475      -281.1065
  45   2.0000     -10.330011      -281.0939
  46   2.0000     -10.328732      -281.0591
  47   2.0000     -10.327666      -281.0301
  48   2.0000     -10.327085      -281.0143
  49   2.0000     -10.325314      -280.9661
  50   2.0000     -10.325151      -280.9616
  51   2.0000     -10.324722      -280.9500
  52   2.0000     -10.324038      -280.9314
  53   2.0000     -10.323977      -280.9297
  54   2.0000     -10.322302      -280.8841
  55   2.0000     -10.321954      -280.8746
  56   2.0000     -10.321663      -280.8667
  57   2.0000     -10.321346      -280.8581
  58   2.0000     -10.319537      -280.8089
  59   2.0000     -10.318686      -280.7857
  60   2.0000     -10.318666      -280.7852
  61   2.0000     -10.315646      -280.7030
  62   2.0000     -10.315323      -280.6942
  63   2.0000     -10.311383      -280.5870
  64   2.0000     -10.288527      -279.9650
  65   2.0000     -10.281873      -279.7840
  66   2.0000     -10.278710      -279.6979
  67   2.0000     -10.276335      -279.6333
  68   2.0000      -8.113605      -220.7824
  69   2.0000      -8.108360      -220.6397
  70   2.0000      -8.108218      -220.6358
  71   2.0000      -8.106662      -220.5935
  72   2.0000      -6.082586      -165.5156
  73   2.0000      -6.078067      -165.3926
  74   2.0000      -6.077337      -165.3728
  75   2.0000      -6.077230      -165.3698
  76   2.0000      -6.076849      -165.3595
  77   2.0000      -6.075786      -165.3305
  78   2.0000      -6.073063      -165.2564
  79   2.0000      -6.072819      -165.2498
  80   2.0000      -6.071603      -165.2167
  81   2.0000      -6.071507      -165.2141
  82   2.0000      -6.071050      -165.2017
  83   2.0000      -6.069441      -165.1579
  84   2.0000      -1.154644       -31.4195
  85   2.0000      -1.147583       -31.2273
  86   2.0000      -1.085787       -29.5458
  87   2.0000      -1.077763       -29.3274
  88   2.0000      -1.055372       -28.7181
  89   2.0000      -1.049489       -28.5581
  90   2.0000      -1.039940       -28.2982
  91   2.0000      -1.033634       -28.1266
  92   2.0000      -1.020667       -27.7738
  93   2.0000      -1.015901       -27.6441
  94   2.0000      -1.015649       -27.6372
  95   2.0000      -1.009255       -27.4632
  96   2.0000      -1.005467       -27.3602
  97   2.0000      -1.002347       -27.2753
  98   2.0000      -1.001414       -27.2499
  99   2.0000      -0.995395       -27.0861
 100   2.0000      -0.981811       -26.7164
 101   2.0000      -0.979871       -26.6636
 102   2.0000      -0.977123       -26.5889
 103   2.0000      -0.972061       -26.4511
 104   2.0000      -0.951972       -25.9045
 105   2.0000      -0.945937       -25.7402
 106   2.0000      -0.930748       -25.3269
 107   2.0000      -0.920870       -25.0582
 108   2.0000      -0.911348       -24.7990
 109   2.0000      -0.908972       -24.7344
 110   2.0000      -0.898315       -24.4444
 111   2.0000      -0.894024       -24.3276
 112   2.0000      -0.891770       -24.2663
 113   2.0000      -0.889857       -24.2142
 114   2.0000      -0.886453       -24.1216
 115   2.0000      -0.878170       -23.8962
 116   2.0000      -0.877480       -23.8774
 117   2.0000      -0.853848       -23.2344
 118   2.0000      -0.845036       -22.9946
 119   2.0000      -0.837736       -22.7960
 120   2.0000      -0.810947       -22.0670
 121   2.0000      -0.799810       -21.7639
 122   2.0000      -0.783669       -21.3247
 123   2.0000      -0.780199       -21.2303
 124   2.0000      -0.778884       -21.1945
 125   2.0000      -0.777681       -21.1618
 126   2.0000      -0.773339       -21.0436
 127   2.0000      -0.769292       -20.9335
 128   2.0000      -0.762572       -20.7506
 129   2.0000      -0.751948       -20.4615
 130   2.0000      -0.745498       -20.2860
 131   2.0000      -0.736792       -20.0491
 132   2.0000      -0.727947       -19.8084
 133   2.0000      -0.717952       -19.5365
 134   2.0000      -0.710853       -19.3433
 135   2.0000      -0.707747       -19.2588
 136   2.0000      -0.701630       -19.0923
 137   2.0000      -0.688656       -18.7393
 138   2.0000      -0.678457       -18.4618
 139   2.0000      -0.669999       -18.2316
 140   2.0000      -0.666045       -18.1240
 141   2.0000      -0.653907       -17.7937
 142   2.0000      -0.651493       -17.7280
 143   2.0000      -0.643303       -17.5052
 144   2.0000      -0.634829       -17.2746
 145   2.0000      -0.632860       -17.2210
 146   2.0000      -0.631675       -17.1887
 147   2.0000      -0.629830       -17.1385
 148   2.0000      -0.626700       -17.0534
 149   2.0000      -0.619661       -16.8618
 150   2.0000      -0.611238       -16.6326
 151   2.0000      -0.606379       -16.5004
 152   2.0000      -0.602817       -16.4035
 153   2.0000      -0.590948       -16.0805
 154   2.0000      -0.588279       -16.0079
 155   2.0000      -0.586309       -15.9543
 156   2.0000      -0.579605       -15.7719
 157   2.0000      -0.574420       -15.6308
 158   2.0000      -0.573266       -15.5994
 159   2.0000      -0.571865       -15.5612
 160   2.0000      -0.566644       -15.4192
 161   2.0000      -0.563386       -15.3305
 162   2.0000      -0.560731       -15.2583
 163   2.0000      -0.558171       -15.1886
 164   2.0000      -0.553782       -15.0692
 165   2.0000      -0.551737       -15.0135
 166   2.0000      -0.548771       -14.9328
 167   2.0000      -0.546332       -14.8664
 168   2.0000      -0.544471       -14.8158
 169   2.0000      -0.543675       -14.7941
 170   2.0000      -0.540842       -14.7171
 171   2.0000      -0.537881       -14.6365
 172   2.0000      -0.533293       -14.5116
 173   2.0000      -0.530660       -14.4400
 174   2.0000      -0.528735       -14.3876
 175   2.0000      -0.525966       -14.3123
 176   2.0000      -0.521752       -14.1976
 177   2.0000      -0.515947       -14.0396
 178   2.0000      -0.512972       -13.9587
 179   2.0000      -0.509782       -13.8719
 180   2.0000      -0.502978       -13.6867
 181   2.0000      -0.501727       -13.6527
 182   2.0000      -0.499904       -13.6031
 183   2.0000      -0.495897       -13.4940
 184   2.0000      -0.492996       -13.4151
 185   2.0000      -0.490878       -13.3575
 186   2.0000      -0.486433       -13.2365
 187   2.0000      -0.483505       -13.1568
 188   2.0000      -0.482190       -13.1211
 189   2.0000      -0.478155       -13.0113
 190   2.0000      -0.475358       -12.9351
 191   2.0000      -0.470828       -12.8119
 192   2.0000      -0.468106       -12.7378
 193   2.0000      -0.467159       -12.7120
 194   2.0000      -0.464291       -12.6340
 195   2.0000      -0.462586       -12.5876
 196   2.0000      -0.462166       -12.5762
 197   2.0000      -0.459576       -12.5057
 198   2.0000      -0.457721       -12.4552
 199   2.0000      -0.456088       -12.4108
 200   2.0000      -0.455436       -12.3931
 201   2.0000      -0.452373       -12.3097
 202   2.0000      -0.452093       -12.3021
 203   2.0000      -0.450432       -12.2569
 204   2.0000      -0.449227       -12.2241
 205   2.0000      -0.447968       -12.1898
 206   2.0000      -0.447381       -12.1739
 207   2.0000      -0.446760       -12.1569
 208   2.0000      -0.446607       -12.1528
 209   2.0000      -0.444131       -12.0854
 210   2.0000      -0.441922       -12.0253
 211   2.0000      -0.440342       -11.9823
 212   2.0000      -0.432653       -11.7731
 213   2.0000      -0.432587       -11.7713
 214   2.0000      -0.430317       -11.7095
 215   2.0000      -0.429001       -11.6737
 216   2.0000      -0.427808       -11.6413
 217   2.0000      -0.426793       -11.6136
 218   2.0000      -0.425130       -11.5684
 219   2.0000      -0.423118       -11.5136
 220   2.0000      -0.422986       -11.5100
 221   2.0000      -0.422600       -11.4995
 222   2.0000      -0.422037       -11.4842
 223   2.0000      -0.421645       -11.4735
 224   2.0000      -0.418399       -11.3852
 225   2.0000      -0.416342       -11.3293
 226   2.0000      -0.402141       -10.9428
 227   2.0000      -0.393021       -10.6946
 228   2.0000      -0.384205       -10.4548
 229   2.0000      -0.370581       -10.0840
 230   2.0000      -0.366628        -9.9764
 231   2.0000      -0.354643        -9.6503
 232   2.0000      -0.353309        -9.6140
 233   2.0000      -0.352885        -9.6025
 234   2.0000      -0.350003        -9.5241
 235   2.0000      -0.346765        -9.4360
 236   2.0000      -0.337587        -9.1862
 237   2.0000      -0.333006        -9.0616
 238   2.0000      -0.329012        -8.9529
 239   2.0000      -0.296182        -8.0595
 240   2.0000      -0.280801        -7.6410
 241   2.0000      -0.246882        -6.7180
 242   0.0000      -0.131954        -3.5907
 243   0.0000      -0.108319        -2.9475
 244   0.0000      -0.083159        -2.2629
 245   0.0000      -0.070853        -1.9280
 246   0.0000      -0.058291        -1.5862

MULLIKEN ATOMIC CHARGES
-----------------------
   0 C :   -0.109991
   1 S :    0.201204
   2 C :   -0.149297
   3 C :    0.141709
   4 C :    0.092714
   5 C :   -0.012130
   6 C :   -0.069015
   7 C :   -0.174823
   8 N :    0.178135
   9 C :   -0.068906
  10 C :   -0.175764
  11 N :    0.178404
  12 C :   -0.057307
  13 C :   -0.101702
  14 S :    0.177603
  15 C :   -0.181957
  16 C :    0.126226
  17 C :    0.114563
  18 C :   -0.072259
  19 C :   -0.054996
  20 C :   -0.183635
  21 N :    0.176486
  22 C :   -0.079423
  23 C :   -0.176268
  24 N :    0.178759
  25 C :    0.010486
  26 C :    0.110797
  27 N :   -0.249225
  28 C :    0.080445
  29 C :    0.001970
  30 C :    0.168718
  31 O :   -0.223759
  32 C :   -0.093398
  33 C :   -0.051079
  34 C :    0.132687
  35 O :   -0.187231
  36 N :   -0.254374
  37 C :    0.094478
  38 C :    0.004759
  39 C :    0.157439
  40 C :   -0.041996
  41 C :    0.008603
  42 C :   -0.080807
  43 S :    0.170631
  44 C :   -0.105452
  45 C :    0.124984
  46 C :    0.118947
  47 C :   -0.049126
  48 C :   -0.068140
  49 C :   -0.170818
  50 N :    0.184738
  51 C :   -0.070821
  52 C :   -0.179425
  53 N :    0.183514
  54 C :   -0.062257
  55 C :   -0.147360
  56 S :    0.198911
  57 C :   -0.105748
  58 C :    0.090304
  59 C :    0.139691
  60 C :   -0.053688
  61 C :   -0.064595
  62 C :   -0.180761
  63 N :    0.178422
  64 C :   -0.067111
  65 C :   -0.179086
  66 N :    0.181837
  67 C :   -0.009161
  68 H :    0.041384
  69 H :    0.000636
  70 H :    0.003764
  71 H :   -0.000374
  72 H :    0.002489
  73 H :    0.030183
  74 H :    0.056342
  75 H :    0.023549
  76 H :    0.031167
  77 H :    0.030066
  78 H :    0.051413
  79 H :    0.025388
  80 H :    0.034648
  81 H :    0.033581
  82 H :    0.012031
  83 H :   -0.020767
  84 H :    0.027013
  85 H :    0.022391
  86 H :    0.001398
  87 H :    0.043246
  88 H :    0.002484
  89 H :    0.002695
Sum of atomic charges:   -0.0000000

LOEWDIN ATOMIC CHARGES
----------------------
   0 C :   -0.176244
   1 S :    0.538362
   2 C :   -0.193806
   3 C :   -0.045663
   4 C :   -0.048560
   5 C :    0.039557
   6 C :   -0.052608
   7 C :   -0.033112
   8 N :   -0.028084
   9 C :   -0.048657
  10 C :   -0.033754
  11 N :   -0.029475
  12 C :    0.017860
  13 C :   -0.177433
  14 S :    0.525058
  15 C :   -0.187401
  16 C :   -0.025515
  17 C :   -0.044477
  18 C :    0.011901
  19 C :   -0.042771
  20 C :   -0.031589
  21 N :   -0.031524
  22 C :   -0.047899
  23 C :   -0.028555
  24 N :   -0.034144
  25 C :    0.056746
  26 C :    0.039682
  27 N :    0.001650
  28 C :    0.029025
  29 C :   -0.061369
  30 C :    0.080192
  31 O :   -0.211741
  32 C :   -0.128421
  33 C :   -0.111598
  34 C :    0.077596
  35 O :   -0.183597
  36 N :    0.001873
  37 C :    0.037342
  38 C :   -0.059410
  39 C :    0.083631
  40 C :   -0.056046
  41 C :    0.014173
  42 C :   -0.173942
  43 S :    0.514234
  44 C :   -0.170652
  45 C :   -0.047703
  46 C :   -0.026739
  47 C :    0.041606
  48 C :   -0.045795
  49 C :   -0.031515
  50 N :   -0.024781
  51 C :   -0.045994
  52 C :   -0.033231
  53 N :   -0.027805
  54 C :    0.017552
  55 C :   -0.194588
  56 S :    0.538803
  57 C :   -0.172837
  58 C :   -0.048505
  59 C :   -0.044123
  60 C :    0.017744
  61 C :   -0.047334
  62 C :   -0.033533
  63 N :   -0.029161
  64 C :   -0.051856
  65 C :   -0.033531
  66 N :   -0.026118
  67 C :    0.040376
  68 H :    0.034622
  69 H :    0.047679
  70 H :    0.027693
  71 H :    0.026497
  72 H :    0.045575
  73 H :    0.012071
  74 H :    0.042042
  75 H :    0.020394
  76 H :    0.034859
  77 H :    0.032570
  78 H :    0.041452
  79 H :    0.024672
  80 H :    0.034356
  81 H :    0.035193
  82 H :    0.020381
  83 H :    0.023748
  84 H :    0.043401
  85 H :    0.053538
  86 H :    0.026701
  87 H :    0.035565
  88 H :    0.026950
  89 H :    0.048275

  Mayer bond orders larger than 0.100000
B(  0-C ,  1-S ) :   1.2151 B(  0-C ,  2-C ) :   0.1099 B(  0-C ,  4-C ) :   1.4058
B(  0-C , 68-H ) :   0.9696 B(  1-S ,  2-C ) :   1.1878 B(  2-C ,  3-C ) :   1.3243
B(  2-C , 13-C ) :   1.1661 B(  3-C ,  4-C ) :   1.1910 B(  3-C , 12-C ) :   1.1838
B(  4-C ,  5-C ) :   1.1592 B(  5-C ,  6-C ) :   1.5753 B(  5-C , 69-H ) :   1.0069
B(  6-C ,  7-C ) :   1.0752 B(  6-C ,  9-C ) :   1.2296 B(  7-C ,  8-N ) :   3.0479
B(  9-C , 10-C ) :   1.0816 B(  9-C , 12-C ) :   1.5887 B( 10-C , 11-N ) :   3.0415
B( 12-C , 70-H ) :   0.9765 B( 13-C , 14-S ) :   1.1617 B( 13-C , 15-C ) :   0.1188
B( 13-C , 17-C ) :   1.3191 B( 14-S , 15-C ) :   1.1471 B( 15-C , 16-C ) :   1.3286
B( 15-C , 26-C ) :   1.1080 B( 16-C , 17-C ) :   1.2055 B( 16-C , 25-C ) :   1.2120
B( 17-C , 18-C ) :   1.1748 B( 18-C , 19-C ) :   1.5808 B( 18-C , 71-H ) :   0.9764
B( 19-C , 20-C ) :   1.0813 B( 19-C , 22-C ) :   1.2463 B( 20-C , 21-N ) :   3.0434
B( 22-C , 23-C ) :   1.0830 B( 22-C , 25-C ) :   1.5605 B( 23-C , 24-N ) :   3.0450
B( 25-C , 72-H ) :   0.9843 B( 26-C , 27-N ) :   1.1886 B( 26-C , 33-C ) :   1.3965
B( 27-N , 28-C ) :   0.9409 B( 27-N , 30-C ) :   1.0650 B( 28-C , 29-C ) :   1.1158
B( 28-C , 73-H ) :   0.9461 B( 28-C , 74-H ) :   0.9251 B( 29-C , 75-H ) :   0.9670
B( 29-C , 76-H ) :   0.9668 B( 29-C , 77-H ) :   0.9642 B( 30-C , 31-O ) :   1.9888
B( 30-C , 32-C ) :   1.0168 B( 31-O , 84-H ) :   0.1090 B( 32-C , 33-C ) :   1.2374
B( 32-C , 39-C ) :   1.3142 B( 33-C , 34-C ) :   0.9622 B( 34-C , 35-O ) :   2.1146
B( 34-C , 36-N ) :   1.0501 B( 36-N , 37-C ) :   0.9386 B( 36-N , 39-C ) :   1.1610
B( 37-C , 38-C ) :   1.1206 B( 37-C , 78-H ) :   0.9293 B( 37-C , 79-H ) :   0.9502
B( 38-C , 80-H ) :   0.9632 B( 38-C , 81-H ) :   0.9683 B( 38-C , 82-H ) :   0.9684
B( 39-C , 40-C ) :   1.1995 B( 40-C , 41-C ) :   1.5238 B( 40-C , 83-H ) :   0.9660
B( 41-C , 42-C ) :   1.2315 B( 41-C , 84-H ) :   0.9388 B( 42-C , 43-S ) :   1.1177
B( 42-C , 44-C ) :   0.1044 B( 42-C , 46-C ) :   1.2821 B( 43-S , 44-C ) :   1.1806
B( 44-C , 45-C ) :   1.3098 B( 44-C , 55-C ) :   1.1797 B( 45-C , 46-C ) :   1.2031
B( 45-C , 54-C ) :   1.1819 B( 46-C , 47-C ) :   1.2189 B( 47-C , 48-C ) :   1.5433
B( 47-C , 85-H ) :   0.9940 B( 48-C , 49-C ) :   1.0827 B( 48-C , 51-C ) :   1.2496
B( 49-C , 50-N ) :   3.0420 B( 51-C , 52-C ) :   1.0788 B( 51-C , 54-C ) :   1.5851
B( 52-C , 53-N ) :   3.0465 B( 54-C , 86-H ) :   0.9768 B( 55-C , 56-S ) :   1.1832
B( 55-C , 57-C ) :   0.1073 B( 55-C , 59-C ) :   1.3179 B( 56-S , 57-C ) :   1.2176
B( 57-C , 58-C ) :   1.4018 B( 57-C , 87-H ) :   0.9700 B( 58-C , 59-C ) :   1.1936
B( 58-C , 67-C ) :   1.1608 B( 59-C , 60-C ) :   1.1875 B( 60-C , 61-C ) :   1.5886
B( 60-C , 88-H ) :   0.9756 B( 61-C , 62-C ) :   1.0831 B( 61-C , 64-C ) :   1.2309
B( 62-C , 63-N ) :   3.0429 B( 64-C , 65-C ) :   1.0776 B( 64-C , 67-C ) :   1.5735
B( 65-C , 66-N ) :   3.0487 B( 67-C , 89-H ) :   1.0068

-----------------------------------------------------------------------------
         ABSORPTION SPECTRUM VIA TRANSITION ELECTRIC DIPOLE MOMENTS
-----------------------------------------------------------------------------
State   Energy  Wavelength   fosc         T2         TX        TY        TZ
        (cm-1)    (nm)                  (au**2)     (au)      (au)      (au)
-----------------------------------------------------------------------------
   0   10862.2    920.6   1.084428375  32.86702  -0.15293  -3.93309   4.16826
   1   16125.5    620.1   0.070130139   1.43175  -1.06401  -0.04590  -0.54545
   2   18612.9    537.3   0.143732551   2.54224   1.21612   0.88478  -0.52960
   3   20459.2    488.8   0.248368779   3.99653   0.59744  -1.17049   1.50650
   4   21404.7    467.2   0.120601395   1.85489   0.21974   0.57848   1.21325
   5   23154.5    431.9   0.013968268   0.19860   0.42782   0.11865  -0.03863
   6   24712.9    404.6   0.065622875   0.87419  -0.08187  -0.87865  -0.30897
   7   25892.8    386.2   0.069772004   0.88711  -0.18036  -0.47549  -0.79277
   8   26124.6    382.8   0.005515440   0.06950  -0.08378  -0.07775  -0.23757
   9   27066.5    369.5   0.108735712   1.32256  -0.90495   0.60428   0.37212
  10   27555.4    362.9   0.041327169   0.49375  -0.29869  -0.32059  -0.54932
  11   28173.9    354.9   0.093777137   1.09579  -0.48965   0.59022   0.71251
  12   28963.5    345.3   0.031087711   0.35336   0.22408   0.41740   0.35906
  13   29629.3    337.5   0.042112291   0.46791   0.43984  -0.30500  -0.42595
  14   29964.1    333.7   0.007746812   0.08511  -0.04469  -0.25598  -0.13262
  15   30643.8    326.3   0.018176856   0.19528   0.12507   0.03712  -0.42220
  16   30926.3    323.3   0.007870542   0.08378   0.13531   0.01942   0.25514
  17   31481.8    317.6   0.012339384   0.12904  -0.04391   0.10317   0.34127
  18   31883.2    313.6   0.006836553   0.07059  -0.10982  -0.18076  -0.16079
  19   32431.1    308.3   0.029280698   0.29723  -0.07257  -0.16124  -0.51572
  20   32822.5    304.7   0.008343446   0.08369   0.23017   0.03135   0.17241
  21   33375.0    299.6   0.031098316   0.30675   0.06361   0.54835   0.04496
  22   33966.8    294.4   0.390242312   3.78229   1.12197  -1.44902  -0.65101
  23   34030.0    293.9   0.089110702   0.86207   0.69224  -0.40101  -0.47123
  24   34458.6    290.2   0.008019132   0.07661  -0.01036   0.02512  -0.27545
  25   34575.4    289.2   0.190916271   1.81782   0.68000   0.90713   0.72975
  26   35081.3    285.1   0.540633822   5.07344   0.18422   1.76346   1.38914
  27   35338.9    283.0   0.024191005   0.22536   0.18609  -0.41240  -0.14372
  28   35517.9    281.5   0.112348794   1.04135  -0.74610  -0.23208   0.65638
  29   36399.2    274.7   0.029990603   0.27125   0.12285  -0.38591   0.32746
  30   36826.5    271.5   0.065060860   0.58161  -0.15672   0.62068   0.41450
  31   37056.3    269.9   0.058522242   0.51992   0.40669  -0.49330  -0.33342
  32   37667.0    265.5   0.021870310   0.19115  -0.37120   0.13582   0.18686
  33   37910.3    263.8   0.054858883   0.47639   0.08684  -0.47459  -0.49357
  34   38003.8    263.1   0.008767873   0.07595   0.27436  -0.02583   0.00315
  35   38367.1    260.6   0.256749023   2.20306  -0.10145  -1.48020  -0.04202
  36   38771.8    257.9   0.078631289   0.66766   0.13065  -0.56788  -0.57281
  37   39164.7    255.3   0.123598749   1.03895  -0.48287   0.81893  -0.36761
  38   39327.2    254.3   0.013501556   0.11302   0.10413  -0.19204  -0.25554
  39   39676.2    252.0   0.068610191   0.56929   0.50860   0.36468   0.42146
  40   40054.0    249.7   0.046882263   0.38533  -0.60279   0.10340  -0.10626

FINAL SINGLE POINT ENERGY     -4281.517206480791

DIPOLE MOMENT
-------------
                                X             Y             Z
Electronic contribution:     -4.38666      -6.53611      -1.03611
Nuclear contribution   :      5.97609       6.11083       1.64479
                        -----------------------------------------
Total Dipole Moment    :      1.58943      -0.42528       0.60868
                        -----------------------------------------
Magnitude (a.u.)       :      1.75432
Magnitude (Debye)      :      4.45913

Rotational constants in cm-1:     0.001427     0.000387     0.000358
Rotational constants in MHz :    42.780245    11.614003    10.739914

                             ****ORCA TERMINATED NORMALLY****
TOTAL RUN TIME: 0 days 0 hours 8 minutes 2 seconds 708 msec
