                         Program Version 4.2.0 -  RELEASE  -
|  1> # ORCA input file
|  2> # SCF done       -153.883826275372          0.000845320359
|  3> ! CAM-B3LYP def2-SVP def2/J RIJCOSX Grid4 TightSCF
|  4> %maxcore 5000
|  5> %tddft
|  6>     Mode sTDDFT
|  7>     Ethresh 5.0
|  8>     maxcore 5000
|  9> end
| 10>
| 11> %pal
| 12>   nprocs 6
| 13>   end
| 14> * xyz 0 1
| 15>    C       -4.68824         1.39407        -2.30281
| 16>    S       -5.01994        -0.24114        -1.94392
| 17>    C       -3.34339        -0.68687        -2.02470
| 18>    C       -2.55203         0.43874        -2.27993
| 19>    C       -3.33997         1.62924        -2.45975
| 20>    C       -2.70024         2.85708        -2.74025
| 21>    C       -1.33227         2.90487        -2.80089
| 22>    C       -0.67684         4.12526        -3.08471
| 23>    N       -0.16479         5.12281        -3.32116
| 24>    C       -0.54664         1.72985        -2.55787
| 25>    C        0.86154         1.81732        -2.59433
| 26>    N        2.00646         1.86904        -2.63064
| 27>    C       -1.14993         0.52219        -2.30028
| 28>    C       -2.92641        -2.01920        -1.76581
| 29>    S       -3.67895        -2.89463        -0.47102
| 30>    C       -2.54892        -4.21377        -0.57181
| 31>    C       -1.64320        -3.99548        -1.63350
| 32>    C       -1.89592        -2.77586        -2.34042
| 33>    C       -1.18238        -2.49311        -3.53999
| 34>    C       -1.59243        -1.41412        -4.43407
| 35>    C       -0.76957        -0.69277        -5.18382
| 36>    C       -0.15774        -3.34232        -3.89731
| 37>    C        0.15049        -4.48195        -3.14529
| 38>    C       -0.59616        -4.83237        -2.05187
| 39>    C       -2.70799        -5.25615         0.35976
| 40>    C       -1.90950        -6.35781         0.72992
| 41>    C       -2.48321        -7.15246         1.77546
| 42>    N       -1.85540        -8.24361         2.24279
| 43>    C       -0.69404        -8.52617         1.71363
| 44>    C       -0.09796        -7.73453         0.70415
| 45>    C        1.22823        -8.09629         0.11209
| 46>    C        1.05684        -9.19305        -0.94210
| 47>    N       -0.70732        -6.67466         0.22564
| 48>    C       -3.72547        -6.67524         2.23557
| 49>    S       -4.15110        -5.24581         1.34788
| 50>    C       -4.56779        -7.17567         3.23321
| 51>    C       -4.28737        -8.28936         3.98135
| 52>    C       -5.11315        -8.77789         4.99994
| 53>    S       -6.49737        -7.86580         5.52518
| 54>    C       -6.83766        -8.93667         6.85073
| 55>    C       -5.91233       -10.00471         6.85974
| 56>    C       -4.96393        -9.93596         5.79309
| 57>    C       -4.00775       -10.96949         5.63067
| 58>    C       -3.12238       -11.05189         4.46726
| 59>    C       -1.83275       -11.34646         4.53655
| 60>    C       -3.97395       -11.97805         6.57133
| 61>    C       -4.89309       -12.03531         7.62349
| 62>    C       -5.86834       -11.08422         7.75880
| 63>    C       -7.86710        -8.63157         7.76516
| 64>    S       -7.86461        -9.27875         9.38404
| 65>    C       -9.25392        -8.40324         9.84297
| 66>    C       -9.74227        -7.63260         8.81279
| 67>    C       -8.96032        -7.75543         7.60959
| 68>    C       -9.37843        -7.06883         6.46030
| 69>    C      -10.49170        -6.25960         6.50460
| 70>    C      -10.90511        -5.57469         5.34197
| 71>    N      -11.22353        -5.02429         4.38764
| 72>    C      -11.24111        -6.10759         7.71503
| 73>    C      -12.37081        -5.25746         7.73079
| 74>    N      -13.28800        -4.57139         7.76630
| 75>    C      -10.87618        -6.79154         8.84447
| 76>    H       -5.49114         2.09964        -2.37603
| 77>    H       -3.28963         3.74782        -2.89755
| 78>    H       -0.54795        -0.34954        -2.09545
| 79>    H       -2.65974        -1.23703        -4.48343
| 80>    H        0.30047        -0.80966        -5.13580
| 81>    H       -1.13514         0.06153        -5.85927
| 82>    H        0.38756        -3.14867        -4.80833
| 83>    H        0.96297        -5.11641        -3.46608
| 84>    H       -0.39835        -5.73428        -1.49838
| 85>    H       -0.19312        -9.40455         2.09744
| 86>    H        1.89723        -8.44747         0.90042
| 87>    H        1.65951        -7.20776        -0.35106
| 88>    H        0.62988       -10.08948        -0.49729
| 89>    H        2.02001        -9.44684        -1.37741
| 90>    H        0.39524        -8.85351        -1.73573
| 91>    H       -5.49199        -6.63597         3.40224
| 92>    H       -3.35560        -8.80011         3.79421
| 93>    H       -3.59616       -10.90350         3.50533
| 94>    H       -1.32950       -11.47828         5.48021
| 95>    H       -1.22768       -11.44068         3.65178
| 96>    H       -3.25027       -12.77124         6.45945
| 97>    H       -4.84873       -12.86083         8.31759
| 98>    H       -6.60435       -11.17600         8.53969
| 99>    H       -9.64355        -8.50111        10.83596
|100>    H       -8.84935        -7.17418         5.52683
|101>    H      -11.44741        -6.69707         9.75565
|102> *
|103>
|104>                          ****END OF INPUT****

CARTESIAN COORDINATES (ANGSTROEM)
---------------------------------
  C     -4.688240    1.394070   -2.302810
  S     -5.019940   -0.241140   -1.943920
  C     -3.343390   -0.686870   -2.024700
  C     -2.552030    0.438740   -2.279930
  C     -3.339970    1.629240   -2.459750
  C     -2.700240    2.857080   -2.740250
  C     -1.332270    2.904870   -2.800890
  C     -0.676840    4.125260   -3.084710
  N     -0.164790    5.122810   -3.321160
  C     -0.546640    1.729850   -2.557870
  C      0.861540    1.817320   -2.594330
  N      2.006460    1.869040   -2.630640
  C     -1.149930    0.522190   -2.300280
  C     -2.926410   -2.019200   -1.765810
  S     -3.678950   -2.894630   -0.471020
  C     -2.548920   -4.213770   -0.571810
  C     -1.643200   -3.995480   -1.633500
  C     -1.895920   -2.775860   -2.340420
  C     -1.182380   -2.493110   -3.539990
  C     -1.592430   -1.414120   -4.434070
  C     -0.769570   -0.692770   -5.183820
  C     -0.157740   -3.342320   -3.897310
  C      0.150490   -4.481950   -3.145290
  C     -0.596160   -4.832370   -2.051870
  C     -2.707990   -5.256150    0.359760
  C     -1.909500   -6.357810    0.729920
  C     -2.483210   -7.152460    1.775460
  N     -1.855400   -8.243610    2.242790
  C     -0.694040   -8.526170    1.713630
  C     -0.097960   -7.734530    0.704150
  C      1.228230   -8.096290    0.112090
  C      1.056840   -9.193050   -0.942100
  N     -0.707320   -6.674660    0.225640
  C     -3.725470   -6.675240    2.235570
  S     -4.151100   -5.245810    1.347880
  C     -4.567790   -7.175670    3.233210
  C     -4.287370   -8.289360    3.981350
  C     -5.113150   -8.777890    4.999940
  S     -6.497370   -7.865800    5.525180
  C     -6.837660   -8.936670    6.850730
  C     -5.912330  -10.004710    6.859740
  C     -4.963930   -9.935960    5.793090
  C     -4.007750  -10.969490    5.630670
  C     -3.122380  -11.051890    4.467260
  C     -1.832750  -11.346460    4.536550
  C     -3.973950  -11.978050    6.571330
  C     -4.893090  -12.035310    7.623490
  C     -5.868340  -11.084220    7.758800
  C     -7.867100   -8.631570    7.765160
  S     -7.864610   -9.278750    9.384040
  C     -9.253920   -8.403240    9.842970
  C     -9.742270   -7.632600    8.812790
  C     -8.960320   -7.755430    7.609590
  C     -9.378430   -7.068830    6.460300
  C    -10.491700   -6.259600    6.504600
  C    -10.905110   -5.574690    5.341970
  N    -11.223530   -5.024290    4.387640
  C    -11.241110   -6.107590    7.715030
  C    -12.370810   -5.257460    7.730790
  N    -13.288000   -4.571390    7.766300
  C    -10.876180   -6.791540    8.844470
  H     -5.491140    2.099640   -2.376030
  H     -3.289630    3.747820   -2.897550
  H     -0.547950   -0.349540   -2.095450
  H     -2.659740   -1.237030   -4.483430
  H      0.300470   -0.809660   -5.135800
  H     -1.135140    0.061530   -5.859270
  H      0.387560   -3.148670   -4.808330
  H      0.962970   -5.116410   -3.466080
  H     -0.398350   -5.734280   -1.498380
  H     -0.193120   -9.404550    2.097440
  H      1.897230   -8.447470    0.900420
  H      1.659510   -7.207760   -0.351060
  H      0.629880  -10.089480   -0.497290
  H      2.020010   -9.446840   -1.377410
  H      0.395240   -8.853510   -1.735730
  H     -5.491990   -6.635970    3.402240
  H     -3.355600   -8.800110    3.794210
  H     -3.596160  -10.903500    3.505330
  H     -1.329500  -11.478280    5.480210
  H     -1.227680  -11.440680    3.651780
  H     -3.250270  -12.771240    6.459450
  H     -4.848730  -12.860830    8.317590
  H     -6.604350  -11.176000    8.539690
  H     -9.643550   -8.501110   10.835960
  H     -8.849350   -7.174180    5.526830
  H    -11.447410   -6.697070    9.755650

 Total Charge           Charge          ....    0
 Multiplicity           Mult            ....    1
 Number of Electrons    NEL             ....  448
 Basis Dimension        Dim             .... 1004

ORBITAL ENERGIES
----------------

  NO   OCC          E(Eh)            E(eV)
   0   2.0000     -88.990704     -2421.5602
   1   2.0000     -88.986453     -2421.4445
   2   2.0000     -88.980567     -2421.2843
   3   2.0000     -88.978548     -2421.2294
   4   2.0000     -88.975137     -2421.1366
   5   2.0000     -14.438865      -392.9015
   6   2.0000     -14.431519      -392.7016
   7   2.0000     -14.407492      -392.0478
   8   2.0000     -14.405972      -392.0064
   9   2.0000     -14.402687      -391.9170
  10   2.0000     -14.399968      -391.8431
  11   2.0000     -10.335815      -281.2518
  12   2.0000     -10.332409      -281.1592
  13   2.0000     -10.329799      -281.0881
  14   2.0000     -10.327999      -281.0391
  15   2.0000     -10.327981      -281.0387
  16   2.0000     -10.327846      -281.0350
  17   2.0000     -10.327443      -281.0240
  18   2.0000     -10.326469      -280.9975
  19   2.0000     -10.326022      -280.9853
  20   2.0000     -10.324330      -280.9393
  21   2.0000     -10.324036      -280.9313
  22   2.0000     -10.322310      -280.8843
  23   2.0000     -10.320214      -280.8273
  24   2.0000     -10.319845      -280.8173
  25   2.0000     -10.319390      -280.8049
  26   2.0000     -10.318796      -280.7887
  27   2.0000     -10.315409      -280.6965
  28   2.0000     -10.313047      -280.6323
  29   2.0000     -10.312870      -280.6275
  30   2.0000     -10.312558      -280.6190
  31   2.0000     -10.307872      -280.4915
  32   2.0000     -10.307260      -280.4748
  33   2.0000     -10.307122      -280.4711
  34   2.0000     -10.306086      -280.4429
  35   2.0000     -10.306042      -280.4417
  36   2.0000     -10.304983      -280.4129
  37   2.0000     -10.302193      -280.3369
  38   2.0000     -10.301378      -280.3147
  39   2.0000     -10.300435      -280.2891
  40   2.0000     -10.299190      -280.2552
  41   2.0000     -10.298948      -280.2486
  42   2.0000     -10.296478      -280.1814
  43   2.0000     -10.295054      -280.1427
  44   2.0000     -10.294272      -280.1214
  45   2.0000     -10.293548      -280.1017
  46   2.0000     -10.290400      -280.0160
  47   2.0000     -10.286992      -279.9233
  48   2.0000     -10.285593      -279.8852
  49   2.0000     -10.284647      -279.8595
  50   2.0000     -10.284619      -279.8587
  51   2.0000     -10.283111      -279.8177
  52   2.0000     -10.282955      -279.8134
  53   2.0000     -10.281408      -279.7713
  54   2.0000     -10.274354      -279.5794
  55   2.0000     -10.274298      -279.5779
  56   2.0000     -10.274011      -279.5700
  57   2.0000     -10.273769      -279.5635
  58   2.0000     -10.270899      -279.4854
  59   2.0000     -10.264533      -279.3122
  60   2.0000     -10.264063      -279.2993
  61   2.0000      -8.085504      -220.0178
  62   2.0000      -8.081700      -219.9142
  63   2.0000      -8.075786      -219.7533
  64   2.0000      -8.073309      -219.6859
  65   2.0000      -8.070699      -219.6149
  66   2.0000      -6.054562      -164.7530
  67   2.0000      -6.050607      -164.6454
  68   2.0000      -6.050053      -164.6303
  69   2.0000      -6.048559      -164.5897
  70   2.0000      -6.046280      -164.5277
  71   2.0000      -6.044897      -164.4900
  72   2.0000      -6.044840      -164.4885
  73   2.0000      -6.042398      -164.4220
  74   2.0000      -6.040824      -164.3792
  75   2.0000      -6.039869      -164.3532
  76   2.0000      -6.038273      -164.3097
  77   2.0000      -6.038223      -164.3084
  78   2.0000      -6.035920      -164.2457
  79   2.0000      -6.035672      -164.2390
  80   2.0000      -6.033075      -164.1683
  81   2.0000      -1.092483       -29.7280
  82   2.0000      -1.026171       -27.9235
  83   2.0000      -1.022615       -27.8268
  84   2.0000      -1.016374       -27.6569
  85   2.0000      -1.008607       -27.4456
  86   2.0000      -1.007134       -27.4055
  87   2.0000      -0.996832       -27.1252
  88   2.0000      -0.994454       -27.0605
  89   2.0000      -0.987228       -26.8638
  90   2.0000      -0.985165       -26.8077
  91   2.0000      -0.981853       -26.7176
  92   2.0000      -0.959297       -26.1038
  93   2.0000      -0.953902       -25.9570
  94   2.0000      -0.947871       -25.7929
  95   2.0000      -0.938593       -25.5404
  96   2.0000      -0.921262       -25.0688
  97   2.0000      -0.906129       -24.6570
  98   2.0000      -0.899778       -24.4842
  99   2.0000      -0.895449       -24.3664
 100   2.0000      -0.889623       -24.2079
 101   2.0000      -0.879773       -23.9399
 102   2.0000      -0.873523       -23.7698
 103   2.0000      -0.870450       -23.6861
 104   2.0000      -0.866178       -23.5699
 105   2.0000      -0.856186       -23.2980
 106   2.0000      -0.843029       -22.9400
 107   2.0000      -0.840607       -22.8741
 108   2.0000      -0.833698       -22.6861
 109   2.0000      -0.828527       -22.5454
 110   2.0000      -0.825249       -22.4562
 111   2.0000      -0.817173       -22.2364
 112   2.0000      -0.793507       -21.5924
 113   2.0000      -0.777431       -21.1550
 114   2.0000      -0.765205       -20.8223
 115   2.0000      -0.758372       -20.6363
 116   2.0000      -0.754883       -20.5414
 117   2.0000      -0.752926       -20.4882
 118   2.0000      -0.742857       -20.2142
 119   2.0000      -0.728324       -19.8187
 120   2.0000      -0.726084       -19.7578
 121   2.0000      -0.719616       -19.5818
 122   2.0000      -0.716796       -19.5050
 123   2.0000      -0.710594       -19.3363
 124   2.0000      -0.701021       -19.0757
 125   2.0000      -0.693061       -18.8591
 126   2.0000      -0.685029       -18.6406
 127   2.0000      -0.671738       -18.2789
 128   2.0000      -0.668804       -18.1991
 129   2.0000      -0.661973       -18.0132
 130   2.0000      -0.658373       -17.9152
 131   2.0000      -0.651019       -17.7151
 132   2.0000      -0.642286       -17.4775
 133   2.0000      -0.628414       -17.1000
 134   2.0000      -0.626191       -17.0395
 135   2.0000      -0.616594       -16.7784
 136   2.0000      -0.614716       -16.7273
 137   2.0000      -0.610904       -16.6235
 138   2.0000      -0.606834       -16.5128
 139   2.0000      -0.603599       -16.4248
 140   2.0000      -0.590709       -16.0740
 141   2.0000      -0.584522       -15.9057
 142   2.0000      -0.581023       -15.8104
 143   2.0000      -0.570338       -15.5197
 144   2.0000      -0.566716       -15.4211
 145   2.0000      -0.562159       -15.2971
 146   2.0000      -0.557842       -15.1797
 147   2.0000      -0.554816       -15.0973
 148   2.0000      -0.551854       -15.0167
 149   2.0000      -0.548867       -14.9354
 150   2.0000      -0.547517       -14.8987
 151   2.0000      -0.545171       -14.8349
 152   2.0000      -0.542733       -14.7685
 153   2.0000      -0.536512       -14.5992
 154   2.0000      -0.534035       -14.5318
 155   2.0000      -0.530637       -14.4394
 156   2.0000      -0.530319       -14.4307
 157   2.0000      -0.527050       -14.3418
 158   2.0000      -0.524441       -14.2708
 159   2.0000      -0.522580       -14.2201
 160   2.0000      -0.521411       -14.1883
 161   2.0000      -0.512072       -13.9342
 162   2.0000      -0.511793       -13.9266
 163   2.0000      -0.508840       -13.8462
 164   2.0000      -0.505388       -13.7523
 165   2.0000      -0.504944       -13.7402
 166   2.0000      -0.500518       -13.6198
 167   2.0000      -0.497235       -13.5305
 168   2.0000      -0.489748       -13.3267
 169   2.0000      -0.485100       -13.2003
 170   2.0000      -0.481874       -13.1125
 171   2.0000      -0.479043       -13.0354
 172   2.0000      -0.477434       -12.9917
 173   2.0000      -0.474497       -12.9117
 174   2.0000      -0.469044       -12.7633
 175   2.0000      -0.463796       -12.6205
 176   2.0000      -0.460917       -12.5422
 177   2.0000      -0.457236       -12.4420
 178   2.0000      -0.453800       -12.3485
 179   2.0000      -0.452923       -12.3247
 180   2.0000      -0.450797       -12.2668
 181   2.0000      -0.447860       -12.1869
 182   2.0000      -0.446716       -12.1558
 183   2.0000      -0.444193       -12.0871
 184   2.0000      -0.443483       -12.0678
 185   2.0000      -0.440205       -11.9786
 186   2.0000      -0.438771       -11.9396
 187   2.0000      -0.437672       -11.9097
 188   2.0000      -0.434766       -11.8306
 189   2.0000      -0.433935       -11.8080
 190   2.0000      -0.433590       -11.7986
 191   2.0000      -0.430175       -11.7057
 192   2.0000      -0.429232       -11.6800
 193   2.0000      -0.428303       -11.6547
 194   2.0000      -0.425968       -11.5912
 195   2.0000      -0.424120       -11.5409
 196   2.0000      -0.420820       -11.4511
 197   2.0000      -0.417048       -11.3485
 198   2.0000      -0.416152       -11.3241
 199   2.0000      -0.412117       -11.2143
 200   2.0000      -0.411099       -11.1866
 201   2.0000      -0.408644       -11.1198
 202   2.0000      -0.408341       -11.1115
 203   2.0000      -0.403283       -10.9739
 204   2.0000      -0.400549       -10.8995
 205   2.0000      -0.399914       -10.8822
 206   2.0000      -0.387774       -10.5519
 207   2.0000      -0.385222       -10.4824
 208   2.0000      -0.379090       -10.3156
 209   2.0000      -0.374979       -10.2037
 210   2.0000      -0.367486        -9.9998
 211   2.0000      -0.344825        -9.3832
 212   2.0000      -0.335535        -9.1304
 213   2.0000      -0.332521        -9.0484
 214   2.0000      -0.329664        -8.9706
 215   2.0000      -0.328474        -8.9382
 216   2.0000      -0.327871        -8.9218
 217   2.0000      -0.324695        -8.8354
 218   2.0000      -0.321951        -8.7607
 219   2.0000      -0.304872        -8.2960
 220   2.0000      -0.297656        -8.0996
 221   2.0000      -0.287506        -7.8234
 222   2.0000      -0.248980        -6.7751
 223   2.0000      -0.212180        -5.7737
 224   0.0000      -0.107444        -2.9237
 225   0.0000      -0.075166        -2.0454
 226   0.0000      -0.058918        -1.6032
 227   0.0000      -0.043263        -1.1772
 228   0.0000      -0.033810        -0.9200

MULLIKEN ATOMIC CHARGES
-----------------------
   0 C :   -0.128576
   1 S :    0.192702
   2 C :   -0.202388
   3 C :    0.154787
   4 C :    0.103276
   5 C :   -0.031415
   6 C :   -0.059449
   7 C :   -0.179975
   8 N :    0.165980
   9 C :   -0.097042
  10 C :   -0.180208
  11 N :    0.166971
  12 C :    0.002571
  13 C :   -0.179314
  14 S :    0.150648
  15 C :   -0.099243
  16 C :    0.071078
  17 C :    0.140476
  18 C :   -0.006771
  19 C :   -0.042921
  20 C :   -0.007741
  21 C :   -0.021826
  22 C :    0.030382
  23 C :   -0.012915
  24 C :   -0.149566
  25 C :    0.076591
  26 C :    0.007126
  27 N :    0.006340
  28 C :    0.026163
  29 C :   -0.120087
  30 C :    0.088158
  31 C :    0.001995
  32 N :   -0.013134
  33 C :   -0.126469
  34 S :    0.163019
  35 C :    0.012817
  36 C :   -0.039473
  37 C :   -0.095275
  38 S :    0.124481
  39 C :   -0.110331
  40 C :    0.102476
  41 C :    0.115237
  42 C :    0.028153
  43 C :   -0.031212
  44 C :   -0.020327
  45 C :   -0.035470
  46 C :    0.035297
  47 C :   -0.050604
  48 C :   -0.124327
  49 S :    0.171330
  50 C :   -0.123496
  51 C :    0.103260
  52 C :    0.123217
  53 C :   -0.055103
  54 C :   -0.077532
  55 C :   -0.178725
  56 N :    0.164639
  57 C :   -0.072537
  58 C :   -0.173796
  59 N :    0.169142
  60 C :   -0.019715
  61 H :    0.028734
  62 H :   -0.008372
  63 H :    0.005397
  64 H :    0.017299
  65 H :    0.029597
  66 H :    0.025560
  67 H :   -0.020690
  68 H :   -0.020626
  69 H :   -0.040230
  70 H :   -0.006952
  71 H :    0.012701
  72 H :    0.026937
  73 H :    0.011575
  74 H :    0.027462
  75 H :    0.025990
  76 H :   -0.020189
  77 H :    0.024251
  78 H :    0.025826
  79 H :    0.022850
  80 H :    0.023626
  81 H :   -0.018390
  82 H :   -0.010336
  83 H :   -0.016777
  84 H :    0.028046
  85 H :    0.001973
  86 H :   -0.006607
Sum of atomic charges:    0.0000000

LOEWDIN ATOMIC CHARGES
----------------------
   0 C :   -0.191421
   1 S :    0.500613
   2 C :   -0.195519
   3 C :   -0.048642
   4 C :   -0.049881
   5 C :    0.029037
   6 C :   -0.054993
   7 C :   -0.031365
   8 N :   -0.040861
   9 C :   -0.066424
  10 C :   -0.032270
  11 N :   -0.047116
  12 C :    0.051464
  13 C :   -0.206158
  14 S :    0.457472
  15 C :   -0.180828
  16 C :   -0.038774
  17 C :   -0.037401
  18 C :   -0.033334
  19 C :   -0.020690
  20 C :   -0.034094
  21 C :   -0.007394
  22 C :   -0.028747
  23 C :   -0.010576
  24 C :   -0.199329
  25 C :   -0.038707
  26 C :   -0.050184
  27 N :   -0.024640
  28 C :    0.005758
  29 C :    0.003716
  30 C :   -0.034936
  31 C :   -0.046170
  32 N :   -0.032037
  33 C :   -0.172588
  34 S :    0.472937
  35 C :   -0.053417
  36 C :   -0.032700
  37 C :   -0.161161
  38 S :    0.488457
  39 C :   -0.194034
  40 C :   -0.041228
  41 C :   -0.036710
  42 C :   -0.011220
  43 C :   -0.015545
  44 C :   -0.038179
  45 C :   -0.017306
  46 C :   -0.015274
  47 C :   -0.033211
  48 C :   -0.178466
  49 S :    0.518243
  50 C :   -0.195637
  51 C :   -0.048141
  52 C :   -0.056854
  53 C :    0.022239
  54 C :   -0.061702
  55 C :   -0.033404
  56 N :   -0.043949
  57 C :   -0.055509
  58 C :   -0.031317
  59 N :   -0.038164
  60 C :    0.033886
  61 H :    0.028683
  62 H :    0.043494
  63 H :    0.046986
  64 H :    0.031950
  65 H :    0.024598
  66 H :    0.026940
  67 H :    0.029997
  68 H :    0.027960
  69 H :    0.019349
  70 H :    0.021936
  71 H :    0.030962
  72 H :    0.037264
  73 H :    0.022568
  74 H :    0.029218
  75 H :    0.028242
  76 H :    0.020105
  77 H :    0.038264
  78 H :    0.035630
  79 H :    0.023743
  80 H :    0.022808
  81 H :    0.030291
  82 H :    0.032137
  83 H :    0.011853
  84 H :    0.028873
  85 H :    0.026004
  86 H :    0.044533

  Mayer bond orders larger than 0.100000
B(  0-C ,  1-S ) :   1.1867 B(  0-C ,  2-C ) :   0.1093 B(  0-C ,  4-C ) :   1.4190
B(  0-C , 61-H ) :   0.9706 B(  1-S ,  2-C ) :   1.1957 B(  2-C ,  3-C ) :   1.3555
B(  2-C , 13-C ) :   1.1121 B(  3-C ,  4-C ) :   1.1948 B(  3-C , 12-C ) :   1.1943
B(  4-C ,  5-C ) :   1.1445 B(  5-C ,  6-C ) :   1.5805 B(  5-C , 62-H ) :   1.0062
B(  6-C ,  7-C ) :   1.0775 B(  6-C ,  9-C ) :   1.2203 B(  7-C ,  8-N ) :   3.0464
B(  9-C , 10-C ) :   1.0918 B(  9-C , 12-C ) :   1.5726 B( 10-C , 11-N ) :   3.0405
B( 12-C , 63-H ) :   0.9887 B( 13-C , 14-S ) :   1.1434 B( 13-C , 15-C ) :   0.1269
B( 13-C , 17-C ) :   1.3737 B( 14-S , 15-C ) :   1.1472 B( 15-C , 16-C ) :   1.3381
B( 15-C , 24-C ) :   1.2112 B( 16-C , 17-C ) :   1.1938 B( 16-C , 23-C ) :   1.2565
B( 17-C , 18-C ) :   1.1713 B( 18-C , 19-C ) :   1.0591 B( 18-C , 21-C ) :   1.5315
B( 19-C , 20-C ) :   1.9506 B( 19-C , 64-H ) :   0.9511 B( 20-C , 65-H ) :   0.9574
B( 20-C , 66-H ) :   0.9508 B( 21-C , 22-C ) :   1.2090 B( 21-C , 67-H ) :   0.9889
B( 22-C , 23-C ) :   1.4976 B( 22-C , 68-H ) :   0.9862 B( 23-C , 69-H ) :   0.9677
B( 24-C , 25-C ) :   1.3351 B( 24-C , 33-C ) :   0.1365 B( 24-C , 34-S ) :   1.1487
B( 25-C , 26-C ) :   1.2167 B( 25-C , 32-N ) :   1.4077 B( 26-C , 27-N ) :   1.4209
B( 26-C , 33-C ) :   1.2961 B( 27-N , 28-C ) :   1.6832 B( 28-C , 29-C ) :   1.1791
B( 28-C , 70-H ) :   0.9759 B( 29-C , 30-C ) :   1.0254 B( 29-C , 32-N ) :   1.6570
B( 30-C , 31-C ) :   1.0966 B( 30-C , 71-H ) :   0.9317 B( 30-C , 72-H ) :   0.9288
B( 31-C , 73-H ) :   0.9729 B( 31-C , 74-H ) :   0.9693 B( 31-C , 75-H ) :   0.9697
B( 32-N , 69-H ) :   0.1019 B( 33-C , 34-S ) :   1.1369 B( 33-C , 35-C ) :   1.2362
B( 35-C , 36-C ) :   1.5454 B( 35-C , 76-H ) :   0.9435 B( 36-C , 37-C ) :   1.2137
B( 36-C , 77-H ) :   0.9431 B( 37-C , 38-S ) :   1.1245 B( 37-C , 39-C ) :   0.1025
B( 37-C , 41-C ) :   1.2999 B( 38-S , 39-C ) :   1.1452 B( 39-C , 40-C ) :   1.3122
B( 39-C , 48-C ) :   1.2041 B( 40-C , 41-C ) :   1.2086 B( 40-C , 47-C ) :   1.2069
B( 41-C , 42-C ) :   1.2196 B( 42-C , 43-C ) :   1.0190 B( 42-C , 45-C ) :   1.5289
B( 43-C , 44-C ) :   1.9803 B( 43-C , 78-H ) :   0.9444 B( 44-C , 79-H ) :   0.9603
B( 44-C , 80-H ) :   0.9500 B( 45-C , 46-C ) :   1.2228 B( 45-C , 81-H ) :   0.9902
B( 46-C , 47-C ) :   1.5344 B( 46-C , 82-H ) :   0.9843 B( 47-C , 83-H ) :   0.9755
B( 48-C , 49-S ) :   1.1840 B( 48-C , 50-C ) :   0.1007 B( 48-C , 52-C ) :   1.3111
B( 49-S , 50-C ) :   1.1829 B( 50-C , 51-C ) :   1.4170 B( 50-C , 84-H ) :   0.9711
B( 51-C , 52-C ) :   1.1847 B( 51-C , 60-C ) :   1.1566 B( 52-C , 53-C ) :   1.1981
B( 53-C , 54-C ) :   1.5739 B( 53-C , 85-H ) :   0.9749 B( 54-C , 55-C ) :   1.0866
B( 54-C , 57-C ) :   1.2296 B( 55-C , 56-N ) :   3.0377 B( 57-C , 58-C ) :   1.0734
B( 57-C , 60-C ) :   1.5793 B( 58-C , 59-N ) :   3.0482 B( 60-C , 86-H ) :   1.0067

-----------------------------------------------------------------------------
         ABSORPTION SPECTRUM VIA TRANSITION ELECTRIC DIPOLE MOMENTS
-----------------------------------------------------------------------------
State   Energy  Wavelength   fosc         T2         TX        TY        TZ
        (cm-1)    (nm)                  (au**2)     (au)      (au)      (au)
-----------------------------------------------------------------------------
   0    9286.9   1076.8   1.008811328  35.76129  -2.68644  -3.16211   4.30643
   1   15846.1    631.1   0.221484711   4.60148  -1.38002   1.61076   0.32008
   2   17102.4    584.7   0.321266300   6.18422   1.71838  -1.69999  -0.58431
   3   18179.9    550.1   0.109766149   1.98771  -0.44000   1.33880  -0.04142
   4   21868.1    457.3   0.059801196   0.90028   0.37348   0.58264  -0.64909
   5   22884.5    437.0   0.106726742   1.53535  -0.14800   1.02843  -0.67512
   6   24425.6    409.4   0.026826471   0.36157   0.24611  -0.41463   0.35928
   7   25740.9    388.5   0.007135622   0.09126   0.12646   0.26485  -0.07158
   8   26665.2    375.0   0.016815998   0.20761  -0.26865   0.34256   0.13451
   9   27136.1    368.5   0.012625993   0.15318   0.04335  -0.23274  -0.31165
  10   27429.9    364.6   0.059339141   0.71218   0.36107  -0.75688  -0.09457
  11   28160.7    355.1   0.021225194   0.24813  -0.15643   0.33697   0.33183
  12   29072.1    344.0   0.069239404   0.78407   0.49365   0.67270  -0.29640
  13   29284.3    341.5   0.037896055   0.42602  -0.50173   0.40151   0.11436
  14   29653.1    337.2   0.101453697   1.12635  -0.09916   0.67075  -0.81646
  15   30565.1    327.2   0.002695845   0.02904  -0.11155   0.03948   0.12262
  16   31097.1    321.6   0.002028276   0.02147  -0.06813   0.12592  -0.03123
  17   31273.8    319.8   0.013431781   0.14139   0.01243   0.18828  -0.32525
  18   32115.5    311.4   0.016473507   0.16887   0.02705  -0.34545   0.22091
  19   32573.1    307.0   0.029349725   0.29663   0.01854  -0.50841   0.19445
  20   32948.5    303.5   0.011607242   0.11598  -0.13704   0.01429   0.31143
  21   33157.9    301.6   0.091989164   0.91332   0.75749  -0.33360  -0.47775
  22   33572.2    297.9   0.042945093   0.42112  -0.11145  -0.44426   0.45971
  23   34310.7    291.5   0.087846269   0.84289  -0.46692   0.79011   0.02454
  24   34616.3    288.9   0.172792933   1.64331  -0.73414   0.93802  -0.47379
  25   34910.4    286.4   0.163676261   1.54350   0.61051  -0.71602   0.81122
  26   35276.0    283.5   0.020480834   0.19114   0.40592  -0.13379   0.09202
  27   35284.8    283.4   0.048535642   0.45284  -0.60570  -0.23204  -0.17923
  28   35421.0    282.3   0.026470120   0.24602   0.20589  -0.44641  -0.06590
  29   36280.0    275.6   0.005835555   0.05295   0.14226  -0.13306  -0.12253
  30   36729.7    272.3   0.033186061   0.29745  -0.29087   0.27528   0.37022
  31   37444.3    267.1   0.036412809   0.32014   0.25005   0.07284  -0.50231
  32   37920.5    263.7   0.011373956   0.09874   0.19221  -0.23688   0.07542
  33   38366.1    260.6   0.038896062   0.33376   0.28333  -0.49511  -0.09136
  34   38422.3    260.3   0.059695622   0.51149   0.26365  -0.63929   0.18243
  35   38627.2    258.9   0.058407224   0.49779  -0.52234   0.45503  -0.13379
  36   38655.4    258.7   0.079097307   0.67364  -0.13072   0.40957  -0.69914
  37   38675.0    258.6   0.000024631   0.00021   0.01015  -0.00972  -0.00348
  38   39277.0    254.6   0.001794899   0.01504  -0.00402  -0.05459  -0.10976
  39   39628.3    252.3   0.010142809   0.08426   0.03199  -0.10377   0.26920
  40   39711.8    251.8   0.047740786   0.39577   0.52313  -0.02105  -0.34880
  41   39948.9    250.3   0.013605316   0.11212  -0.20733   0.09544  -0.24500
  42   40298.6    248.1   0.009759353   0.07973   0.18885  -0.04934   0.20403

FINAL SINGLE POINT ENERGY     -4236.815299867408

DIPOLE MOMENT
-------------
                                X             Y             Z
Electronic contribution:    -41.32995      33.25487      18.00333
Nuclear contribution   :     41.99865     -38.33287     -16.41236
                        -----------------------------------------
Total Dipole Moment    :      0.66870      -5.07799       1.59098
                        -----------------------------------------
Magnitude (a.u.)       :      5.36324
Magnitude (Debye)      :     13.63228

Rotational constants in cm-1:     0.001665     0.000474     0.000385
Rotational constants in MHz :    49.912382    14.199842    11.534814

                             ****ORCA TERMINATED NORMALLY****
TOTAL RUN TIME: 0 days 0 hours 7 minutes 31 seconds 189 msec
