                         Program Version 4.2.0 -  RELEASE  -
|  1> # ORCA input file
|  2> # SCF done       -130.370374477506          0.000443187391
|  3> ! CAM-B3LYP def2-SVP def2/J RIJCOSX Grid4 TightSCF
|  4> %maxcore 5000
|  5> %tddft
|  6>     Mode sTDDFT
|  7>     Ethresh 5.0
|  8>     maxcore 5000
|  9> end
| 10>
| 11> %pal
| 12>   nprocs 6
| 13>   end
| 14> * xyz 0 1
| 15>    C       -5.41187        -1.10316         3.60269
| 16>    S       -3.87129        -1.17676         2.87175
| 17>    C       -4.34525        -2.44339         1.80549
| 18>    C       -5.66199        -2.82503         2.04852
| 19>    C       -6.28661        -2.02440         3.06962
| 20>    C       -7.65523        -2.21456         3.37288
| 21>    C       -8.36079        -3.17991         2.70716
| 22>    C       -9.74788        -3.36274         2.90292
| 23>    N      -10.87592        -3.53262         3.01785
| 24>    C       -7.70839        -4.04526         1.76351
| 25>    C       -8.46353        -5.03732         1.10239
| 26>    N       -9.07301        -5.81673         0.52150
| 27>    C       -6.38487        -3.87935         1.45429
| 28>    C       -3.50262        -2.96529         0.75202
| 29>    C       -4.08814        -3.28929        -0.46635
| 30>    C       -3.36209        -3.95691        -1.45619
| 31>    C       -2.00436        -4.17704        -1.18446
| 32>    N       -1.41752        -3.77921        -0.07256
| 33>    C       -2.12937        -3.20655         0.87716
| 34>    C       -4.08566        -4.46041        -2.59720
| 35>    S       -5.76769        -4.76251        -2.35178
| 36>    C       -5.99642        -5.43426        -3.92919
| 37>    C       -4.79644        -5.40045        -4.64531
| 38>    C       -3.71076        -4.84405        -3.88755
| 39>    C       -2.45576        -4.69182        -4.50610
| 40>    C       -2.24998        -5.10725        -5.79888
| 41>    C       -0.94290        -4.92320        -6.42739
| 42>    C        0.21740        -4.97731        -5.78704
| 43>    C       -3.32337        -5.69244        -6.54022
| 44>    C       -3.09393        -6.16906        -7.94185
| 45>    C       -4.55893        -5.81841        -5.96947
| 46>    C       -7.32676        -5.87552        -4.16429
| 47>    C       -7.90110        -6.59007        -5.15208
| 48>    C       -9.30082        -6.94964        -5.01892
| 49>    C      -10.19171        -6.10508        -4.35382
| 50>    C      -11.45932        -6.55693        -3.99581
| 51>    C      -11.82347        -7.82998        -4.46105
| 52>    N      -11.03722        -8.58490        -5.19820
| 53>    C       -9.80928        -8.17719        -5.45689
| 54>    C      -12.34899        -5.76575        -3.17701
| 55>    S      -14.05892        -5.98864        -3.27953
| 56>    C      -14.37858        -4.78020        -2.12294
| 57>    C      -13.22361        -4.20244        -1.64483
| 58>    C      -12.04163        -4.78067        -2.23705
| 59>    C      -10.78007        -4.32169        -1.80738
| 60>    C      -10.69686        -3.26452        -0.93704
| 61>    C       -9.43222        -2.73779        -0.60743
| 62>    N       -8.39312        -2.30408        -0.38393
| 63>    C      -11.87583        -2.66578        -0.38030
| 64>    C      -11.71719        -1.57763         0.50766
| 65>    N      -11.56986        -0.67734         1.20143
| 66>    C      -13.11313        -3.15142        -0.70556
| 67>    H       -5.60405        -0.37971         4.36947
| 68>    H       -8.13842        -1.58530         4.10478
| 69>    H       -5.90754        -4.55363         0.75993
| 70>    H       -5.11599        -3.01333        -0.65349
| 71>    H       -1.37128        -4.71373        -1.87587
| 72>    H       -1.59705        -2.94320         1.78151
| 73>    H       -1.65994        -4.19971        -3.97049
| 74>    H       -0.95030        -4.73697        -7.49272
| 75>    H        0.28347        -5.19536        -4.73422
| 76>    H        1.15166        -4.82247        -6.29884
| 77>    H       -2.23437        -6.83613        -7.98466
| 78>    H       -2.90174        -5.32762        -8.60800
| 79>    H       -3.96706        -6.70105        -8.31150
| 80>    H       -5.37365        -6.23581        -6.53976
| 81>    H       -7.97227        -5.61542        -3.33198
| 82>    H       -7.34630        -6.99631        -5.98254
| 83>    H       -9.90407        -5.08527        -4.15423
| 84>    H      -12.79665        -8.24356        -4.22897
| 85>    H       -9.19542        -8.86190        -6.02693
| 86>    H      -15.38969        -4.54368        -1.85851
| 87>    H       -9.87255        -4.80102        -2.13328
| 88>    H      -14.00358        -2.73266        -0.26186
| 89> *
| 90>
| 91>                          ****END OF INPUT****

CARTESIAN COORDINATES (ANGSTROEM)
---------------------------------
  C     -5.411870   -1.103160    3.602690
  S     -3.871290   -1.176760    2.871750
  C     -4.345250   -2.443390    1.805490
  C     -5.661990   -2.825030    2.048520
  C     -6.286610   -2.024400    3.069620
  C     -7.655230   -2.214560    3.372880
  C     -8.360790   -3.179910    2.707160
  C     -9.747880   -3.362740    2.902920
  N    -10.875920   -3.532620    3.017850
  C     -7.708390   -4.045260    1.763510
  C     -8.463530   -5.037320    1.102390
  N     -9.073010   -5.816730    0.521500
  C     -6.384870   -3.879350    1.454290
  C     -3.502620   -2.965290    0.752020
  C     -4.088140   -3.289290   -0.466350
  C     -3.362090   -3.956910   -1.456190
  C     -2.004360   -4.177040   -1.184460
  N     -1.417520   -3.779210   -0.072560
  C     -2.129370   -3.206550    0.877160
  C     -4.085660   -4.460410   -2.597200
  S     -5.767690   -4.762510   -2.351780
  C     -5.996420   -5.434260   -3.929190
  C     -4.796440   -5.400450   -4.645310
  C     -3.710760   -4.844050   -3.887550
  C     -2.455760   -4.691820   -4.506100
  C     -2.249980   -5.107250   -5.798880
  C     -0.942900   -4.923200   -6.427390
  C      0.217400   -4.977310   -5.787040
  C     -3.323370   -5.692440   -6.540220
  C     -3.093930   -6.169060   -7.941850
  C     -4.558930   -5.818410   -5.969470
  C     -7.326760   -5.875520   -4.164290
  C     -7.901100   -6.590070   -5.152080
  C     -9.300820   -6.949640   -5.018920
  C    -10.191710   -6.105080   -4.353820
  C    -11.459320   -6.556930   -3.995810
  C    -11.823470   -7.829980   -4.461050
  N    -11.037220   -8.584900   -5.198200
  C     -9.809280   -8.177190   -5.456890
  C    -12.348990   -5.765750   -3.177010
  S    -14.058920   -5.988640   -3.279530
  C    -14.378580   -4.780200   -2.122940
  C    -13.223610   -4.202440   -1.644830
  C    -12.041630   -4.780670   -2.237050
  C    -10.780070   -4.321690   -1.807380
  C    -10.696860   -3.264520   -0.937040
  C     -9.432220   -2.737790   -0.607430
  N     -8.393120   -2.304080   -0.383930
  C    -11.875830   -2.665780   -0.380300
  C    -11.717190   -1.577630    0.507660
  N    -11.569860   -0.677340    1.201430
  C    -13.113130   -3.151420   -0.705560
  H     -5.604050   -0.379710    4.369470
  H     -8.138420   -1.585300    4.104780
  H     -5.907540   -4.553630    0.759930
  H     -5.115990   -3.013330   -0.653490
  H     -1.371280   -4.713730   -1.875870
  H     -1.597050   -2.943200    1.781510
  H     -1.659940   -4.199710   -3.970490
  H     -0.950300   -4.736970   -7.492720
  H      0.283470   -5.195360   -4.734220
  H      1.151660   -4.822470   -6.298840
  H     -2.234370   -6.836130   -7.984660
  H     -2.901740   -5.327620   -8.608000
  H     -3.967060   -6.701050   -8.311500
  H     -5.373650   -6.235810   -6.539760
  H     -7.972270   -5.615420   -3.331980
  H     -7.346300   -6.996310   -5.982540
  H     -9.904070   -5.085270   -4.154230
  H    -12.796650   -8.243560   -4.228970
  H     -9.195420   -8.861900   -6.026930
  H    -15.389690   -4.543680   -1.858510
  H     -9.872550   -4.801020   -2.133280
  H    -14.003580   -2.732660   -0.261860

 Total Charge           Charge          ....    0
 Multiplicity           Mult            ....    1
 Number of Electrons    NEL             ....  370
 Basis Dimension        Dim             ....  850

ORBITAL ENERGIES
----------------

  NO   OCC          E(Eh)            E(eV)
   0   2.0000     -88.986161     -2421.4365
   1   2.0000     -88.985330     -2421.4139
   2   2.0000     -88.968853     -2420.9656
   3   2.0000     -14.411700      -392.1623
   4   2.0000     -14.409390      -392.0994
   5   2.0000     -14.407803      -392.0562
   6   2.0000     -14.403995      -391.9526
   7   2.0000     -14.403214      -391.9314
   8   2.0000     -14.400282      -391.8516
   9   2.0000     -10.322499      -280.8895
  10   2.0000     -10.321856      -280.8720
  11   2.0000     -10.321585      -280.8646
  12   2.0000     -10.321548      -280.8636
  13   2.0000     -10.320019      -280.8220
  14   2.0000     -10.319908      -280.8190
  15   2.0000     -10.311927      -280.6018
  16   2.0000     -10.311875      -280.6004
  17   2.0000     -10.311598      -280.5928
  18   2.0000     -10.311509      -280.5904
  19   2.0000     -10.311202      -280.5821
  20   2.0000     -10.310239      -280.5559
  21   2.0000     -10.307551      -280.4827
  22   2.0000     -10.307479      -280.4808
  23   2.0000     -10.306740      -280.4606
  24   2.0000     -10.306189      -280.4457
  25   2.0000     -10.306150      -280.4446
  26   2.0000     -10.305702      -280.4324
  27   2.0000     -10.304288      -280.3939
  28   2.0000     -10.303856      -280.3822
  29   2.0000     -10.302813      -280.3538
  30   2.0000     -10.302359      -280.3414
  31   2.0000     -10.301725      -280.3242
  32   2.0000     -10.301498      -280.3180
  33   2.0000     -10.300679      -280.2957
  34   2.0000     -10.300107      -280.2802
  35   2.0000     -10.299801      -280.2718
  36   2.0000     -10.299308      -280.2584
  37   2.0000     -10.299190      -280.2552
  38   2.0000     -10.294387      -280.1245
  39   2.0000     -10.291666      -280.0505
  40   2.0000     -10.290410      -280.0163
  41   2.0000     -10.289944      -280.0036
  42   2.0000     -10.286751      -279.9167
  43   2.0000     -10.285482      -279.8822
  44   2.0000     -10.283314      -279.8232
  45   2.0000     -10.282457      -279.7999
  46   2.0000     -10.281025      -279.7609
  47   2.0000     -10.276322      -279.6329
  48   2.0000     -10.274977      -279.5963
  49   2.0000     -10.273041      -279.5436
  50   2.0000     -10.268188      -279.4116
  51   2.0000     -10.267297      -279.3874
  52   2.0000      -8.081427      -219.9068
  53   2.0000      -8.080503      -219.8817
  54   2.0000      -8.064032      -219.4335
  55   2.0000      -6.050263      -164.6360
  56   2.0000      -6.049306      -164.6100
  57   2.0000      -6.045887      -164.5169
  58   2.0000      -6.044946      -164.4913
  59   2.0000      -6.044768      -164.4865
  60   2.0000      -6.043917      -164.4634
  61   2.0000      -6.032853      -164.1623
  62   2.0000      -6.028748      -164.0506
  63   2.0000      -6.027110      -164.0060
  64   2.0000      -1.045609       -28.4525
  65   2.0000      -1.040257       -28.3068
  66   2.0000      -1.017927       -27.6992
  67   2.0000      -1.015904       -27.6441
  68   2.0000      -1.001760       -27.2593
  69   2.0000      -1.001267       -27.2459
  70   2.0000      -0.995611       -27.0920
  71   2.0000      -0.986554       -26.8455
  72   2.0000      -0.983818       -26.7711
  73   2.0000      -0.955816       -26.0091
  74   2.0000      -0.953713       -25.9519
  75   2.0000      -0.948461       -25.8089
  76   2.0000      -0.930261       -25.3137
  77   2.0000      -0.919919       -25.0323
  78   2.0000      -0.908104       -24.7108
  79   2.0000      -0.897779       -24.4298
  80   2.0000      -0.878578       -23.9073
  81   2.0000      -0.877094       -23.8670
  82   2.0000      -0.874111       -23.7858
  83   2.0000      -0.869019       -23.6472
  84   2.0000      -0.865554       -23.5529
  85   2.0000      -0.864394       -23.5214
  86   2.0000      -0.844887       -22.9906
  87   2.0000      -0.822173       -22.3725
  88   2.0000      -0.815154       -22.1815
  89   2.0000      -0.814101       -22.1528
  90   2.0000      -0.794517       -21.6199
  91   2.0000      -0.772729       -21.0270
  92   2.0000      -0.754573       -20.5330
  93   2.0000      -0.753716       -20.5096
  94   2.0000      -0.745870       -20.2962
  95   2.0000      -0.744338       -20.2545
  96   2.0000      -0.742159       -20.1952
  97   2.0000      -0.727787       -19.8041
  98   2.0000      -0.714354       -19.4386
  99   2.0000      -0.711236       -19.3537
 100   2.0000      -0.708924       -19.2908
 101   2.0000      -0.691316       -18.8117
 102   2.0000      -0.685001       -18.6398
 103   2.0000      -0.672431       -18.2978
 104   2.0000      -0.661731       -18.0066
 105   2.0000      -0.644490       -17.5375
 106   2.0000      -0.637435       -17.3455
 107   2.0000      -0.633534       -17.2393
 108   2.0000      -0.623896       -16.9771
 109   2.0000      -0.622495       -16.9390
 110   2.0000      -0.612875       -16.6772
 111   2.0000      -0.607149       -16.5214
 112   2.0000      -0.605913       -16.4877
 113   2.0000      -0.598344       -16.2818
 114   2.0000      -0.596581       -16.2338
 115   2.0000      -0.593287       -16.1442
 116   2.0000      -0.582578       -15.8527
 117   2.0000      -0.577286       -15.7087
 118   2.0000      -0.557186       -15.1618
 119   2.0000      -0.554896       -15.0995
 120   2.0000      -0.551381       -15.0039
 121   2.0000      -0.548642       -14.9293
 122   2.0000      -0.544734       -14.8230
 123   2.0000      -0.542887       -14.7727
 124   2.0000      -0.539335       -14.6760
 125   2.0000      -0.533111       -14.5067
 126   2.0000      -0.528052       -14.3690
 127   2.0000      -0.520554       -14.1650
 128   2.0000      -0.516992       -14.0681
 129   2.0000      -0.516139       -14.0448
 130   2.0000      -0.513590       -13.9755
 131   2.0000      -0.511169       -13.9096
 132   2.0000      -0.506997       -13.7961
 133   2.0000      -0.502305       -13.6684
 134   2.0000      -0.499081       -13.5807
 135   2.0000      -0.494578       -13.4581
 136   2.0000      -0.492038       -13.3890
 137   2.0000      -0.490550       -13.3486
 138   2.0000      -0.489285       -13.3141
 139   2.0000      -0.484987       -13.1972
 140   2.0000      -0.483998       -13.1702
 141   2.0000      -0.479303       -13.0425
 142   2.0000      -0.476800       -12.9744
 143   2.0000      -0.469289       -12.7700
 144   2.0000      -0.467820       -12.7300
 145   2.0000      -0.461202       -12.5499
 146   2.0000      -0.458258       -12.4698
 147   2.0000      -0.456393       -12.4191
 148   2.0000      -0.455998       -12.4083
 149   2.0000      -0.452690       -12.3183
 150   2.0000      -0.448258       -12.1977
 151   2.0000      -0.445143       -12.1129
 152   2.0000      -0.443657       -12.0725
 153   2.0000      -0.436955       -11.8901
 154   2.0000      -0.435385       -11.8474
 155   2.0000      -0.432774       -11.7764
 156   2.0000      -0.428394       -11.6572
 157   2.0000      -0.427276       -11.6268
 158   2.0000      -0.425076       -11.5669
 159   2.0000      -0.424210       -11.5433
 160   2.0000      -0.418554       -11.3894
 161   2.0000      -0.413380       -11.2486
 162   2.0000      -0.412695       -11.2300
 163   2.0000      -0.410210       -11.1624
 164   2.0000      -0.406185       -11.0528
 165   2.0000      -0.405639       -11.0380
 166   2.0000      -0.405132       -11.0242
 167   2.0000      -0.400712       -10.9039
 168   2.0000      -0.397775       -10.8240
 169   2.0000      -0.387621       -10.5477
 170   2.0000      -0.383112       -10.4250
 171   2.0000      -0.377760       -10.2794
 172   2.0000      -0.361367        -9.8333
 173   2.0000      -0.354443        -9.6449
 174   2.0000      -0.348608        -9.4861
 175   2.0000      -0.334727        -9.1084
 176   2.0000      -0.331440        -9.0189
 177   2.0000      -0.330301        -8.9879
 178   2.0000      -0.327351        -8.9077
 179   2.0000      -0.321302        -8.7431
 180   2.0000      -0.314633        -8.5616
 181   2.0000      -0.298476        -8.1219
 182   2.0000      -0.274486        -7.4691
 183   2.0000      -0.268366        -7.3026
 184   2.0000      -0.241161        -6.5623
 185   0.0000      -0.064467        -1.7542
 186   0.0000      -0.063042        -1.7155
 187   0.0000      -0.060089        -1.6351
 188   0.0000      -0.018973        -0.5163
 189   0.0000      -0.014321        -0.3897

MULLIKEN ATOMIC CHARGES
-----------------------
   0 C :   -0.131690
   1 S :    0.200575
   2 C :   -0.150762
   3 C :    0.154862
   4 C :    0.103972
   5 C :   -0.002406
   6 C :   -0.060126
   7 C :   -0.167473
   8 N :    0.156101
   9 C :   -0.076249
  10 C :   -0.179488
  11 N :    0.156003
  12 C :   -0.038879
  13 C :    0.036040
  14 C :   -0.085416
  15 C :    0.069680
  16 C :   -0.017867
  17 N :   -0.053557
  18 C :   -0.005366
  19 C :   -0.119750
  20 S :    0.139094
  21 C :   -0.123637
  22 C :    0.126070
  23 C :    0.141190
  24 C :   -0.123619
  25 C :    0.087439
  26 C :   -0.036652
  27 C :   -0.010450
  28 C :   -0.078773
  29 C :    0.100875
  30 C :   -0.097863
  31 C :    0.071431
  32 C :   -0.014870
  33 C :    0.051132
  34 C :   -0.053110
  35 C :    0.063798
  36 C :   -0.023193
  37 N :   -0.052043
  38 C :   -0.003557
  39 C :   -0.146068
  40 S :    0.190580
  41 C :   -0.127607
  42 C :    0.099967
  43 C :    0.151311
  44 C :   -0.008445
  45 C :   -0.068056
  46 C :   -0.164319
  47 N :    0.143649
  48 C :   -0.060879
  49 C :   -0.175458
  50 N :    0.165355
  51 C :   -0.007868
  52 H :    0.029759
  53 H :   -0.005842
  54 H :    0.000361
  55 H :    0.041762
  56 H :   -0.001313
  57 H :   -0.004789
  58 H :   -0.028746
  59 H :   -0.002178
  60 H :    0.020755
  61 H :    0.024346
  62 H :    0.032901
  63 H :    0.033377
  64 H :    0.009279
  65 H :   -0.055030
  66 H :   -0.015255
  67 H :   -0.008795
  68 H :    0.002431
  69 H :   -0.001313
  70 H :   -0.004057
  71 H :    0.029264
  72 H :   -0.031844
  73 H :   -0.008698
Sum of atomic charges:   -0.0000000

LOEWDIN ATOMIC CHARGES
----------------------
   0 C :   -0.185988
   1 S :    0.518168
   2 C :   -0.175660
   3 C :   -0.039876
   4 C :   -0.046539
   5 C :    0.041191
   6 C :   -0.054451
   7 C :   -0.026142
   8 N :   -0.044928
   9 C :   -0.058603
  10 C :   -0.020364
  11 N :   -0.060816
  12 C :    0.038851
  13 C :   -0.060231
  14 C :    0.000702
  15 C :   -0.055865
  16 C :    0.019821
  17 N :   -0.058741
  18 C :    0.015633
  19 C :   -0.173169
  20 S :    0.507550
  21 C :   -0.181681
  22 C :   -0.037821
  23 C :   -0.042382
  24 C :   -0.008306
  25 C :   -0.024820
  26 C :   -0.022212
  27 C :   -0.033766
  28 C :   -0.012244
  29 C :   -0.044591
  30 C :   -0.027641
  31 C :   -0.035433
  32 C :   -0.033114
  33 C :   -0.035330
  34 C :    0.005590
  35 C :   -0.060028
  36 C :    0.009656
  37 N :   -0.059221
  38 C :    0.019700
  39 C :   -0.166672
  40 S :    0.523432
  41 C :   -0.187904
  42 C :   -0.047523
  43 C :   -0.044344
  44 C :    0.044673
  45 C :   -0.060698
  46 C :   -0.012843
  47 N :   -0.063615
  48 C :   -0.052397
  49 C :   -0.027526
  50 N :   -0.044622
  51 C :    0.038391
  52 H :    0.029092
  53 H :    0.045544
  54 H :    0.036999
  55 H :    0.031331
  56 H :    0.020982
  57 H :    0.018812
  58 H :    0.027612
  59 H :    0.028903
  60 H :    0.021839
  61 H :    0.026118
  62 H :    0.036507
  63 H :    0.036034
  64 H :    0.030228
  65 H :    0.024275
  66 H :    0.025829
  67 H :    0.026736
  68 H :    0.031468
  69 H :    0.014349
  70 H :    0.020697
  71 H :    0.029048
  72 H :    0.037517
  73 H :    0.044826

  Mayer bond orders larger than 0.100000
B(  0-C ,  1-S ) :   1.2091 B(  0-C ,  2-C ) :   0.1110 B(  0-C ,  4-C ) :   1.4157
B(  0-C , 52-H ) :   0.9707 B(  1-S ,  2-C ) :   1.2079 B(  2-C ,  3-C ) :   1.3924
B(  2-C , 13-C ) :   1.0025 B(  3-C ,  4-C ) :   1.1922 B(  3-C , 12-C ) :   1.1756
B(  4-C ,  5-C ) :   1.1435 B(  5-C ,  6-C ) :   1.5839 B(  5-C , 53-H ) :   1.0042
B(  6-C ,  7-C ) :   1.0936 B(  6-C ,  9-C ) :   1.2113 B(  7-C ,  8-N ) :   2.9853
B(  9-C , 10-C ) :   1.1009 B(  9-C , 12-C ) :   1.5852 B( 10-C , 11-N ) :   3.0051
B( 12-C , 54-H ) :   0.9926 B( 13-C , 14-C ) :   1.3987 B( 13-C , 18-C ) :   1.3278
B( 14-C , 15-C ) :   1.3446 B( 14-C , 55-H ) :   0.9800 B( 15-C , 16-C ) :   1.3400
B( 15-C , 19-C ) :   1.0359 B( 16-C , 17-N ) :   1.5576 B( 16-C , 56-H ) :   0.9865
B( 17-N , 18-C ) :   1.5713 B( 18-C , 57-H ) :   0.9897 B( 19-C , 20-S ) :   1.1809
B( 19-C , 21-C ) :   0.1210 B( 19-C , 23-C ) :   1.3569 B( 20-S , 21-C ) :   1.1642
B( 21-C , 22-C ) :   1.3418 B( 21-C , 31-C ) :   1.1523 B( 22-C , 23-C ) :   1.1947
B( 22-C , 30-C ) :   1.1870 B( 23-C , 24-C ) :   1.1818 B( 24-C , 25-C ) :   1.5265
B( 24-C , 58-H ) :   0.9922 B( 25-C , 26-C ) :   1.0265 B( 25-C , 28-C ) :   1.1919
B( 26-C , 27-C ) :   1.9788 B( 26-C , 59-H ) :   0.9509 B( 27-C , 60-H ) :   0.9584
B( 27-C , 61-H ) :   0.9501 B( 28-C , 29-C ) :   1.0883 B( 28-C , 30-C ) :   1.5611
B( 29-C , 62-H ) :   0.9427 B( 29-C , 63-H ) :   0.9395 B( 29-C , 64-H ) :   0.9536
B( 30-C , 65-H ) :   0.9972 B( 31-C , 32-C ) :   1.7305 B( 31-C , 66-H ) :   0.9281
B( 32-C , 33-C ) :   1.0332 B( 32-C , 67-H ) :   0.9756 B( 33-C , 34-C ) :   1.3694
B( 33-C , 38-C ) :   1.3299 B( 34-C , 35-C ) :   1.3841 B( 34-C , 68-H ) :   0.9819
B( 35-C , 36-C ) :   1.3164 B( 35-C , 39-C ) :   1.0388 B( 36-C , 37-N ) :   1.5837
B( 36-C , 69-H ) :   0.9843 B( 37-N , 38-C ) :   1.5533 B( 38-C , 70-H ) :   0.9874
B( 39-C , 40-S ) :   1.2073 B( 39-C , 41-C ) :   0.1107 B( 39-C , 43-C ) :   1.3818
B( 40-S , 41-C ) :   1.2084 B( 41-C , 42-C ) :   1.4140 B( 41-C , 71-H ) :   0.9721
B( 42-C , 43-C ) :   1.1871 B( 42-C , 51-C ) :   1.1503 B( 43-C , 44-C ) :   1.1788
B( 44-C , 45-C ) :   1.5912 B( 44-C , 72-H ) :   0.9928 B( 45-C , 46-C ) :   1.0922
B( 45-C , 48-C ) :   1.2210 B( 46-C , 47-N ) :   2.9616 B( 48-C , 49-C ) :   1.0867
B( 48-C , 51-C ) :   1.5791 B( 49-C , 50-N ) :   3.0223 B( 51-C , 73-H ) :   1.0071

-----------------------------------------------------------------------------
         ABSORPTION SPECTRUM VIA TRANSITION ELECTRIC DIPOLE MOMENTS
-----------------------------------------------------------------------------
State   Energy  Wavelength   fosc         T2         TX        TY        TZ
        (cm-1)    (nm)                  (au**2)     (au)      (au)      (au)
-----------------------------------------------------------------------------
   0   23055.2    433.7   0.598173546   8.54151  -2.23704  -0.98618  -1.60143
   1   24060.1    415.6   0.020813978   0.28480  -0.25571   0.37476   0.28100
   2   24380.8    410.2   0.011891643   0.16057   0.10467   0.27089   0.27611
   3   28230.7    354.2   0.410190286   4.78344  -0.99999   1.23805   1.50023
   4   28949.4    345.4   0.085871155   0.97653  -0.82574   0.35535   0.41037
   5   29491.2    339.1   0.287773807   3.21244  -1.39620   0.33765   1.07194
   6   30476.9    328.1   0.002665397   0.02879  -0.04769   0.01388   0.16225
   7   30908.6    323.5   0.050211830   0.53481   0.67547   0.23028  -0.15977
   8   31912.8    313.4   0.027632789   0.28506   0.52351   0.03434   0.09906
   9   32020.3    312.3   0.030528833   0.31388   0.13609  -0.30704  -0.44842
  10   33283.4    300.4   0.039487555   0.39058   0.57371  -0.05016  -0.24273
  11   34276.7    291.7   0.365415491   3.50965   1.39316  -0.32704  -1.20905
  12   34945.2    286.2   0.438142753   4.12765  -1.82687  -0.47410   0.75195
  13   35144.9    284.5   0.047958407   0.44924  -0.33299   0.04558   0.57989
  14   35498.0    281.7   0.020849144   0.19336  -0.25430   0.12285   0.33704
  15   35835.1    279.1   0.031682317   0.29106  -0.46893   0.07550   0.25586
  16   36740.8    272.2   0.009813385   0.08793  -0.16156   0.02396   0.24750
  17   37292.9    268.1   0.016860774   0.14884  -0.26502  -0.16783  -0.22459
  18   37387.9    267.5   0.003466252   0.03052  -0.05875  -0.16210  -0.02818
  19   38066.8    262.7   0.010066964   0.08706   0.14788   0.13266  -0.21816
  20   38251.4    261.4   0.037042869   0.31881   0.40834   0.37629   0.10236
  21   38500.4    259.7   0.057272403   0.48973  -0.09803   0.03998   0.69175
  22   38786.5    257.8   0.092050710   0.78131   0.83506   0.27347  -0.09590
  23   38806.0    257.7   0.082703435   0.70162  -0.82952  -0.05446   0.10271
  24   39429.6    253.6   0.004887157   0.04080  -0.17103  -0.04198   0.09895
  25   39654.0    252.2   0.201042371   1.66908  -1.12608  -0.50954   0.37603
  26   39945.8    250.3   0.066417461   0.54738  -0.10483   0.51159   0.52408
  27   40309.1    248.1   0.551997364   4.50827   0.57356   1.27194   1.60046

FINAL SINGLE POINT ENERGY     -3171.898624534628

DIPOLE MOMENT
-------------
                                X             Y             Z
Electronic contribution:    -29.85081      11.90052      34.47103
Nuclear contribution   :     30.84686     -11.70799     -35.80204
                        -----------------------------------------
Total Dipole Moment    :      0.99605       0.19253      -1.33102
                        -----------------------------------------
Magnitude (a.u.)       :      1.67356
Magnitude (Debye)      :      4.25385

Rotational constants in cm-1:     0.001821     0.001419     0.000845
Rotational constants in MHz :    54.606284    42.531685    25.321562

                             ****ORCA TERMINATED NORMALLY****
TOTAL RUN TIME: 0 days 0 hours 7 minutes 45 seconds 32 msec
