                         Program Version 4.2.0 -  RELEASE  -
|  1> # ORCA input file
|  2> # SCF done       -120.503158737180          0.000519996577
|  3> ! CAM-B3LYP def2-SVP def2/J RIJCOSX Grid4 TightSCF
|  4> %maxcore 5000
|  5> %tddft
|  6>     Mode sTDDFT
|  7>     Ethresh 5.0
|  8>     maxcore 5000
|  9> end
| 10>
| 11> %pal
| 12>   nprocs 6
| 13>   end
| 14> * xyz 0 1
| 15>    C        0.54746        -1.84580        -3.03463
| 16>    O        1.58591        -1.06145        -3.31331
| 17>    C        2.23033        -0.80917        -2.14983
| 18>    C        1.59735        -1.44041        -1.10669
| 19>    C        0.49478        -2.11997        -1.68725
| 20>    C       -0.45718        -2.91173        -1.02159
| 21>    N       -1.22838        -3.55532        -0.47128
| 22>    C        3.39572         0.01390        -2.14645
| 23>    S        4.06370         0.72744        -3.59988
| 24>    C        5.28645         1.41039        -2.52842
| 25>    N        5.10225         1.07220        -1.28301
| 26>    N        4.06813         0.30787        -1.07096
| 27>    C        6.34171         2.23017        -3.01177
| 28>    C        7.26766         2.75926        -2.17524
| 29>    C        8.33408         3.57831        -2.62608
| 30>    N        9.28793         4.11368        -1.79097
| 31>    C        9.40920         3.89532        -0.36983
| 32>    C       10.01139         2.52862        -0.05347
| 33>    C       10.22410         4.89223        -2.49113
| 34>    O       11.15609         5.46232        -1.95746
| 35>    C        9.78775         4.82457        -3.86785
| 36>    C        8.62771         4.00956        -3.91708
| 37>    C        8.18592         3.94943        -5.29302
| 38>    O        7.24950         3.38457        -5.82391
| 39>    N        9.11101         4.74354        -5.99035
| 40>    C        9.03246         4.90312        -7.42252
| 41>    C       10.02478         4.00025        -8.15087
| 42>    C       10.07270         5.26804        -5.15742
| 43>    C       11.12225         6.11219        -5.60041
| 44>    C       12.05839         6.61667        -4.75896
| 45>    C       13.10168         7.46240        -5.21902
| 46>    S       14.30617         8.14073        -4.12992
| 47>    C       14.98476         8.89775        -5.56626
| 48>    N       14.31465         8.60650        -6.64711
| 49>    N       13.29206         7.82736        -6.45851
| 50>    C       16.13948         9.72764        -5.51072
| 51>    C       16.67796        10.30031        -6.60837
| 52>    C       17.83329        11.13254        -6.57285
| 53>    O       18.46951        11.40840        -5.41474
| 54>    C       19.50935        12.20742        -5.69718
| 55>    C       19.58200        12.47294        -7.02965
| 56>    C       18.49182        11.77663        -7.61713
| 57>    C       18.14683        11.74134        -8.97437
| 58>    N       17.87793        11.72111       -10.08885
| 59>    H       -0.08640        -2.15261        -3.84355
| 60>    H        1.88547        -1.41733        -0.07694
| 61>    H        6.38065         2.41698        -4.07578
| 62>    H        7.18462         2.54768        -1.11940
| 63>    H        8.42946         4.00695         0.10241
| 64>    H       10.07196         4.68304        -0.00034
| 65>    H        9.38549         1.72739        -0.43952
| 66>    H       10.10643         2.41026         1.02215
| 67>    H       10.99875         2.44490        -0.50111
| 68>    H        9.19858         5.95186        -7.68260
| 69>    H        8.01159         4.62667        -7.70102
| 70>    H       11.04751         4.23238        -7.86281
| 71>    H        9.92465         4.13655        -9.22395
| 72>    H        9.82405         2.95857        -7.91230
| 73>    H       11.17965         6.36938        -6.64778
| 74>    H       12.03657         6.38731        -3.70265
| 75>    H       16.58078         9.88534        -4.53721
| 76>    H       16.23124        10.13590        -7.57794
| 77>    H       20.12338        12.52139        -4.87611
| 78>    H       20.30342        13.07704        -7.53970
| 79> *
| 80>
| 81>                          ****END OF INPUT****

CARTESIAN COORDINATES (ANGSTROEM)
---------------------------------
  C      0.547460   -1.845800   -3.034630
  O      1.585910   -1.061450   -3.313310
  C      2.230330   -0.809170   -2.149830
  C      1.597350   -1.440410   -1.106690
  C      0.494780   -2.119970   -1.687250
  C     -0.457180   -2.911730   -1.021590
  N     -1.228380   -3.555320   -0.471280
  C      3.395720    0.013900   -2.146450
  S      4.063700    0.727440   -3.599880
  C      5.286450    1.410390   -2.528420
  N      5.102250    1.072200   -1.283010
  N      4.068130    0.307870   -1.070960
  C      6.341710    2.230170   -3.011770
  C      7.267660    2.759260   -2.175240
  C      8.334080    3.578310   -2.626080
  N      9.287930    4.113680   -1.790970
  C      9.409200    3.895320   -0.369830
  C     10.011390    2.528620   -0.053470
  C     10.224100    4.892230   -2.491130
  O     11.156090    5.462320   -1.957460
  C      9.787750    4.824570   -3.867850
  C      8.627710    4.009560   -3.917080
  C      8.185920    3.949430   -5.293020
  O      7.249500    3.384570   -5.823910
  N      9.111010    4.743540   -5.990350
  C      9.032460    4.903120   -7.422520
  C     10.024780    4.000250   -8.150870
  C     10.072700    5.268040   -5.157420
  C     11.122250    6.112190   -5.600410
  C     12.058390    6.616670   -4.758960
  C     13.101680    7.462400   -5.219020
  S     14.306170    8.140730   -4.129920
  C     14.984760    8.897750   -5.566260
  N     14.314650    8.606500   -6.647110
  N     13.292060    7.827360   -6.458510
  C     16.139480    9.727640   -5.510720
  C     16.677960   10.300310   -6.608370
  C     17.833290   11.132540   -6.572850
  O     18.469510   11.408400   -5.414740
  C     19.509350   12.207420   -5.697180
  C     19.582000   12.472940   -7.029650
  C     18.491820   11.776630   -7.617130
  C     18.146830   11.741340   -8.974370
  N     17.877930   11.721110  -10.088850
  H     -0.086400   -2.152610   -3.843550
  H      1.885470   -1.417330   -0.076940
  H      6.380650    2.416980   -4.075780
  H      7.184620    2.547680   -1.119400
  H      8.429460    4.006950    0.102410
  H     10.071960    4.683040   -0.000340
  H      9.385490    1.727390   -0.439520
  H     10.106430    2.410260    1.022150
  H     10.998750    2.444900   -0.501110
  H      9.198580    5.951860   -7.682600
  H      8.011590    4.626670   -7.701020
  H     11.047510    4.232380   -7.862810
  H      9.924650    4.136550   -9.223950
  H      9.824050    2.958570   -7.912300
  H     11.179650    6.369380   -6.647780
  H     12.036570    6.387310   -3.702650
  H     16.580780    9.885340   -4.537210
  H     16.231240   10.135900   -7.577940
  H     20.123380   12.521390   -4.876110
  H     20.303420   13.077040   -7.539700

 Total Charge           Charge          ....    0
 Multiplicity           Mult            ....    1
 Number of Electrons    NEL             ....  320
 Basis Dimension        Dim             ....  724

ORBITAL ENERGIES
----------------

  NO   OCC          E(Eh)            E(eV)
   0   2.0000     -88.982383     -2421.3338
   1   2.0000     -88.976030     -2421.1609
   2   2.0000     -19.328229      -525.9479
   3   2.0000     -19.316727      -525.6349
   4   2.0000     -19.196958      -522.3758
   5   2.0000     -19.195778      -522.3437
   6   2.0000     -14.457526      -393.4093
   7   2.0000     -14.457260      -393.4020
   8   2.0000     -14.447054      -393.1243
   9   2.0000     -14.444227      -393.0474
  10   2.0000     -14.441763      -392.9804
  11   2.0000     -14.440472      -392.9452
  12   2.0000     -14.410541      -392.1307
  13   2.0000     -14.407854      -392.0576
  14   2.0000     -10.378970      -282.4261
  15   2.0000     -10.378096      -282.4023
  16   2.0000     -10.364049      -282.0201
  17   2.0000     -10.360249      -281.9167
  18   2.0000     -10.359892      -281.9070
  19   2.0000     -10.356275      -281.8086
  20   2.0000     -10.347433      -281.5680
  21   2.0000     -10.347212      -281.5620
  22   2.0000     -10.345719      -281.5213
  23   2.0000     -10.343352      -281.4569
  24   2.0000     -10.343233      -281.4537
  25   2.0000     -10.342553      -281.4352
  26   2.0000     -10.323289      -280.9110
  27   2.0000     -10.318224      -280.7732
  28   2.0000     -10.312693      -280.6226
  29   2.0000     -10.310012      -280.5497
  30   2.0000     -10.309769      -280.5431
  31   2.0000     -10.309416      -280.5335
  32   2.0000     -10.304413      -280.3973
  33   2.0000     -10.303139      -280.3627
  34   2.0000     -10.302421      -280.3431
  35   2.0000     -10.299997      -280.2772
  36   2.0000     -10.299033      -280.2509
  37   2.0000     -10.298673      -280.2411
  38   2.0000     -10.296848      -280.1915
  39   2.0000     -10.296636      -280.1857
  40   2.0000     -10.266508      -279.3659
  41   2.0000     -10.265749      -279.3452
  42   2.0000     -10.264653      -279.3154
  43   2.0000     -10.264014      -279.2980
  44   2.0000      -8.078434      -219.8254
  45   2.0000      -8.072372      -219.6604
  46   2.0000      -6.047160      -164.5516
  47   2.0000      -6.043684      -164.4570
  48   2.0000      -6.040946      -164.3825
  49   2.0000      -6.040774      -164.3778
  50   2.0000      -6.037669      -164.2933
  51   2.0000      -6.034822      -164.2159
  52   2.0000      -1.248422       -33.9713
  53   2.0000      -1.236048       -33.6346
  54   2.0000      -1.149812       -31.2880
  55   2.0000      -1.145224       -31.1631
  56   2.0000      -1.138319       -30.9752
  57   2.0000      -1.131725       -30.7958
  58   2.0000      -1.068250       -29.0686
  59   2.0000      -1.059773       -28.8379
  60   2.0000      -0.996352       -27.1121
  61   2.0000      -0.993456       -27.0333
  62   2.0000      -0.955593       -26.0030
  63   2.0000      -0.954328       -25.9686
  64   2.0000      -0.935854       -25.4659
  65   2.0000      -0.933995       -25.4153
  66   2.0000      -0.932371       -25.3711
  67   2.0000      -0.929229       -25.2856
  68   2.0000      -0.926659       -25.2157
  69   2.0000      -0.904111       -24.6021
  70   2.0000      -0.895098       -24.3568
  71   2.0000      -0.885325       -24.0909
  72   2.0000      -0.871801       -23.7229
  73   2.0000      -0.863360       -23.4932
  74   2.0000      -0.839615       -22.8471
  75   2.0000      -0.822561       -22.3830
  76   2.0000      -0.810928       -22.0665
  77   2.0000      -0.794160       -21.6102
  78   2.0000      -0.763139       -20.7661
  79   2.0000      -0.762886       -20.7592
  80   2.0000      -0.758756       -20.6468
  81   2.0000      -0.747063       -20.3286
  82   2.0000      -0.741404       -20.1746
  83   2.0000      -0.730751       -19.8847
  84   2.0000      -0.715220       -19.4621
  85   2.0000      -0.708529       -19.2801
  86   2.0000      -0.702308       -19.1108
  87   2.0000      -0.696312       -18.9476
  88   2.0000      -0.689715       -18.7681
  89   2.0000      -0.678124       -18.4527
  90   2.0000      -0.669008       -18.2046
  91   2.0000      -0.653689       -17.7878
  92   2.0000      -0.645582       -17.5672
  93   2.0000      -0.620725       -16.8908
  94   2.0000      -0.614686       -16.7265
  95   2.0000      -0.608776       -16.5656
  96   2.0000      -0.591392       -16.0926
  97   2.0000      -0.591150       -16.0860
  98   2.0000      -0.590987       -16.0816
  99   2.0000      -0.587531       -15.9875
 100   2.0000      -0.583649       -15.8819
 101   2.0000      -0.580597       -15.7988
 102   2.0000      -0.578713       -15.7476
 103   2.0000      -0.572080       -15.5671
 104   2.0000      -0.565972       -15.4009
 105   2.0000      -0.552878       -15.0446
 106   2.0000      -0.551927       -15.0187
 107   2.0000      -0.543932       -14.8012
 108   2.0000      -0.543590       -14.7918
 109   2.0000      -0.542047       -14.7498
 110   2.0000      -0.534145       -14.5348
 111   2.0000      -0.532992       -14.5034
 112   2.0000      -0.525049       -14.2873
 113   2.0000      -0.521352       -14.1867
 114   2.0000      -0.520566       -14.1653
 115   2.0000      -0.516937       -14.0666
 116   2.0000      -0.516592       -14.0572
 117   2.0000      -0.510223       -13.8839
 118   2.0000      -0.506075       -13.7710
 119   2.0000      -0.499715       -13.5979
 120   2.0000      -0.497822       -13.5464
 121   2.0000      -0.490530       -13.3480
 122   2.0000      -0.482514       -13.1299
 123   2.0000      -0.479736       -13.0543
 124   2.0000      -0.478359       -13.0168
 125   2.0000      -0.477338       -12.9890
 126   2.0000      -0.474078       -12.9003
 127   2.0000      -0.466646       -12.6981
 128   2.0000      -0.461709       -12.5637
 129   2.0000      -0.458330       -12.4718
 130   2.0000      -0.457742       -12.4558
 131   2.0000      -0.452992       -12.3265
 132   2.0000      -0.450682       -12.2637
 133   2.0000      -0.447542       -12.1782
 134   2.0000      -0.443691       -12.0734
 135   2.0000      -0.439667       -11.9639
 136   2.0000      -0.436927       -11.8894
 137   2.0000      -0.432063       -11.7570
 138   2.0000      -0.429551       -11.6887
 139   2.0000      -0.421995       -11.4831
 140   2.0000      -0.414215       -11.2714
 141   2.0000      -0.411504       -11.1976
 142   2.0000      -0.409785       -11.1508
 143   2.0000      -0.398415       -10.8414
 144   2.0000      -0.393899       -10.7185
 145   2.0000      -0.389483       -10.5984
 146   2.0000      -0.383482       -10.4351
 147   2.0000      -0.370909       -10.0929
 148   2.0000      -0.369587       -10.0570
 149   2.0000      -0.367003        -9.9867
 150   2.0000      -0.353939        -9.6312
 151   2.0000      -0.344429        -9.3724
 152   2.0000      -0.337674        -9.1886
 153   2.0000      -0.333266        -9.0686
 154   2.0000      -0.331293        -9.0149
 155   2.0000      -0.326835        -8.8936
 156   2.0000      -0.319192        -8.6857
 157   2.0000      -0.299129        -8.1397
 158   2.0000      -0.282439        -7.6856
 159   2.0000      -0.241476        -6.5709
 160   0.0000      -0.098853        -2.6899
 161   0.0000      -0.064114        -1.7446
 162   0.0000      -0.039933        -1.0866
 163   0.0000      -0.014691        -0.3998
 164   0.0000       0.009110         0.2479

MULLIKEN ATOMIC CHARGES
-----------------------
   0 C :    0.135295
   1 O :   -0.170419
   2 C :    0.226756
   3 C :   -0.042447
   4 C :   -0.126785
   5 C :   -0.132595
   6 N :    0.148030
   7 C :   -0.149407
   8 S :    0.148434
   9 C :   -0.085339
  10 N :   -0.055421
  11 N :   -0.032220
  12 C :    0.065589
  13 C :   -0.027919
  14 C :    0.142037
  15 N :   -0.257021
  16 C :    0.095704
  17 C :    0.003659
  18 C :    0.164350
  19 O :   -0.212127
  20 C :   -0.061422
  21 C :   -0.059454
  22 C :    0.164333
  23 O :   -0.210280
  24 N :   -0.258180
  25 C :    0.098683
  26 C :    0.001004
  27 C :    0.142968
  28 C :   -0.029597
  29 C :    0.080121
  30 C :   -0.115339
  31 S :    0.123578
  32 C :   -0.102392
  33 N :   -0.045495
  34 N :   -0.041347
  35 C :    0.059955
  36 C :   -0.031303
  37 C :    0.160792
  38 O :   -0.181662
  39 C :    0.157617
  40 C :    0.004012
  41 C :   -0.106557
  42 C :   -0.184969
  43 N :    0.145181
  44 H :    0.030241
  45 H :    0.016047
  46 H :    0.013740
  47 H :    0.004941
  48 H :    0.029058
  49 H :    0.043265
  50 H :    0.020720
  51 H :    0.026485
  52 H :    0.026842
  53 H :    0.029644
  54 H :    0.042062
  55 H :    0.021954
  56 H :    0.027531
  57 H :    0.027346
  58 H :    0.004304
  59 H :    0.012837
  60 H :    0.004401
  61 H :    0.044515
  62 H :    0.023802
  63 H :    0.001864
Sum of atomic charges:    0.0000000

LOEWDIN ATOMIC CHARGES
----------------------
   0 C :    0.084700
   1 O :    0.036927
   2 C :   -0.001750
   3 C :   -0.002988
   4 C :   -0.111563
   5 C :   -0.031848
   6 N :   -0.044647
   7 C :   -0.164406
   8 S :    0.418856
   9 C :   -0.148439
  10 N :   -0.074431
  11 N :   -0.072042
  12 C :   -0.011827
  13 C :   -0.011170
  14 C :    0.071934
  15 N :    0.002383
  16 C :    0.036560
  17 C :   -0.060328
  18 C :    0.080424
  19 O :   -0.202053
  20 C :   -0.118799
  21 C :   -0.116137
  22 C :    0.081393
  23 O :   -0.200241
  24 N :    0.002318
  25 C :    0.037038
  26 C :   -0.060296
  27 C :    0.075763
  28 C :   -0.015303
  29 C :   -0.006760
  30 C :   -0.153420
  31 S :    0.404005
  32 C :   -0.148654
  33 N :   -0.073413
  34 N :   -0.071077
  35 C :   -0.042456
  36 C :    0.003354
  37 C :    0.052582
  38 O :    0.030261
  39 C :    0.053131
  40 C :   -0.041499
  41 C :   -0.102694
  42 C :   -0.034845
  43 N :   -0.047229
  44 H :    0.036588
  45 H :    0.048751
  46 H :    0.037556
  47 H :    0.037889
  48 H :    0.025804
  49 H :    0.037439
  50 H :    0.024343
  51 H :    0.032105
  52 H :    0.031126
  53 H :    0.026219
  54 H :    0.037147
  55 H :    0.024658
  56 H :    0.032473
  57 H :    0.031070
  58 H :    0.037845
  59 H :    0.037524
  60 H :    0.035217
  61 H :    0.053679
  62 H :    0.029688
  63 H :    0.041564

  Mayer bond orders larger than 0.100000
B(  0-C ,  1-O ) :   1.1881 B(  0-C ,  4-C ) :   1.5093 B(  0-C , 44-H ) :   1.0104
B(  1-O ,  2-C ) :   1.1699 B(  2-C ,  3-C ) :   1.5287 B(  2-C ,  7-C ) :   1.0180
B(  3-C ,  4-C ) :   1.2299 B(  3-C , 45-H ) :   1.0263 B(  4-C ,  5-C ) :   1.0822
B(  5-C ,  6-N ) :   3.0587 B(  7-C ,  8-S ) :   1.1100 B(  7-C , 11-N ) :   1.7485
B(  8-S ,  9-C ) :   1.0828 B(  9-C , 10-N ) :   1.6749 B(  9-C , 12-C ) :   1.0995
B( 10-N , 11-N ) :   1.2292 B( 12-C , 13-C ) :   1.6616 B( 12-C , 46-H ) :   0.9250
B( 13-C , 14-C ) :   1.1302 B( 13-C , 47-H ) :   0.9702 B( 14-C , 15-N ) :   1.1590
B( 14-C , 21-C ) :   1.3464 B( 15-N , 16-C ) :   0.9429 B( 15-N , 18-C ) :   1.0634
B( 16-C , 17-C ) :   1.1230 B( 16-C , 48-H ) :   0.9498 B( 16-C , 49-H ) :   0.9286
B( 17-C , 50-H ) :   0.9684 B( 17-C , 51-H ) :   0.9676 B( 17-C , 52-H ) :   0.9635
B( 18-C , 19-O ) :   2.0253 B( 18-C , 20-C ) :   0.9863 B( 19-O , 59-H ) :   0.1118
B( 20-C , 21-C ) :   1.2562 B( 20-C , 27-C ) :   1.3404 B( 21-C , 22-C ) :   0.9825
B( 22-C , 23-O ) :   2.0307 B( 22-C , 24-N ) :   1.0630 B( 23-O , 46-H ) :   0.1092
B( 24-N , 25-C ) :   0.9433 B( 24-N , 27-C ) :   1.1599 B( 25-C , 26-C ) :   1.1180
B( 25-C , 53-H ) :   0.9503 B( 25-C , 54-H ) :   0.9293 B( 26-C , 55-H ) :   0.9692
B( 26-C , 56-H ) :   0.9683 B( 26-C , 57-H ) :   0.9643 B( 27-C , 28-C ) :   1.1330
B( 28-C , 29-C ) :   1.6545 B( 28-C , 58-H ) :   0.9724 B( 29-C , 30-C ) :   1.1097
B( 29-C , 59-H ) :   0.9241 B( 30-C , 31-S ) :   1.0988 B( 30-C , 34-N ) :   1.6610
B( 31-S , 32-C ) :   1.0993 B( 32-C , 33-N ) :   1.6689 B( 32-C , 35-C ) :   1.0892
B( 33-N , 34-N ) :   1.2393 B( 35-C , 36-C ) :   1.6986 B( 35-C , 60-H ) :   0.9598
B( 36-C , 37-C ) :   1.1535 B( 36-C , 61-H ) :   0.9594 B( 37-C , 38-O ) :   1.1825
B( 37-C , 41-C ) :   1.4388 B( 38-O , 39-C ) :   1.1290 B( 39-C , 40-C ) :   1.5493
B( 39-C , 62-H ) :   1.0008 B( 40-C , 41-C ) :   1.2329 B( 40-C , 63-H ) :   1.0169
B( 41-C , 42-C ) :   1.1321 B( 42-C , 43-N ) :   3.0324

-----------------------------------------------------------------------------
         ABSORPTION SPECTRUM VIA TRANSITION ELECTRIC DIPOLE MOMENTS
-----------------------------------------------------------------------------
State   Energy  Wavelength   fosc         T2         TX        TY        TZ
        (cm-1)    (nm)                  (au**2)     (au)      (au)      (au)
-----------------------------------------------------------------------------
   0   15436.7    647.8   1.062685540  22.66337   3.31209   2.73419  -2.05369
   1   23860.7    419.1   0.012255142   0.16909  -0.32008  -0.25395   0.04636
   2   25962.1    385.2   0.720701929   9.13883  -2.39871  -1.79835   0.38850
   3   26602.3    375.9   0.040406656   0.50005   0.56406   0.41280  -0.10714
   4   27722.8    360.7   0.000984468   0.01169   0.04076   0.10007  -0.00385
   5   28577.5    349.9   0.285661643   3.29081  -1.45494  -1.07566   0.13001
   6   28767.0    347.6   0.038196197   0.43712   0.57975   0.31508  -0.04167
   7   29559.7    338.3   0.001172211   0.01306  -0.05147  -0.09776  -0.02914
   8   29692.0    336.8   0.552503217   6.12591  -2.03013  -1.37928  -0.31946
   9   32129.8    311.2   0.001322895   0.01355  -0.09697  -0.05921   0.02542
  10   33936.5    294.7   0.123771780   1.20069   0.89604   0.63048   0.01710
  11   34524.8    289.6   0.141244903   1.34684   0.59189   0.57471  -0.81622
  12   35622.9    280.7   0.006480418   0.05989   0.13592  -0.19828  -0.04580
  13   35894.9    278.6   0.193763877   1.77711  -1.08779  -0.75836  -0.13685
  14   38838.6    257.5   0.105772272   0.89657   0.77514   0.54037   0.06107
  15   39749.6    251.6   0.014356830   0.11891  -0.31637  -0.05757  -0.12450
  16   39804.8    251.2   0.007646156   0.06324   0.03690   0.22338   0.10944
  17   40166.9    249.0   0.086390295   0.70806  -0.66962  -0.49313   0.12842

FINAL SINGLE POINT ENERGY     -2687.845388540293

DIPOLE MOMENT
-------------
                                X             Y             Z
Electronic contribution:    -12.83567      -0.85759       1.00125
Nuclear contribution   :     14.48787       1.78534      -0.40370
                        -----------------------------------------
Total Dipole Moment    :      1.65220       0.92775       0.59755
                        -----------------------------------------
Magnitude (a.u.)       :      1.98684
Magnitude (Debye)      :      5.05016

Rotational constants in cm-1:     0.009096     0.000483     0.000460
Rotational constants in MHz :   272.679828    14.470534    13.793449

                             ****ORCA TERMINATED NORMALLY****
TOTAL RUN TIME: 0 days 0 hours 3 minutes 34 seconds 741 msec
