                         Program Version 4.2.0 -  RELEASE  -
|  1> # ORCA input file
|  2> # SCF done       -157.621099618856          0.000978208118
|  3> ! CAM-B3LYP def2-SVP def2/J RIJCOSX Grid4 TightSCF
|  4> %maxcore 5000
|  5> %tddft
|  6>     Mode sTDDFT
|  7>     Ethresh 5.0
|  8>     maxcore 5000
|  9> end
| 10>
| 11> %pal
| 12>   nprocs 6
| 13>   end
| 14> * xyz 0 1
| 15>    C        3.96035         0.29787         0.23633
| 16>    C        3.35616         0.35083        -0.94678
| 17>    C        2.32322         1.35894        -1.09579
| 18>    C        2.10934         2.11332        -0.00755
| 19>    S        3.24409         1.56430         1.29405
| 20>    O        2.51492         0.98765         2.38618
| 21>    O        4.19431         2.59611         1.59447
| 22>    C        1.22414         3.18030         0.25583
| 23>    S        1.21695         3.95825         1.82429
| 24>    C       -0.04055         4.98508         1.14825
| 25>    N       -0.32678         4.68183        -0.09452
| 26>    N        0.36216         3.69714        -0.58223
| 27>    C       -0.65147         6.03578         1.88564
| 28>    C       -1.60356         6.83259         1.34018
| 29>    C       -2.20103         7.90741         2.04757
| 30>    N       -3.14308         8.74856         1.50506
| 31>    C       -3.64900         8.71942         0.15354
| 32>    C       -2.66321         9.34130        -0.83208
| 33>    C       -3.55359         9.73729         2.41533
| 34>    O       -4.39794        10.57359         2.16668
| 35>    C       -2.78232         9.46442         3.61068
| 36>    C       -1.97592         8.32746         3.35767
| 37>    C       -1.22082         8.04304         4.55984
| 38>    O       -0.40606         7.18274         4.82390
| 39>    N       -1.61974         9.04290         5.46489
| 40>    C       -1.12830         9.06343         6.82232
| 41>    C       -2.16183         8.52640         7.80912
| 42>    C       -2.53969         9.89794         4.91123
| 43>    C       -3.07749        11.02816         5.58706
| 44>    C       -3.90639        11.89707         4.96968
| 45>    C       -4.49956        13.05687         5.57769
| 46>    C       -4.61837        14.27018         4.86608
| 47>    C       -3.98025        14.47630         3.55032
| 48>    O       -3.24702        13.74313         2.96129
| 49>    S       -4.40965        16.11557         2.94685
| 50>    C       -5.30046        16.54063         4.43873
| 51>    O       -5.80851        17.61040         4.60392
| 52>    C       -5.27394        15.38973         5.36917
| 53>    C       -5.87827        15.40675         6.64344
| 54>    C       -5.69817        14.22458         7.37782
| 55>    C       -5.04376        13.10220         6.87325
| 56>    C       -5.10890        12.05524         7.92425
| 57>    O       -4.75435        10.91681         7.91263
| 58>    O       -5.69562        12.62113         9.02557
| 59>    C       -6.04375        13.93083         8.79319
| 60>    O       -6.48089        14.63333         9.64758
| 61>    C       -6.61174        16.55302         7.12381
| 62>    C       -7.76224        16.47937         7.82116
| 63>    C       -8.52333        17.60446         8.23982
| 64>    C       -8.25711        18.91663         8.32898
| 65>    C       -9.34883        19.74742         8.80285
| 66>    C      -10.48409        19.11740         9.08572
| 67>    S      -10.24719        17.36103         8.76039
| 68>    O      -11.03937        16.93949         7.63909
| 69>    O      -10.33435        16.58688         9.96347
| 70>    H        4.74005        -0.35482         0.56890
| 71>    H        3.58767        -0.29719        -1.77799
| 72>    H        1.78414         1.47290        -2.02114
| 73>    H       -0.31708         6.18452         2.90271
| 74>    H       -1.90968         6.64449         0.32185
| 75>    H       -4.57380         9.30308         0.16502
| 76>    H       -3.88379         7.68929        -0.12668
| 77>    H       -2.46577        10.37438        -0.55669
| 78>    H       -3.08488         9.32298        -1.83299
| 79>    H       -1.72194         8.79658        -0.83877
| 80>    H       -0.82637        10.08059         7.08737
| 81>    H       -0.24273         8.42153         6.82870
| 82>    H       -3.06292         9.13494         7.81114
| 83>    H       -1.74085         8.52242         8.81076
| 84>    H       -2.43147         7.50718         7.54388
| 85>    H       -2.76272        11.19621         6.60522
| 86>    H       -4.12926        11.75402         3.91828
| 87>    H       -6.24231        17.51801         6.80870
| 88>    H       -8.21371        15.52501         8.05324
| 89>    H       -7.30682        19.36586         8.08929
| 90>    H       -9.19976        20.81149         8.90347
| 91>    H      -11.41042        19.52064         9.43892
| 92> *
| 93>
| 94>                          ****END OF INPUT****

CARTESIAN COORDINATES (ANGSTROEM)
---------------------------------
  C      3.960350    0.297870    0.236330
  C      3.356160    0.350830   -0.946780
  C      2.323220    1.358940   -1.095790
  C      2.109340    2.113320   -0.007550
  S      3.244090    1.564300    1.294050
  O      2.514920    0.987650    2.386180
  O      4.194310    2.596110    1.594470
  C      1.224140    3.180300    0.255830
  S      1.216950    3.958250    1.824290
  C     -0.040550    4.985080    1.148250
  N     -0.326780    4.681830   -0.094520
  N      0.362160    3.697140   -0.582230
  C     -0.651470    6.035780    1.885640
  C     -1.603560    6.832590    1.340180
  C     -2.201030    7.907410    2.047570
  N     -3.143080    8.748560    1.505060
  C     -3.649000    8.719420    0.153540
  C     -2.663210    9.341300   -0.832080
  C     -3.553590    9.737290    2.415330
  O     -4.397940   10.573590    2.166680
  C     -2.782320    9.464420    3.610680
  C     -1.975920    8.327460    3.357670
  C     -1.220820    8.043040    4.559840
  O     -0.406060    7.182740    4.823900
  N     -1.619740    9.042900    5.464890
  C     -1.128300    9.063430    6.822320
  C     -2.161830    8.526400    7.809120
  C     -2.539690    9.897940    4.911230
  C     -3.077490   11.028160    5.587060
  C     -3.906390   11.897070    4.969680
  C     -4.499560   13.056870    5.577690
  C     -4.618370   14.270180    4.866080
  C     -3.980250   14.476300    3.550320
  O     -3.247020   13.743130    2.961290
  S     -4.409650   16.115570    2.946850
  C     -5.300460   16.540630    4.438730
  O     -5.808510   17.610400    4.603920
  C     -5.273940   15.389730    5.369170
  C     -5.878270   15.406750    6.643440
  C     -5.698170   14.224580    7.377820
  C     -5.043760   13.102200    6.873250
  C     -5.108900   12.055240    7.924250
  O     -4.754350   10.916810    7.912630
  O     -5.695620   12.621130    9.025570
  C     -6.043750   13.930830    8.793190
  O     -6.480890   14.633330    9.647580
  C     -6.611740   16.553020    7.123810
  C     -7.762240   16.479370    7.821160
  C     -8.523330   17.604460    8.239820
  C     -8.257110   18.916630    8.328980
  C     -9.348830   19.747420    8.802850
  C    -10.484090   19.117400    9.085720
  S    -10.247190   17.361030    8.760390
  O    -11.039370   16.939490    7.639090
  O    -10.334350   16.586880    9.963470
  H      4.740050   -0.354820    0.568900
  H      3.587670   -0.297190   -1.777990
  H      1.784140    1.472900   -2.021140
  H     -0.317080    6.184520    2.902710
  H     -1.909680    6.644490    0.321850
  H     -4.573800    9.303080    0.165020
  H     -3.883790    7.689290   -0.126680
  H     -2.465770   10.374380   -0.556690
  H     -3.084880    9.322980   -1.832990
  H     -1.721940    8.796580   -0.838770
  H     -0.826370   10.080590    7.087370
  H     -0.242730    8.421530    6.828700
  H     -3.062920    9.134940    7.811140
  H     -1.740850    8.522420    8.810760
  H     -2.431470    7.507180    7.543880
  H     -2.762720   11.196210    6.605220
  H     -4.129260   11.754020    3.918280
  H     -6.242310   17.518010    6.808700
  H     -8.213710   15.525010    8.053240
  H     -7.306820   19.365860    8.089290
  H     -9.199760   20.811490    8.903470
  H    -11.410420   19.520640    9.438920

 Total Charge           Charge          ....    0
 Multiplicity           Mult            ....    1
 Number of Electrons    NEL             ....  418
 Basis Dimension        Dim             ....  896

ORBITAL ENERGIES
----------------

  NO   OCC          E(Eh)            E(eV)
   0   2.0000     -89.151916     -2425.9470
   1   2.0000     -89.142409     -2425.6883
   2   2.0000     -88.980564     -2421.2842
   3   2.0000     -88.960058     -2420.7263
   4   2.0000     -19.302145      -525.2381
   5   2.0000     -19.254348      -523.9374
   6   2.0000     -19.252143      -523.8774
   7   2.0000     -19.250382      -523.8295
   8   2.0000     -19.247741      -523.7577
   9   2.0000     -19.207480      -522.6621
  10   2.0000     -19.207395      -522.6598
  11   2.0000     -19.199689      -522.4501
  12   2.0000     -19.197333      -522.3860
  13   2.0000     -19.195969      -522.3489
  14   2.0000     -19.194988      -522.3222
  15   2.0000     -14.456815      -393.3899
  16   2.0000     -14.456111      -393.3708
  17   2.0000     -14.448715      -393.1695
  18   2.0000     -14.444602      -393.0576
  19   2.0000     -10.445451      -284.2352
  20   2.0000     -10.442553      -284.1563
  21   2.0000     -10.416800      -283.4555
  22   2.0000     -10.413607      -283.3686
  23   2.0000     -10.378287      -282.4075
  24   2.0000     -10.377226      -282.3787
  25   2.0000     -10.354325      -281.7555
  26   2.0000     -10.347127      -281.5596
  27   2.0000     -10.346638      -281.5463
  28   2.0000     -10.345590      -281.5178
  29   2.0000     -10.343448      -281.4595
  30   2.0000     -10.341881      -281.4169
  31   2.0000     -10.340196      -281.3710
  32   2.0000     -10.339582      -281.3543
  33   2.0000     -10.339490      -281.3518
  34   2.0000     -10.337742      -281.3043
  35   2.0000     -10.324299      -280.9385
  36   2.0000     -10.320593      -280.8376
  37   2.0000     -10.318378      -280.7773
  38   2.0000     -10.316536      -280.7272
  39   2.0000     -10.315310      -280.6938
  40   2.0000     -10.315134      -280.6891
  41   2.0000     -10.314517      -280.6723
  42   2.0000     -10.312836      -280.6265
  43   2.0000     -10.309463      -280.5348
  44   2.0000     -10.309077      -280.5242
  45   2.0000     -10.307202      -280.4732
  46   2.0000     -10.305687      -280.4320
  47   2.0000     -10.303075      -280.3609
  48   2.0000     -10.299596      -280.2663
  49   2.0000     -10.298271      -280.2302
  50   2.0000     -10.297981      -280.2223
  51   2.0000     -10.266257      -279.3591
  52   2.0000     -10.265622      -279.3418
  53   2.0000     -10.262810      -279.2653
  54   2.0000     -10.256082      -279.0822
  55   2.0000      -8.217938      -223.6215
  56   2.0000      -8.208570      -223.3665
  57   2.0000      -8.076748      -219.7795
  58   2.0000      -8.059303      -219.3048
  59   2.0000      -6.186911      -168.3544
  60   2.0000      -6.186591      -168.3457
  61   2.0000      -6.185970      -168.3288
  62   2.0000      -6.177434      -168.0965
  63   2.0000      -6.177206      -168.0903
  64   2.0000      -6.176684      -168.0761
  65   2.0000      -6.045314      -164.5014
  66   2.0000      -6.041829      -164.4065
  67   2.0000      -6.039286      -164.3373
  68   2.0000      -6.028182      -164.0352
  69   2.0000      -6.024882      -163.9454
  70   2.0000      -6.020341      -163.8218
  71   2.0000      -1.252958       -34.0947
  72   2.0000      -1.213680       -33.0259
  73   2.0000      -1.203956       -32.7613
  74   2.0000      -1.178902       -32.0795
  75   2.0000      -1.178068       -32.0569
  76   2.0000      -1.174359       -31.9559
  77   2.0000      -1.150308       -31.3015
  78   2.0000      -1.139750       -31.0142
  79   2.0000      -1.137831       -30.9620
  80   2.0000      -1.131249       -30.7829
  81   2.0000      -1.091345       -29.6970
  82   2.0000      -1.081909       -29.4402
  83   2.0000      -1.068088       -29.0642
  84   2.0000      -1.059546       -28.8317
  85   2.0000      -1.027964       -27.9723
  86   2.0000      -0.988237       -26.8913
  87   2.0000      -0.981003       -26.6944
  88   2.0000      -0.963168       -26.2091
  89   2.0000      -0.949390       -25.8342
  90   2.0000      -0.947441       -25.7812
  91   2.0000      -0.931160       -25.3382
  92   2.0000      -0.929148       -25.2834
  93   2.0000      -0.915787       -24.9198
  94   2.0000      -0.893207       -24.3054
  95   2.0000      -0.890190       -24.2233
  96   2.0000      -0.883957       -24.0537
  97   2.0000      -0.869625       -23.6637
  98   2.0000      -0.850701       -23.1488
  99   2.0000      -0.837905       -22.8005
 100   2.0000      -0.820057       -22.3149
 101   2.0000      -0.810425       -22.0528
 102   2.0000      -0.809987       -22.0409
 103   2.0000      -0.802959       -21.8496
 104   2.0000      -0.800796       -21.7908
 105   2.0000      -0.792931       -21.5767
 106   2.0000      -0.776889       -21.1402
 107   2.0000      -0.766983       -20.8707
 108   2.0000      -0.759890       -20.6777
 109   2.0000      -0.739813       -20.1313
 110   2.0000      -0.734617       -19.9900
 111   2.0000      -0.730107       -19.8672
 112   2.0000      -0.715695       -19.4751
 113   2.0000      -0.708108       -19.2686
 114   2.0000      -0.700089       -19.0504
 115   2.0000      -0.688690       -18.7402
 116   2.0000      -0.681533       -18.5455
 117   2.0000      -0.672157       -18.2903
 118   2.0000      -0.667423       -18.1615
 119   2.0000      -0.652368       -17.7518
 120   2.0000      -0.648887       -17.6571
 121   2.0000      -0.643930       -17.5222
 122   2.0000      -0.638726       -17.3806
 123   2.0000      -0.637184       -17.3387
 124   2.0000      -0.630334       -17.1523
 125   2.0000      -0.624989       -17.0068
 126   2.0000      -0.619260       -16.8509
 127   2.0000      -0.613006       -16.6807
 128   2.0000      -0.605578       -16.4786
 129   2.0000      -0.601633       -16.3713
 130   2.0000      -0.591819       -16.1042
 131   2.0000      -0.589017       -16.0280
 132   2.0000      -0.582695       -15.8559
 133   2.0000      -0.575506       -15.6603
 134   2.0000      -0.573337       -15.6013
 135   2.0000      -0.569093       -15.4858
 136   2.0000      -0.568065       -15.4578
 137   2.0000      -0.565263       -15.3816
 138   2.0000      -0.561386       -15.2761
 139   2.0000      -0.559907       -15.2358
 140   2.0000      -0.554409       -15.0862
 141   2.0000      -0.551739       -15.0136
 142   2.0000      -0.548728       -14.9317
 143   2.0000      -0.547934       -14.9100
 144   2.0000      -0.542654       -14.7664
 145   2.0000      -0.541827       -14.7439
 146   2.0000      -0.535335       -14.5672
 147   2.0000      -0.533249       -14.5104
 148   2.0000      -0.532486       -14.4897
 149   2.0000      -0.531566       -14.4646
 150   2.0000      -0.530302       -14.4303
 151   2.0000      -0.529778       -14.4160
 152   2.0000      -0.526694       -14.3321
 153   2.0000      -0.525534       -14.3005
 154   2.0000      -0.520785       -14.1713
 155   2.0000      -0.518339       -14.1047
 156   2.0000      -0.516740       -14.0612
 157   2.0000      -0.515068       -14.0157
 158   2.0000      -0.512833       -13.9549
 159   2.0000      -0.508544       -13.8382
 160   2.0000      -0.507604       -13.8126
 161   2.0000      -0.504570       -13.7300
 162   2.0000      -0.503348       -13.6968
 163   2.0000      -0.491492       -13.3742
 164   2.0000      -0.488369       -13.2892
 165   2.0000      -0.483592       -13.1592
 166   2.0000      -0.480536       -13.0761
 167   2.0000      -0.473756       -12.8916
 168   2.0000      -0.472279       -12.8514
 169   2.0000      -0.469214       -12.7680
 170   2.0000      -0.466526       -12.6948
 171   2.0000      -0.465984       -12.6801
 172   2.0000      -0.463175       -12.6036
 173   2.0000      -0.456966       -12.4347
 174   2.0000      -0.453162       -12.3312
 175   2.0000      -0.446650       -12.1540
 176   2.0000      -0.442064       -12.0292
 177   2.0000      -0.437509       -11.9052
 178   2.0000      -0.428958       -11.6725
 179   2.0000      -0.427121       -11.6226
 180   2.0000      -0.423380       -11.5207
 181   2.0000      -0.422596       -11.4994
 182   2.0000      -0.420951       -11.4547
 183   2.0000      -0.412408       -11.2222
 184   2.0000      -0.406852       -11.0710
 185   2.0000      -0.404310       -11.0018
 186   2.0000      -0.400344       -10.8939
 187   2.0000      -0.399329       -10.8663
 188   2.0000      -0.396879       -10.7996
 189   2.0000      -0.390241       -10.6190
 190   2.0000      -0.385280       -10.4840
 191   2.0000      -0.376920       -10.2565
 192   2.0000      -0.375764       -10.2251
 193   2.0000      -0.373603       -10.1663
 194   2.0000      -0.373015       -10.1503
 195   2.0000      -0.371971       -10.1218
 196   2.0000      -0.367492       -10.0000
 197   2.0000      -0.363220        -9.8837
 198   2.0000      -0.357162        -9.7189
 199   2.0000      -0.355418        -9.6714
 200   2.0000      -0.351204        -9.5567
 201   2.0000      -0.348124        -9.4729
 202   2.0000      -0.337350        -9.1798
 203   2.0000      -0.333755        -9.0819
 204   2.0000      -0.331486        -9.0202
 205   2.0000      -0.318475        -8.6662
 206   2.0000      -0.303579        -8.2608
 207   2.0000      -0.299895        -8.1606
 208   2.0000      -0.243497        -6.6259
 209   0.0000      -0.105170        -2.8618
 210   0.0000      -0.104065        -2.8318
 211   0.0000      -0.085523        -2.3272
 212   0.0000      -0.067539        -1.8378
 213   0.0000      -0.045868        -1.2481

MULLIKEN ATOMIC CHARGES
-----------------------
   0 C :   -0.005469
   1 C :    0.040301
   2 C :    0.002509
   3 C :    0.004168
   4 S :    0.729138
   5 O :   -0.441485
   6 O :   -0.441900
   7 C :   -0.084671
   8 S :    0.176552
   9 C :   -0.097113
  10 N :   -0.056548
  11 N :   -0.024051
  12 C :    0.072079
  13 C :   -0.023044
  14 C :    0.144761
  15 N :   -0.258929
  16 C :    0.098991
  17 C :    0.003154
  18 C :    0.180160
  19 O :   -0.206220
  20 C :   -0.061704
  21 C :   -0.065744
  22 C :    0.171105
  23 O :   -0.205517
  24 N :   -0.256836
  25 C :    0.097349
  26 C :   -0.004733
  27 C :    0.102875
  28 C :    0.044790
  29 C :   -0.048249
  30 C :    0.042518
  31 C :    0.034230
  32 C :    0.036614
  33 O :   -0.109228
  34 S :    0.031422
  35 C :    0.041552
  36 O :   -0.129531
  37 C :    0.039778
  38 C :    0.022246
  39 C :   -0.075189
  40 C :   -0.068795
  41 C :    0.232096
  42 O :   -0.093372
  43 O :   -0.220655
  44 C :    0.223568
  45 O :   -0.085085
  46 C :   -0.037083
  47 C :    0.143580
  48 C :   -0.091416
  49 C :    0.020894
  50 C :    0.039272
  51 C :   -0.005187
  52 S :    0.742012
  53 O :   -0.452050
  54 O :   -0.441428
  55 H :    0.055324
  56 H :    0.023992
  57 H :    0.024220
  58 H :    0.015761
  59 H :    0.004589
  60 H :    0.043684
  61 H :    0.027575
  62 H :    0.030543
  63 H :    0.024809
  64 H :    0.020482
  65 H :    0.018788
  66 H :    0.044630
  67 H :    0.032272
  68 H :    0.021380
  69 H :    0.024214
  70 H :   -0.019454
  71 H :    0.054998
  72 H :    0.026660
  73 H :    0.011608
  74 H :    0.012918
  75 H :    0.021020
  76 H :    0.053503
Sum of atomic charges:    0.0000000

LOEWDIN ATOMIC CHARGES
----------------------
   0 C :   -0.142878
   1 C :   -0.011860
   2 C :    0.001594
   3 C :   -0.174643
   4 S :    1.154366
   5 O :   -0.485341
   6 O :   -0.485762
   7 C :   -0.171581
   8 S :    0.448149
   9 C :   -0.148826
  10 N :   -0.074482
  11 N :   -0.065125
  12 C :   -0.006437
  13 C :   -0.011120
  14 C :    0.076535
  15 N :    0.002577
  16 C :    0.037402
  17 C :   -0.059967
  18 C :    0.084617
  19 O :   -0.191464
  20 C :   -0.111851
  21 C :   -0.116454
  22 C :    0.081747
  23 O :   -0.194887
  24 N :    0.003832
  25 C :    0.036321
  26 C :   -0.063639
  27 C :    0.074095
  28 C :   -0.005279
  29 C :    0.008015
  30 C :    0.028814
  31 C :   -0.047078
  32 C :   -0.042051
  33 O :   -0.091088
  34 S :    0.312872
  35 C :   -0.044484
  36 O :   -0.112187
  37 C :   -0.047963
  38 C :    0.025771
  39 C :   -0.043639
  40 C :   -0.044204
  41 C :    0.110514
  42 O :   -0.095070
  43 O :   -0.050301
  44 C :    0.104482
  45 O :   -0.083885
  46 C :   -0.010744
  47 C :    0.008903
  48 C :   -0.147889
  49 C :   -0.010160
  50 C :   -0.016671
  51 C :   -0.141964
  52 S :    1.163356
  53 O :   -0.493693
  54 O :   -0.484455
  55 H :    0.040422
  56 H :    0.042737
  57 H :    0.046143
  58 H :    0.038825
  59 H :    0.037715
  60 H :    0.037781
  61 H :    0.025548
  62 H :    0.032543
  63 H :    0.031691
  64 H :    0.024219
  65 H :    0.021530
  66 H :    0.037513
  67 H :    0.025042
  68 H :    0.030727
  69 H :    0.030862
  70 H :    0.029162
  71 H :    0.043023
  72 H :    0.035897
  73 H :    0.035677
  74 H :    0.037990
  75 H :    0.040802
  76 H :    0.039312

  Mayer bond orders larger than 0.100000
B(  0-C ,  1-C ) :   1.7739 B(  0-C ,  4-S ) :   0.8268 B(  0-C , 55-H ) :   0.9782
B(  1-C ,  2-C ) :   1.0557 B(  1-C , 56-H ) :   0.9907 B(  2-C ,  3-C ) :   1.7297
B(  2-C , 57-H ) :   1.0051 B(  3-C ,  4-S ) :   0.8001 B(  3-C ,  7-C ) :   1.1250
B(  4-S ,  5-O ) :   1.7187 B(  4-S ,  6-O ) :   1.7178 B(  7-C ,  8-S ) :   1.1325
B(  7-C , 11-N ) :   1.6902 B(  8-S ,  9-C ) :   1.1153 B(  9-C , 10-N ) :   1.6384
B(  9-C , 12-C ) :   1.1113 B( 10-N , 11-N ) :   1.2590 B( 12-C , 13-C ) :   1.6559
B( 12-C , 58-H ) :   0.9253 B( 13-C , 14-C ) :   1.1330 B( 13-C , 59-H ) :   0.9698
B( 14-C , 15-N ) :   1.1633 B( 14-C , 21-C ) :   1.3397 B( 15-N , 16-C ) :   0.9419
B( 15-N , 18-C ) :   1.0595 B( 16-C , 17-C ) :   1.1226 B( 16-C , 60-H ) :   0.9284
B( 16-C , 61-H ) :   0.9503 B( 17-C , 62-H ) :   0.9635 B( 17-C , 63-H ) :   0.9678
B( 17-C , 64-H ) :   0.9685 B( 18-C , 19-O ) :   2.0276 B( 18-C , 20-C ) :   0.9783
B( 19-O , 71-H ) :   0.1114 B( 20-C , 21-C ) :   1.2605 B( 20-C , 27-C ) :   1.3472
B( 21-C , 22-C ) :   0.9829 B( 22-C , 23-O ) :   2.0321 B( 22-C , 24-N ) :   1.0587
B( 23-O , 58-H ) :   0.1096 B( 24-N , 25-C ) :   0.9400 B( 24-N , 27-C ) :   1.1653
B( 25-C , 26-C ) :   1.1201 B( 25-C , 65-H ) :   0.9497 B( 25-C , 66-H ) :   0.9283
B( 26-C , 67-H ) :   0.9632 B( 26-C , 68-H ) :   0.9660 B( 26-C , 69-H ) :   0.9608
B( 27-C , 28-C ) :   1.1688 B( 28-C , 29-C ) :   1.6742 B( 28-C , 70-H ) :   0.9519
B( 29-C , 30-C ) :   1.0886 B( 29-C , 71-H ) :   0.9068 B( 30-C , 31-C ) :   1.3555
B( 30-C , 40-C ) :   1.3255 B( 31-C , 32-C ) :   0.8482 B( 31-C , 37-C ) :   1.3236
B( 32-C , 33-O ) :   2.1818 B( 32-C , 34-S ) :   1.0205 B( 33-O , 34-S ) :   0.1058
B( 34-S , 35-C ) :   1.0449 B( 34-S , 36-O ) :   0.1075 B( 35-C , 36-O ) :   2.1532
B( 35-C , 37-C ) :   0.8474 B( 37-C , 38-C ) :   1.3609 B( 38-C , 39-C ) :   1.3302
B( 38-C , 46-C ) :   1.1059 B( 39-C , 40-C ) :   1.3690 B( 39-C , 44-C ) :   0.8973
B( 40-C , 41-C ) :   0.9007 B( 41-C , 42-O ) :   2.2136 B( 41-C , 43-O ) :   1.0666
B( 43-O , 44-C ) :   1.0445 B( 44-C , 45-O ) :   2.2727 B( 46-C , 47-C ) :   1.7357
B( 46-C , 72-H ) :   0.9406 B( 47-C , 48-C ) :   1.1335 B( 47-C , 73-H ) :   0.9459
B( 48-C , 49-C ) :   1.7129 B( 48-C , 52-S ) :   0.8006 B( 49-C , 50-C ) :   1.0818
B( 49-C , 74-H ) :   0.9890 B( 50-C , 51-C ) :   1.7792 B( 50-C , 75-H ) :   0.9901
B( 51-C , 52-S ) :   0.8269 B( 51-C , 76-H ) :   0.9751 B( 52-S , 53-O ) :   1.7206
B( 52-S , 54-O ) :   1.7268

-----------------------------------------------------------------------------
         ABSORPTION SPECTRUM VIA TRANSITION ELECTRIC DIPOLE MOMENTS
-----------------------------------------------------------------------------
State   Energy  Wavelength   fosc         T2         TX        TY        TZ
        (cm-1)    (nm)                  (au**2)     (au)      (au)      (au)
-----------------------------------------------------------------------------
   0   14453.8    691.9   0.449060742  10.22821   1.10869  -2.56780  -1.55095
   1   15013.0    666.1   0.412826068   9.05266   1.13654  -2.00588  -1.93324
   2   20995.6    476.3   0.013304265   0.20861  -0.12467   0.26013   0.35412
   3   23710.5    421.8   0.036213659   0.50281  -0.16218  -0.31358   0.61496
   4   25162.2    397.4   0.116952814   1.53016   0.98212  -0.71246   0.24082
   5   26043.3    384.0   0.015442822   0.19521  -0.32211   0.28728  -0.09448
   6   27240.2    367.1   0.765920151   9.25655  -1.94256   2.10613   1.02336
   7   27545.9    363.0   0.024397080   0.29158   0.01278  -0.15649   0.51665
   8   27598.6    362.3   0.022437600   0.26765   0.27393  -0.21995  -0.37978
   9   27922.6    358.1   0.029829328   0.35169   0.37764  -0.34856   0.29595
  10   28075.1    356.2   0.172947191   2.02800  -0.99303   0.99110   0.24417
  11   28436.5    351.7   0.427117049   4.94478   1.25489  -1.76571  -0.50229
  12   31204.7    320.5   0.016929843   0.17861   0.28067  -0.15223  -0.27688
  13   31385.9    318.6   0.008096419   0.08492   0.14135  -0.23021  -0.10930
  14   31792.0    314.5   0.007462148   0.07727  -0.15622   0.22992   0.00200
  15   31934.5    313.1   0.070896046   0.73086  -0.37851   0.75268  -0.14516
  16   33044.7    302.6   0.025794926   0.25698   0.38925  -0.01948  -0.32418
  17   33150.5    301.7   0.146051974   1.45042   0.69741  -0.97318   0.13021
  18   33691.0    296.8   0.016360683   0.15987   0.36205  -0.10963   0.12951
  19   33812.3    295.8   0.034499783   0.33591   0.41139  -0.38963   0.12188
  20   33958.1    294.5   0.005805829   0.05629   0.10069  -0.21456   0.01056
  21   34466.5    290.1   0.016601239   0.15857  -0.16276   0.32221  -0.16811
  22   34549.2    289.4   0.019239538   0.18333  -0.26035   0.33426   0.06176
  23   34829.3    287.1   0.010837638   0.10244   0.05999  -0.31290   0.03060
  24   34907.6    286.5   0.013254675   0.12500  -0.33382   0.09065   0.07313
  25   35318.9    283.1   0.009196168   0.08572   0.22641   0.04201  -0.18081
  26   36253.7    275.8   0.000112866   0.00102  -0.00470   0.03151  -0.00316
  27   36549.5    273.6   0.030248754   0.27246  -0.30211   0.33541  -0.26208
  28   36583.1    273.4   0.063183616   0.56859   0.28605  -0.67625  -0.17161
  29   38344.4    260.8   0.100018383   0.85872   0.42452  -0.00246  -0.82371
  30   38541.0    259.5   0.004292842   0.03667   0.09085  -0.12845  -0.10915
  31   38633.0    258.8   0.007245869   0.06175  -0.15689   0.19241  -0.01043
  32   39007.2    256.4   0.008551900   0.07218   0.20594   0.17239  -0.00686
  33   39094.6    255.8   0.024070170   0.20269   0.13196  -0.41510  -0.11390
  34   39208.1    255.0   0.024563929   0.20625   0.31765  -0.21725  -0.24115
  35   39626.7    252.4   0.013307643   0.11056   0.30368   0.10933  -0.07988
  36   39702.1    251.9   0.033106637   0.27452   0.21782   0.44421  -0.17250
  37   39781.1    251.4   0.042753068   0.35381   0.45802   0.36986  -0.08504
  38   40186.1    248.8   0.029522323   0.24185   0.33894  -0.33282   0.12729

FINAL SINGLE POINT ENERGY     -4020.665369915805

DIPOLE MOMENT
-------------
                                X             Y             Z
Electronic contribution:     -4.47589      10.80171       7.24827
Nuclear contribution   :      5.80458      -9.86262      -8.71968
                        -----------------------------------------
Total Dipole Moment    :      1.32869       0.93909      -1.47141
                        -----------------------------------------
Magnitude (a.u.)       :      2.19371
Magnitude (Debye)      :      5.57596

Rotational constants in cm-1:     0.004381     0.000378     0.000361
Rotational constants in MHz :   131.325148    11.331308    10.830897

                             ****ORCA TERMINATED NORMALLY****
TOTAL RUN TIME: 0 days 0 hours 5 minutes 40 seconds 125 msec
