                         Program Version 4.2.0 -  RELEASE  -
|  1> # ORCA input file
|  2> # SCF done       -175.242041587239          0.000420053442
|  3> ! CAM-B3LYP def2-SVP def2/J RIJCOSX Grid4 TightSCF
|  4> %maxcore 5000
|  5> %tddft
|  6>     Mode sTDDFT
|  7>     Ethresh 5.0
|  8>     maxcore 5000
|  9> end
| 10>
| 11> %pal
| 12>   nprocs 6
| 13>   end
| 14> * xyz 0 1
| 15>    C       -3.86327         0.53872        -0.50915
| 16>    S       -3.67372        -1.06772         0.09267
| 17>    C       -3.72054         0.57029        -1.85851
| 18>    C       -3.76070         1.55949        -2.95390
| 19>    O       -3.95699         2.74673        -2.92775
| 20>    N       -3.51750         0.81662        -4.10522
| 21>    C       -3.47165         1.40340        -5.42163
| 22>    C       -3.32543        -0.54499        -3.88031
| 23>    O       -3.10624        -1.36243        -4.73928
| 24>    C       -3.45630        -0.70289        -2.42747
| 25>    C       -3.39484        -1.72701        -1.51459
| 26>    C       -3.15135        -3.09957        -1.77887
| 27>    C       -3.12087        -4.06287        -0.83080
| 28>    C       -2.88170        -5.44129        -1.08037
| 29>    S       -2.91086        -6.56793         0.24803
| 30>    C       -2.56424        -7.91392        -0.80005
| 31>    C       -2.43411        -7.46977        -2.12069
| 32>    C       -2.61439        -6.08818        -2.26990
| 33>    C       -2.15375        -8.32249        -3.20507
| 34>    N       -1.92643        -8.97985        -4.11601
| 35>    C       -2.44868        -9.24043        -0.33769
| 36>    C       -2.62227        -9.59687         0.96632
| 37>    C       -2.52184       -10.92673         1.42519
| 38>    N       -2.71218       -11.30427         2.73377
| 39>    C       -2.96540       -10.43401         3.85639
| 40>    C       -1.69427        -9.73303         4.32956
| 41>    C       -2.57348       -12.69246         2.90869
| 42>    O       -2.70130       -13.24742         3.98057
| 43>    C       -2.27801       -13.19252         1.58241
| 44>    C       -2.24998       -12.09144         0.70021
| 45>    C       -1.95020       -12.58581        -0.62664
| 46>    O       -1.82843       -12.02142        -1.69468
| 47>    N       -1.81708       -13.97254        -0.45676
| 48>    C       -1.47585       -14.82690        -1.56884
| 49>    C        0.00723       -15.18922        -1.57448
| 50>    C       -2.00735       -14.35716         0.85201
| 51>    C       -1.94229       -15.69287         1.29544
| 52>    C       -2.18783       -16.05772         2.58889
| 53>    C       -2.14059       -17.38411         3.06916
| 54>    C       -2.47874       -17.78783         4.34935
| 55>    C       -2.31023       -19.19244         4.46255
| 56>    C       -1.81805       -19.64995         3.14748
| 57>    C       -1.73352       -18.57085         2.32784
| 58>    C       -1.49654       -20.95862         2.77094
| 59>    N       -1.21978       -22.01651         2.41791
| 60>    C       -2.56385       -19.99407         5.55490
| 61>    C       -2.35982       -21.39926         5.66088
| 62>    C       -2.76056       -21.81991         6.90937
| 63>    C       -3.24376       -20.66129         7.64672
| 64>    C       -3.12243       -19.56672         6.85017
| 65>    C       -3.49012       -18.26702         7.21672
| 66>    N       -3.80072       -17.21144         7.54629
| 67>    C       -2.71117       -23.14947         7.40153
| 68>    S       -2.01217       -24.41691         6.41135
| 69>    C       -3.13479       -23.69648         8.59535
| 70>    C       -3.79314       -23.23898         9.82897
| 71>    O       -4.16969       -22.14339        10.16905
| 72>    N       -3.92307       -24.38220        10.60748
| 73>    C       -4.53220       -24.37743        11.91427
| 74>    C       -3.41785       -25.53208        10.01666
| 75>    O       -3.43783       -26.62215        10.53518
| 76>    C       -2.90596       -25.09194         8.70845
| 77>    C       -2.29726       -25.65478         7.60931
| 78>    C       -1.88732       -26.99858         7.31363
| 79>    C       -2.03980       -28.03606         8.13621
| 80>    H       -4.06474         1.34156         0.17152
| 81>    H       -3.75291         2.45086        -5.32948
| 82>    H       -4.16523         0.88286        -6.08246
| 83>    H       -2.46508         1.32413        -5.83510
| 84>    H       -2.99068        -3.33240        -2.82246
| 85>    H       -3.29257        -3.78664         0.20234
| 86>    H       -2.54857        -5.58797        -3.21912
| 87>    H       -2.21396        -9.99307        -1.08130
| 88>    H       -2.86010        -8.82794         1.68982
| 89>    H       -3.34803       -11.07594         4.65480
| 90>    H       -3.73642        -9.70593         3.58905
| 91>    H       -0.95559       -10.47087         4.63262
| 92>    H       -1.92039        -9.09852         5.18184
| 93>    H       -1.26716        -9.11976         3.53898
| 94>    H       -1.71531       -14.25704        -2.47104
| 95>    H       -2.09911       -15.72527        -1.54469
| 96>    H        0.60796       -14.28671        -1.65452
| 97>    H        0.22609       -15.82775        -2.42576
| 98>    H        0.28810       -15.71125        -0.66220
| 99>    H       -1.70291       -16.44879         0.56189
|100>    H       -2.44732       -15.29564         3.31217
|101>    H       -2.81983       -17.14143         5.13408
|102>    H       -1.40812       -18.58947         1.30430
|103>    H       -1.95620       -22.02494         4.88867
|104>    H       -3.62908       -20.69304         8.64813
|105>    H       -4.89051       -23.36838        12.10987
|106>    H       -3.80153       -24.66709        12.67068
|107>    H       -5.36306       -25.08322        11.93878
|108>    H       -1.42553       -27.12523         6.34266
|109>    H       -2.49611       -27.93128         9.10571
|110>    H       -1.70720       -29.01911         7.85143
|111> *
|112>
|113>                          ****END OF INPUT****

CARTESIAN COORDINATES (ANGSTROEM)
---------------------------------
  C     -3.863270    0.538720   -0.509150
  S     -3.673720   -1.067720    0.092670
  C     -3.720540    0.570290   -1.858510
  C     -3.760700    1.559490   -2.953900
  O     -3.956990    2.746730   -2.927750
  N     -3.517500    0.816620   -4.105220
  C     -3.471650    1.403400   -5.421630
  C     -3.325430   -0.544990   -3.880310
  O     -3.106240   -1.362430   -4.739280
  C     -3.456300   -0.702890   -2.427470
  C     -3.394840   -1.727010   -1.514590
  C     -3.151350   -3.099570   -1.778870
  C     -3.120870   -4.062870   -0.830800
  C     -2.881700   -5.441290   -1.080370
  S     -2.910860   -6.567930    0.248030
  C     -2.564240   -7.913920   -0.800050
  C     -2.434110   -7.469770   -2.120690
  C     -2.614390   -6.088180   -2.269900
  C     -2.153750   -8.322490   -3.205070
  N     -1.926430   -8.979850   -4.116010
  C     -2.448680   -9.240430   -0.337690
  C     -2.622270   -9.596870    0.966320
  C     -2.521840  -10.926730    1.425190
  N     -2.712180  -11.304270    2.733770
  C     -2.965400  -10.434010    3.856390
  C     -1.694270   -9.733030    4.329560
  C     -2.573480  -12.692460    2.908690
  O     -2.701300  -13.247420    3.980570
  C     -2.278010  -13.192520    1.582410
  C     -2.249980  -12.091440    0.700210
  C     -1.950200  -12.585810   -0.626640
  O     -1.828430  -12.021420   -1.694680
  N     -1.817080  -13.972540   -0.456760
  C     -1.475850  -14.826900   -1.568840
  C      0.007230  -15.189220   -1.574480
  C     -2.007350  -14.357160    0.852010
  C     -1.942290  -15.692870    1.295440
  C     -2.187830  -16.057720    2.588890
  C     -2.140590  -17.384110    3.069160
  C     -2.478740  -17.787830    4.349350
  C     -2.310230  -19.192440    4.462550
  C     -1.818050  -19.649950    3.147480
  C     -1.733520  -18.570850    2.327840
  C     -1.496540  -20.958620    2.770940
  N     -1.219780  -22.016510    2.417910
  C     -2.563850  -19.994070    5.554900
  C     -2.359820  -21.399260    5.660880
  C     -2.760560  -21.819910    6.909370
  C     -3.243760  -20.661290    7.646720
  C     -3.122430  -19.566720    6.850170
  C     -3.490120  -18.267020    7.216720
  N     -3.800720  -17.211440    7.546290
  C     -2.711170  -23.149470    7.401530
  S     -2.012170  -24.416910    6.411350
  C     -3.134790  -23.696480    8.595350
  C     -3.793140  -23.238980    9.828970
  O     -4.169690  -22.143390   10.169050
  N     -3.923070  -24.382200   10.607480
  C     -4.532200  -24.377430   11.914270
  C     -3.417850  -25.532080   10.016660
  O     -3.437830  -26.622150   10.535180
  C     -2.905960  -25.091940    8.708450
  C     -2.297260  -25.654780    7.609310
  C     -1.887320  -26.998580    7.313630
  C     -2.039800  -28.036060    8.136210
  H     -4.064740    1.341560    0.171520
  H     -3.752910    2.450860   -5.329480
  H     -4.165230    0.882860   -6.082460
  H     -2.465080    1.324130   -5.835100
  H     -2.990680   -3.332400   -2.822460
  H     -3.292570   -3.786640    0.202340
  H     -2.548570   -5.587970   -3.219120
  H     -2.213960   -9.993070   -1.081300
  H     -2.860100   -8.827940    1.689820
  H     -3.348030  -11.075940    4.654800
  H     -3.736420   -9.705930    3.589050
  H     -0.955590  -10.470870    4.632620
  H     -1.920390   -9.098520    5.181840
  H     -1.267160   -9.119760    3.538980
  H     -1.715310  -14.257040   -2.471040
  H     -2.099110  -15.725270   -1.544690
  H      0.607960  -14.286710   -1.654520
  H      0.226090  -15.827750   -2.425760
  H      0.288100  -15.711250   -0.662200
  H     -1.702910  -16.448790    0.561890
  H     -2.447320  -15.295640    3.312170
  H     -2.819830  -17.141430    5.134080
  H     -1.408120  -18.589470    1.304300
  H     -1.956200  -22.024940    4.888670
  H     -3.629080  -20.693040    8.648130
  H     -4.890510  -23.368380   12.109870
  H     -3.801530  -24.667090   12.670680
  H     -5.363060  -25.083220   11.938780
  H     -1.425530  -27.125230    6.342660
  H     -2.496110  -27.931280    9.105710
  H     -1.707200  -29.019110    7.851430

 Total Charge           Charge          ....    0
 Multiplicity           Mult            ....    1
 Number of Electrons    NEL             ....  470
 Basis Dimension        Dim             .... 1077

ORBITAL ENERGIES
----------------

  NO   OCC          E(Eh)            E(eV)
   0   2.0000     -88.983509     -2421.3644
   1   2.0000     -88.982335     -2421.3324
   2   2.0000     -88.979159     -2421.2460
   3   2.0000     -19.218960      -522.9745
   4   2.0000     -19.216398      -522.9048
   5   2.0000     -19.213891      -522.8365
   6   2.0000     -19.211393      -522.7686
   7   2.0000     -19.196264      -522.3569
   8   2.0000     -19.193188      -522.2732
   9   2.0000     -14.461598      -393.5201
  10   2.0000     -14.458716      -393.4417
  11   2.0000     -14.457965      -393.4212
  12   2.0000     -14.456497      -393.3813
  13   2.0000     -14.411178      -392.1481
  14   2.0000     -14.406370      -392.0173
  15   2.0000     -14.401280      -391.8787
  16   2.0000     -10.402306      -283.0611
  17   2.0000     -10.398519      -282.9581
  18   2.0000     -10.396525      -282.9038
  19   2.0000     -10.396366      -282.8995
  20   2.0000     -10.378593      -282.4159
  21   2.0000     -10.375970      -282.3445
  22   2.0000     -10.344332      -281.4836
  23   2.0000     -10.342630      -281.4373
  24   2.0000     -10.336620      -281.2737
  25   2.0000     -10.335804      -281.2515
  26   2.0000     -10.335612      -281.2463
  27   2.0000     -10.332938      -281.1735
  28   2.0000     -10.330218      -281.0995
  29   2.0000     -10.328850      -281.0623
  30   2.0000     -10.325175      -280.9623
  31   2.0000     -10.322472      -280.8888
  32   2.0000     -10.321873      -280.8725
  33   2.0000     -10.317827      -280.7623
  34   2.0000     -10.313282      -280.6387
  35   2.0000     -10.312564      -280.6191
  36   2.0000     -10.310906      -280.5740
  37   2.0000     -10.310777      -280.5705
  38   2.0000     -10.310474      -280.5623
  39   2.0000     -10.309522      -280.5364
  40   2.0000     -10.309500      -280.5358
  41   2.0000     -10.306502      -280.4542
  42   2.0000     -10.306253      -280.4474
  43   2.0000     -10.305425      -280.4249
  44   2.0000     -10.304638      -280.4035
  45   2.0000     -10.304233      -280.3924
  46   2.0000     -10.303290      -280.3668
  47   2.0000     -10.303250      -280.3657
  48   2.0000     -10.302782      -280.3530
  49   2.0000     -10.301324      -280.3133
  50   2.0000     -10.301302      -280.3127
  51   2.0000     -10.300078      -280.2794
  52   2.0000     -10.299407      -280.2611
  53   2.0000     -10.298204      -280.2284
  54   2.0000     -10.296542      -280.1832
  55   2.0000     -10.296402      -280.1793
  56   2.0000     -10.296131      -280.1720
  57   2.0000     -10.292482      -280.0727
  58   2.0000     -10.287078      -279.9256
  59   2.0000     -10.284275      -279.8494
  60   2.0000     -10.278256      -279.6856
  61   2.0000     -10.268390      -279.4171
  62   2.0000     -10.268009      -279.4067
  63   2.0000     -10.266616      -279.3688
  64   2.0000     -10.266400      -279.3630
  65   2.0000      -8.078969      -219.8399
  66   2.0000      -8.077785      -219.8077
  67   2.0000      -8.074457      -219.7171
  68   2.0000      -6.048342      -164.5837
  69   2.0000      -6.046890      -164.5442
  70   2.0000      -6.043892      -164.4627
  71   2.0000      -6.043755      -164.4589
  72   2.0000      -6.042965      -164.4374
  73   2.0000      -6.041212      -164.3897
  74   2.0000      -6.040087      -164.3591
  75   2.0000      -6.039481      -164.3426
  76   2.0000      -6.036617      -164.2647
  77   2.0000      -1.164592       -31.6902
  78   2.0000      -1.159323       -31.5468
  79   2.0000      -1.140698       -31.0400
  80   2.0000      -1.138209       -30.9722
  81   2.0000      -1.135828       -30.9074
  82   2.0000      -1.131145       -30.7800
  83   2.0000      -1.068299       -29.0699
  84   2.0000      -1.059807       -28.8388
  85   2.0000      -1.054810       -28.7028
  86   2.0000      -1.051315       -28.6077
  87   2.0000      -1.017827       -27.6965
  88   2.0000      -1.017335       -27.6831
  89   2.0000      -1.007519       -27.4160
  90   2.0000      -1.005364       -27.3573
  91   2.0000      -0.995900       -27.0998
  92   2.0000      -0.985481       -26.8163
  93   2.0000      -0.984927       -26.8012
  94   2.0000      -0.976418       -26.5697
  95   2.0000      -0.936123       -25.4732
  96   2.0000      -0.931408       -25.3449
  97   2.0000      -0.917146       -24.9568
  98   2.0000      -0.911451       -24.8018
  99   2.0000      -0.906084       -24.6558
 100   2.0000      -0.897737       -24.4287
 101   2.0000      -0.891824       -24.2678
 102   2.0000      -0.878528       -23.9060
 103   2.0000      -0.876513       -23.8511
 104   2.0000      -0.866399       -23.5759
 105   2.0000      -0.858720       -23.3670
 106   2.0000      -0.855280       -23.2734
 107   2.0000      -0.846663       -23.0389
 108   2.0000      -0.829701       -22.5773
 109   2.0000      -0.824650       -22.4399
 110   2.0000      -0.823740       -22.4151
 111   2.0000      -0.801558       -21.8115
 112   2.0000      -0.800854       -21.7924
 113   2.0000      -0.799923       -21.7670
 114   2.0000      -0.784294       -21.3417
 115   2.0000      -0.767001       -20.8712
 116   2.0000      -0.764527       -20.8038
 117   2.0000      -0.757576       -20.6147
 118   2.0000      -0.754154       -20.5216
 119   2.0000      -0.738160       -20.0864
 120   2.0000      -0.732555       -19.9338
 121   2.0000      -0.721350       -19.6289
 122   2.0000      -0.717072       -19.5125
 123   2.0000      -0.715286       -19.4639
 124   2.0000      -0.709939       -19.3184
 125   2.0000      -0.700478       -19.0610
 126   2.0000      -0.694097       -18.8873
 127   2.0000      -0.690691       -18.7947
 128   2.0000      -0.682601       -18.5745
 129   2.0000      -0.675942       -18.3933
 130   2.0000      -0.670458       -18.2441
 131   2.0000      -0.663697       -18.0601
 132   2.0000      -0.657694       -17.8968
 133   2.0000      -0.653297       -17.7771
 134   2.0000      -0.642372       -17.4798
 135   2.0000      -0.633750       -17.2452
 136   2.0000      -0.629934       -17.1414
 137   2.0000      -0.626734       -17.0543
 138   2.0000      -0.617293       -16.7974
 139   2.0000      -0.609184       -16.5767
 140   2.0000      -0.596650       -16.2357
 141   2.0000      -0.592602       -16.1255
 142   2.0000      -0.586424       -15.9574
 143   2.0000      -0.583693       -15.8831
 144   2.0000      -0.582682       -15.8556
 145   2.0000      -0.580110       -15.7856
 146   2.0000      -0.573828       -15.6146
 147   2.0000      -0.572919       -15.5899
 148   2.0000      -0.565469       -15.3872
 149   2.0000      -0.560751       -15.2588
 150   2.0000      -0.559514       -15.2252
 151   2.0000      -0.556488       -15.1428
 152   2.0000      -0.554285       -15.0829
 153   2.0000      -0.552541       -15.0354
 154   2.0000      -0.549836       -14.9618
 155   2.0000      -0.543186       -14.7808
 156   2.0000      -0.542449       -14.7608
 157   2.0000      -0.538109       -14.6427
 158   2.0000      -0.535063       -14.5598
 159   2.0000      -0.532166       -14.4810
 160   2.0000      -0.528377       -14.3779
 161   2.0000      -0.525931       -14.3113
 162   2.0000      -0.523493       -14.2450
 163   2.0000      -0.520337       -14.1591
 164   2.0000      -0.519304       -14.1310
 165   2.0000      -0.518862       -14.1190
 166   2.0000      -0.517858       -14.0916
 167   2.0000      -0.514963       -14.0129
 168   2.0000      -0.510875       -13.9016
 169   2.0000      -0.510648       -13.8955
 170   2.0000      -0.508979       -13.8500
 171   2.0000      -0.507982       -13.8229
 172   2.0000      -0.505134       -13.7454
 173   2.0000      -0.502173       -13.6648
 174   2.0000      -0.498436       -13.5631
 175   2.0000      -0.494808       -13.4644
 176   2.0000      -0.491992       -13.3878
 177   2.0000      -0.489927       -13.3316
 178   2.0000      -0.489210       -13.3121
 179   2.0000      -0.486615       -13.2415
 180   2.0000      -0.483990       -13.1700
 181   2.0000      -0.480189       -13.0666
 182   2.0000      -0.480121       -13.0648
 183   2.0000      -0.479761       -13.0550
 184   2.0000      -0.476024       -12.9533
 185   2.0000      -0.473695       -12.8899
 186   2.0000      -0.472629       -12.8609
 187   2.0000      -0.470697       -12.8083
 188   2.0000      -0.469962       -12.7883
 189   2.0000      -0.465937       -12.6788
 190   2.0000      -0.464703       -12.6452
 191   2.0000      -0.462873       -12.5954
 192   2.0000      -0.459554       -12.5051
 193   2.0000      -0.458176       -12.4676
 194   2.0000      -0.451903       -12.2969
 195   2.0000      -0.450545       -12.2600
 196   2.0000      -0.447452       -12.1758
 197   2.0000      -0.445387       -12.1196
 198   2.0000      -0.444624       -12.0988
 199   2.0000      -0.442485       -12.0406
 200   2.0000      -0.440170       -11.9776
 201   2.0000      -0.439596       -11.9620
 202   2.0000      -0.439523       -11.9600
 203   2.0000      -0.433766       -11.8034
 204   2.0000      -0.431683       -11.7467
 205   2.0000      -0.431424       -11.7396
 206   2.0000      -0.431404       -11.7391
 207   2.0000      -0.430650       -11.7186
 208   2.0000      -0.423210       -11.5161
 209   2.0000      -0.414696       -11.2844
 210   2.0000      -0.412916       -11.2360
 211   2.0000      -0.408758       -11.1229
 212   2.0000      -0.399390       -10.8679
 213   2.0000      -0.394955       -10.7473
 214   2.0000      -0.382163       -10.3992
 215   2.0000      -0.371330       -10.1044
 216   2.0000      -0.368355       -10.0234
 217   2.0000      -0.365485        -9.9453
 218   2.0000      -0.358526        -9.7560
 219   2.0000      -0.356082        -9.6895
 220   2.0000      -0.351723        -9.5709
 221   2.0000      -0.351482        -9.5643
 222   2.0000      -0.347713        -9.4617
 223   2.0000      -0.341493        -9.2925
 224   2.0000      -0.337340        -9.1795
 225   2.0000      -0.336211        -9.1488
 226   2.0000      -0.335953        -9.1418
 227   2.0000      -0.335002        -9.1159
 228   2.0000      -0.330609        -8.9963
 229   2.0000      -0.320558        -8.7228
 230   2.0000      -0.317739        -8.6461
 231   2.0000      -0.303235        -8.2514
 232   2.0000      -0.282122        -7.6769
 233   2.0000      -0.275334        -7.4922
 234   2.0000      -0.233081        -6.3425
 235   0.0000      -0.130222        -3.5435
 236   0.0000      -0.092994        -2.5305
 237   0.0000      -0.058841        -1.6011
 238   0.0000      -0.044177        -1.2021
 239   0.0000      -0.034409        -0.9363

MULLIKEN ATOMIC CHARGES
-----------------------
   0 C :   -0.120360
   1 S :    0.132648
   2 C :    0.017132
   3 C :    0.197938
   4 O :   -0.151404
   5 N :   -0.320267
   6 C :    0.138389
   7 C :    0.190026
   8 O :   -0.164428
   9 C :    0.007130
  10 C :   -0.133722
  11 C :   -0.001272
  12 C :    0.062999
  13 C :   -0.062621
  14 S :    0.131888
  15 C :   -0.045644
  16 C :   -0.056853
  17 C :    0.014845
  18 C :   -0.180064
  19 N :    0.150080
  20 C :    0.003658
  21 C :   -0.040285
  22 C :    0.143394
  23 N :   -0.257847
  24 C :    0.097260
  25 C :    0.003177
  26 C :    0.163706
  27 O :   -0.198505
  28 C :   -0.061859
  29 C :   -0.065583
  30 C :    0.161733
  31 O :   -0.197852
  32 N :   -0.257842
  33 C :    0.100324
  34 C :    0.002624
  35 C :    0.144446
  36 C :   -0.027542
  37 C :    0.013141
  38 C :    0.104053
  39 C :   -0.101029
  40 C :    0.121427
  41 C :   -0.103566
  42 C :   -0.007552
  43 C :   -0.170156
  44 N :    0.131491
  45 C :    0.119890
  46 C :   -0.145160
  47 C :    0.104162
  48 C :   -0.004421
  49 C :   -0.103906
  50 C :   -0.178251
  51 N :    0.142966
  52 C :   -0.133609
  53 S :    0.172500
  54 C :   -0.000692
  55 C :    0.196775
  56 O :   -0.167250
  57 N :   -0.304884
  58 C :    0.138775
  59 C :    0.197650
  60 O :   -0.170106
  61 C :   -0.004032
  62 C :   -0.138613
  63 C :    0.024778
  64 C :    0.000725
  65 H :    0.044114
  66 H :    0.052626
  67 H :    0.040746
  68 H :    0.039418
  69 H :    0.020278
  70 H :   -0.005222
  71 H :    0.007328
  72 H :    0.042661
  73 H :   -0.021328
  74 H :    0.049055
  75 H :    0.023319
  76 H :    0.031541
  77 H :    0.025427
  78 H :    0.014413
  79 H :    0.048947
  80 H :    0.022972
  81 H :    0.033679
  82 H :    0.025918
  83 H :    0.011843
  84 H :   -0.031248
  85 H :    0.017178
  86 H :    0.017091
  87 H :   -0.002208
  88 H :    0.008400
  89 H :    0.012701
  90 H :    0.054428
  91 H :    0.040376
  92 H :    0.041448
  93 H :   -0.007588
  94 H :    0.054417
  95 H :    0.032716
Sum of atomic charges:   -0.0000000

LOEWDIN ATOMIC CHARGES
----------------------
   0 C :   -0.133948
   1 S :    0.451779
   2 C :   -0.094755
   3 C :    0.087440
   4 O :   -0.156926
   5 N :   -0.041668
   6 C :    0.036667
   7 C :    0.087032
   8 O :   -0.165391
   9 C :   -0.093497
  10 C :   -0.135968
  11 C :   -0.018910
  12 C :   -0.037216
  13 C :   -0.157404
  14 S :    0.453838
  15 C :   -0.146026
  16 C :   -0.085230
  17 C :   -0.020527
  18 C :   -0.033361
  19 N :   -0.034914
  20 C :    0.012079
  21 C :   -0.049212
  22 C :    0.073862
  23 N :    0.000212
  24 C :    0.036504
  25 C :   -0.060978
  26 C :    0.080275
  27 O :   -0.190121
  28 C :   -0.111331
  29 C :   -0.116135
  30 C :    0.077787
  31 O :   -0.190209
  32 N :    0.000490
  33 C :    0.036887
  34 C :   -0.060872
  35 C :    0.071073
  36 C :   -0.039017
  37 C :    0.033028
  38 C :   -0.020284
  39 C :   -0.009493
  40 C :    0.033665
  41 C :   -0.077925
  42 C :    0.051432
  43 C :   -0.030255
  44 N :   -0.064792
  45 C :    0.037968
  46 C :   -0.031023
  47 C :   -0.032826
  48 C :    0.061196
  49 C :   -0.084870
  50 C :   -0.030250
  51 N :   -0.060353
  52 C :   -0.133472
  53 S :    0.477609
  54 C :   -0.084982
  55 C :    0.094381
  56 O :   -0.160551
  57 N :   -0.034162
  58 C :    0.037285
  59 C :    0.093974
  60 O :   -0.158416
  61 C :   -0.100604
  62 C :   -0.119095
  63 C :   -0.059480
  64 C :    0.009532
  65 H :    0.036969
  66 H :    0.037906
  67 H :    0.033771
  68 H :    0.032410
  69 H :    0.044884
  70 H :    0.025240
  71 H :    0.042944
  72 H :    0.048438
  73 H :    0.021923
  74 H :    0.039999
  75 H :    0.022835
  76 H :    0.033300
  77 H :    0.031464
  78 H :    0.021233
  79 H :    0.040415
  80 H :    0.022613
  81 H :    0.033943
  82 H :    0.031753
  83 H :    0.020286
  84 H :    0.027346
  85 H :    0.043186
  86 H :    0.041031
  87 H :    0.034194
  88 H :    0.028983
  89 H :    0.036977
  90 H :    0.038346
  91 H :    0.033264
  92 H :    0.033969
  93 H :    0.030610
  94 H :    0.029730
  95 H :    0.030496

  Mayer bond orders larger than 0.100000
B(  0-C ,  1-S ) :   1.1654 B(  0-C ,  2-C ) :   1.5842 B(  0-C , 65-H ) :   0.9687
B(  1-S , 10-C ) :   1.1152 B(  2-C ,  3-C ) :   0.8834 B(  2-C ,  9-C ) :   1.2441
B(  3-C ,  4-O ) :   2.2358 B(  3-C ,  5-N ) :   1.0610 B(  5-N ,  6-C ) :   0.9399
B(  5-N ,  7-C ) :   1.0667 B(  6-C , 66-H ) :   0.9608 B(  6-C , 67-H ) :   0.9736
B(  6-C , 68-H ) :   0.9777 B(  7-C ,  8-O ) :   2.1983 B(  7-C ,  9-C ) :   0.9084
B(  9-C , 10-C ) :   1.5193 B( 10-C , 11-C ) :   1.1758 B( 11-C , 12-C ) :   1.6675
B( 11-C , 69-H ) :   0.9678 B( 12-C , 13-C ) :   1.1146 B( 12-C , 70-H ) :   0.9611
B( 13-C , 14-S ) :   1.1216 B( 13-C , 17-C ) :   1.4811 B( 14-S , 15-C ) :   1.1098
B( 15-C , 16-C ) :   1.4232 B( 15-C , 20-C ) :   1.2045 B( 16-C , 17-C ) :   1.2985
B( 16-C , 18-C ) :   1.1048 B( 17-C , 71-H ) :   1.0013 B( 18-C , 19-N ) :   3.0231
B( 20-C , 21-C ) :   1.5568 B( 20-C , 72-H ) :   0.9399 B( 21-C , 22-C ) :   1.1832
B( 21-C , 73-H ) :   0.9587 B( 22-C , 23-N ) :   1.1600 B( 22-C , 29-C ) :   1.3213
B( 23-N , 24-C ) :   0.9450 B( 23-N , 26-C ) :   1.0573 B( 24-C , 25-C ) :   1.1208
B( 24-C , 74-H ) :   0.9277 B( 24-C , 75-H ) :   0.9499 B( 25-C , 76-H ) :   0.9635
B( 25-C , 77-H ) :   0.9679 B( 25-C , 78-H ) :   0.9686 B( 26-C , 27-O ) :   2.0371
B( 26-C , 28-C ) :   0.9813 B( 27-O , 85-H ) :   0.1080 B( 28-C , 29-C ) :   1.2756
B( 28-C , 35-C ) :   1.3191 B( 29-C , 30-C ) :   0.9829 B( 30-C , 31-O ) :   2.0368
B( 30-C , 32-N ) :   1.0620 B( 31-O , 72-H ) :   0.1103 B( 32-N , 33-C ) :   0.9441
B( 32-N , 35-C ) :   1.1557 B( 33-C , 34-C ) :   1.1200 B( 33-C , 79-H ) :   0.9276
B( 33-C , 80-H ) :   0.9496 B( 34-C , 81-H ) :   0.9636 B( 34-C , 82-H ) :   0.9684
B( 34-C , 83-H ) :   0.9686 B( 35-C , 36-C ) :   1.1759 B( 36-C , 37-C ) :   1.5371
B( 36-C , 84-H ) :   0.9614 B( 37-C , 38-C ) :   1.1384 B( 37-C , 85-H ) :   0.9582
B( 38-C , 39-C ) :   1.4863 B( 38-C , 42-C ) :   1.0364 B( 39-C , 40-C ) :   1.1265
B( 39-C , 86-H ) :   1.0117 B( 40-C , 41-C ) :   1.1000 B( 40-C , 45-C ) :   1.3884
B( 41-C , 42-C ) :   1.6915 B( 41-C , 43-C ) :   1.0902 B( 42-C , 87-H ) :   1.0135
B( 43-C , 44-N ) :   2.9620 B( 45-C , 46-C ) :   1.1340 B( 45-C , 49-C ) :   1.1114
B( 46-C , 47-C ) :   1.5330 B( 46-C , 88-H ) :   0.9922 B( 47-C , 48-C ) :   1.0739
B( 47-C , 52-C ) :   1.1105 B( 48-C , 49-C ) :   1.6525 B( 48-C , 89-H ) :   1.0023
B( 49-C , 50-C ) :   1.0909 B( 50-C , 51-N ) :   2.9728 B( 52-C , 53-S ) :   1.1374
B( 52-C , 54-C ) :   1.5165 B( 53-S , 62-C ) :   1.1353 B( 54-C , 55-C ) :   0.8936
B( 54-C , 61-C ) :   1.2531 B( 55-C , 56-O ) :   2.1194 B( 55-C , 57-N ) :   1.0907
B( 57-N , 58-C ) :   0.9394 B( 57-N , 59-C ) :   1.0803 B( 58-C , 90-H ) :   0.9602
B( 58-C , 91-H ) :   0.9766 B( 58-C , 92-H ) :   0.9743 B( 59-C , 60-O ) :   2.1293
B( 59-C , 61-C ) :   0.9005 B( 61-C , 62-C ) :   1.5196 B( 62-C , 63-C ) :   1.1077
B( 63-C , 64-C ) :   1.9269 B( 63-C , 93-H ) :   0.9509 B( 64-C , 94-H ) :   0.9305
B( 64-C , 95-H ) :   0.9461

-----------------------------------------------------------------------------
         ABSORPTION SPECTRUM VIA TRANSITION ELECTRIC DIPOLE MOMENTS
-----------------------------------------------------------------------------
State   Energy  Wavelength   fosc         T2         TX        TY        TZ
        (cm-1)    (nm)                  (au**2)     (au)      (au)      (au)
-----------------------------------------------------------------------------
   0    9282.9   1077.2   0.988889484  35.07023  -0.03013  -5.31873   2.60393
   1   15664.2    638.4   0.094018707   1.97598  -0.27583  -0.75599   1.15255
   2   16255.8    615.2   0.461924223   9.35489   0.47757  -3.01992   0.08307
   3   19338.1    517.1   0.011225239   0.19110   0.12909  -0.08768  -0.40834
   4   22325.1    447.9   0.418341752   6.16897   0.16464  -2.25179   1.03504
   5   23511.3    425.3   0.409662535   5.73620   0.26885   1.79699  -1.56037
   6   24361.5    410.5   0.256528074   3.46663   0.01428  -1.49265   1.11284
   7   25232.6    396.3   0.046243652   0.60334   0.04452  -0.68083   0.37126
   8   26809.5    373.0   0.000904574   0.01111   0.04134   0.02444   0.09382
   9   27432.6    364.5   0.246992325   2.96409  -0.20983   1.66250  -0.39517
  10   28859.6    346.5   0.369608062   4.21625  -0.25346  -1.35051   1.52582
  11   29155.6    343.0   0.024909837   0.28127  -0.11191   0.38246   0.34996
  12   29188.0    342.6   0.038609340   0.43548  -0.07347   0.64579  -0.11418
  13   30000.1    333.3   0.015057779   0.16524   0.17420   0.06326  -0.36179
  14   30041.8    332.9   0.001515885   0.01661   0.04660  -0.09841  -0.06896
  15   31678.6    315.7   0.209004853   2.17203   0.29621  -1.44361  -0.01626
  16   31839.6    314.1   0.006948457   0.07184   0.12441   0.07001  -0.22686
  17   31904.2    313.4   0.162195613   1.67366  -0.29725  -0.73404   1.02298
  18   31940.8    313.1   0.013042878   0.13443  -0.04068   0.35803  -0.06779
  19   32597.1    306.8   0.016936538   0.17105   0.01994   0.25002  -0.32885
  20   33191.2    301.3   0.022176578   0.21996  -0.05428   0.39831   0.24158
  21   34091.5    293.3   0.025800597   0.24915   0.10737  -0.47973   0.08646
  22   34464.7    290.2   0.026332686   0.25153   0.11726  -0.33485  -0.35449
  23   34673.6    288.4   0.029239584   0.27762  -0.06769   0.51073  -0.11042
  24   34808.3    287.3   0.001241127   0.01174  -0.05175  -0.01070   0.09458
  25   34974.4    285.9   0.091359186   0.85996  -0.17547   0.71154   0.56823
  26   35288.3    283.4   0.010086171   0.09410   0.19358  -0.07770  -0.22491
  27   35644.5    280.5   0.195063889   1.80161  -0.28511   1.30386   0.14234
  28   35712.6    280.0   0.001796909   0.01656   0.01123  -0.12820  -0.00156
  29   36695.2    272.5   0.005702733   0.05116  -0.03457  -0.05106   0.21762
  30   36720.9    272.3   0.002522779   0.02262   0.03468  -0.12986   0.06745
  31   36995.9    270.3   0.367329227   3.26871  -0.13808  -1.07188   1.44939
  32   37381.3    267.5   0.230798866   2.03261   0.39608   0.10949  -1.36519
  33   37774.9    264.7   0.006563338   0.05720   0.02198   0.09844  -0.21686
  34   37863.8    264.1   0.014130681   0.12286  -0.00645   0.34173  -0.07773
  35   37960.4    263.4   0.007165785   0.06215   0.08739  -0.06758  -0.22348
  36   38305.3    261.1   0.041869686   0.35985  -0.20810   0.18237   0.53224
  37   38461.4    260.0   0.001225449   0.01049   0.10033   0.01653   0.01221
  38   38830.6    257.5   0.071833223   0.60901  -0.02527   0.43482  -0.64754
  39   39437.8    253.6   0.032041052   0.26747   0.07876   0.06562  -0.50691
  40   40311.2    248.1   0.008396830   0.06857   0.04006  -0.25868   0.00757

FINAL SINGLE POINT ENERGY     -3911.276327961601

DIPOLE MOMENT
-------------
                                X             Y             Z
Electronic contribution:     -7.66586       5.63272       2.84713
Nuclear contribution   :      7.82544      -4.95245      -1.95888
                        -----------------------------------------
Total Dipole Moment    :      0.15958       0.68027       0.88824
                        -----------------------------------------
Magnitude (a.u.)       :      1.13014
Magnitude (Debye)      :      2.87259

Rotational constants in cm-1:     0.003690     0.000195     0.000186
Rotational constants in MHz :   110.630218     5.845525     5.572502

                             ****ORCA TERMINATED NORMALLY****
TOTAL RUN TIME: 0 days 0 hours 8 minutes 17 seconds 975 msec
