                         Program Version 4.2.0 -  RELEASE  -
|  1> # ORCA input file
|  2> # SCF done       -207.346045474353          0.000729263621
|  3> ! CAM-B3LYP def2-SVP def2/J RIJCOSX Grid4 TightSCF
|  4> %maxcore 5000
|  5> %tddft
|  6>     Mode sTDDFT
|  7>     Ethresh 5.0
|  8>     maxcore 5000
|  9> end
| 10>
| 11> %pal
| 12>   nprocs 6
| 13>   end
| 14> * xyz 0 1
| 15>    C       -2.28544        -0.76133         0.81941
| 16>    S       -3.35734        -1.72081        -0.08743
| 17>    C       -2.46688        -1.48456        -1.55564
| 18>    C       -1.37122        -0.65607        -1.32995
| 19>    C       -1.26881        -0.24372         0.04394
| 20>    C       -0.19537         0.58293         0.44356
| 21>    C        0.69915         1.01650        -0.49215
| 22>    N        1.87829         1.72521        -0.02279
| 23>    O        1.72156         2.49347         0.89500
| 24>    O        2.92776         1.42845        -0.53798
| 25>    C        0.54030         0.68391        -1.86770
| 26>    N        1.33234         1.34723        -2.88385
| 27>    O        1.67845         2.48055        -2.64049
| 28>    O        1.51443         0.75470        -3.91874
| 29>    C       -0.46530        -0.14636        -2.27926
| 30>    C       -2.86120        -2.13132        -2.77029
| 31>    C       -2.09020        -2.92495        -3.60527
| 32>    N       -0.75458        -3.33434        -3.42128
| 33>    O       -0.30205        -4.12380        -4.22928
| 34>    O       -0.14553        -2.91194        -2.45167
| 35>    C       -2.92112        -3.44984        -4.65839
| 36>    C       -4.19454        -3.03300        -4.45169
| 37>    C       -4.22335        -2.18608        -3.28781
| 38>    C       -5.28153        -1.40270        -2.85459
| 39>    C       -5.17485        -0.12312        -2.24638
| 40>    C       -6.40534         0.47882        -2.25054
| 41>    C       -7.36175        -0.42001        -2.79399
| 42>    N       -8.72751        -0.11302        -2.87763
| 43>    O       -9.49240        -0.94214        -3.35244
| 44>    O       -9.07979         0.98105        -2.47198
| 45>    C       -6.71631        -1.62098        -3.14326
| 46>    C       -7.34970        -2.80292        -3.51911
| 47>    C       -6.82782        -4.07989        -3.47269
| 48>    C       -7.53265        -5.19357        -3.91664
| 49>    S       -9.11556        -5.08624        -4.66795
| 50>    C       -9.26123        -6.81246        -4.91133
| 51>    C       -8.10303        -7.45799        -4.42549
| 52>    C       -7.15932        -6.54660        -3.88464
| 53>    N       -6.08479        -7.24408        -3.45130
| 54>    C       -6.31160        -8.58017        -3.69613
| 55>    C       -5.37689        -9.56876        -3.35184
| 56>    N       -4.61862       -10.38030        -3.06837
| 57>    C       -7.54627        -8.74777        -4.29497
| 58>    C      -10.41794        -7.29720        -5.52157
| 59>    C      -10.69744        -8.61733        -5.77786
| 60>    C      -11.86810        -9.07028        -6.40601
| 61>    C      -12.18690       -10.40163        -6.66031
| 62>    C      -13.43864       -10.47027        -7.31061
| 63>    C      -13.89879        -9.07575        -7.45766
| 64>    C      -12.96222        -8.25608        -6.91482
| 65>    C      -15.09231        -8.64172        -8.04754
| 66>    N      -16.06188        -8.25221        -8.52453
| 67>    C      -14.12331       -11.59944        -7.72704
| 68>    C      -15.37364       -11.66060        -8.38291
| 69>    C      -15.71694       -12.98563        -8.60182
| 70>    C      -14.64128       -13.81283        -8.07011
| 71>    C      -13.68500       -13.00003        -7.55235
| 72>    C      -12.49423       -13.43184        -6.95740
| 73>    N      -11.52271       -13.80844        -6.47402
| 74>    C      -16.90158       -13.42418        -9.22899
| 75>    C      -17.27400       -14.72526        -9.39582
| 76>    C      -18.46630       -15.13036       -10.02801
| 77>    S      -19.57815       -13.99776       -10.73725
| 78>    C      -20.63984       -15.22139       -11.25013
| 79>    C      -20.19586       -16.48224       -10.90379
| 80>    C      -18.94401       -16.44199       -10.19739
| 81>    C      -18.37493       -17.63978        -9.74170
| 82>    C      -19.00473       -18.83158        -9.99691
| 83>    N      -18.47948       -20.02282        -9.36338
| 84>    O      -17.28624       -20.06312        -9.17680
| 85>    O      -19.28659       -20.84998        -9.01040
| 86>    C      -20.21347       -18.87447       -10.74280
| 87>    N      -20.77740       -20.13984       -11.18676
| 88>    O      -19.99047       -20.96481       -11.58251
| 89>    O      -21.97967       -20.22683       -11.19976
| 90>    C      -20.80851       -17.72447       -11.17811
| 91>    H       -2.44261        -0.62511         1.87064
| 92>    H       -0.06754         0.85514         1.48019
| 93>    H       -0.57432        -0.36766        -3.32987
| 94>    H       -2.54591        -4.06373        -5.45430
| 95>    H       -5.03294        -3.19928        -5.09939
| 96>    H       -4.25378         0.34676        -1.96139
| 97>    H       -6.64268         1.47059        -1.91397
| 98>    H       -8.39095        -2.70279        -3.80596
| 99>    H       -5.84761        -4.25068        -3.04774
|100>    H       -5.24887        -6.87275        -3.02987
|101>    H       -7.96221        -9.68969        -4.58851
|102>    H      -11.14212        -6.54603        -5.80546
|103>    H       -9.98622        -9.37523        -5.48437
|104>    H      -11.57767       -11.24573        -6.40286
|105>    H      -13.01965        -7.18495        -6.87168
|106>    H      -15.96649       -10.81229        -8.66278
|107>    H      -14.60751       -14.88575        -8.09211
|108>    H      -17.56049       -12.64474        -9.59289
|109>    H      -16.63809       -15.51637        -9.02565
|110>    H      -21.53893       -14.96918       -11.77627
|111>    H      -17.46157       -17.64861        -9.16684
|112>    H      -21.72602       -17.77055       -11.74447
|113> *
|114>
|115>                          ****END OF INPUT****

CARTESIAN COORDINATES (ANGSTROEM)
---------------------------------
  C     -2.285440   -0.761330    0.819410
  S     -3.357340   -1.720810   -0.087430
  C     -2.466880   -1.484560   -1.555640
  C     -1.371220   -0.656070   -1.329950
  C     -1.268810   -0.243720    0.043940
  C     -0.195370    0.582930    0.443560
  C      0.699150    1.016500   -0.492150
  N      1.878290    1.725210   -0.022790
  O      1.721560    2.493470    0.895000
  O      2.927760    1.428450   -0.537980
  C      0.540300    0.683910   -1.867700
  N      1.332340    1.347230   -2.883850
  O      1.678450    2.480550   -2.640490
  O      1.514430    0.754700   -3.918740
  C     -0.465300   -0.146360   -2.279260
  C     -2.861200   -2.131320   -2.770290
  C     -2.090200   -2.924950   -3.605270
  N     -0.754580   -3.334340   -3.421280
  O     -0.302050   -4.123800   -4.229280
  O     -0.145530   -2.911940   -2.451670
  C     -2.921120   -3.449840   -4.658390
  C     -4.194540   -3.033000   -4.451690
  C     -4.223350   -2.186080   -3.287810
  C     -5.281530   -1.402700   -2.854590
  C     -5.174850   -0.123120   -2.246380
  C     -6.405340    0.478820   -2.250540
  C     -7.361750   -0.420010   -2.793990
  N     -8.727510   -0.113020   -2.877630
  O     -9.492400   -0.942140   -3.352440
  O     -9.079790    0.981050   -2.471980
  C     -6.716310   -1.620980   -3.143260
  C     -7.349700   -2.802920   -3.519110
  C     -6.827820   -4.079890   -3.472690
  C     -7.532650   -5.193570   -3.916640
  S     -9.115560   -5.086240   -4.667950
  C     -9.261230   -6.812460   -4.911330
  C     -8.103030   -7.457990   -4.425490
  C     -7.159320   -6.546600   -3.884640
  N     -6.084790   -7.244080   -3.451300
  C     -6.311600   -8.580170   -3.696130
  C     -5.376890   -9.568760   -3.351840
  N     -4.618620  -10.380300   -3.068370
  C     -7.546270   -8.747770   -4.294970
  C    -10.417940   -7.297200   -5.521570
  C    -10.697440   -8.617330   -5.777860
  C    -11.868100   -9.070280   -6.406010
  C    -12.186900  -10.401630   -6.660310
  C    -13.438640  -10.470270   -7.310610
  C    -13.898790   -9.075750   -7.457660
  C    -12.962220   -8.256080   -6.914820
  C    -15.092310   -8.641720   -8.047540
  N    -16.061880   -8.252210   -8.524530
  C    -14.123310  -11.599440   -7.727040
  C    -15.373640  -11.660600   -8.382910
  C    -15.716940  -12.985630   -8.601820
  C    -14.641280  -13.812830   -8.070110
  C    -13.685000  -13.000030   -7.552350
  C    -12.494230  -13.431840   -6.957400
  N    -11.522710  -13.808440   -6.474020
  C    -16.901580  -13.424180   -9.228990
  C    -17.274000  -14.725260   -9.395820
  C    -18.466300  -15.130360  -10.028010
  S    -19.578150  -13.997760  -10.737250
  C    -20.639840  -15.221390  -11.250130
  C    -20.195860  -16.482240  -10.903790
  C    -18.944010  -16.441990  -10.197390
  C    -18.374930  -17.639780   -9.741700
  C    -19.004730  -18.831580   -9.996910
  N    -18.479480  -20.022820   -9.363380
  O    -17.286240  -20.063120   -9.176800
  O    -19.286590  -20.849980   -9.010400
  C    -20.213470  -18.874470  -10.742800
  N    -20.777400  -20.139840  -11.186760
  O    -19.990470  -20.964810  -11.582510
  O    -21.979670  -20.226830  -11.199760
  C    -20.808510  -17.724470  -11.178110
  H     -2.442610   -0.625110    1.870640
  H     -0.067540    0.855140    1.480190
  H     -0.574320   -0.367660   -3.329870
  H     -2.545910   -4.063730   -5.454300
  H     -5.032940   -3.199280   -5.099390
  H     -4.253780    0.346760   -1.961390
  H     -6.642680    1.470590   -1.913970
  H     -8.390950   -2.702790   -3.805960
  H     -5.847610   -4.250680   -3.047740
  H     -5.248870   -6.872750   -3.029870
  H     -7.962210   -9.689690   -4.588510
  H    -11.142120   -6.546030   -5.805460
  H     -9.986220   -9.375230   -5.484370
  H    -11.577670  -11.245730   -6.402860
  H    -13.019650   -7.184950   -6.871680
  H    -15.966490  -10.812290   -8.662780
  H    -14.607510  -14.885750   -8.092110
  H    -17.560490  -12.644740   -9.592890
  H    -16.638090  -15.516370   -9.025650
  H    -21.538930  -14.969180  -11.776270
  H    -17.461570  -17.648610   -9.166840
  H    -21.726020  -17.770550  -11.744470

 Total Charge           Charge          ....    0
 Multiplicity           Mult            ....    1
 Number of Electrons    NEL             ....  542
 Basis Dimension        Dim             .... 1186

ORBITAL ENERGIES
----------------

  NO   OCC          E(Eh)            E(eV)
   0   2.0000     -89.012144     -2422.1436
   1   2.0000     -89.003399     -2421.9056
   2   2.0000     -89.002077     -2421.8696
   3   2.0000     -19.259397      -524.0748
   4   2.0000     -19.258310      -524.0452
   5   2.0000     -19.257353      -524.0192
   6   2.0000     -19.257053      -524.0111
   7   2.0000     -19.246287      -523.7181
   8   2.0000     -19.245649      -523.7007
   9   2.0000     -19.245593      -523.6992
  10   2.0000     -19.245541      -523.6978
  11   2.0000     -19.244941      -523.6815
  12   2.0000     -19.244817      -523.6781
  13   2.0000     -19.235306      -523.4193
  14   2.0000     -19.235228      -523.4172
  15   2.0000     -14.665930      -399.0802
  16   2.0000     -14.664121      -399.0310
  17   2.0000     -14.654710      -398.7749
  18   2.0000     -14.652562      -398.7165
  19   2.0000     -14.652074      -398.7032
  20   2.0000     -14.645760      -398.5314
  21   2.0000     -14.518114      -395.0580
  22   2.0000     -14.440624      -392.9493
  23   2.0000     -14.426104      -392.5542
  24   2.0000     -14.425301      -392.5324
  25   2.0000     -10.380378      -282.4644
  26   2.0000     -10.365512      -282.0599
  27   2.0000     -10.364586      -282.0347
  28   2.0000     -10.363270      -281.9989
  29   2.0000     -10.361951      -281.9630
  30   2.0000     -10.350225      -281.6440
  31   2.0000     -10.349832      -281.6332
  32   2.0000     -10.349735      -281.6306
  33   2.0000     -10.349055      -281.6121
  34   2.0000     -10.344268      -281.4818
  35   2.0000     -10.343145      -281.4513
  36   2.0000     -10.341497      -281.4064
  37   2.0000     -10.340434      -281.3775
  38   2.0000     -10.338970      -281.3377
  39   2.0000     -10.338246      -281.3180
  40   2.0000     -10.337828      -281.3066
  41   2.0000     -10.337253      -281.2909
  42   2.0000     -10.335852      -281.2528
  43   2.0000     -10.335283      -281.2373
  44   2.0000     -10.334448      -281.2146
  45   2.0000     -10.334116      -281.2056
  46   2.0000     -10.334030      -281.2033
  47   2.0000     -10.333806      -281.1972
  48   2.0000     -10.331858      -281.1441
  49   2.0000     -10.331546      -281.1356
  50   2.0000     -10.331315      -281.1294
  51   2.0000     -10.330050      -281.0950
  52   2.0000     -10.329908      -281.0911
  53   2.0000     -10.328860      -281.0626
  54   2.0000     -10.327702      -281.0311
  55   2.0000     -10.327652      -281.0297
  56   2.0000     -10.327631      -281.0291
  57   2.0000     -10.326974      -281.0113
  58   2.0000     -10.326534      -280.9993
  59   2.0000     -10.325944      -280.9832
  60   2.0000     -10.325161      -280.9619
  61   2.0000     -10.324064      -280.9321
  62   2.0000     -10.322966      -280.9022
  63   2.0000     -10.322132      -280.8795
  64   2.0000     -10.321079      -280.8508
  65   2.0000     -10.320421      -280.8329
  66   2.0000     -10.319400      -280.8052
  67   2.0000     -10.317236      -280.7463
  68   2.0000     -10.316036      -280.7136
  69   2.0000     -10.313812      -280.6531
  70   2.0000     -10.312190      -280.6089
  71   2.0000     -10.304494      -280.3995
  72   2.0000     -10.302546      -280.3465
  73   2.0000     -10.298683      -280.2414
  74   2.0000     -10.298611      -280.2395
  75   2.0000     -10.291613      -280.0490
  76   2.0000      -8.107355      -220.6124
  77   2.0000      -8.098106      -220.3607
  78   2.0000      -8.096780      -220.3246
  79   2.0000      -6.076164      -165.3408
  80   2.0000      -6.071847      -165.2233
  81   2.0000      -6.070645      -165.1907
  82   2.0000      -6.067009      -165.0917
  83   2.0000      -6.066124      -165.0676
  84   2.0000      -6.062567      -164.9708
  85   2.0000      -6.061996      -164.9553
  86   2.0000      -6.061466      -164.9409
  87   2.0000      -6.058809      -164.8686
  88   2.0000      -1.344802       -36.5939
  89   2.0000      -1.337758       -36.4023
  90   2.0000      -1.332216       -36.2514
  91   2.0000      -1.325461       -36.0676
  92   2.0000      -1.325277       -36.0626
  93   2.0000      -1.314589       -35.7718
  94   2.0000      -1.165225       -31.7074
  95   2.0000      -1.159827       -31.5605
  96   2.0000      -1.152387       -31.3580
  97   2.0000      -1.146883       -31.2083
  98   2.0000      -1.143412       -31.1138
  99   2.0000      -1.139997       -31.0209
 100   2.0000      -1.131684       -30.7947
 101   2.0000      -1.044974       -28.4352
 102   2.0000      -1.038140       -28.2492
 103   2.0000      -1.033644       -28.1269
 104   2.0000      -1.026672       -27.9372
 105   2.0000      -1.022995       -27.8371
 106   2.0000      -1.018289       -27.7091
 107   2.0000      -1.016422       -27.6582
 108   2.0000      -1.005932       -27.3728
 109   2.0000      -1.003844       -27.3160
 110   2.0000      -1.002314       -27.2744
 111   2.0000      -0.998995       -27.1840
 112   2.0000      -0.987545       -26.8725
 113   2.0000      -0.958031       -26.0694
 114   2.0000      -0.944304       -25.6958
 115   2.0000      -0.931181       -25.3387
 116   2.0000      -0.925072       -25.1725
 117   2.0000      -0.920045       -25.0357
 118   2.0000      -0.918318       -24.9887
 119   2.0000      -0.916785       -24.9470
 120   2.0000      -0.909674       -24.7535
 121   2.0000      -0.898078       -24.4379
 122   2.0000      -0.892793       -24.2941
 123   2.0000      -0.889082       -24.1932
 124   2.0000      -0.885457       -24.0945
 125   2.0000      -0.879967       -23.9451
 126   2.0000      -0.875791       -23.8315
 127   2.0000      -0.869278       -23.6543
 128   2.0000      -0.856657       -23.3108
 129   2.0000      -0.847445       -23.0602
 130   2.0000      -0.836157       -22.7530
 131   2.0000      -0.819610       -22.3027
 132   2.0000      -0.810823       -22.0636
 133   2.0000      -0.806905       -21.9570
 134   2.0000      -0.797927       -21.7127
 135   2.0000      -0.793590       -21.5947
 136   2.0000      -0.783433       -21.3183
 137   2.0000      -0.776634       -21.1333
 138   2.0000      -0.775313       -21.0973
 139   2.0000      -0.761467       -20.7206
 140   2.0000      -0.758970       -20.6526
 141   2.0000      -0.744203       -20.2508
 142   2.0000      -0.739544       -20.1240
 143   2.0000      -0.735332       -20.0094
 144   2.0000      -0.728911       -19.8347
 145   2.0000      -0.723219       -19.6798
 146   2.0000      -0.716723       -19.5030
 147   2.0000      -0.700888       -19.0721
 148   2.0000      -0.699115       -19.0239
 149   2.0000      -0.691453       -18.8154
 150   2.0000      -0.688129       -18.7249
 151   2.0000      -0.680550       -18.5187
 152   2.0000      -0.677267       -18.4294
 153   2.0000      -0.674632       -18.3577
 154   2.0000      -0.665639       -18.1130
 155   2.0000      -0.661850       -18.0098
 156   2.0000      -0.660362       -17.9694
 157   2.0000      -0.656504       -17.8644
 158   2.0000      -0.650310       -17.6958
 159   2.0000      -0.649393       -17.6709
 160   2.0000      -0.648989       -17.6599
 161   2.0000      -0.647152       -17.6099
 162   2.0000      -0.644542       -17.5389
 163   2.0000      -0.641996       -17.4696
 164   2.0000      -0.638245       -17.3675
 165   2.0000      -0.636889       -17.3306
 166   2.0000      -0.633128       -17.2283
 167   2.0000      -0.632151       -17.2017
 168   2.0000      -0.629716       -17.1354
 169   2.0000      -0.627227       -17.0677
 170   2.0000      -0.623060       -16.9543
 171   2.0000      -0.620757       -16.8916
 172   2.0000      -0.620085       -16.8734
 173   2.0000      -0.612551       -16.6684
 174   2.0000      -0.608876       -16.5684
 175   2.0000      -0.606529       -16.5045
 176   2.0000      -0.602521       -16.3954
 177   2.0000      -0.599624       -16.3166
 178   2.0000      -0.594298       -16.1717
 179   2.0000      -0.590515       -16.0687
 180   2.0000      -0.587168       -15.9777
 181   2.0000      -0.584065       -15.8932
 182   2.0000      -0.583065       -15.8660
 183   2.0000      -0.581343       -15.8192
 184   2.0000      -0.576615       -15.6905
 185   2.0000      -0.575485       -15.6597
 186   2.0000      -0.573743       -15.6123
 187   2.0000      -0.571161       -15.5421
 188   2.0000      -0.566901       -15.4261
 189   2.0000      -0.562830       -15.3154
 190   2.0000      -0.559791       -15.2327
 191   2.0000      -0.558262       -15.1911
 192   2.0000      -0.551922       -15.0186
 193   2.0000      -0.550202       -14.9718
 194   2.0000      -0.548743       -14.9320
 195   2.0000      -0.543512       -14.7897
 196   2.0000      -0.542523       -14.7628
 197   2.0000      -0.540008       -14.6944
 198   2.0000      -0.537917       -14.6375
 199   2.0000      -0.531033       -14.4501
 200   2.0000      -0.528904       -14.3922
 201   2.0000      -0.527978       -14.3670
 202   2.0000      -0.524401       -14.2697
 203   2.0000      -0.520568       -14.1654
 204   2.0000      -0.517188       -14.0734
 205   2.0000      -0.514625       -14.0037
 206   2.0000      -0.513509       -13.9733
 207   2.0000      -0.510073       -13.8798
 208   2.0000      -0.509160       -13.8550
 209   2.0000      -0.504376       -13.7248
 210   2.0000      -0.503236       -13.6937
 211   2.0000      -0.498755       -13.5718
 212   2.0000      -0.494097       -13.4451
 213   2.0000      -0.493138       -13.4190
 214   2.0000      -0.488414       -13.2904
 215   2.0000      -0.485465       -13.2102
 216   2.0000      -0.482100       -13.1186
 217   2.0000      -0.479261       -13.0414
 218   2.0000      -0.476622       -12.9695
 219   2.0000      -0.474566       -12.9136
 220   2.0000      -0.470907       -12.8140
 221   2.0000      -0.469943       -12.7878
 222   2.0000      -0.466268       -12.6878
 223   2.0000      -0.465757       -12.6739
 224   2.0000      -0.460447       -12.5294
 225   2.0000      -0.459679       -12.5085
 226   2.0000      -0.457071       -12.4375
 227   2.0000      -0.455034       -12.3821
 228   2.0000      -0.454076       -12.3560
 229   2.0000      -0.453374       -12.3369
 230   2.0000      -0.452727       -12.3193
 231   2.0000      -0.447322       -12.1722
 232   2.0000      -0.445409       -12.1202
 233   2.0000      -0.442022       -12.0280
 234   2.0000      -0.433042       -11.7837
 235   2.0000      -0.431913       -11.7529
 236   2.0000      -0.414317       -11.2741
 237   2.0000      -0.410665       -11.1748
 238   2.0000      -0.407539       -11.0897
 239   2.0000      -0.407115       -11.0782
 240   2.0000      -0.400335       -10.8937
 241   2.0000      -0.397119       -10.8062
 242   2.0000      -0.395745       -10.7688
 243   2.0000      -0.395481       -10.7616
 244   2.0000      -0.392508       -10.6807
 245   2.0000      -0.391417       -10.6510
 246   2.0000      -0.389471       -10.5980
 247   2.0000      -0.386519       -10.5177
 248   2.0000      -0.386062       -10.5053
 249   2.0000      -0.384986       -10.4760
 250   2.0000      -0.383214       -10.4278
 251   2.0000      -0.382054       -10.3962
 252   2.0000      -0.380829       -10.3629
 253   2.0000      -0.380447       -10.3525
 254   2.0000      -0.376442       -10.2435
 255   2.0000      -0.375690       -10.2231
 256   2.0000      -0.369943       -10.0667
 257   2.0000      -0.365522        -9.9464
 258   2.0000      -0.363565        -9.8931
 259   2.0000      -0.356443        -9.6993
 260   2.0000      -0.355017        -9.6605
 261   2.0000      -0.349920        -9.5218
 262   2.0000      -0.344498        -9.3743
 263   2.0000      -0.341665        -9.2972
 264   2.0000      -0.336284        -9.1508
 265   2.0000      -0.333341        -9.0707
 266   2.0000      -0.332204        -9.0397
 267   2.0000      -0.310547        -8.4504
 268   2.0000      -0.289837        -7.8869
 269   2.0000      -0.279913        -7.6168
 270   2.0000      -0.251868        -6.8537
 271   0.0000      -0.160179        -4.3587
 272   0.0000      -0.136371        -3.7108
 273   0.0000      -0.096670        -2.6305
 274   0.0000      -0.088518        -2.4087
 275   0.0000      -0.076160        -2.0724

MULLIKEN ATOMIC CHARGES
-----------------------
   0 C :   -0.110921
   1 S :    0.221469
   2 C :   -0.285970
   3 C :    0.248432
   4 C :    0.085692
   5 C :   -0.034483
   6 C :    0.109896
   7 N :    0.250239
   8 O :   -0.229213
   9 O :   -0.217062
  10 C :    0.123908
  11 N :    0.249135
  12 O :   -0.225231
  13 O :   -0.222718
  14 C :   -0.042896
  15 C :    0.028253
  16 C :    0.075812
  17 N :    0.263835
  18 O :   -0.239025
  19 O :   -0.242422
  20 C :   -0.003939
  21 C :   -0.026617
  22 C :    0.014302
  23 C :    0.024441
  24 C :   -0.012930
  25 C :    0.029726
  26 C :    0.074931
  27 N :    0.277887
  28 O :   -0.270618
  29 O :   -0.255837
  30 C :    0.062568
  31 C :   -0.083644
  32 C :   -0.003953
  33 C :   -0.134142
  34 S :    0.173389
  35 C :   -0.112633
  36 C :    0.120510
  37 C :    0.108843
  38 N :   -0.013874
  39 C :   -0.100003
  40 C :   -0.147265
  41 N :    0.186297
  42 C :   -0.031126
  43 C :    0.057388
  44 C :    0.014141
  45 C :    0.105702
  46 C :   -0.106306
  47 C :    0.126164
  48 C :   -0.101396
  49 C :   -0.008690
  50 C :   -0.173289
  51 N :    0.137855
  52 C :    0.130038
  53 C :   -0.117905
  54 C :    0.119429
  55 C :   -0.006446
  56 C :   -0.099841
  57 C :   -0.174067
  58 N :    0.139379
  59 C :   -0.008536
  60 C :    0.005873
  61 C :   -0.113831
  62 S :    0.197432
  63 C :   -0.094774
  64 C :    0.091535
  65 C :    0.150804
  66 C :   -0.061444
  67 C :    0.130617
  68 N :    0.254152
  69 O :   -0.227117
  70 O :   -0.218401
  71 C :    0.095882
  72 N :    0.251786
  73 O :   -0.218166
  74 O :   -0.222605
  75 C :   -0.021365
  76 H :    0.035048
  77 H :    0.003484
  78 H :    0.002440
  79 H :    0.002590
  80 H :    0.006992
  81 H :   -0.000880
  82 H :    0.009855
  83 H :    0.033237
  84 H :    0.012593
  85 H :    0.142014
  86 H :    0.007262
  87 H :   -0.013071
  88 H :   -0.019225
  89 H :    0.002685
  90 H :    0.004407
  91 H :    0.000381
  92 H :    0.003831
  93 H :    0.001912
  94 H :   -0.002531
  95 H :    0.040314
  96 H :    0.003777
  97 H :    0.005845
Sum of atomic charges:   -0.0000000

LOEWDIN ATOMIC CHARGES
----------------------
   0 C :   -0.175951
   1 S :    0.532729
   2 C :   -0.179053
   3 C :   -0.033786
   4 C :   -0.050059
   5 C :    0.025526
   6 C :   -0.022143
   7 N :    0.280717
   8 O :   -0.193951
   9 O :   -0.184983
  10 C :   -0.022942
  11 N :    0.282005
  12 O :   -0.192094
  13 O :   -0.189121
  14 C :    0.034173
  15 C :   -0.032758
  16 C :   -0.041726
  17 N :    0.281237
  18 O :   -0.204265
  19 O :   -0.203874
  20 C :   -0.013683
  21 C :   -0.045223
  22 C :    0.001781
  23 C :    0.050264
  24 C :   -0.071172
  25 C :    0.045832
  26 C :   -0.079654
  27 N :    0.285703
  28 O :   -0.234650
  29 O :   -0.221003
  30 C :    0.016620
  31 C :   -0.028231
  32 C :    0.000915
  33 C :   -0.196837
  34 S :    0.482273
  35 C :   -0.129186
  36 C :   -0.068902
  37 C :    0.011083
  38 N :    0.092722
  39 C :   -0.021771
  40 C :   -0.048374
  41 N :   -0.018948
  42 C :   -0.023446
  43 C :   -0.039160
  44 C :    0.014582
  45 C :   -0.021282
  46 C :   -0.015706
  47 C :    0.026229
  48 C :   -0.072711
  49 C :    0.046641
  50 C :   -0.029808
  51 N :   -0.058497
  52 C :    0.040376
  53 C :   -0.032888
  54 C :   -0.008958
  55 C :    0.050119
  56 C :   -0.072784
  57 C :   -0.030091
  58 N :   -0.057362
  59 C :   -0.015295
  60 C :   -0.019506
  61 C :   -0.170504
  62 S :    0.527790
  63 C :   -0.167620
  64 C :   -0.050533
  65 C :   -0.040668
  66 C :    0.024656
  67 C :   -0.023219
  68 N :    0.282195
  69 O :   -0.193810
  70 O :   -0.185034
  71 C :   -0.022179
  72 N :    0.280282
  73 O :   -0.185914
  74 O :   -0.187412
  75 C :    0.027505
  76 H :    0.032720
  77 H :    0.047776
  78 H :    0.043394
  79 H :    0.037195
  80 H :    0.031006
  81 H :    0.028275
  82 H :    0.041746
  83 H :    0.031433
  84 H :    0.036449
  85 H :    0.104402
  86 H :    0.039319
  87 H :    0.033206
  88 H :    0.037880
  89 H :    0.035415
  90 H :    0.036318
  91 H :    0.035213
  92 H :    0.036605
  93 H :    0.031352
  94 H :    0.036765
  95 H :    0.034854
  96 H :    0.044198
  97 H :    0.049257

  Mayer bond orders larger than 0.100000
B(  0-C ,  1-S ) :   1.2276 B(  0-C ,  2-C ) :   0.1179 B(  0-C ,  4-C ) :   1.4123
B(  0-C , 76-H ) :   0.9689 B(  1-S ,  2-C ) :   1.2050 B(  2-C ,  3-C ) :   1.3904
B(  2-C , 15-C ) :   1.0413 B(  3-C ,  4-C ) :   1.1961 B(  3-C , 14-C ) :   1.1231
B(  4-C ,  5-C ) :   1.1083 B(  5-C ,  6-C ) :   1.5846 B(  5-C , 77-H ) :   1.0042
B(  6-C ,  7-N ) :   0.8610 B(  6-C , 10-C ) :   1.1981 B(  7-N ,  8-O ) :   1.5521
B(  7-N ,  9-O ) :   1.5677 B(  8-O ,  9-O ) :   0.2761 B( 10-C , 11-N ) :   0.8689
B( 10-C , 14-C ) :   1.5829 B( 11-N , 12-O ) :   1.5582 B( 11-N , 13-O ) :   1.5568
B( 12-O , 13-O ) :   0.2744 B( 14-C , 78-H ) :   0.9905 B( 15-C , 16-C ) :   1.5557
B( 15-C , 22-C ) :   1.1148 B( 16-C , 17-N ) :   0.9386 B( 16-C , 20-C ) :   1.1378
B( 17-N , 18-O ) :   1.5341 B( 17-N , 19-O ) :   1.5024 B( 18-O , 19-O ) :   0.2639
B( 20-C , 21-C ) :   1.5737 B( 20-C , 79-H ) :   1.0141 B( 21-C , 22-C ) :   1.1197
B( 21-C , 80-H ) :   1.0020 B( 22-C , 23-C ) :   1.4198 B( 23-C , 24-C ) :   1.2073
B( 23-C , 30-C ) :   0.9836 B( 24-C , 25-C ) :   1.4871 B( 24-C , 81-H ) :   1.0052
B( 25-C , 26-C ) :   1.1730 B( 25-C , 82-H ) :   1.0106 B( 26-C , 27-N ) :   0.9750
B( 26-C , 30-C ) :   1.3976 B( 27-N , 28-O ) :   1.4751 B( 27-N , 29-O ) :   1.5290
B( 28-O , 29-O ) :   0.2447 B( 30-C , 31-C ) :   1.3150 B( 31-C , 32-C ) :   1.3915
B( 31-C , 83-H ) :   0.9434 B( 32-C , 33-C ) :   1.3148 B( 32-C , 84-H ) :   0.9715
B( 33-C , 34-S ) :   1.0747 B( 33-C , 37-C ) :   1.2686 B( 34-S , 35-C ) :   1.1559
B( 35-C , 36-C ) :   1.2269 B( 35-C , 43-C ) :   1.2295 B( 36-C , 37-C ) :   1.2655
B( 36-C , 42-C ) :   1.1916 B( 37-C , 38-N ) :   1.2224 B( 38-N , 39-C ) :   1.2046
B( 38-N , 85-H ) :   0.9311 B( 39-C , 40-C ) :   1.0566 B( 39-C , 42-C ) :   1.5854
B( 40-C , 41-N ) :   3.0552 B( 42-C , 86-H ) :   1.0096 B( 43-C , 44-C ) :   1.5323
B( 43-C , 87-H ) :   0.9526 B( 44-C , 45-C ) :   1.1851 B( 44-C , 88-H ) :   0.9774
B( 45-C , 46-C ) :   1.4502 B( 45-C , 49-C ) :   1.0437 B( 46-C , 47-C ) :   1.1559
B( 46-C , 89-H ) :   1.0065 B( 47-C , 48-C ) :   1.1093 B( 47-C , 52-C ) :   1.3571
B( 48-C , 49-C ) :   1.6861 B( 48-C , 50-C ) :   1.0899 B( 49-C , 90-H ) :   1.0137
B( 50-C , 51-N ) :   2.9652 B( 52-C , 53-C ) :   1.1522 B( 52-C , 56-C ) :   1.1027
B( 53-C , 54-C ) :   1.4758 B( 53-C , 91-H ) :   1.0085 B( 54-C , 55-C ) :   1.0378
B( 54-C , 59-C ) :   1.1585 B( 55-C , 56-C ) :   1.6899 B( 55-C , 92-H ) :   1.0148
B( 56-C , 57-C ) :   1.0907 B( 57-C , 58-N ) :   2.9633 B( 59-C , 60-C ) :   1.5846
B( 59-C , 93-H ) :   0.9746 B( 60-C , 61-C ) :   1.1990 B( 60-C , 94-H ) :   0.9681
B( 61-C , 62-S ) :   1.1685 B( 61-C , 65-C ) :   1.3142 B( 62-S , 63-C ) :   1.2238
B( 63-C , 64-C ) :   1.4203 B( 63-C , 95-H ) :   0.9685 B( 64-C , 65-C ) :   1.1973
B( 64-C , 75-C ) :   1.1212 B( 65-C , 66-C ) :   1.1591 B( 66-C , 67-C ) :   1.5628
B( 66-C , 96-H ) :   0.9899 B( 67-C , 68-N ) :   0.8719 B( 67-C , 71-C ) :   1.2156
B( 68-N , 69-O ) :   1.5458 B( 68-N , 70-O ) :   1.5623 B( 69-O , 70-O ) :   0.2753
B( 71-C , 72-N ) :   0.8587 B( 71-C , 75-C ) :   1.5797 B( 72-N , 73-O ) :   1.5623
B( 72-N , 74-O ) :   1.5556 B( 73-O , 74-O ) :   0.2782 B( 75-C , 97-H ) :   1.0044

-----------------------------------------------------------------------------
         ABSORPTION SPECTRUM VIA TRANSITION ELECTRIC DIPOLE MOMENTS
-----------------------------------------------------------------------------
State   Energy  Wavelength   fosc         T2         TX        TY        TZ
        (cm-1)    (nm)                  (au**2)     (au)      (au)      (au)
-----------------------------------------------------------------------------
   0    6077.7   1645.4   0.743268686  40.26089   4.09319   4.42752   1.97578
   1   11041.2    905.7   0.597918864  17.82801  -2.41171  -3.11963  -1.50981
   2   12743.9    784.7   0.009473174   0.24472   0.08943  -0.02673   0.48581
   3   13734.5    728.1   0.088775350   2.12792   0.95314   0.91667   0.61575
   4   17636.0    567.0   0.070919850   1.32386  -0.67757  -0.77661  -0.51152
   5   19169.9    521.7   0.304920952   5.23653  -1.08406  -1.85587  -0.78556
   6   20855.6    479.5   0.081638643   1.28869  -1.00142  -0.26824  -0.46248
   7   21745.7    459.9   0.023582467   0.35702  -0.16273  -0.47881  -0.31824
   8   21914.5    456.3   0.298861182   4.48965  -1.43906  -1.26170  -0.90932
   9   21979.0    455.0   0.020460273   0.30646  -0.52452  -0.04460  -0.17134
  10   22691.2    440.7   0.023606341   0.34249  -0.31283  -0.48954   0.07054
  11   23380.6    427.7   0.213847159   3.01108  -1.21083  -1.06407  -0.64245
  12   23779.0    420.5   0.084707052   1.17274  -0.86940  -0.49285  -0.41712
  13   24544.1    407.4   0.040713791   0.54610  -0.31572   0.50988  -0.43179
  14   24823.1    402.9   0.067089904   0.88977  -0.05275   0.91055   0.24059
  15   25592.0    390.7   0.007055907   0.09077  -0.06420  -0.26956   0.11824
  16   25863.5    386.6   0.002088988   0.02659   0.02627   0.07372  -0.14306
  17   26756.3    373.7   0.019439669   0.23919  -0.00909  -0.05383  -0.48601
  18   27263.4    366.8   0.136831949   1.65228  -0.67573  -0.64845  -0.88044
  19   27528.8    363.3   0.048854773   0.58425  -0.62755   0.06431  -0.43161
  20   27898.2    358.4   0.026290079   0.31024   0.54623  -0.08196   0.07175
  21   28665.1    348.9   0.034974890   0.40168  -0.45669  -0.41711  -0.13833
  22   28841.1    346.7   0.023783962   0.27149  -0.11503  -0.49853   0.09859
  23   29545.0    338.5   0.233303528   2.59964   1.18875  -1.08290  -0.11766
  24   29773.4    335.9   0.352181107   3.89415   1.57695  -1.15584  -0.26728
  25   29864.1    334.9   0.078664785   0.86717   0.31608   0.87459   0.04863
  26   30391.3    329.0   0.122060739   1.32222   0.93060  -0.60664  -0.29695
  27   30677.3    326.0   0.042992832   0.46137   0.60665  -0.30516   0.01506
  28   30986.0    322.7   0.147711508   1.56937  -0.86499   0.90505  -0.04513
  29   31427.4    318.2   0.093077689   0.97502  -0.91912   0.35976  -0.02836
  30   31549.1    317.0   0.003809455   0.03975  -0.16347  -0.11188   0.02266
  31   31827.1    314.2   0.069072392   0.71447  -0.41024   0.73868   0.02282
  32   32156.0    311.0   0.152809731   1.56446   0.17611  -1.22272   0.19595
  33   32316.5    309.4   0.052864284   0.53853  -0.26757   0.68097  -0.05676
  34   32695.9    305.8   0.027642627   0.27833   0.37897  -0.36599   0.02765
  35   33152.3    301.6   0.027353035   0.27162  -0.46263   0.06201   0.23185
  36   33250.2    300.7   0.005748604   0.05692   0.21203  -0.01992   0.10753
  37   33501.6    298.5   0.004365030   0.04289  -0.15101   0.07776   0.11850
  38   33883.4    295.1   0.041268037   0.40096   0.63121  -0.02254   0.04502
  39   34301.3    291.5   0.043684622   0.41927   0.34306  -0.29391  -0.46389
  40   34425.1    290.5   0.298004584   2.84986   1.65157  -0.32139   0.13747
  41   34451.1    290.3   0.035466941   0.33892  -0.09927  -0.05133   0.57134
  42   34691.5    288.3   0.025415557   0.24119  -0.08411  -0.45287  -0.17035
  43   34715.5    288.1   0.119822627   1.13630   0.55043   0.90164   0.14268
  44   34987.8    285.8   0.251047292   2.36219   0.80208   1.15804   0.61464
  45   35157.3    284.4   0.015090717   0.14131  -0.15018  -0.34442   0.01142
  46   35429.7    282.2   0.110317164   1.02506   0.78636  -0.63626  -0.04328
  47   35563.6    281.2   0.019546494   0.18094  -0.20271  -0.30033  -0.22283
  48   35681.4    280.3   0.078311638   0.72254  -0.81484  -0.15806  -0.18329
  49   35986.8    277.9   0.023787006   0.21761   0.30505   0.32946  -0.12651
  50   36119.6    276.9   0.061508426   0.56062  -0.66297  -0.30348   0.17026
  51   36302.6    275.5   0.000795775   0.00722   0.07687   0.02507   0.02606
  52   36386.9    274.8   0.038356540   0.34703  -0.55676  -0.09281  -0.16863
  53   36689.5    272.6   0.007496704   0.06727   0.16568   0.18544  -0.07367
  54   36721.9    272.3   0.022359955   0.20046  -0.40719   0.18021  -0.04667
  55   36940.9    270.7   0.016851643   0.15018  -0.33404   0.15355   0.12256
  56   37099.8    269.5   0.001876285   0.01665  -0.02264  -0.11945  -0.04324
  57   37126.8    269.3   0.006660235   0.05906  -0.05493  -0.09762  -0.21566
  58   37300.2    268.1   0.136575806   1.20542  -0.16001   1.07262   0.17115
  59   37351.1    267.7   0.040443121   0.35647   0.18117  -0.50247   0.26677
  60   37704.9    265.2   0.069984926   0.61106  -0.53486  -0.04102   0.56860
  61   37837.2    264.3   0.031263487   0.27202  -0.21753  -0.39742  -0.25836
  62   37920.1    263.7   0.124829430   1.08373   0.61635   0.81806  -0.18607
  63   38162.5    262.0   0.023226580   0.20037   0.09888  -0.34837  -0.26311
  64   38438.2    260.2   0.053423107   0.45755   0.65844   0.15047   0.03704
  65   38692.0    258.5   0.054543879   0.46409  -0.54982   0.26134  -0.30575
  66   38807.0    257.7   0.112523821   0.95458   0.79987  -0.48256   0.28621
  67   38936.2    256.8   0.086881694   0.73460   0.46091   0.71594   0.09788
  68   39043.2    256.1   0.031306039   0.26397  -0.13606   0.48891   0.08014
  69   39156.5    255.4   0.014209284   0.11947  -0.29256  -0.16515   0.08123
  70   39271.6    254.6   0.008108734   0.06798   0.10765  -0.18083   0.15390
  71   39453.8    253.5   0.153902838   1.28420   0.18593  -1.10501   0.16907
  72   39520.8    253.0   0.003709708   0.03090   0.03957   0.04929   0.16403
  73   39757.7    251.5   0.029155844   0.24142   0.48349   0.05001  -0.07181
  74   39911.0    250.6   0.007662940   0.06321  -0.23580   0.05925   0.06400
  75   40048.1    249.7   0.014543911   0.11956  -0.13621  -0.30444   0.09120
  76   40232.1    248.6   0.096830551   0.79235   0.69162  -0.55922  -0.03573

FINAL SINGLE POINT ENERGY     -4596.104658418889

DIPOLE MOMENT
-------------
                                X             Y             Z
Electronic contribution:     10.52670       2.18054       4.12565
Nuclear contribution   :    -15.30758      -2.72765      -4.64274
                        -----------------------------------------
Total Dipole Moment    :     -4.78088      -0.54711      -0.51709
                        -----------------------------------------
Magnitude (a.u.)       :      4.83978
Magnitude (Debye)      :     12.30175

Rotational constants in cm-1:     0.002634     0.000142     0.000138
Rotational constants in MHz :    78.976256     4.267638     4.128521

                             ****ORCA TERMINATED NORMALLY****
TOTAL RUN TIME: 0 days 0 hours 11 minutes 39 seconds 305 msec
