                         Program Version 4.2.0 -  RELEASE  -
|  1> # ORCA input file
|  2> # SCF done       -142.228297424548          0.000938219296
|  3> ! CAM-B3LYP def2-SVP def2/J RIJCOSX Grid4 TightSCF
|  4> %maxcore 5000
|  5> %tddft
|  6>     Mode sTDDFT
|  7>     Ethresh 5.0
|  8>     maxcore 5000
|  9> end
| 10>
| 11> %pal
| 12>   nprocs 6
| 13>   end
| 14> * xyz 0 1
| 15>    C      -14.25465        -7.46317        -3.34118
| 16>    S      -12.56965        -7.35493        -3.13307
| 17>    C      -12.47697        -5.81663        -3.91225
| 18>    C      -13.73679        -5.41132        -4.34351
| 19>    C      -14.76291        -6.36703        -4.00102
| 20>    C      -16.10456        -6.12059        -4.36957
| 21>    C      -16.41474        -4.98003        -5.05113
| 22>    N      -17.76742        -4.83963        -5.55663
| 23>    O      -18.66193        -5.21630        -4.83923
| 24>    O      -17.88019        -4.43285        -6.68846
| 25>    C      -15.40299        -4.03809        -5.39506
| 26>    N      -15.74821        -2.75892        -5.97948
| 27>    O      -16.78491        -2.25849        -5.61028
| 28>    O      -14.94221        -2.26007        -6.72830
| 29>    C      -14.09329        -4.25488        -5.06678
| 30>    C      -11.20961        -5.12630        -4.00214
| 31>    C      -10.01576        -5.83148        -4.16320
| 32>    C       -8.81176        -5.14262        -4.23249
| 33>    C       -8.86524        -3.74788        -4.14668
| 34>    N       -9.98289        -3.07630        -3.95868
| 35>    C      -11.11895        -3.73343        -3.87458
| 36>    C       -7.52295        -5.82977        -4.34875
| 37>    C       -6.50759        -5.32831        -5.15230
| 38>    C       -5.26261        -5.95755        -5.17391
| 39>    C       -5.09595        -7.06875        -4.33458
| 40>    N       -6.06241        -7.56238        -3.59276
| 41>    C       -7.24458        -6.97875        -3.60458
| 42>    C       -4.17024        -5.39758        -5.93277
| 43>    S       -4.05382        -3.67313        -6.06150
| 44>    C       -2.49541        -3.72865        -6.82908
| 45>    C       -2.06830        -5.05866        -6.94298
| 46>    C       -3.06008        -6.00261        -6.50456
| 47>    C       -2.85253        -7.38988        -6.76494
| 48>    C       -3.90432        -8.32388        -6.65110
| 49>    N       -4.74451        -9.10527        -6.64603
| 50>    C       -1.63524        -7.81835        -7.25004
| 51>    C       -0.58991        -6.91309        -7.45505
| 52>    C       -0.78972        -5.55211        -7.31943
| 53>    C        0.35150        -4.72623        -7.42043
| 54>    N        1.33933        -4.14259        -7.42499
| 55>    C       -1.93333        -2.54628        -7.36840
| 56>    S       -1.01664        -2.58263        -8.84111
| 57>    C       -0.85015        -0.86664        -8.90061
| 58>    C       -1.54238        -0.26568        -7.84606
| 59>    C       -2.15357        -1.21678        -6.97139
| 60>    C       -2.85928        -0.75976        -5.84773
| 61>    C       -3.03872         0.58502        -5.62475
| 62>    C       -3.79543         1.03641        -4.45907
| 63>    C       -4.82888         0.38681        -3.93949
| 64>    C       -2.49715         1.53551        -6.54214
| 65>    C       -2.75445         2.99753        -6.34210
| 66>    C       -1.76161         1.10841        -7.61234
| 67>    C       -0.05351        -0.31284        -9.95892
| 68>    C        0.59004         0.85391        -9.93686
| 69>    H      -14.79107        -8.31301        -2.96998
| 70>    H      -16.87512        -6.84077        -4.14081
| 71>    H      -13.35121        -3.53010        -5.36360
| 72>    H      -10.03575        -6.90810        -4.26090
| 73>    H       -7.96409        -3.15249        -4.20166
| 74>    H      -11.99163        -3.13316        -3.66062
| 75>    H       -6.67891        -4.46045        -5.77439
| 76>    H       -4.13518        -7.55431        -4.23417
| 77>    H       -7.99300        -7.42179        -2.96133
| 78>    H       -1.48216        -8.86761        -7.45266
| 79>    H        0.38664        -7.27821        -7.73445
| 80>    H       -3.25173        -1.46876        -5.13627
| 81>    H       -3.47766         1.97069        -4.01689
| 82>    H       -5.20240        -0.52899        -4.36690
| 83>    H       -5.35027         0.75479        -3.07273
| 84>    H       -2.24535         3.35846        -5.44835
| 85>    H       -3.82003         3.18587        -6.22163
| 86>    H       -2.39302         3.56899        -7.19324
| 87>    H       -1.37191         1.82805        -8.31427
| 88>    H        0.05557        -0.95878       -10.82179
| 89>    H        0.58432         1.50347        -9.08018
| 90>    H        1.17620         1.17549       -10.77961
| 91> *
| 92>
| 93>                          ****END OF INPUT****

CARTESIAN COORDINATES (ANGSTROEM)
---------------------------------
  C    -14.254650   -7.463170   -3.341180
  S    -12.569650   -7.354930   -3.133070
  C    -12.476970   -5.816630   -3.912250
  C    -13.736790   -5.411320   -4.343510
  C    -14.762910   -6.367030   -4.001020
  C    -16.104560   -6.120590   -4.369570
  C    -16.414740   -4.980030   -5.051130
  N    -17.767420   -4.839630   -5.556630
  O    -18.661930   -5.216300   -4.839230
  O    -17.880190   -4.432850   -6.688460
  C    -15.402990   -4.038090   -5.395060
  N    -15.748210   -2.758920   -5.979480
  O    -16.784910   -2.258490   -5.610280
  O    -14.942210   -2.260070   -6.728300
  C    -14.093290   -4.254880   -5.066780
  C    -11.209610   -5.126300   -4.002140
  C    -10.015760   -5.831480   -4.163200
  C     -8.811760   -5.142620   -4.232490
  C     -8.865240   -3.747880   -4.146680
  N     -9.982890   -3.076300   -3.958680
  C    -11.118950   -3.733430   -3.874580
  C     -7.522950   -5.829770   -4.348750
  C     -6.507590   -5.328310   -5.152300
  C     -5.262610   -5.957550   -5.173910
  C     -5.095950   -7.068750   -4.334580
  N     -6.062410   -7.562380   -3.592760
  C     -7.244580   -6.978750   -3.604580
  C     -4.170240   -5.397580   -5.932770
  S     -4.053820   -3.673130   -6.061500
  C     -2.495410   -3.728650   -6.829080
  C     -2.068300   -5.058660   -6.942980
  C     -3.060080   -6.002610   -6.504560
  C     -2.852530   -7.389880   -6.764940
  C     -3.904320   -8.323880   -6.651100
  N     -4.744510   -9.105270   -6.646030
  C     -1.635240   -7.818350   -7.250040
  C     -0.589910   -6.913090   -7.455050
  C     -0.789720   -5.552110   -7.319430
  C      0.351500   -4.726230   -7.420430
  N      1.339330   -4.142590   -7.424990
  C     -1.933330   -2.546280   -7.368400
  S     -1.016640   -2.582630   -8.841110
  C     -0.850150   -0.866640   -8.900610
  C     -1.542380   -0.265680   -7.846060
  C     -2.153570   -1.216780   -6.971390
  C     -2.859280   -0.759760   -5.847730
  C     -3.038720    0.585020   -5.624750
  C     -3.795430    1.036410   -4.459070
  C     -4.828880    0.386810   -3.939490
  C     -2.497150    1.535510   -6.542140
  C     -2.754450    2.997530   -6.342100
  C     -1.761610    1.108410   -7.612340
  C     -0.053510   -0.312840   -9.958920
  C      0.590040    0.853910   -9.936860
  H    -14.791070   -8.313010   -2.969980
  H    -16.875120   -6.840770   -4.140810
  H    -13.351210   -3.530100   -5.363600
  H    -10.035750   -6.908100   -4.260900
  H     -7.964090   -3.152490   -4.201660
  H    -11.991630   -3.133160   -3.660620
  H     -6.678910   -4.460450   -5.774390
  H     -4.135180   -7.554310   -4.234170
  H     -7.993000   -7.421790   -2.961330
  H     -1.482160   -8.867610   -7.452660
  H      0.386640   -7.278210   -7.734450
  H     -3.251730   -1.468760   -5.136270
  H     -3.477660    1.970690   -4.016890
  H     -5.202400   -0.528990   -4.366900
  H     -5.350270    0.754790   -3.072730
  H     -2.245350    3.358460   -5.448350
  H     -3.820030    3.185870   -6.221630
  H     -2.393020    3.568990   -7.193240
  H     -1.371910    1.828050   -8.314270
  H      0.055570   -0.958780  -10.821790
  H      0.584320    1.503470   -9.080180
  H      1.176200    1.175490  -10.779610

 Total Charge           Charge          ....    0
 Multiplicity           Mult            ....    1
 Number of Electrons    NEL             ....  390
 Basis Dimension        Dim             ....  878

ORBITAL ENERGIES
----------------

  NO   OCC          E(Eh)            E(eV)
   0   2.0000     -89.000068     -2421.8150
   1   2.0000     -88.986641     -2421.4496
   2   2.0000     -88.972721     -2421.0708
   3   2.0000     -19.247613      -523.7542
   4   2.0000     -19.247570      -523.7530
   5   2.0000     -19.247312      -523.7460
   6   2.0000     -19.246881      -523.7343
   7   2.0000     -14.654106      -398.7585
   8   2.0000     -14.654008      -398.7558
   9   2.0000     -14.419722      -392.3806
  10   2.0000     -14.415136      -392.2558
  11   2.0000     -14.414087      -392.2272
  12   2.0000     -14.411090      -392.1457
  13   2.0000     -10.351525      -281.6793
  14   2.0000     -10.350954      -281.6638
  15   2.0000     -10.336549      -281.2718
  16   2.0000     -10.335928      -281.2549
  17   2.0000     -10.334685      -281.2211
  18   2.0000     -10.334309      -281.2108
  19   2.0000     -10.326371      -280.9948
  20   2.0000     -10.323389      -280.9137
  21   2.0000     -10.322180      -280.8808
  22   2.0000     -10.321928      -280.8739
  23   2.0000     -10.321810      -280.8707
  24   2.0000     -10.320993      -280.8485
  25   2.0000     -10.317067      -280.7417
  26   2.0000     -10.316536      -280.7272
  27   2.0000     -10.316122      -280.7159
  28   2.0000     -10.315571      -280.7009
  29   2.0000     -10.315341      -280.6947
  30   2.0000     -10.314985      -280.6850
  31   2.0000     -10.314430      -280.6699
  32   2.0000     -10.314327      -280.6671
  33   2.0000     -10.314200      -280.6636
  34   2.0000     -10.313979      -280.6576
  35   2.0000     -10.313305      -280.6393
  36   2.0000     -10.311126      -280.5800
  37   2.0000     -10.310770      -280.5703
  38   2.0000     -10.309906      -280.5468
  39   2.0000     -10.307268      -280.4750
  40   2.0000     -10.307051      -280.4691
  41   2.0000     -10.302855      -280.3549
  42   2.0000     -10.301469      -280.3172
  43   2.0000     -10.288777      -279.9719
  44   2.0000     -10.288609      -279.9673
  45   2.0000     -10.284779      -279.8631
  46   2.0000     -10.283724      -279.8344
  47   2.0000     -10.282420      -279.7989
  48   2.0000     -10.277372      -279.6615
  49   2.0000     -10.277072      -279.6533
  50   2.0000     -10.274255      -279.5767
  51   2.0000     -10.273987      -279.5694
  52   2.0000     -10.270321      -279.4697
  53   2.0000     -10.267850      -279.4024
  54   2.0000      -8.095360      -220.2860
  55   2.0000      -8.081298      -219.9033
  56   2.0000      -8.067627      -219.5313
  57   2.0000      -6.064175      -165.0146
  58   2.0000      -6.059792      -164.8953
  59   2.0000      -6.058732      -164.8665
  60   2.0000      -6.050322      -164.6376
  61   2.0000      -6.046118      -164.5232
  62   2.0000      -6.044102      -164.4684
  63   2.0000      -6.036556      -164.2630
  64   2.0000      -6.032406      -164.1501
  65   2.0000      -6.030526      -164.0990
  66   2.0000      -1.333747       -36.2931
  67   2.0000      -1.326714       -36.1017
  68   2.0000      -1.153868       -31.3983
  69   2.0000      -1.148337       -31.2478
  70   2.0000      -1.058253       -28.7965
  71   2.0000      -1.049251       -28.5516
  72   2.0000      -1.031431       -28.0667
  73   2.0000      -1.029769       -28.0214
  74   2.0000      -1.004578       -27.3360
  75   2.0000      -1.000095       -27.2140
  76   2.0000      -0.995431       -27.0871
  77   2.0000      -0.990840       -26.9621
  78   2.0000      -0.963350       -26.2141
  79   2.0000      -0.948201       -25.8018
  80   2.0000      -0.940649       -25.5964
  81   2.0000      -0.928939       -25.2777
  82   2.0000      -0.923568       -25.1316
  83   2.0000      -0.910539       -24.7770
  84   2.0000      -0.897598       -24.4249
  85   2.0000      -0.896143       -24.3853
  86   2.0000      -0.893121       -24.3031
  87   2.0000      -0.879527       -23.9331
  88   2.0000      -0.863613       -23.5001
  89   2.0000      -0.860180       -23.4067
  90   2.0000      -0.856083       -23.2952
  91   2.0000      -0.843451       -22.9515
  92   2.0000      -0.839084       -22.8326
  93   2.0000      -0.817199       -22.2371
  94   2.0000      -0.794936       -21.6313
  95   2.0000      -0.793007       -21.5788
  96   2.0000      -0.790763       -21.5177
  97   2.0000      -0.782837       -21.3021
  98   2.0000      -0.769765       -20.9464
  99   2.0000      -0.756706       -20.5910
 100   2.0000      -0.749793       -20.4029
 101   2.0000      -0.733473       -19.9588
 102   2.0000      -0.723850       -19.6970
 103   2.0000      -0.722574       -19.6622
 104   2.0000      -0.720639       -19.6096
 105   2.0000      -0.711621       -19.3642
 106   2.0000      -0.697083       -18.9686
 107   2.0000      -0.684652       -18.6303
 108   2.0000      -0.675748       -18.3880
 109   2.0000      -0.673472       -18.3261
 110   2.0000      -0.664365       -18.0783
 111   2.0000      -0.652611       -17.7584
 112   2.0000      -0.648558       -17.6481
 113   2.0000      -0.646728       -17.5984
 114   2.0000      -0.638327       -17.3698
 115   2.0000      -0.633751       -17.2452
 116   2.0000      -0.632333       -17.2067
 117   2.0000      -0.623395       -16.9635
 118   2.0000      -0.620663       -16.8891
 119   2.0000      -0.613452       -16.6929
 120   2.0000      -0.610076       -16.6010
 121   2.0000      -0.606118       -16.4933
 122   2.0000      -0.604669       -16.4539
 123   2.0000      -0.597762       -16.2659
 124   2.0000      -0.592220       -16.1151
 125   2.0000      -0.588815       -16.0225
 126   2.0000      -0.583966       -15.8905
 127   2.0000      -0.581111       -15.8128
 128   2.0000      -0.565576       -15.3901
 129   2.0000      -0.562224       -15.2989
 130   2.0000      -0.561785       -15.2869
 131   2.0000      -0.556819       -15.1518
 132   2.0000      -0.555665       -15.1204
 133   2.0000      -0.547835       -14.9074
 134   2.0000      -0.542122       -14.7519
 135   2.0000      -0.536063       -14.5870
 136   2.0000      -0.534602       -14.5473
 137   2.0000      -0.531093       -14.4518
 138   2.0000      -0.527833       -14.3631
 139   2.0000      -0.523108       -14.2345
 140   2.0000      -0.518281       -14.1032
 141   2.0000      -0.513036       -13.9604
 142   2.0000      -0.511747       -13.9253
 143   2.0000      -0.508819       -13.8457
 144   2.0000      -0.507867       -13.8198
 145   2.0000      -0.502347       -13.6696
 146   2.0000      -0.498946       -13.5770
 147   2.0000      -0.497458       -13.5365
 148   2.0000      -0.496702       -13.5160
 149   2.0000      -0.490937       -13.3591
 150   2.0000      -0.489692       -13.3252
 151   2.0000      -0.485528       -13.2119
 152   2.0000      -0.482618       -13.1327
 153   2.0000      -0.475166       -12.9299
 154   2.0000      -0.472193       -12.8490
 155   2.0000      -0.466117       -12.6837
 156   2.0000      -0.464736       -12.6461
 157   2.0000      -0.461086       -12.5468
 158   2.0000      -0.457883       -12.4596
 159   2.0000      -0.456643       -12.4259
 160   2.0000      -0.452500       -12.3131
 161   2.0000      -0.449697       -12.2369
 162   2.0000      -0.444470       -12.0946
 163   2.0000      -0.444160       -12.0862
 164   2.0000      -0.440067       -11.9748
 165   2.0000      -0.429477       -11.6866
 166   2.0000      -0.427647       -11.6369
 167   2.0000      -0.422138       -11.4870
 168   2.0000      -0.420724       -11.4485
 169   2.0000      -0.415002       -11.2928
 170   2.0000      -0.411498       -11.1974
 171   2.0000      -0.410125       -11.1601
 172   2.0000      -0.405340       -11.0299
 173   2.0000      -0.401963       -10.9380
 174   2.0000      -0.397462       -10.8155
 175   2.0000      -0.393491       -10.7074
 176   2.0000      -0.388466       -10.5707
 177   2.0000      -0.387687       -10.5495
 178   2.0000      -0.383592       -10.4381
 179   2.0000      -0.380813       -10.3625
 180   2.0000      -0.371035       -10.0964
 181   2.0000      -0.369843       -10.0640
 182   2.0000      -0.365915        -9.9571
 183   2.0000      -0.362772        -9.8715
 184   2.0000      -0.350890        -9.5482
 185   2.0000      -0.347200        -9.4478
 186   2.0000      -0.343773        -9.3545
 187   2.0000      -0.342984        -9.3331
 188   2.0000      -0.333183        -9.0664
 189   2.0000      -0.332156        -9.0384
 190   2.0000      -0.322931        -8.7874
 191   2.0000      -0.299241        -8.1428
 192   2.0000      -0.293321        -7.9817
 193   2.0000      -0.287862        -7.8331
 194   2.0000      -0.237715        -6.4685
 195   0.0000      -0.090937        -2.4745
 196   0.0000      -0.076400        -2.0789
 197   0.0000      -0.050090        -1.3630
 198   0.0000      -0.049187        -1.3384
 199   0.0000      -0.027770        -0.7557

MULLIKEN ATOMIC CHARGES
-----------------------
   0 C :   -0.115812
   1 S :    0.201950
   2 C :   -0.147408
   3 C :    0.163480
   4 C :    0.090335
   5 C :   -0.028727
   6 C :    0.106805
   7 N :    0.251565
   8 O :   -0.228000
   9 O :   -0.220648
  10 C :    0.124837
  11 N :    0.252932
  12 O :   -0.223168
  13 O :   -0.226461
  14 C :   -0.069136
  15 C :    0.032301
  16 C :   -0.020934
  17 C :    0.048464
  18 C :   -0.008237
  19 N :   -0.042886
  20 C :   -0.016791
  21 C :    0.050761
  22 C :   -0.034499
  23 C :    0.045794
  24 C :    0.006652
  25 N :   -0.047427
  26 C :   -0.004668
  27 C :   -0.160498
  28 S :    0.170095
  29 C :   -0.153358
  30 C :    0.135022
  31 C :    0.156584
  32 C :   -0.089019
  33 C :   -0.215040
  34 N :    0.136177
  35 C :    0.021084
  36 C :    0.019209
  37 C :   -0.073064
  38 C :   -0.221881
  39 N :    0.130715
  40 C :   -0.135973
  41 S :    0.192934
  42 C :   -0.139773
  43 C :    0.122493
  44 C :    0.129672
  45 C :   -0.121462
  46 C :    0.085618
  47 C :   -0.037930
  48 C :   -0.007155
  49 C :   -0.080428
  50 C :    0.099803
  51 C :   -0.095756
  52 C :    0.021766
  53 C :   -0.019361
  54 H :    0.033894
  55 H :    0.003638
  56 H :    0.009083
  57 H :    0.000820
  58 H :    0.000552
  59 H :    0.010059
  60 H :   -0.000753
  61 H :    0.011266
  62 H :   -0.003489
  63 H :    0.006045
  64 H :    0.006073
  65 H :   -0.025001
  66 H :   -0.000375
  67 H :    0.014982
  68 H :    0.026897
  69 H :    0.031392
  70 H :    0.032471
  71 H :    0.009976
  72 H :   -0.040444
  73 H :    0.000314
  74 H :    0.030466
  75 H :    0.030588
Sum of atomic charges:   -0.0000000

LOEWDIN ATOMIC CHARGES
----------------------
   0 C :   -0.183977
   1 S :    0.527056
   2 C :   -0.167243
   3 C :   -0.047096
   4 C :   -0.049789
   5 C :    0.026028
   6 C :   -0.025356
   7 N :    0.281326
   8 O :   -0.191894
   9 O :   -0.188756
  10 C :   -0.027609
  11 N :    0.282052
  12 O :   -0.189841
  13 O :   -0.192765
  14 C :    0.024258
  15 C :   -0.061623
  16 C :    0.008662
  17 C :   -0.031379
  18 C :    0.025716
  19 N :   -0.053973
  20 C :    0.021540
  21 C :   -0.040981
  22 C :    0.005418
  23 C :   -0.062760
  24 C :    0.038702
  25 N :   -0.053522
  26 C :    0.025541
  27 C :   -0.181872
  28 S :    0.513138
  29 C :   -0.171904
  30 C :   -0.045721
  31 C :   -0.030967
  32 C :   -0.053391
  33 C :   -0.031401
  34 N :   -0.044081
  35 C :    0.015660
  36 C :    0.005643
  37 C :   -0.047594
  38 C :   -0.050055
  39 N :   -0.046546
  40 C :   -0.217997
  41 S :    0.527161
  42 C :   -0.166780
  43 C :   -0.043712
  44 C :   -0.038991
  45 C :   -0.024927
  46 C :   -0.018241
  47 C :   -0.020874
  48 C :   -0.032292
  49 C :   -0.018009
  50 C :   -0.044435
  51 C :   -0.021130
  52 C :   -0.043018
  53 C :   -0.033090
  54 H :    0.031880
  55 H :    0.047953
  56 H :    0.046326
  57 H :    0.029329
  58 H :    0.022230
  59 H :    0.024383
  60 H :    0.027009
  61 H :    0.024867
  62 H :    0.020791
  63 H :    0.045521
  64 H :    0.045002
  65 H :    0.013509
  66 H :    0.029601
  67 H :    0.019717
  68 H :    0.026868
  69 H :    0.035312
  70 H :    0.036116
  71 H :    0.030633
  72 H :    0.026172
  73 H :    0.031387
  74 H :    0.024200
  75 H :    0.028885

  Mayer bond orders larger than 0.100000
B(  0-C ,  1-S ) :   1.2125 B(  0-C ,  2-C ) :   0.1110 B(  0-C ,  4-C ) :   1.4358
B(  0-C , 54-H ) :   0.9707 B(  1-S ,  2-C ) :   1.2163 B(  2-C ,  3-C ) :   1.4025
B(  2-C , 15-C ) :   1.0146 B(  3-C ,  4-C ) :   1.1837 B(  3-C , 14-C ) :   1.1320
B(  4-C ,  5-C ) :   1.1151 B(  5-C ,  6-C ) :   1.5862 B(  5-C , 55-H ) :   1.0047
B(  6-C ,  7-N ) :   0.8630 B(  6-C , 10-C ) :   1.2018 B(  7-N ,  8-O ) :   1.5515
B(  7-N ,  9-O ) :   1.5615 B(  8-O ,  9-O ) :   0.2767 B( 10-C , 11-N ) :   0.8687
B( 10-C , 14-C ) :   1.5756 B( 11-N , 12-O ) :   1.5584 B( 11-N , 13-O ) :   1.5489
B( 12-O , 13-O ) :   0.2746 B( 14-C , 56-H ) :   0.9917 B( 15-C , 16-C ) :   1.3622
B( 15-C , 20-C ) :   1.3377 B( 16-C , 17-C ) :   1.4113 B( 16-C , 57-H ) :   0.9879
B( 17-C , 18-C ) :   1.3538 B( 17-C , 21-C ) :   0.9399 B( 18-C , 19-N ) :   1.5604
B( 18-C , 58-H ) :   0.9853 B( 19-N , 20-C ) :   1.5678 B( 20-C , 59-H ) :   0.9878
B( 21-C , 22-C ) :   1.3977 B( 21-C , 26-C ) :   1.3558 B( 22-C , 23-C ) :   1.3631
B( 22-C , 60-H ) :   0.9881 B( 23-C , 24-C ) :   1.3302 B( 23-C , 27-C ) :   1.0178
B( 24-C , 25-N ) :   1.5787 B( 24-C , 61-H ) :   0.9820 B( 25-N , 26-C ) :   1.5586
B( 26-C , 62-H ) :   0.9858 B( 27-C , 28-S ) :   1.1495 B( 27-C , 29-C ) :   0.1177
B( 27-C , 31-C ) :   1.4239 B( 28-S , 29-C ) :   1.1683 B( 29-C , 30-C ) :   1.3566
B( 29-C , 40-C ) :   1.1556 B( 30-C , 31-C ) :   1.1770 B( 30-C , 37-C ) :   1.2018
B( 31-C , 32-C ) :   1.1841 B( 32-C , 33-C ) :   1.0921 B( 32-C , 35-C ) :   1.5469
B( 33-C , 34-N ) :   3.0206 B( 35-C , 36-C ) :   1.1905 B( 35-C , 63-H ) :   0.9939
B( 36-C , 37-C ) :   1.5440 B( 36-C , 64-H ) :   0.9926 B( 37-C , 38-C ) :   1.0725
B( 38-C , 39-N ) :   3.0394 B( 40-C , 41-S ) :   1.1601 B( 40-C , 42-C ) :   0.1108
B( 40-C , 44-C ) :   1.3139 B( 41-S , 42-C ) :   1.1935 B( 42-C , 43-C ) :   1.3495
B( 42-C , 52-C ) :   1.0959 B( 43-C , 44-C ) :   1.2170 B( 43-C , 51-C ) :   1.1801
B( 44-C , 45-C ) :   1.1854 B( 45-C , 46-C ) :   1.5270 B( 45-C , 65-H ) :   0.9749
B( 46-C , 47-C ) :   1.0269 B( 46-C , 49-C ) :   1.2059 B( 47-C , 48-C ) :   1.9785
B( 47-C , 66-H ) :   0.9506 B( 48-C , 67-H ) :   0.9568 B( 48-C , 68-H ) :   0.9510
B( 49-C , 50-C ) :   1.0866 B( 49-C , 51-C ) :   1.5574 B( 50-C , 69-H ) :   0.9406
B( 50-C , 70-H ) :   0.9433 B( 50-C , 71-H ) :   0.9544 B( 51-C , 72-H ) :   0.9886
B( 52-C , 53-C ) :   1.9337 B( 52-C , 73-H ) :   0.9472 B( 53-C , 74-H ) :   0.9585
B( 53-C , 75-H ) :   0.9473

-----------------------------------------------------------------------------
         ABSORPTION SPECTRUM VIA TRANSITION ELECTRIC DIPOLE MOMENTS
-----------------------------------------------------------------------------
State   Energy  Wavelength   fosc         T2         TX        TY        TZ
        (cm-1)    (nm)                  (au**2)     (au)      (au)      (au)
-----------------------------------------------------------------------------
   0   15061.6    663.9   0.413736594   9.04330  -1.38216  -2.52696   0.86454
   1   23632.9    423.1   0.298829045   4.16275  -0.86342  -1.65073   0.83207
   2   25958.3    385.2   0.001208565   0.01533   0.08335   0.09082  -0.01152
   3   26192.0    381.8   0.059895982   0.75284   0.84755   0.06538  -0.17385
   4   27881.3    358.7   0.338217870   3.99355   1.95522   0.40833  -0.06257
   5   28349.1    352.7   0.052062406   0.60459   0.26472  -0.29199  -0.67027
   6   30680.2    325.9   0.149255971   1.60158   1.18182   0.04208  -0.45067
   7   31120.3    321.3   0.016031988   0.16960   0.22258  -0.32677   0.11523
   8   32161.8    310.9   0.135974826   1.39185  -0.90924   0.56678  -0.49386
   9   32219.6    310.4   0.002965028   0.03030   0.08475  -0.08834  -0.12373
  10   33242.0    300.8   0.004387929   0.04346   0.12355   0.11302  -0.12417
  11   33321.4    300.1   0.020314956   0.20071   0.26129   0.22361  -0.28711
  12   34037.6    293.8   0.012997985   0.12572  -0.08190   0.31476   0.14118
  13   34513.3    289.7   0.003858252   0.03680   0.07750   0.09216   0.14934
  14   35065.1    285.2   0.003793186   0.03561   0.18117   0.05060  -0.01511
  15   35553.5    281.3   0.030373406   0.28125   0.31945   0.40136   0.13457
  16   35781.4    279.5   0.002529619   0.02327  -0.09987   0.11530  -0.00250
  17   36582.8    273.4   0.127706643   1.14924  -0.71630  -0.32479   0.72847
  18   36891.8    271.1   0.004794326   0.04278   0.07296  -0.17811   0.07574
  19   37443.3    267.1   0.155278249   1.36525   0.52672   0.21184  -1.02125
  20   37698.3    265.3   0.126573571   1.10534  -1.04729   0.08768   0.02896
  21   38270.3    261.3   0.003487773   0.03000   0.01652  -0.00635  -0.17231
  22   38678.2    258.5   1.081513725   9.20537   2.04596  -1.70302  -1.45572
  23   38968.4    256.6   0.231137291   1.95269   0.96289   0.87590   0.50827
  24   39244.8    254.8   0.145414739   1.21984   0.32716  -0.84422   0.63254
  25   39303.8    254.4   0.044364975   0.37160  -0.54590  -0.27096   0.01361
  26   39562.2    252.8   0.236136041   1.96498  -1.29128   0.44944  -0.30915
  27   40105.4    249.3   0.002262286   0.01857  -0.06832   0.11460   0.02774
  28   40230.2    248.6   0.085691716   0.70123   0.20543  -0.58939   0.55826

FINAL SINGLE POINT ENERGY     -3396.184042272910

DIPOLE MOMENT
-------------
                                X             Y             Z
Electronic contribution:    -33.55060     -33.67983      -0.22492
Nuclear contribution   :     35.92290      33.20368       0.96553
                        -----------------------------------------
Total Dipole Moment    :      2.37230      -0.47615       0.74061
                        -----------------------------------------
Magnitude (a.u.)       :      2.53042
Magnitude (Debye)      :      6.43182

Rotational constants in cm-1:     0.002487     0.000563     0.000492
Rotational constants in MHz :    74.568938    16.879590    14.757749

                             ****ORCA TERMINATED NORMALLY****
TOTAL RUN TIME: 0 days 0 hours 6 minutes 2 seconds 500 msec
