                         Program Version 4.2.0 -  RELEASE  -
|  1> # ORCA input file
|  2> # SCF done       -202.697061522719          0.000531420262
|  3> ! CAM-B3LYP def2-SVP def2/J RIJCOSX Grid4 TightSCF
|  4> %maxcore 5000
|  5> %tddft
|  6>     Mode sTDDFT
|  7>     Ethresh 5.0
|  8>     maxcore 5000
|  9> end
| 10>
| 11> %pal
| 12>   nprocs 6
| 13>   end
| 14> * xyz 0 1
| 15>    C       -4.83994         1.38878         1.44436
| 16>    C       -5.07898         2.74508         2.09860
| 17>    O       -6.12016         3.25917         2.36911
| 18>    O       -3.88056         3.33641         2.35504
| 19>    C       -2.86705         2.51444         1.93938
| 20>    C       -3.35194         1.32623         1.38600
| 21>    C       -2.49288         0.36152         0.89480
| 22>    C       -1.14556         0.65514         0.98704
| 23>    C       -0.66327         1.83859         1.54773
| 24>    C       -1.51827         2.80604         2.03777
| 25>    C        0.83083         1.81193         1.44679
| 26>    C        1.05447         0.46153         0.71849
| 27>    O        2.09981         0.00339         0.37624
| 28>    O       -0.13008        -0.14645         0.53038
| 29>    C        1.41559         2.94018         0.67569
| 30>    S        2.83229         3.76309         1.23279
| 31>    C        2.86053         4.84902        -0.14128
| 32>    C        1.80234         4.54705        -0.98633
| 33>    C        0.99653         3.46904        -0.51646
| 34>    C       -0.10067         3.19281        -1.44575
| 35>    O       -0.97848         2.37019        -1.34246
| 36>    C        0.07677         4.17056        -2.59451
| 37>    C        1.28214         5.03748        -2.25878
| 38>    O        1.68864         5.94634        -2.94724
| 39>    C        3.88636         5.82584        -0.18623
| 40>    C        4.00857         6.76330        -1.16193
| 41>    C        5.03502         7.73885        -1.15259
| 42>    N        5.16502         8.70812        -2.12091
| 43>    C        4.36157         8.84562        -3.31251
| 44>    C        4.75656         7.83323        -4.38413
| 45>    C        6.24744         9.56382        -1.86730
| 46>    O        6.54643        10.50206        -2.58227
| 47>    C        6.81942         9.06469        -0.63617
| 48>    C        6.05263         7.94656        -0.22281
| 49>    C        6.61714         7.45502         1.01519
| 50>    O        6.29885         6.53555         1.74550
| 51>    N        7.69766         8.31319         1.27067
| 52>    C        8.55752         8.11399         2.41320
| 53>    C        9.89237         7.48118         2.02772
| 54>    C        7.83392         9.27489         0.29713
| 55>    C        8.85032        10.26401         0.31960
| 56>    C        8.95268        11.20601        -0.64829
| 57>    C        9.91973        12.25012        -0.73256
| 58>    S        9.39101        13.64272        -1.64428
| 59>    C       11.21512        12.42430        -0.25830
| 60>    C       12.02309        11.41324         0.45057
| 61>    O       11.63322        10.29818         0.76016
| 62>    C       13.37155        11.86848         0.74876
| 63>    C       14.38295        11.19864         1.40314
| 64>    N       15.47357        11.99980         1.45048
| 65>    C       16.71342        11.68146         2.11303
| 66>    C       16.70136        12.16610         3.56135
| 67>    C       15.19470        13.17991         0.85017
| 68>    C       13.89435        13.14362         0.39411
| 69>    C       13.13510        14.14259        -0.32812
| 70>    O       13.59667        15.21578        -0.68573
| 71>    C       11.75654        13.70104        -0.62427
| 72>    C       10.87470        14.46591        -1.34936
| 73>    C       11.05485        15.87236        -1.79647
| 74>    C       10.29688        16.83628        -0.86214
| 75>    O       10.38054        16.91583         0.32320
| 76>    O        9.46934        17.61471        -1.60035
| 77>    C        9.55044        17.25393        -2.92096
| 78>    C       10.46216        16.21546        -3.12226
| 79>    C       10.68488        15.68762        -4.38030
| 80>    C        9.95358        16.25804        -5.40662
| 81>    C        9.04345        17.30070        -5.20703
| 82>    C        8.82029        17.82490        -3.94761
| 83>    C        8.46317        17.64036        -6.53707
| 84>    C        9.17853        16.65755        -7.45883
| 85>    O        9.05861        16.53683        -8.63880
| 86>    O       10.02551        15.88884        -6.72353
| 87>    H       -5.31130         1.36162         0.46033
| 88>    H       -5.28899         0.59742         2.04700
| 89>    H       -2.84176        -0.55363         0.44816
| 90>    H       -1.16728         3.73300         2.45908
| 91>    H        1.31645         1.75128         2.42689
| 92>    H       -0.81867         4.77946        -2.73694
| 93>    H        0.24055         3.63556        -3.53306
| 94>    H        4.59762         5.80460         0.62979
| 95>    H        3.29879         6.78314        -1.97527
| 96>    H        4.53993         9.86023        -3.67956
| 97>    H        3.30428         8.73842        -3.05807
| 98>    H        5.80849         7.94591        -4.63602
| 99>    H        4.16300         7.99958        -5.27839
|100>    H        4.58411         6.81684        -4.03906
|101>    H        8.00945         7.44348         3.08185
|102>    H        8.71626         9.06868         2.92256
|103>    H        9.72099         6.55065         1.49161
|104>    H       10.46154         7.26289         2.92735
|105>    H       10.47799         8.14746         1.39964
|106>    H        9.55416        10.24386         1.13425
|107>    H        8.19872        11.23100        -1.42729
|108>    H       14.38246        10.21150         1.82107
|109>    H       17.53191        12.15764         1.56684
|110>    H       16.85531        10.59830         2.08131
|111>    H       16.55802        13.24328         3.59906
|112>    H       17.64442        11.92243         4.04211
|113>    H       15.89429        11.69063         4.11351
|114>    H       15.91760        13.96763         0.77414
|115>    H       12.12892        16.10439        -1.72449
|116>    H       11.38095        14.88526        -4.55616
|117>    H        8.12285        18.62522        -3.76755
|118>    H        8.66650        18.66498        -6.85315
|119>    H        7.38417        17.48627        -6.59340
|120> *
|121>
|122>                          ****END OF INPUT****

CARTESIAN COORDINATES (ANGSTROEM)
---------------------------------
  C     -4.839940    1.388780    1.444360
  C     -5.078980    2.745080    2.098600
  O     -6.120160    3.259170    2.369110
  O     -3.880560    3.336410    2.355040
  C     -2.867050    2.514440    1.939380
  C     -3.351940    1.326230    1.386000
  C     -2.492880    0.361520    0.894800
  C     -1.145560    0.655140    0.987040
  C     -0.663270    1.838590    1.547730
  C     -1.518270    2.806040    2.037770
  C      0.830830    1.811930    1.446790
  C      1.054470    0.461530    0.718490
  O      2.099810    0.003390    0.376240
  O     -0.130080   -0.146450    0.530380
  C      1.415590    2.940180    0.675690
  S      2.832290    3.763090    1.232790
  C      2.860530    4.849020   -0.141280
  C      1.802340    4.547050   -0.986330
  C      0.996530    3.469040   -0.516460
  C     -0.100670    3.192810   -1.445750
  O     -0.978480    2.370190   -1.342460
  C      0.076770    4.170560   -2.594510
  C      1.282140    5.037480   -2.258780
  O      1.688640    5.946340   -2.947240
  C      3.886360    5.825840   -0.186230
  C      4.008570    6.763300   -1.161930
  C      5.035020    7.738850   -1.152590
  N      5.165020    8.708120   -2.120910
  C      4.361570    8.845620   -3.312510
  C      4.756560    7.833230   -4.384130
  C      6.247440    9.563820   -1.867300
  O      6.546430   10.502060   -2.582270
  C      6.819420    9.064690   -0.636170
  C      6.052630    7.946560   -0.222810
  C      6.617140    7.455020    1.015190
  O      6.298850    6.535550    1.745500
  N      7.697660    8.313190    1.270670
  C      8.557520    8.113990    2.413200
  C      9.892370    7.481180    2.027720
  C      7.833920    9.274890    0.297130
  C      8.850320   10.264010    0.319600
  C      8.952680   11.206010   -0.648290
  C      9.919730   12.250120   -0.732560
  S      9.391010   13.642720   -1.644280
  C     11.215120   12.424300   -0.258300
  C     12.023090   11.413240    0.450570
  O     11.633220   10.298180    0.760160
  C     13.371550   11.868480    0.748760
  C     14.382950   11.198640    1.403140
  N     15.473570   11.999800    1.450480
  C     16.713420   11.681460    2.113030
  C     16.701360   12.166100    3.561350
  C     15.194700   13.179910    0.850170
  C     13.894350   13.143620    0.394110
  C     13.135100   14.142590   -0.328120
  O     13.596670   15.215780   -0.685730
  C     11.756540   13.701040   -0.624270
  C     10.874700   14.465910   -1.349360
  C     11.054850   15.872360   -1.796470
  C     10.296880   16.836280   -0.862140
  O     10.380540   16.915830    0.323200
  O      9.469340   17.614710   -1.600350
  C      9.550440   17.253930   -2.920960
  C     10.462160   16.215460   -3.122260
  C     10.684880   15.687620   -4.380300
  C      9.953580   16.258040   -5.406620
  C      9.043450   17.300700   -5.207030
  C      8.820290   17.824900   -3.947610
  C      8.463170   17.640360   -6.537070
  C      9.178530   16.657550   -7.458830
  O      9.058610   16.536830   -8.638800
  O     10.025510   15.888840   -6.723530
  H     -5.311300    1.361620    0.460330
  H     -5.288990    0.597420    2.047000
  H     -2.841760   -0.553630    0.448160
  H     -1.167280    3.733000    2.459080
  H      1.316450    1.751280    2.426890
  H     -0.818670    4.779460   -2.736940
  H      0.240550    3.635560   -3.533060
  H      4.597620    5.804600    0.629790
  H      3.298790    6.783140   -1.975270
  H      4.539930    9.860230   -3.679560
  H      3.304280    8.738420   -3.058070
  H      5.808490    7.945910   -4.636020
  H      4.163000    7.999580   -5.278390
  H      4.584110    6.816840   -4.039060
  H      8.009450    7.443480    3.081850
  H      8.716260    9.068680    2.922560
  H      9.720990    6.550650    1.491610
  H     10.461540    7.262890    2.927350
  H     10.477990    8.147460    1.399640
  H      9.554160   10.243860    1.134250
  H      8.198720   11.231000   -1.427290
  H     14.382460   10.211500    1.821070
  H     17.531910   12.157640    1.566840
  H     16.855310   10.598300    2.081310
  H     16.558020   13.243280    3.599060
  H     17.644420   11.922430    4.042110
  H     15.894290   11.690630    4.113510
  H     15.917600   13.967630    0.774140
  H     12.128920   16.104390   -1.724490
  H     11.380950   14.885260   -4.556160
  H      8.122850   18.625220   -3.767550
  H      8.666500   18.664980   -6.853150
  H      7.384170   17.486270   -6.593400

 Total Charge           Charge          ....    0
 Multiplicity           Mult            ....    1
 Number of Electrons    NEL             ....  516
 Basis Dimension        Dim             .... 1181

ORBITAL ENERGIES
----------------

  NO   OCC          E(Eh)            E(eV)
   0   2.0000     -88.985976     -2421.4315
   1   2.0000     -88.972144     -2421.0551
   2   2.0000     -19.285766      -524.7924
   3   2.0000     -19.281184      -524.6677
   4   2.0000     -19.278524      -524.5953
   5   2.0000     -19.278363      -524.5909
   6   2.0000     -19.222482      -523.0703
   7   2.0000     -19.221961      -523.0562
   8   2.0000     -19.217205      -522.9267
   9   2.0000     -19.210490      -522.7440
  10   2.0000     -19.209153      -522.7076
  11   2.0000     -19.208929      -522.7015
  12   2.0000     -19.205800      -522.6164
  13   2.0000     -19.203761      -522.5609
  14   2.0000     -19.189876      -522.1831
  15   2.0000     -19.185522      -522.0646
  16   2.0000     -14.491731      -394.3401
  17   2.0000     -14.449143      -393.1812
  18   2.0000     -14.447629      -393.1400
  19   2.0000     -10.416126      -283.4372
  20   2.0000     -10.408097      -283.2187
  21   2.0000     -10.407871      -283.2126
  22   2.0000     -10.407799      -283.2106
  23   2.0000     -10.376236      -282.3517
  24   2.0000     -10.375552      -282.3331
  25   2.0000     -10.371471      -282.2221
  26   2.0000     -10.368395      -282.1384
  27   2.0000     -10.365195      -282.0513
  28   2.0000     -10.364839      -282.0416
  29   2.0000     -10.344150      -281.4786
  30   2.0000     -10.343241      -281.4539
  31   2.0000     -10.343125      -281.4508
  32   2.0000     -10.342145      -281.4241
  33   2.0000     -10.337399      -281.2949
  34   2.0000     -10.336693      -281.2757
  35   2.0000     -10.334160      -281.2068
  36   2.0000     -10.333720      -281.1948
  37   2.0000     -10.332144      -281.1519
  38   2.0000     -10.324796      -280.9520
  39   2.0000     -10.324445      -280.9424
  40   2.0000     -10.323143      -280.9070
  41   2.0000     -10.316045      -280.7139
  42   2.0000     -10.315437      -280.6973
  43   2.0000     -10.304253      -280.3930
  44   2.0000     -10.300601      -280.2936
  45   2.0000     -10.300198      -280.2826
  46   2.0000     -10.299371      -280.2601
  47   2.0000     -10.298835      -280.2455
  48   2.0000     -10.297162      -280.2000
  49   2.0000     -10.297099      -280.1983
  50   2.0000     -10.296318      -280.1771
  51   2.0000     -10.295570      -280.1567
  52   2.0000     -10.295542      -280.1559
  53   2.0000     -10.295213      -280.1470
  54   2.0000     -10.295018      -280.1417
  55   2.0000     -10.294586      -280.1299
  56   2.0000     -10.294385      -280.1244
  57   2.0000     -10.293184      -280.0918
  58   2.0000     -10.292665      -280.0776
  59   2.0000     -10.292321      -280.0683
  60   2.0000     -10.289961      -280.0041
  61   2.0000     -10.289279      -279.9855
  62   2.0000     -10.286917      -279.9213
  63   2.0000     -10.286657      -279.9142
  64   2.0000     -10.284667      -279.8600
  65   2.0000     -10.282085      -279.7898
  66   2.0000     -10.272191      -279.5205
  67   2.0000     -10.271930      -279.5134
  68   2.0000     -10.258631      -279.1515
  69   2.0000     -10.256464      -279.0926
  70   2.0000     -10.253384      -279.0088
  71   2.0000     -10.251066      -278.9457
  72   2.0000      -8.081316      -219.9038
  73   2.0000      -8.067883      -219.5383
  74   2.0000      -6.050284      -164.6366
  75   2.0000      -6.046095      -164.5226
  76   2.0000      -6.044045      -164.4668
  77   2.0000      -6.036886      -164.2720
  78   2.0000      -6.032740      -164.1592
  79   2.0000      -6.030423      -164.0962
  80   2.0000      -1.223174       -33.2843
  81   2.0000      -1.216961       -33.1152
  82   2.0000      -1.214430       -33.0463
  83   2.0000      -1.214170       -33.0393
  84   2.0000      -1.140261       -31.0281
  85   2.0000      -1.135462       -30.8975
  86   2.0000      -1.129814       -30.7438
  87   2.0000      -1.128403       -30.7054
  88   2.0000      -1.124321       -30.5943
  89   2.0000      -1.122517       -30.5452
  90   2.0000      -1.121828       -30.5265
  91   2.0000      -1.120320       -30.4855
  92   2.0000      -1.120171       -30.4814
  93   2.0000      -1.119636       -30.4669
  94   2.0000      -1.111118       -30.2351
  95   2.0000      -1.059447       -28.8290
  96   2.0000      -1.050724       -28.5917
  97   2.0000      -1.016197       -27.6521
  98   2.0000      -1.003201       -27.2985
  99   2.0000      -0.972634       -26.4667
 100   2.0000      -0.971891       -26.4465
 101   2.0000      -0.941202       -25.6114
 102   2.0000      -0.934362       -25.4253
 103   2.0000      -0.929918       -25.3044
 104   2.0000      -0.925951       -25.1964
 105   2.0000      -0.921305       -25.0700
 106   2.0000      -0.905372       -24.6364
 107   2.0000      -0.901848       -24.5405
 108   2.0000      -0.887507       -24.1503
 109   2.0000      -0.883256       -24.0346
 110   2.0000      -0.876509       -23.8510
 111   2.0000      -0.863485       -23.4966
 112   2.0000      -0.855270       -23.2731
 113   2.0000      -0.855232       -23.2720
 114   2.0000      -0.844788       -22.9879
 115   2.0000      -0.841631       -22.9019
 116   2.0000      -0.839090       -22.8328
 117   2.0000      -0.833365       -22.6770
 118   2.0000      -0.828657       -22.5489
 119   2.0000      -0.812231       -22.1019
 120   2.0000      -0.799681       -21.7604
 121   2.0000      -0.794773       -21.6269
 122   2.0000      -0.785703       -21.3801
 123   2.0000      -0.776095       -21.1186
 124   2.0000      -0.768625       -20.9153
 125   2.0000      -0.752394       -20.4737
 126   2.0000      -0.750628       -20.4256
 127   2.0000      -0.747034       -20.3278
 128   2.0000      -0.740937       -20.1619
 129   2.0000      -0.732575       -19.9344
 130   2.0000      -0.722149       -19.6507
 131   2.0000      -0.715516       -19.4702
 132   2.0000      -0.707670       -19.2567
 133   2.0000      -0.705243       -19.1906
 134   2.0000      -0.704864       -19.1803
 135   2.0000      -0.700935       -19.0734
 136   2.0000      -0.696041       -18.9402
 137   2.0000      -0.693097       -18.8601
 138   2.0000      -0.687074       -18.6962
 139   2.0000      -0.668413       -18.1884
 140   2.0000      -0.655732       -17.8434
 141   2.0000      -0.654302       -17.8045
 142   2.0000      -0.653558       -17.7842
 143   2.0000      -0.651000       -17.7146
 144   2.0000      -0.643028       -17.4977
 145   2.0000      -0.638770       -17.3818
 146   2.0000      -0.629221       -17.1220
 147   2.0000      -0.626003       -17.0344
 148   2.0000      -0.624077       -16.9820
 149   2.0000      -0.618834       -16.8393
 150   2.0000      -0.611890       -16.6504
 151   2.0000      -0.604843       -16.4586
 152   2.0000      -0.602227       -16.3874
 153   2.0000      -0.592782       -16.1304
 154   2.0000      -0.588190       -16.0055
 155   2.0000      -0.587499       -15.9867
 156   2.0000      -0.583867       -15.8878
 157   2.0000      -0.581813       -15.8320
 158   2.0000      -0.581565       -15.8252
 159   2.0000      -0.574396       -15.6301
 160   2.0000      -0.573117       -15.5953
 161   2.0000      -0.571957       -15.5637
 162   2.0000      -0.569812       -15.5054
 163   2.0000      -0.567095       -15.4314
 164   2.0000      -0.566426       -15.4132
 165   2.0000      -0.565411       -15.3856
 166   2.0000      -0.558737       -15.2040
 167   2.0000      -0.554350       -15.0846
 168   2.0000      -0.547967       -14.9109
 169   2.0000      -0.546432       -14.8692
 170   2.0000      -0.544594       -14.8192
 171   2.0000      -0.542810       -14.7706
 172   2.0000      -0.541079       -14.7235
 173   2.0000      -0.538595       -14.6559
 174   2.0000      -0.536892       -14.6096
 175   2.0000      -0.534642       -14.5483
 176   2.0000      -0.533820       -14.5260
 177   2.0000      -0.527377       -14.3507
 178   2.0000      -0.525870       -14.3097
 179   2.0000      -0.523729       -14.2514
 180   2.0000      -0.522583       -14.2202
 181   2.0000      -0.521480       -14.1902
 182   2.0000      -0.520801       -14.1717
 183   2.0000      -0.519086       -14.1250
 184   2.0000      -0.515775       -14.0350
 185   2.0000      -0.514796       -14.0083
 186   2.0000      -0.513118       -13.9626
 187   2.0000      -0.512357       -13.9420
 188   2.0000      -0.508107       -13.8263
 189   2.0000      -0.506191       -13.7742
 190   2.0000      -0.505336       -13.7509
 191   2.0000      -0.504279       -13.7221
 192   2.0000      -0.502463       -13.6727
 193   2.0000      -0.500472       -13.6185
 194   2.0000      -0.500120       -13.6090
 195   2.0000      -0.497559       -13.5393
 196   2.0000      -0.495683       -13.4882
 197   2.0000      -0.494555       -13.4575
 198   2.0000      -0.488495       -13.2926
 199   2.0000      -0.484911       -13.1951
 200   2.0000      -0.482698       -13.1349
 201   2.0000      -0.482242       -13.1225
 202   2.0000      -0.481176       -13.0935
 203   2.0000      -0.477987       -13.0067
 204   2.0000      -0.475514       -12.9394
 205   2.0000      -0.474037       -12.8992
 206   2.0000      -0.473044       -12.8722
 207   2.0000      -0.469949       -12.7880
 208   2.0000      -0.468716       -12.7544
 209   2.0000      -0.468344       -12.7443
 210   2.0000      -0.466953       -12.7064
 211   2.0000      -0.466357       -12.6902
 212   2.0000      -0.462835       -12.5944
 213   2.0000      -0.459416       -12.5014
 214   2.0000      -0.456443       -12.4204
 215   2.0000      -0.454601       -12.3703
 216   2.0000      -0.453866       -12.3503
 217   2.0000      -0.448656       -12.2085
 218   2.0000      -0.447695       -12.1824
 219   2.0000      -0.445348       -12.1185
 220   2.0000      -0.441013       -12.0006
 221   2.0000      -0.439509       -11.9597
 222   2.0000      -0.439035       -11.9468
 223   2.0000      -0.438022       -11.9192
 224   2.0000      -0.436926       -11.8894
 225   2.0000      -0.434630       -11.8269
 226   2.0000      -0.434336       -11.8189
 227   2.0000      -0.429790       -11.6952
 228   2.0000      -0.429161       -11.6781
 229   2.0000      -0.424905       -11.5622
 230   2.0000      -0.417757       -11.3678
 231   2.0000      -0.413298       -11.2464
 232   2.0000      -0.392401       -10.6778
 233   2.0000      -0.390832       -10.6351
 234   2.0000      -0.384178       -10.4540
 235   2.0000      -0.372961       -10.1488
 236   2.0000      -0.363361        -9.8876
 237   2.0000      -0.358930        -9.7670
 238   2.0000      -0.355260        -9.6671
 239   2.0000      -0.354422        -9.6443
 240   2.0000      -0.352414        -9.5897
 241   2.0000      -0.347940        -9.4679
 242   2.0000      -0.346099        -9.4178
 243   2.0000      -0.344776        -9.3818
 244   2.0000      -0.340325        -9.2607
 245   2.0000      -0.338606        -9.2139
 246   2.0000      -0.331820        -9.0293
 247   2.0000      -0.330554        -8.9948
 248   2.0000      -0.329863        -8.9760
 249   2.0000      -0.327957        -8.9242
 250   2.0000      -0.325030        -8.8445
 251   2.0000      -0.310490        -8.4488
 252   2.0000      -0.307557        -8.3690
 253   2.0000      -0.303907        -8.2697
 254   2.0000      -0.296818        -8.0768
 255   2.0000      -0.292242        -7.9523
 256   2.0000      -0.290414        -7.9026
 257   2.0000      -0.232872        -6.3368
 258   0.0000      -0.092970        -2.5299
 259   0.0000      -0.054924        -1.4946
 260   0.0000      -0.040771        -1.1094
 261   0.0000      -0.035853        -0.9756
 262   0.0000      -0.012875        -0.3503

MULLIKEN ATOMIC CHARGES
-----------------------
   0 C :    0.114339
   1 C :    0.131174
   2 O :   -0.140529
   3 O :   -0.216780
   4 C :    0.209299
   5 C :   -0.104935
   6 C :   -0.100577
   7 C :    0.236205
   8 C :   -0.010244
   9 C :   -0.110349
  10 C :    0.067357
  11 C :    0.213009
  12 O :   -0.128018
  13 O :   -0.200478
  14 C :   -0.217241
  15 S :    0.215860
  16 C :   -0.149424
  17 C :    0.032850
  18 C :    0.013921
  19 C :    0.027375
  20 O :   -0.146469
  21 C :    0.070800
  22 C :    0.028739
  23 O :   -0.163246
  24 C :    0.063613
  25 C :   -0.019412
  26 C :    0.119638
  27 N :   -0.254206
  28 C :    0.100267
  29 C :    0.010707
  30 C :    0.166612
  31 O :   -0.214818
  32 C :   -0.062694
  33 C :   -0.062691
  34 C :    0.165195
  35 O :   -0.212434
  36 N :   -0.253867
  37 C :    0.096768
  38 C :   -0.002823
  39 C :    0.106727
  40 C :    0.024634
  41 C :    0.027609
  42 C :   -0.153644
  43 S :    0.193638
  44 C :    0.033050
  45 C :    0.127106
  46 O :   -0.170659
  47 C :   -0.011904
  48 C :    0.010148
  49 N :   -0.133403
  50 C :    0.089096
  51 C :    0.002005
  52 C :    0.008086
  53 C :   -0.016308
  54 C :    0.150816
  55 O :   -0.175834
  56 C :    0.035160
  57 C :   -0.227228
  58 C :    0.000621
  59 C :    0.221290
  60 O :   -0.125188
  61 O :   -0.208611
  62 C :    0.204591
  63 C :   -0.024347
  64 C :   -0.097758
  65 C :    0.205969
  66 C :   -0.107130
  67 C :   -0.109323
  68 C :    0.112173
  69 C :    0.135716
  70 O :   -0.141102
  71 O :   -0.213877
  72 H :    0.068383
  73 H :    0.065948
  74 H :   -0.020359
  75 H :   -0.020456
  76 H :    0.036311
  77 H :    0.066496
  78 H :    0.071816
  79 H :   -0.001725
  80 H :   -0.011163
  81 H :    0.037384
  82 H :    0.035178
  83 H :    0.022638
  84 H :    0.022645
  85 H :    0.018927
  86 H :    0.039076
  87 H :    0.024288
  88 H :    0.018681
  89 H :    0.014769
  90 H :    0.038944
  91 H :   -0.004337
  92 H :    0.018440
  93 H :    0.005611
  94 H :    0.034710
  95 H :    0.035692
  96 H :    0.032798
  97 H :    0.031065
  98 H :    0.030767
  99 H :    0.008846
 100 H :    0.088565
 101 H :   -0.012963
 102 H :   -0.016959
 103 H :    0.066451
 104 H :    0.068919
Sum of atomic charges:   -0.0000000

LOEWDIN ATOMIC CHARGES
----------------------
   0 C :   -0.045751
   1 C :    0.097495
   2 O :   -0.132813
   3 O :   -0.047264
   4 C :    0.044010
   5 C :   -0.042223
   6 C :   -0.023934
   7 C :    0.055289
   8 C :   -0.042161
   9 C :   -0.028208
  10 C :   -0.057292
  11 C :    0.098821
  12 O :   -0.127716
  13 O :   -0.026529
  14 C :   -0.139387
  15 S :    0.507692
  16 C :   -0.127941
  17 C :   -0.096286
  18 C :   -0.096829
  19 C :    0.080513
  20 O :   -0.132155
  21 C :   -0.066001
  22 C :    0.083694
  23 O :   -0.141840
  24 C :   -0.015550
  25 C :   -0.017535
  26 C :    0.068046
  27 N :    0.003942
  28 C :    0.037365
  29 C :   -0.058691
  30 C :    0.078966
  31 O :   -0.205321
  32 C :   -0.121087
  33 C :   -0.114246
  34 C :    0.081417
  35 O :   -0.202062
  36 N :    0.003637
  37 C :    0.036224
  38 C :   -0.063811
  39 C :    0.078868
  40 C :   -0.017718
  41 C :   -0.008901
  42 C :   -0.123726
  43 S :    0.493431
  44 C :   -0.086240
  45 C :    0.085509
  46 O :   -0.167434
  47 C :   -0.100623
  48 C :    0.031158
  49 N :    0.091071
  50 C :    0.044109
  51 C :   -0.056866
  52 C :    0.033677
  53 C :   -0.102153
  54 C :    0.089272
  55 O :   -0.164453
  56 C :   -0.087191
  57 C :   -0.128144
  58 C :   -0.068011
  59 C :    0.100943
  60 O :   -0.124792
  61 O :   -0.040016
  62 C :    0.044185
  63 C :   -0.050508
  64 C :   -0.024612
  65 C :    0.043910
  66 C :   -0.046147
  67 C :   -0.030640
  68 C :   -0.046264
  69 C :    0.097591
  70 O :   -0.132145
  71 O :   -0.044916
  72 H :    0.062637
  73 H :    0.060963
  74 H :    0.040599
  75 H :    0.039902
  76 H :    0.058832
  77 H :    0.062461
  78 H :    0.065624
  79 H :    0.033884
  80 H :    0.029876
  81 H :    0.035530
  82 H :    0.027960
  83 H :    0.028969
  84 H :    0.031428
  85 H :    0.023913
  86 H :    0.034921
  87 H :    0.024204
  88 H :    0.028062
  89 H :    0.028335
  90 H :    0.027951
  91 H :    0.031205
  92 H :    0.034699
  93 H :    0.029237
  94 H :    0.034145
  95 H :    0.034376
  96 H :    0.031266
  97 H :    0.033567
  98 H :    0.030856
  99 H :    0.030409
 100 H :    0.070029
 101 H :    0.043096
 102 H :    0.040903
 103 H :    0.061275
 104 H :    0.062188

  Mayer bond orders larger than 0.100000
B(  0-C ,  1-C ) :   0.9872 B(  0-C ,  5-C ) :   1.0113 B(  0-C , 72-H ) :   0.8958
B(  0-C , 73-H ) :   0.8979 B(  1-C ,  2-O ) :   2.2537 B(  1-C ,  3-O ) :   1.0751
B(  3-O ,  4-C ) :   1.0498 B(  4-C ,  5-C ) :   1.3868 B(  4-C ,  9-C ) :   1.3633
B(  5-C ,  6-C ) :   1.3502 B(  6-C ,  7-C ) :   1.3768 B(  6-C ,  9-C ) :   0.1238
B(  6-C , 74-H ) :   1.0252 B(  7-C ,  8-C ) :   1.3730 B(  7-C , 13-O ) :   1.0366
B(  8-C ,  9-C ) :   1.3504 B(  8-C , 10-C ) :   0.9503 B(  9-C , 75-H ) :   1.0299
B( 10-C , 11-C ) :   0.8974 B( 10-C , 14-C ) :   1.0152 B( 10-C , 76-H ) :   0.8417
B( 11-C , 12-O ) :   2.2778 B( 11-C , 13-O ) :   1.1079 B( 14-C , 15-S ) :   1.1656
B( 14-C , 18-C ) :   1.5629 B( 15-S , 16-C ) :   1.1609 B( 16-C , 17-C ) :   1.4399
B( 16-C , 24-C ) :   1.1526 B( 17-C , 18-C ) :   1.2032 B( 17-C , 22-C ) :   0.9593
B( 18-C , 19-C ) :   0.9326 B( 19-C , 20-O ) :   2.2133 B( 19-C , 21-C ) :   0.9981
B( 21-C , 22-C ) :   1.0060 B( 21-C , 77-H ) :   0.8971 B( 21-C , 78-H ) :   0.8926
B( 22-C , 23-O ) :   2.1262 B( 23-O , 80-H ) :   0.1125 B( 24-C , 25-C ) :   1.6077
B( 24-C , 79-H ) :   0.9293 B( 25-C , 26-C ) :   1.1655 B( 25-C , 80-H ) :   0.9360
B( 26-C , 27-N ) :   1.1603 B( 26-C , 33-C ) :   1.3347 B( 27-N , 28-C ) :   0.9411
B( 27-N , 30-C ) :   1.0696 B( 28-C , 29-C ) :   1.1253 B( 28-C , 81-H ) :   0.9279
B( 28-C , 82-H ) :   0.9477 B( 29-C , 83-H ) :   0.9637 B( 29-C , 84-H ) :   0.9672
B( 29-C , 85-H ) :   0.9672 B( 30-C , 31-O ) :   2.0168 B( 30-C , 32-C ) :   0.9857
B( 31-O , 92-H ) :   0.1189 B( 32-C , 33-C ) :   1.2596 B( 32-C , 39-C ) :   1.3255
B( 33-C , 34-C ) :   0.9818 B( 34-C , 35-O ) :   2.0207 B( 34-C , 36-N ) :   1.0690
B( 35-O , 79-H ) :   0.1158 B( 36-N , 37-C ) :   0.9417 B( 36-N , 39-C ) :   1.1607
B( 37-C , 38-C ) :   1.1236 B( 37-C , 86-H ) :   0.9287 B( 37-C , 87-H ) :   0.9490
B( 38-C , 88-H ) :   0.9608 B( 38-C , 89-H ) :   0.9655 B( 38-C , 90-H ) :   0.9620
B( 39-C , 40-C ) :   1.1748 B( 40-C , 41-C ) :   1.6490 B( 40-C , 91-H ) :   0.9480
B( 41-C , 42-C ) :   1.1107 B( 41-C , 92-H ) :   0.9169 B( 42-C , 43-S ) :   1.1519
B( 42-C , 44-C ) :   1.4875 B( 43-S , 57-C ) :   1.1661 B( 44-C , 45-C ) :   0.9484
B( 44-C , 56-C ) :   1.1735 B( 45-C , 46-O ) :   2.1657 B( 45-C , 47-C ) :   0.9977
B( 47-C , 48-C ) :   1.4261 B( 47-C , 53-C ) :   1.2901 B( 48-C , 49-N ) :   1.2344
B( 48-C , 93-H ) :   0.9927 B( 49-N , 50-C ) :   0.9485 B( 49-N , 52-C ) :   1.2392
B( 50-C , 51-C ) :   1.1110 B( 50-C , 94-H ) :   0.9509 B( 50-C , 95-H ) :   0.9514
B( 51-C , 96-H ) :   0.9677 B( 51-C , 97-H ) :   0.9684 B( 51-C , 98-H ) :   0.9672
B( 52-C , 53-C ) :   1.4191 B( 52-C , 99-H ) :   0.9942 B( 53-C , 54-C ) :   1.0044
B( 54-C , 55-O ) :   2.1639 B( 54-C , 56-C ) :   0.9440 B( 55-O ,100-H ) :   0.1047
B( 56-C , 57-C ) :   1.5664 B( 57-C , 58-C ) :   1.0423 B( 58-C , 59-C ) :   0.9005
B( 58-C , 63-C ) :   0.9266 B( 58-C ,100-H ) :   0.8146 B( 59-C , 60-O ) :   2.2868
B( 59-C , 61-O ) :   1.0843 B( 61-O , 62-C ) :   1.0524 B( 62-C , 63-C ) :   1.3650
B( 62-C , 67-C ) :   1.3659 B( 63-C , 64-C ) :   1.3526 B( 64-C , 65-C ) :   1.3615
B( 64-C , 67-C ) :   0.1248 B( 64-C ,101-H ) :   1.0315 B( 65-C , 66-C ) :   1.3813
B( 65-C , 71-O ) :   1.0523 B( 66-C , 67-C ) :   1.3489 B( 66-C , 68-C ) :   1.0122
B( 67-C ,102-H ) :   1.0299 B( 68-C , 69-C ) :   0.9847 B( 68-C ,103-H ) :   0.8979
B( 68-C ,104-H ) :   0.8973 B( 69-C , 70-O ) :   2.2531 B( 69-C , 71-O ) :   1.0754

-----------------------------------------------------------------------------
         ABSORPTION SPECTRUM VIA TRANSITION ELECTRIC DIPOLE MOMENTS
-----------------------------------------------------------------------------
State   Energy  Wavelength   fosc         T2         TX        TY        TZ
        (cm-1)    (nm)                  (au**2)     (au)      (au)      (au)
-----------------------------------------------------------------------------
   0   14515.4    688.9   0.811119685  18.39629   3.38628   2.52241   0.75288
   1   22553.0    443.4   0.009583158   0.13989  -0.35850   0.00898  -0.10622
   2   25996.1    384.7   0.002620170   0.03318  -0.17893  -0.02313   0.02511
   3   27096.8    369.0   0.137941611   1.67592   1.02868   0.73828  -0.26960
   4   27753.3    360.3   0.192633665   2.28504   0.85701   1.22968  -0.19614
   5   28457.9    351.4   0.104120471   1.20451   0.73954   0.80812  -0.06741
   6   28852.3    346.6   0.064516342   0.73615  -0.01625  -0.61273   0.60037
   7   29150.5    343.0   0.197221041   2.22732   1.05683   1.02676  -0.23705
   8   29721.7    336.5   0.034970896   0.38735  -0.48669  -0.38094   0.07329
   9   30021.6    333.1   0.011373780   0.12472  -0.00421  -0.30954   0.16997
  10   31347.5    319.0   0.004534375   0.04762   0.00018   0.17167  -0.13472
  11   31420.6    318.3   0.003169356   0.03321  -0.02482  -0.09082   0.15602
  12   31770.5    314.8   0.242307701   2.51083  -0.86740  -1.16952   0.62505
  13   31853.6    313.9   0.004540932   0.04693  -0.01033   0.17152  -0.13193
  14   32343.4    309.2   0.008449853   0.08601  -0.26641  -0.12246   0.00615
  15   32880.2    304.1   0.006509028   0.06517  -0.08746  -0.20373   0.12656
  16   32910.0    303.9   0.050346292   0.50363   0.34809  -0.46412   0.40873
  17   34778.3    287.5   0.005226118   0.04947  -0.18539   0.00945  -0.12253
  18   36348.4    275.1   0.090529048   0.81993   0.60378  -0.52378   0.42549
  19   36746.9    272.1   0.000413810   0.00371   0.01709  -0.05471   0.02053
  20   36832.9    271.5   0.002623720   0.02345   0.07997   0.13022   0.00988
  21   37252.6    268.4   0.003551495   0.03139   0.01605   0.07987  -0.15732
  22   37366.4    267.6   0.003830490   0.03375  -0.17539   0.04282  -0.03393
  23   37689.7    265.3   0.016597278   0.14497   0.14472  -0.30247   0.18039
  24   38061.5    262.7   0.008494688   0.07347   0.17608  -0.07594   0.19158
  25   38129.9    262.3   0.019822613   0.17115   0.08001  -0.22068   0.34065
  26   39153.0    255.4   0.024393728   0.20511  -0.13073  -0.41156   0.13653
  27   39329.1    254.3   0.087299065   0.73075  -0.57207   0.50699  -0.38268
  28   39457.0    253.4   0.018058188   0.15067   0.23589  -0.19690   0.23719
  29   39880.5    250.7   0.016581849   0.13688  -0.30579   0.09557  -0.18504
  30   40119.0    249.3   0.013912691   0.11417   0.23946  -0.04214   0.23463

FINAL SINGLE POINT ENERGY     -4049.220519261771

DIPOLE MOMENT
-------------
                                X             Y             Z
Electronic contribution:    -34.44680      -1.03099      -6.72578
Nuclear contribution   :     36.94105       0.79384       8.17578
                        -----------------------------------------
Total Dipole Moment    :      2.49425      -0.23715       1.45000
                        -----------------------------------------
Magnitude (a.u.)       :      2.89483
Magnitude (Debye)      :      7.35807

Rotational constants in cm-1:     0.001526     0.000280     0.000251
Rotational constants in MHz :    45.744323     8.404561     7.523905

                             ****ORCA TERMINATED NORMALLY****
TOTAL RUN TIME: 0 days 0 hours 9 minutes 9 seconds 348 msec
