                         Program Version 4.2.0 -  RELEASE  -
|  1> # ORCA input file
|  2> # SCF done       -173.491716264892          0.000582384237
|  3> ! CAM-B3LYP def2-SVP def2/J RIJCOSX Grid4 TightSCF
|  4> %maxcore 5000
|  5> %tddft
|  6>     Mode sTDDFT
|  7>     Ethresh 5.0
|  8>     maxcore 5000
|  9> end
| 10>
| 11> %pal
| 12>   nprocs 6
| 13>   end
| 14> * xyz 0 1
| 15>    C        5.12506         1.10499         8.63851
| 16>    S        6.81449         0.80059         8.85928
| 17>    C        6.58786        -0.48999         7.67557
| 18>    N        5.35923        -0.55916         7.25400
| 19>    N        4.55238         0.32423         7.78996
| 20>    C        7.66222        -1.32357         7.25425
| 21>    C        7.45088        -2.33347         6.37344
| 22>    C        8.38967        -3.26000         5.84670
| 23>    C        9.59579        -3.76103         6.32637
| 24>    N       10.37443        -3.39804         7.44066
| 25>    O       10.24452        -2.28979         7.93523
| 26>    O       11.16977        -4.22764         7.84783
| 27>    C        9.99686        -4.88526         5.51929
| 28>    C        9.06396        -5.10141         4.55928
| 29>    C        8.04410        -4.10308         4.68139
| 30>    C        7.02229        -3.86796         3.78160
| 31>    C        6.42948        -2.60799         3.47129
| 32>    C        5.66236        -2.75371         2.35388
| 33>    C        5.68285        -4.12075         1.93228
| 34>    N        4.93374        -4.51537         0.81197
| 35>    O        4.11059        -3.72311         0.38739
| 36>    O        5.14633        -5.60382         0.29416
| 37>    C        6.48353        -4.85800         2.82033
| 38>    C        6.63825        -6.23019         3.07288
| 39>    C        6.30937        -7.29179         2.26458
| 40>    C        6.52272        -8.61703         2.66855
| 41>    N        6.26105        -9.70617         1.87483
| 42>    C        5.74719        -9.67974         0.52373
| 43>    C        6.83800        -9.35347        -0.49180
| 44>    C        6.60084       -10.91341         2.49898
| 45>    O        6.46005       -12.00412         1.98849
| 46>    C        7.10368       -10.51413         3.80382
| 47>    C        7.03745        -9.11604         3.88494
| 48>    C        7.52638        -8.71950         5.19286
| 49>    O        7.65464        -7.63142         5.71700
| 50>    N        7.87154        -9.92757         5.81647
| 51>    C        8.36241        -9.94935         7.17441
| 52>    C        7.26702       -10.33082         8.16673
| 53>    C        7.62864       -11.01520         5.01128
| 54>    C        7.90574       -12.34295         5.37448
| 55>    C        7.68054       -13.40182         4.53472
| 56>    C        7.96840       -14.74559         4.84109
| 57>    C        7.78390       -15.81659         3.97737
| 58>    C        8.19067       -17.01429         4.61712
| 59>    C        8.64442       -16.62107         5.96474
| 60>    C        8.51144       -15.27410         6.08367
| 61>    C        9.13519       -17.46329         6.96895
| 62>    N        9.54362       -18.12099         7.81775
| 63>    C        8.18085       -18.29621         4.10440
| 64>    C        8.57856       -19.49206         4.75691
| 65>    C        8.41491       -20.55902         3.89589
| 66>    C        7.89534       -20.03582         2.63757
| 67>    C        7.74973       -18.69132         2.74642
| 68>    C        7.27936       -17.84949         1.73225
| 69>    N        6.89184       -17.19362         0.87279
| 70>    C        8.67644       -21.93598         4.11152
| 71>    C        9.15488       -22.45891         5.26869
| 72>    C        9.39543       -23.84924         5.42437
| 73>    S       10.01513       -24.53256         6.92695
| 74>    C        9.93031       -26.08123         6.10148
| 75>    N        9.48853       -25.97172         4.88313
| 76>    N        9.19643       -24.75868         4.51149
| 77>    C       10.30478       -27.33208         6.69533
| 78>    C       10.75657       -27.46693         7.93887
| 79>    H        4.61112         1.88169         9.16737
| 80>    H        8.63960        -1.10669         7.65508
| 81>    H        6.43618        -2.45173         6.01572
| 82>    H       10.90821        -5.42808         5.68424
| 83>    H        9.13437        -5.81555         3.76306
| 84>    H        6.65339        -1.68020         3.95983
| 85>    H        5.12053        -1.98684         1.83258
| 86>    H        7.06602        -6.46119         4.03959
| 87>    H        5.90303        -7.11615         1.28090
| 88>    H        4.93314        -8.95439         0.45899
| 89>    H        5.35183       -10.68057         0.33046
| 90>    H        7.24883        -8.36221        -0.31706
| 91>    H        6.41934        -9.38180        -1.49327
| 92>    H        7.64037       -10.08485        -0.42893
| 93>    H        8.71196        -8.93522         7.38665
| 94>    H        9.21130       -10.63479         7.24464
| 95>    H        6.45367        -9.61117         8.11668
| 96>    H        7.66953       -10.32824         9.17565
| 97>    H        6.86724       -11.31926         7.95060
| 98>    H        8.32814       -12.51613         6.35347
| 99>    H        7.25820       -13.21583         3.55545
|100>    H        7.39615       -15.74631         2.97986
|101>    H        8.76255       -14.69729         6.95422
|102>    H        8.94367       -19.53840         5.76316
|103>    H        7.67148       -20.63697         1.77575
|104>    H        8.47796       -22.61469         3.29295
|105>    H        9.37088       -21.83006         6.11972
|106>    H       10.18901       -28.18161         6.03712
|107>    H       10.87174       -26.61929         8.59525
|108>    H       11.02450       -28.42891         8.33803
|109> *
|110>
|111>                          ****END OF INPUT****

CARTESIAN COORDINATES (ANGSTROEM)
---------------------------------
  C      5.125060    1.104990    8.638510
  S      6.814490    0.800590    8.859280
  C      6.587860   -0.489990    7.675570
  N      5.359230   -0.559160    7.254000
  N      4.552380    0.324230    7.789960
  C      7.662220   -1.323570    7.254250
  C      7.450880   -2.333470    6.373440
  C      8.389670   -3.260000    5.846700
  C      9.595790   -3.761030    6.326370
  N     10.374430   -3.398040    7.440660
  O     10.244520   -2.289790    7.935230
  O     11.169770   -4.227640    7.847830
  C      9.996860   -4.885260    5.519290
  C      9.063960   -5.101410    4.559280
  C      8.044100   -4.103080    4.681390
  C      7.022290   -3.867960    3.781600
  C      6.429480   -2.607990    3.471290
  C      5.662360   -2.753710    2.353880
  C      5.682850   -4.120750    1.932280
  N      4.933740   -4.515370    0.811970
  O      4.110590   -3.723110    0.387390
  O      5.146330   -5.603820    0.294160
  C      6.483530   -4.858000    2.820330
  C      6.638250   -6.230190    3.072880
  C      6.309370   -7.291790    2.264580
  C      6.522720   -8.617030    2.668550
  N      6.261050   -9.706170    1.874830
  C      5.747190   -9.679740    0.523730
  C      6.838000   -9.353470   -0.491800
  C      6.600840  -10.913410    2.498980
  O      6.460050  -12.004120    1.988490
  C      7.103680  -10.514130    3.803820
  C      7.037450   -9.116040    3.884940
  C      7.526380   -8.719500    5.192860
  O      7.654640   -7.631420    5.717000
  N      7.871540   -9.927570    5.816470
  C      8.362410   -9.949350    7.174410
  C      7.267020  -10.330820    8.166730
  C      7.628640  -11.015200    5.011280
  C      7.905740  -12.342950    5.374480
  C      7.680540  -13.401820    4.534720
  C      7.968400  -14.745590    4.841090
  C      7.783900  -15.816590    3.977370
  C      8.190670  -17.014290    4.617120
  C      8.644420  -16.621070    5.964740
  C      8.511440  -15.274100    6.083670
  C      9.135190  -17.463290    6.968950
  N      9.543620  -18.120990    7.817750
  C      8.180850  -18.296210    4.104400
  C      8.578560  -19.492060    4.756910
  C      8.414910  -20.559020    3.895890
  C      7.895340  -20.035820    2.637570
  C      7.749730  -18.691320    2.746420
  C      7.279360  -17.849490    1.732250
  N      6.891840  -17.193620    0.872790
  C      8.676440  -21.935980    4.111520
  C      9.154880  -22.458910    5.268690
  C      9.395430  -23.849240    5.424370
  S     10.015130  -24.532560    6.926950
  C      9.930310  -26.081230    6.101480
  N      9.488530  -25.971720    4.883130
  N      9.196430  -24.758680    4.511490
  C     10.304780  -27.332080    6.695330
  C     10.756570  -27.466930    7.938870
  H      4.611120    1.881690    9.167370
  H      8.639600   -1.106690    7.655080
  H      6.436180   -2.451730    6.015720
  H     10.908210   -5.428080    5.684240
  H      9.134370   -5.815550    3.763060
  H      6.653390   -1.680200    3.959830
  H      5.120530   -1.986840    1.832580
  H      7.066020   -6.461190    4.039590
  H      5.903030   -7.116150    1.280900
  H      4.933140   -8.954390    0.458990
  H      5.351830  -10.680570    0.330460
  H      7.248830   -8.362210   -0.317060
  H      6.419340   -9.381800   -1.493270
  H      7.640370  -10.084850   -0.428930
  H      8.711960   -8.935220    7.386650
  H      9.211300  -10.634790    7.244640
  H      6.453670   -9.611170    8.116680
  H      7.669530  -10.328240    9.175650
  H      6.867240  -11.319260    7.950600
  H      8.328140  -12.516130    6.353470
  H      7.258200  -13.215830    3.555450
  H      7.396150  -15.746310    2.979860
  H      8.762550  -14.697290    6.954220
  H      8.943670  -19.538400    5.763160
  H      7.671480  -20.636970    1.775750
  H      8.477960  -22.614690    3.292950
  H      9.370880  -21.830060    6.119720
  H     10.189010  -28.181610    6.037120
  H     10.871740  -26.619290    8.595250
  H     11.024500  -28.428910    8.338030

 Total Charge           Charge          ....    0
 Multiplicity           Mult            ....    1
 Number of Electrons    NEL             ....  456
 Basis Dimension        Dim             .... 1054

ORBITAL ENERGIES
----------------

  NO   OCC          E(Eh)            E(eV)
   0   2.0000     -88.975878     -2421.1567
   1   2.0000     -88.975725     -2421.1526
   2   2.0000     -19.239772      -523.5408
   3   2.0000     -19.238446      -523.5047
   4   2.0000     -19.237012      -523.4657
   5   2.0000     -19.236301      -523.4464
   6   2.0000     -19.210938      -522.7562
   7   2.0000     -19.202490      -522.5263
   8   2.0000     -14.646888      -398.5621
   9   2.0000     -14.646584      -398.5538
  10   2.0000     -14.470034      -393.7496
  11   2.0000     -14.463421      -393.5697
  12   2.0000     -14.440321      -392.9411
  13   2.0000     -14.439757      -392.9258
  14   2.0000     -14.437862      -392.8742
  15   2.0000     -14.436507      -392.8373
  16   2.0000     -14.417234      -392.3129
  17   2.0000     -14.410567      -392.1315
  18   2.0000     -10.391926      -282.7787
  19   2.0000     -10.385555      -282.6053
  20   2.0000     -10.356580      -281.8169
  21   2.0000     -10.349305      -281.6189
  22   2.0000     -10.346910      -281.5537
  23   2.0000     -10.344107      -281.4774
  24   2.0000     -10.342723      -281.4398
  25   2.0000     -10.335423      -281.2412
  26   2.0000     -10.330612      -281.1102
  27   2.0000     -10.329810      -281.0884
  28   2.0000     -10.329577      -281.0821
  29   2.0000     -10.328314      -281.0477
  30   2.0000     -10.324380      -280.9406
  31   2.0000     -10.324094      -280.9329
  32   2.0000     -10.323277      -280.9106
  33   2.0000     -10.322776      -280.8970
  34   2.0000     -10.321656      -280.8665
  35   2.0000     -10.320081      -280.8237
  36   2.0000     -10.319406      -280.8053
  37   2.0000     -10.319115      -280.7974
  38   2.0000     -10.316941      -280.7382
  39   2.0000     -10.312312      -280.6123
  40   2.0000     -10.312216      -280.6097
  41   2.0000     -10.310350      -280.5589
  42   2.0000     -10.308734      -280.5149
  43   2.0000     -10.308673      -280.5133
  44   2.0000     -10.308114      -280.4980
  45   2.0000     -10.307509      -280.4816
  46   2.0000     -10.307338      -280.4769
  47   2.0000     -10.301810      -280.3265
  48   2.0000     -10.300971      -280.3037
  49   2.0000     -10.300031      -280.2781
  50   2.0000     -10.298234      -280.2292
  51   2.0000     -10.296450      -280.1807
  52   2.0000     -10.295538      -280.1558
  53   2.0000     -10.294948      -280.1398
  54   2.0000     -10.294510      -280.1278
  55   2.0000     -10.291366      -280.0423
  56   2.0000     -10.288395      -279.9615
  57   2.0000     -10.288280      -279.9583
  58   2.0000     -10.284210      -279.8476
  59   2.0000     -10.282752      -279.8079
  60   2.0000     -10.282224      -279.7935
  61   2.0000     -10.279955      -279.7318
  62   2.0000     -10.275181      -279.6019
  63   2.0000     -10.263175      -279.2752
  64   2.0000      -8.072381      -219.6607
  65   2.0000      -8.072309      -219.6587
  66   2.0000      -6.041004      -164.3841
  67   2.0000      -6.040923      -164.3819
  68   2.0000      -6.037653      -164.2929
  69   2.0000      -6.037447      -164.2873
  70   2.0000      -6.034980      -164.2201
  71   2.0000      -6.034662      -164.2115
  72   2.0000      -1.317567       -35.8528
  73   2.0000      -1.316218       -35.8161
  74   2.0000      -1.150690       -31.3119
  75   2.0000      -1.144974       -31.1563
  76   2.0000      -1.141699       -31.0672
  77   2.0000      -1.141384       -31.0586
  78   2.0000      -1.134050       -30.8591
  79   2.0000      -1.132440       -30.8153
  80   2.0000      -1.079822       -29.3835
  81   2.0000      -1.069223       -29.0950
  82   2.0000      -1.022172       -27.8147
  83   2.0000      -1.015193       -27.6248
  84   2.0000      -1.006028       -27.3754
  85   2.0000      -0.994384       -27.0586
  86   2.0000      -0.992135       -26.9974
  87   2.0000      -0.986242       -26.8370
  88   2.0000      -0.950909       -25.8755
  89   2.0000      -0.942078       -25.6353
  90   2.0000      -0.940644       -25.5962
  91   2.0000      -0.930424       -25.3181
  92   2.0000      -0.925332       -25.1796
  93   2.0000      -0.916859       -24.9490
  94   2.0000      -0.910325       -24.7712
  95   2.0000      -0.909221       -24.7412
  96   2.0000      -0.895188       -24.3593
  97   2.0000      -0.883627       -24.0447
  98   2.0000      -0.881419       -23.9846
  99   2.0000      -0.878563       -23.9069
 100   2.0000      -0.869364       -23.6566
 101   2.0000      -0.861582       -23.4448
 102   2.0000      -0.857475       -23.3331
 103   2.0000      -0.848912       -23.1001
 104   2.0000      -0.838004       -22.8033
 105   2.0000      -0.830252       -22.5923
 106   2.0000      -0.823596       -22.4112
 107   2.0000      -0.812823       -22.1180
 108   2.0000      -0.796143       -21.6642
 109   2.0000      -0.781433       -21.2639
 110   2.0000      -0.769696       -20.9445
 111   2.0000      -0.765651       -20.8344
 112   2.0000      -0.750492       -20.4219
 113   2.0000      -0.737059       -20.0564
 114   2.0000      -0.730728       -19.8841
 115   2.0000      -0.729163       -19.8415
 116   2.0000      -0.726436       -19.7673
 117   2.0000      -0.720108       -19.5951
 118   2.0000      -0.718847       -19.5608
 119   2.0000      -0.710162       -19.3245
 120   2.0000      -0.707702       -19.2576
 121   2.0000      -0.689001       -18.7487
 122   2.0000      -0.679653       -18.4943
 123   2.0000      -0.671868       -18.2824
 124   2.0000      -0.671613       -18.2755
 125   2.0000      -0.662800       -18.0357
 126   2.0000      -0.661350       -17.9962
 127   2.0000      -0.657938       -17.9034
 128   2.0000      -0.649638       -17.6775
 129   2.0000      -0.646506       -17.5923
 130   2.0000      -0.640881       -17.4393
 131   2.0000      -0.633602       -17.2412
 132   2.0000      -0.629889       -17.1401
 133   2.0000      -0.627389       -17.0721
 134   2.0000      -0.625320       -17.0158
 135   2.0000      -0.621234       -16.9046
 136   2.0000      -0.609581       -16.5875
 137   2.0000      -0.608012       -16.5448
 138   2.0000      -0.603780       -16.4297
 139   2.0000      -0.599560       -16.3149
 140   2.0000      -0.596036       -16.2190
 141   2.0000      -0.594978       -16.1902
 142   2.0000      -0.590583       -16.0706
 143   2.0000      -0.586695       -15.9648
 144   2.0000      -0.584345       -15.9008
 145   2.0000      -0.577329       -15.7099
 146   2.0000      -0.572470       -15.5777
 147   2.0000      -0.565461       -15.3870
 148   2.0000      -0.553626       -15.0649
 149   2.0000      -0.552080       -15.0229
 150   2.0000      -0.546430       -14.8691
 151   2.0000      -0.544233       -14.8093
 152   2.0000      -0.543079       -14.7779
 153   2.0000      -0.542404       -14.7596
 154   2.0000      -0.540127       -14.6976
 155   2.0000      -0.537583       -14.6284
 156   2.0000      -0.536874       -14.6091
 157   2.0000      -0.534024       -14.5315
 158   2.0000      -0.530537       -14.4367
 159   2.0000      -0.529561       -14.4101
 160   2.0000      -0.526867       -14.3368
 161   2.0000      -0.524732       -14.2787
 162   2.0000      -0.521532       -14.1916
 163   2.0000      -0.517421       -14.0797
 164   2.0000      -0.514732       -14.0066
 165   2.0000      -0.512168       -13.9368
 166   2.0000      -0.508810       -13.8454
 167   2.0000      -0.505658       -13.7597
 168   2.0000      -0.505076       -13.7438
 169   2.0000      -0.500223       -13.6118
 170   2.0000      -0.497686       -13.5427
 171   2.0000      -0.495536       -13.4842
 172   2.0000      -0.489907       -13.3310
 173   2.0000      -0.488738       -13.2992
 174   2.0000      -0.486821       -13.2471
 175   2.0000      -0.484825       -13.1928
 176   2.0000      -0.482424       -13.1274
 177   2.0000      -0.481711       -13.1080
 178   2.0000      -0.476167       -12.9571
 179   2.0000      -0.473588       -12.8870
 180   2.0000      -0.470288       -12.7972
 181   2.0000      -0.465687       -12.6720
 182   2.0000      -0.465475       -12.6662
 183   2.0000      -0.462706       -12.5909
 184   2.0000      -0.461601       -12.5608
 185   2.0000      -0.459443       -12.5021
 186   2.0000      -0.455798       -12.4029
 187   2.0000      -0.455056       -12.3827
 188   2.0000      -0.451819       -12.2946
 189   2.0000      -0.448569       -12.2062
 190   2.0000      -0.446571       -12.1518
 191   2.0000      -0.446008       -12.1365
 192   2.0000      -0.442606       -12.0439
 193   2.0000      -0.440753       -11.9935
 194   2.0000      -0.439437       -11.9577
 195   2.0000      -0.434171       -11.8144
 196   2.0000      -0.427514       -11.6333
 197   2.0000      -0.426494       -11.6055
 198   2.0000      -0.421910       -11.4808
 199   2.0000      -0.413884       -11.2624
 200   2.0000      -0.402183       -10.9440
 201   2.0000      -0.397996       -10.8300
 202   2.0000      -0.391177       -10.6445
 203   2.0000      -0.390575       -10.6281
 204   2.0000      -0.387348       -10.5403
 205   2.0000      -0.385385       -10.4868
 206   2.0000      -0.385259       -10.4834
 207   2.0000      -0.380044       -10.3415
 208   2.0000      -0.378025       -10.2866
 209   2.0000      -0.373457       -10.1623
 210   2.0000      -0.371916       -10.1203
 211   2.0000      -0.365407        -9.9432
 212   2.0000      -0.363983        -9.9045
 213   2.0000      -0.362473        -9.8634
 214   2.0000      -0.360533        -9.8106
 215   2.0000      -0.348278        -9.4771
 216   2.0000      -0.345722        -9.4076
 217   2.0000      -0.336861        -9.1665
 218   2.0000      -0.334552        -9.1036
 219   2.0000      -0.331157        -9.0112
 220   2.0000      -0.327056        -8.8997
 221   2.0000      -0.325447        -8.8559
 222   2.0000      -0.322853        -8.7853
 223   2.0000      -0.311261        -8.4698
 224   2.0000      -0.302184        -8.2229
 225   2.0000      -0.281321        -7.6551
 226   2.0000      -0.277571        -7.5531
 227   2.0000      -0.239051        -6.5049
 228   0.0000      -0.147713        -4.0195
 229   0.0000      -0.129357        -3.5200
 230   0.0000      -0.084634        -2.3030
 231   0.0000      -0.053851        -1.4654
 232   0.0000      -0.050069        -1.3624

MULLIKEN ATOMIC CHARGES
-----------------------
   0 C :   -0.004760
   1 S :    0.105667
   2 C :   -0.138362
   3 N :   -0.064405
   4 N :   -0.049418
   5 C :    0.083488
   6 C :   -0.083869
   7 C :    0.095320
   8 C :    0.066190
   9 N :    0.274010
  10 O :   -0.252825
  11 O :   -0.247660
  12 C :    0.018943
  13 C :    0.031321
  14 C :    0.032247
  15 C :    0.016381
  16 C :   -0.001027
  17 C :    0.028097
  18 C :    0.058289
  19 N :    0.281156
  20 O :   -0.246551
  21 O :   -0.263168
  22 C :    0.094172
  23 C :   -0.090858
  24 C :   -0.006385
  25 C :    0.142858
  26 N :   -0.254674
  27 C :    0.095957
  28 C :    0.005933
  29 C :    0.172405
  30 O :   -0.198461
  31 C :   -0.072317
  32 C :   -0.062171
  33 C :    0.168937
  34 O :   -0.198369
  35 N :   -0.255692
  36 C :    0.097146
  37 C :    0.002573
  38 C :    0.159376
  39 C :   -0.032627
  40 C :    0.017303
  41 C :    0.100334
  42 C :   -0.091541
  43 C :    0.116025
  44 C :   -0.100003
  45 C :   -0.007784
  46 C :   -0.168063
  47 N :    0.130725
  48 C :    0.119133
  49 C :   -0.112801
  50 C :    0.116605
  51 C :   -0.000742
  52 C :   -0.090828
  53 C :   -0.179948
  54 N :    0.142404
  55 C :    0.000591
  56 C :    0.079145
  57 C :   -0.105792
  58 S :    0.097226
  59 C :   -0.088245
  60 N :   -0.044217
  61 N :   -0.051253
  62 C :    0.044596
  63 C :   -0.018607
  64 H :    0.049246
  65 H :    0.021038
  66 H :    0.036517
  67 H :   -0.000886
  68 H :   -0.004369
  69 H :    0.005798
  70 H :    0.008857
  71 H :    0.032468
  72 H :    0.002541
  73 H :    0.040229
  74 H :    0.044990
  75 H :    0.020019
  76 H :    0.029672
  77 H :    0.027108
  78 H :    0.048936
  79 H :    0.026214
  80 H :    0.034030
  81 H :    0.029278
  82 H :    0.014558
  83 H :   -0.029949
  84 H :    0.018844
  85 H :    0.019668
  86 H :   -0.002448
  87 H :   -0.000473
  88 H :    0.004522
  89 H :    0.015145
  90 H :    0.006458
  91 H :    0.018411
  92 H :    0.031996
  93 H :    0.040455
Sum of atomic charges:   -0.0000000

LOEWDIN ATOMIC CHARGES
----------------------
   0 C :   -0.145735
   1 S :    0.400856
   2 C :   -0.149487
   3 N :   -0.082505
   4 N :   -0.068453
   5 C :   -0.022718
   6 C :   -0.002588
   7 C :    0.006398
   8 C :   -0.037221
   9 N :    0.286986
  10 O :   -0.211360
  11 O :   -0.211115
  12 C :    0.013430
  13 C :   -0.029929
  14 C :    0.045415
  15 C :    0.041510
  16 C :   -0.041861
  17 C :    0.026896
  18 C :   -0.051962
  19 N :    0.287806
  20 O :   -0.210156
  21 O :   -0.224103
  22 C :    0.008919
  23 C :    0.008140
  24 C :   -0.007922
  25 C :    0.067478
  26 N :    0.007278
  27 C :    0.039175
  28 C :   -0.058431
  29 C :    0.079090
  30 O :   -0.187296
  31 C :   -0.109513
  32 C :   -0.101802
  33 C :    0.081293
  34 O :   -0.183250
  35 N :    0.003017
  36 C :    0.037340
  37 C :   -0.059967
  38 C :    0.080195
  39 C :   -0.045785
  40 C :    0.045405
  41 C :   -0.026667
  42 C :    0.001423
  43 C :    0.027684
  44 C :   -0.077274
  45 C :    0.049378
  46 C :   -0.029183
  47 N :   -0.065092
  48 C :    0.045640
  49 C :   -0.028807
  50 C :   -0.010226
  51 C :    0.056692
  52 C :   -0.079861
  53 C :   -0.033592
  54 N :   -0.055548
  55 C :    0.010865
  56 C :   -0.021498
  57 C :   -0.147810
  58 S :    0.389932
  59 C :   -0.144312
  60 N :   -0.070761
  61 N :   -0.075828
  62 C :   -0.040971
  63 C :   -0.019710
  64 H :    0.025308
  65 H :    0.031018
  66 H :    0.042964
  67 H :    0.035825
  68 H :    0.030321
  69 H :    0.034880
  70 H :    0.040054
  71 H :    0.040056
  72 H :    0.029306
  73 H :    0.030441
  74 H :    0.038820
  75 H :    0.024297
  76 H :    0.034430
  77 H :    0.030595
  78 H :    0.040002
  79 H :    0.024006
  80 H :    0.034032
  81 H :    0.033272
  82 H :    0.021723
  83 H :    0.028041
  84 H :    0.043912
  85 H :    0.041861
  86 H :    0.034256
  87 H :    0.031589
  88 H :    0.039773
  89 H :    0.041678
  90 H :    0.037742
  91 H :    0.046523
  92 H :    0.021935
  93 H :    0.033397

  Mayer bond orders larger than 0.100000
B(  0-C ,  1-S ) :   1.1485 B(  0-C ,  4-N ) :   1.7105 B(  0-C , 64-H ) :   0.9712
B(  1-S ,  2-C ) :   1.1139 B(  2-C ,  3-N ) :   1.6896 B(  2-C ,  5-C ) :   1.0856
B(  3-N ,  4-N ) :   1.2095 B(  5-C ,  6-C ) :   1.7079 B(  5-C , 65-H ) :   0.9387
B(  6-C ,  7-C ) :   1.1163 B(  6-C , 66-H ) :   0.9555 B(  7-C ,  8-C ) :   1.5070
B(  7-C , 14-C ) :   1.0313 B(  8-C ,  9-N ) :   0.9494 B(  8-C , 12-C ) :   1.1342
B(  9-N , 10-O ) :   1.4805 B(  9-N , 11-O ) :   1.5378 B( 10-O , 11-O ) :   0.2563
B( 12-C , 13-C ) :   1.5821 B( 12-C , 67-H ) :   1.0075 B( 13-C , 14-C ) :   1.1303
B( 13-C , 68-H ) :   1.0012 B( 14-C , 15-C ) :   1.4922 B( 15-C , 16-C ) :   1.1464
B( 15-C , 22-C ) :   1.0152 B( 16-C , 17-C ) :   1.5387 B( 16-C , 69-H ) :   1.0064
B( 17-C , 18-C ) :   1.1660 B( 17-C , 70-H ) :   1.0064 B( 18-C , 19-N ) :   0.9673
B( 18-C , 22-C ) :   1.4168 B( 19-N , 20-O ) :   1.5375 B( 19-N , 21-O ) :   1.4547
B( 20-O , 21-O ) :   0.2476 B( 21-O , 72-H ) :   0.1070 B( 22-C , 23-C ) :   1.2116
B( 23-C , 24-C ) :   1.5038 B( 23-C , 71-H ) :   0.9396 B( 24-C , 25-C ) :   1.1961
B( 24-C , 72-H ) :   0.9438 B( 25-C , 26-N ) :   1.1639 B( 25-C , 32-C ) :   1.2591
B( 26-N , 27-C ) :   0.9338 B( 26-N , 29-C ) :   1.0711 B( 27-C , 28-C ) :   1.1245
B( 27-C , 73-H ) :   0.9484 B( 27-C , 74-H ) :   0.9285 B( 28-C , 75-H ) :   0.9680
B( 28-C , 76-H ) :   0.9677 B( 28-C , 77-H ) :   0.9635 B( 29-C , 30-O ) :   2.0326
B( 29-C , 31-C ) :   0.9757 B( 30-O , 84-H ) :   0.1141 B( 31-C , 32-C ) :   1.3188
B( 31-C , 38-C ) :   1.2828 B( 32-C , 33-C ) :   0.9782 B( 33-C , 34-O ) :   2.0187
B( 33-C , 35-N ) :   1.0651 B( 34-O , 71-H ) :   0.1070 B( 35-N , 36-C ) :   0.9405
B( 35-N , 38-C ) :   1.1616 B( 36-C , 37-C ) :   1.1204 B( 36-C , 78-H ) :   0.9281
B( 36-C , 79-H ) :   0.9496 B( 37-C , 80-H ) :   0.9635 B( 37-C , 81-H ) :   0.9682
B( 37-C , 82-H ) :   0.9688 B( 38-C , 39-C ) :   1.1939 B( 39-C , 40-C ) :   1.5154
B( 39-C , 83-H ) :   0.9620 B( 40-C , 41-C ) :   1.1462 B( 40-C , 84-H ) :   0.9551
B( 41-C , 42-C ) :   1.4768 B( 41-C , 45-C ) :   1.0423 B( 42-C , 43-C ) :   1.1280
B( 42-C , 85-H ) :   1.0105 B( 43-C , 44-C ) :   1.1043 B( 43-C , 48-C ) :   1.3825
B( 44-C , 45-C ) :   1.6823 B( 44-C , 46-C ) :   1.0897 B( 45-C , 86-H ) :   1.0140
B( 46-C , 47-N ) :   2.9669 B( 48-C , 49-C ) :   1.1467 B( 48-C , 52-C ) :   1.0994
B( 49-C , 50-C ) :   1.5337 B( 49-C , 87-H ) :   0.9931 B( 50-C , 51-C ) :   1.0330
B( 50-C , 55-C ) :   1.0868 B( 51-C , 52-C ) :   1.6715 B( 51-C , 88-H ) :   1.0248
B( 52-C , 53-C ) :   1.0888 B( 53-C , 54-N ) :   2.9704 B( 55-C , 56-C ) :   1.6919
B( 55-C , 89-H ) :   0.9824 B( 56-C , 57-C ) :   1.1080 B( 56-C , 90-H ) :   0.9524
B( 57-C , 58-S ) :   1.0947 B( 57-C , 61-N ) :   1.6831 B( 58-S , 59-C ) :   1.0932
B( 59-C , 60-N ) :   1.6708 B( 59-C , 62-C ) :   1.1024 B( 60-N , 61-N ) :   1.2245
B( 62-C , 63-C ) :   1.9080 B( 62-C , 91-H ) :   0.9667 B( 63-C , 92-H ) :   0.9588
B( 63-C , 93-H ) :   0.9517

-----------------------------------------------------------------------------
         ABSORPTION SPECTRUM VIA TRANSITION ELECTRIC DIPOLE MOMENTS
-----------------------------------------------------------------------------
State   Energy  Wavelength   fosc         T2         TX        TY        TZ
        (cm-1)    (nm)                  (au**2)     (au)      (au)      (au)
-----------------------------------------------------------------------------
   0    5570.6   1795.1   0.460058897  27.18839   0.35464  -5.20172   0.06906
   1   10468.9    955.2   0.252041720   7.92584   0.63867  -2.69973   0.47898
   2   11933.4    838.0   0.027742642   0.76535   0.22425  -0.09941  -0.83975
   3   14215.7    703.4   0.163119782   3.77757   0.25273  -1.91420  -0.22261
   4   16883.3    592.3   0.040008847   0.78014   0.41048  -0.09018   0.77686
   5   18089.6    552.8   0.171290504   3.11731  -0.46174   0.66404  -1.56945
   6   19121.9    523.0   0.035973827   0.61934   0.08915  -0.77819   0.07624
   7   22082.6    452.8   0.188051692   2.80351   0.05297  -1.67312  -0.03728
   8   22240.5    449.6   0.271239270   4.01498   0.63116  -1.89973  -0.08733
   9   22916.4    436.4   0.012833453   0.18436   0.04246  -0.42715  -0.01000
  10   23198.4    431.1   0.000410093   0.00582  -0.06248  -0.04227  -0.01135
  11   23456.4    426.3   0.209559959   2.94119  -0.31391   1.65785  -0.30688
  12   23920.0    418.1   0.102477431   1.41040   0.52574   0.58924   0.88702
  13   24470.7    408.7   0.184426314   2.48114   0.71156   0.84207   1.12506
  14   24541.1    407.5   0.000540744   0.00725   0.08030   0.00049  -0.02838
  15   25494.3    392.2   0.179303305   2.31537  -0.65662   1.33083  -0.33629
  16   25882.7    386.4   0.007447179   0.09472   0.13396   0.06682  -0.26891
  17   25971.2    385.0   0.195731977   2.48110  -0.40325   1.50801   0.21069
  18   26342.2    379.6   0.027143857   0.33923  -0.48502  -0.07120  -0.31452
  19   26749.3    373.8   0.040221471   0.49502  -0.34773   0.28866   0.53924
  20   27210.6    367.5   0.037778865   0.45707  -0.36888   0.23200   0.51689
  21   27283.0    366.5   0.016174548   0.19517  -0.18993   0.31706   0.24201
  22   28066.2    356.3   0.154484066   1.81207   0.92962  -0.26626   0.93648
  23   28272.4    353.7   0.237170456   2.76168   0.01600  -1.53040  -0.64753
  24   28893.6    346.1   0.010179255   0.11598   0.06062   0.32731   0.07193
  25   30490.3    328.0   0.323726277   3.49536   0.22302  -1.73591   0.65743
  26   30660.4    326.2   0.229981453   2.46940  -1.01804   0.21592  -1.17744
  27   31111.1    321.4   0.102007003   1.07942  -0.55708   0.67086  -0.56483
  28   31481.0    317.7   0.054604955   0.57103  -0.40590  -0.02272  -0.63699
  29   31611.6    316.3   0.178077389   1.85455  -0.19746   1.33456  -0.18578
  30   31681.8    315.6   0.020420358   0.21219   0.28186  -0.35495   0.08220
  31   31819.7    314.3   0.018928549   0.19584  -0.18085   0.40375   0.01056
  32   32353.8    309.1   0.042863106   0.43615   0.47110  -0.32091   0.33351
  33   32427.7    308.4   0.025243238   0.25627  -0.42915   0.26251  -0.05649
  34   32652.7    306.3   0.007181965   0.07241   0.21360   0.01154   0.16326
  35   32820.6    304.7   0.138939909   1.39366  -0.99620   0.60038  -0.20193
  36   33090.5    302.2   0.019773695   0.19673  -0.33116   0.28328  -0.08253
  37   33394.3    299.5   0.006282017   0.06193   0.03991   0.21714  -0.11484
  38   33608.4    297.5   0.278093628   2.72407   1.27988  -0.43571   0.94665
  39   33692.1    296.8   0.042312701   0.41345  -0.48532   0.37991  -0.18325
  40   33957.0    294.5   0.024638667   0.23887  -0.08665  -0.42264  -0.22965
  41   34332.0    291.3   0.000106200   0.00102   0.02865   0.01152  -0.00804
  42   34412.5    290.6   0.106477554   1.01863   0.02563  -1.00546  -0.08384
  43   34528.4    289.6   0.178828648   1.70505  -0.40645   0.94729  -0.80155
  44   34657.5    288.5   0.000808591   0.00768   0.05415   0.04802  -0.04942
  45   34765.1    287.6   0.089363355   0.84624   0.33580  -0.69968   0.49389
  46   34847.8    287.0   0.128427804   1.21327   0.48781  -0.86025  -0.48506
  47   35370.2    282.7   0.039355623   0.36631   0.04005  -0.57110  -0.19633
  48   35715.8    280.0   0.006596737   0.06081   0.18035   0.05312   0.15955
  49   36143.6    276.7   0.003625532   0.03302   0.11003  -0.13018   0.06301
  50   36350.1    275.1   0.000339339   0.00307   0.05222   0.00594  -0.01763
  51   36744.6    272.1   0.018307183   0.16402  -0.10344   0.31607   0.23114
  52   37157.2    269.1   0.010251006   0.09082  -0.10400   0.25279   0.12691
  53   37243.6    268.5   0.078505661   0.69394  -0.54158   0.60223  -0.19483
  54   37385.0    267.5   0.026064940   0.22953   0.08671  -0.33157   0.33477
  55   37568.4    266.2   0.013180664   0.11550   0.04422  -0.23964  -0.23690
  56   37835.9    264.3   0.037004982   0.32198   0.15907   0.18189   0.51342
  57   38042.3    262.9   0.012417940   0.10746  -0.12420  -0.17587  -0.24720
  58   38289.7    261.2   0.049128714   0.42240   0.59694   0.12267   0.22586
  59   38899.3    257.1   0.022775421   0.19275   0.16456  -0.22821  -0.33703
  60   39441.2    253.5   0.036654097   0.30595  -0.32865   0.44293   0.04179
  61   39590.4    252.6   0.271192052   2.25508   0.04507  -0.97298  -1.14297
  62   39922.5    250.5   0.035411848   0.29202  -0.06609   0.52644   0.10252
  63   40009.4    249.9   0.007238905   0.05956  -0.19086  -0.11848   0.09539
  64   40208.0    248.7   0.040342876   0.33032  -0.20582   0.52809   0.09528

FINAL SINGLE POINT ENERGY     -3562.067292540101

DIPOLE MOMENT
-------------
                                X             Y             Z
Electronic contribution:      0.55530      17.64021       5.60548
Nuclear contribution   :      0.56231     -18.63867      -3.80097
                        -----------------------------------------
Total Dipole Moment    :      1.11762      -0.99846       1.80451
                        -----------------------------------------
Magnitude (a.u.)       :      2.34568
Magnitude (Debye)      :      5.96225

Rotational constants in cm-1:     0.002425     0.000271     0.000250
Rotational constants in MHz :    72.695575     8.131285     7.503676

                             ****ORCA TERMINATED NORMALLY****
TOTAL RUN TIME: 0 days 0 hours 10 minutes 0 seconds 470 msec
