                         Program Version 4.2.0 -  RELEASE  -
|  1> # ORCA input file
|  2> # SCF done       -176.111091940762          0.000382251512
|  3> ! CAM-B3LYP def2-SVP def2/J RIJCOSX Grid4 TightSCF
|  4> %maxcore 5000
|  5> %tddft
|  6>     Mode sTDDFT
|  7>     Ethresh 5.0
|  8>     maxcore 5000
|  9> end
| 10>
| 11> %pal
| 12>   nprocs 6
| 13>   end
| 14> * xyz 0 1
| 15>    C        8.62980        -1.14154        -4.21238
| 16>    S        8.82166        -2.20967        -2.86296
| 17>    C        7.38177        -3.02442        -3.49415
| 18>    N        6.93331        -2.45843        -4.57189
| 19>    N        7.62560        -1.41896        -4.96667
| 20>    C        6.81614        -4.15426        -2.83942
| 21>    C        5.76160        -4.83693        -3.34584
| 22>    C        5.14783        -5.95101        -2.71321
| 23>    C        4.54743        -7.03808        -3.33424
| 24>    N        4.31699        -7.23494        -4.70944
| 25>    O        3.74980        -8.26388        -5.03367
| 26>    O        4.68560        -6.37865        -5.49426
| 27>    C        4.21160        -8.02744        -2.34863
| 28>    C        4.62674        -7.58727        -1.13131
| 29>    C        5.16962        -6.26748        -1.27537
| 30>    C        5.47203        -5.40107        -0.24316
| 31>    C        5.32528        -3.97608        -0.24895
| 32>    C        5.50738        -3.51725         1.01640
| 33>    C        5.84094        -4.61902         1.87775
| 34>    N        6.28511        -4.38605         3.19389
| 35>    O        6.79524        -5.29976         3.82129
| 36>    O        6.16684        -3.25100         3.62230
| 37>    C        5.81689        -5.79998         1.13696
| 38>    C        6.17606        -7.12707         1.46537
| 39>    C        6.05403        -7.70815         2.69525
| 40>    C        6.45149        -8.99733         3.10109
| 41>    N        7.30127        -9.89747         2.50273
| 42>    C        8.03412        -9.76619         1.26574
| 43>    C        7.24895       -10.31507         0.07600
| 44>    C        7.48936       -11.05291         3.29463
| 45>    O        8.21291       -11.97106         2.98149
| 46>    C        6.66631       -10.82143         4.46346
| 47>    C        6.05032        -9.57051         4.31864
| 48>    C        5.22997        -9.34327         5.48947
| 49>    O        4.49123        -8.44182         5.80642
| 50>    N        5.43396       -10.50188         6.29109
| 51>    C        4.84933       -10.55047         7.61170
| 52>    C        5.88274       -10.24888         8.69576
| 53>    C        6.28693       -11.38703         5.68840
| 54>    C        6.76574       -12.65690         6.11384
| 55>    C        6.46018       -13.33985         7.24023
| 56>    C        7.00500       -14.62997         7.59865
| 57>    C        7.44940       -15.51828         6.60553
| 58>    C        7.88087       -16.76759         6.97846
| 59>    C        7.88548       -17.16155         8.32256
| 60>    C        8.39823       -18.55258         8.39272
| 61>    O        8.55724       -19.26070         9.35383
| 62>    N        8.66150       -18.91162         7.08010
| 63>    C        8.38133       -17.90486         6.16621
| 64>    O        8.52026       -17.99271         4.97420
| 65>    C        9.21472       -20.19485         6.70107
| 66>    C       10.73830       -20.15169         6.67515
| 67>    C        7.46694       -16.30819         9.31461
| 68>    C        7.02782       -15.02341         8.96393
| 69>    C        6.65474       -14.07588         9.99186
| 70>    C        6.20121       -14.36964        11.22384
| 71>    C        5.82846       -13.32217        12.12342
| 72>    S        5.38708       -13.60979        13.79821
| 73>    C        5.14744       -11.86897        13.89666
| 74>    N        5.38717       -11.27170        12.77089
| 75>    N        5.75882       -12.06323        11.79946
| 76>    C        4.73057       -11.22662        15.11276
| 77>    C        4.55725        -9.91093        15.20588
| 78>    H        9.29914        -0.32459        -4.38988
| 79>    H        7.29217        -4.45897        -1.91796
| 80>    H        5.40377        -4.57239        -4.33300
| 81>    H        3.71132        -8.94859        -2.58003
| 82>    H        4.43504        -8.06458        -0.18961
| 83>    H        5.02049        -3.39919        -1.09964
| 84>    H        5.43421        -2.50367         1.36260
| 85>    H        6.51711        -7.71614         0.62715
| 86>    H        5.55900        -7.16111         3.48559
| 87>    H        8.94560       -10.35987         1.38731
| 88>    H        8.31359        -8.72030         1.12270
| 89>    H        7.08156       -11.38063         0.21059
| 90>    H        7.81517       -10.16729        -0.83937
| 91>    H        6.28237        -9.82725        -0.02802
| 92>    H        4.36397       -11.51693         7.76681
| 93>    H        4.07620        -9.77644         7.62086
| 94>    H        6.77276       -10.86147         8.56861
| 95>    H        5.46593       -10.44008         9.68086
| 96>    H        6.18136        -9.20542         8.63906
| 97>    H        7.48013       -13.07425         5.41538
| 98>    H        5.76391       -12.92402         7.94829
| 99>    H        7.42367       -15.24228         5.56336
|100>    H        8.82428       -20.43943         5.71038
|101>    H        8.86593       -20.92874         7.43139
|102>    H       11.08087       -19.41213         5.95514
|103>    H       11.12838       -21.12430         6.38969
|104>    H       11.12427       -19.89472         7.65896
|105>    H        7.50597       -16.61574        10.34738
|106>    H        6.74508       -13.02524         9.75885
|107>    H        6.07069       -15.38194        11.57530
|108>    H        4.56756       -11.88176        15.95706
|109>    H        4.72715        -9.27244        14.35631
|110>    H        4.24779        -9.44849        16.12647
|111> *
|112>
|113>                          ****END OF INPUT****

CARTESIAN COORDINATES (ANGSTROEM)
---------------------------------
  C      8.629800   -1.141540   -4.212380
  S      8.821660   -2.209670   -2.862960
  C      7.381770   -3.024420   -3.494150
  N      6.933310   -2.458430   -4.571890
  N      7.625600   -1.418960   -4.966670
  C      6.816140   -4.154260   -2.839420
  C      5.761600   -4.836930   -3.345840
  C      5.147830   -5.951010   -2.713210
  C      4.547430   -7.038080   -3.334240
  N      4.316990   -7.234940   -4.709440
  O      3.749800   -8.263880   -5.033670
  O      4.685600   -6.378650   -5.494260
  C      4.211600   -8.027440   -2.348630
  C      4.626740   -7.587270   -1.131310
  C      5.169620   -6.267480   -1.275370
  C      5.472030   -5.401070   -0.243160
  C      5.325280   -3.976080   -0.248950
  C      5.507380   -3.517250    1.016400
  C      5.840940   -4.619020    1.877750
  N      6.285110   -4.386050    3.193890
  O      6.795240   -5.299760    3.821290
  O      6.166840   -3.251000    3.622300
  C      5.816890   -5.799980    1.136960
  C      6.176060   -7.127070    1.465370
  C      6.054030   -7.708150    2.695250
  C      6.451490   -8.997330    3.101090
  N      7.301270   -9.897470    2.502730
  C      8.034120   -9.766190    1.265740
  C      7.248950  -10.315070    0.076000
  C      7.489360  -11.052910    3.294630
  O      8.212910  -11.971060    2.981490
  C      6.666310  -10.821430    4.463460
  C      6.050320   -9.570510    4.318640
  C      5.229970   -9.343270    5.489470
  O      4.491230   -8.441820    5.806420
  N      5.433960  -10.501880    6.291090
  C      4.849330  -10.550470    7.611700
  C      5.882740  -10.248880    8.695760
  C      6.286930  -11.387030    5.688400
  C      6.765740  -12.656900    6.113840
  C      6.460180  -13.339850    7.240230
  C      7.005000  -14.629970    7.598650
  C      7.449400  -15.518280    6.605530
  C      7.880870  -16.767590    6.978460
  C      7.885480  -17.161550    8.322560
  C      8.398230  -18.552580    8.392720
  O      8.557240  -19.260700    9.353830
  N      8.661500  -18.911620    7.080100
  C      8.381330  -17.904860    6.166210
  O      8.520260  -17.992710    4.974200
  C      9.214720  -20.194850    6.701070
  C     10.738300  -20.151690    6.675150
  C      7.466940  -16.308190    9.314610
  C      7.027820  -15.023410    8.963930
  C      6.654740  -14.075880    9.991860
  C      6.201210  -14.369640   11.223840
  C      5.828460  -13.322170   12.123420
  S      5.387080  -13.609790   13.798210
  C      5.147440  -11.868970   13.896660
  N      5.387170  -11.271700   12.770890
  N      5.758820  -12.063230   11.799460
  C      4.730570  -11.226620   15.112760
  C      4.557250   -9.910930   15.205880
  H      9.299140   -0.324590   -4.389880
  H      7.292170   -4.458970   -1.917960
  H      5.403770   -4.572390   -4.333000
  H      3.711320   -8.948590   -2.580030
  H      4.435040   -8.064580   -0.189610
  H      5.020490   -3.399190   -1.099640
  H      5.434210   -2.503670    1.362600
  H      6.517110   -7.716140    0.627150
  H      5.559000   -7.161110    3.485590
  H      8.945600  -10.359870    1.387310
  H      8.313590   -8.720300    1.122700
  H      7.081560  -11.380630    0.210590
  H      7.815170  -10.167290   -0.839370
  H      6.282370   -9.827250   -0.028020
  H      4.363970  -11.516930    7.766810
  H      4.076200   -9.776440    7.620860
  H      6.772760  -10.861470    8.568610
  H      5.465930  -10.440080    9.680860
  H      6.181360   -9.205420    8.639060
  H      7.480130  -13.074250    5.415380
  H      5.763910  -12.924020    7.948290
  H      7.423670  -15.242280    5.563360
  H      8.824280  -20.439430    5.710380
  H      8.865930  -20.928740    7.431390
  H     11.080870  -19.412130    5.955140
  H     11.128380  -21.124300    6.389690
  H     11.124270  -19.894720    7.658960
  H      7.505970  -16.615740   10.347380
  H      6.745080  -13.025240    9.758850
  H      6.070690  -15.381940   11.575300
  H      4.567560  -11.881760   15.957060
  H      4.727150   -9.272440   14.356310
  H      4.247790   -9.448490   16.126470

 Total Charge           Charge          ....    0
 Multiplicity           Mult            ....    1
 Number of Electrons    NEL             ....  456
 Basis Dimension        Dim             .... 1055

ORBITAL ENERGIES
----------------

  NO   OCC          E(Eh)            E(eV)
   0   2.0000     -88.980827     -2421.2914
   1   2.0000     -88.980738     -2421.2890
   2   2.0000     -19.237661      -523.4834
   3   2.0000     -19.237329      -523.4743
   4   2.0000     -19.236610      -523.4548
   5   2.0000     -19.235161      -523.4153
   6   2.0000     -19.214779      -522.8607
   7   2.0000     -19.214100      -522.8422
   8   2.0000     -19.203462      -522.5528
   9   2.0000     -19.194898      -522.3197
  10   2.0000     -14.646872      -398.5616
  11   2.0000     -14.645690      -398.5295
  12   2.0000     -14.462354      -393.5407
  13   2.0000     -14.459337      -393.4586
  14   2.0000     -14.456108      -393.3707
  15   2.0000     -14.445069      -393.0703
  16   2.0000     -14.442100      -392.9895
  17   2.0000     -14.441974      -392.9861
  18   2.0000     -14.441479      -392.9726
  19   2.0000     -10.394845      -282.8581
  20   2.0000     -10.394178      -282.8400
  21   2.0000     -10.384567      -282.5784
  22   2.0000     -10.379217      -282.4329
  23   2.0000     -10.353541      -281.7342
  24   2.0000     -10.350107      -281.6407
  25   2.0000     -10.349547      -281.6255
  26   2.0000     -10.347643      -281.5737
  27   2.0000     -10.345572      -281.5173
  28   2.0000     -10.340671      -281.3840
  29   2.0000     -10.335228      -281.2359
  30   2.0000     -10.332476      -281.1610
  31   2.0000     -10.332009      -281.1483
  32   2.0000     -10.331566      -281.1362
  33   2.0000     -10.324662      -280.9483
  34   2.0000     -10.324311      -280.9388
  35   2.0000     -10.313929      -280.6563
  36   2.0000     -10.313382      -280.6414
  37   2.0000     -10.312563      -280.6191
  38   2.0000     -10.310497      -280.5629
  39   2.0000     -10.309407      -280.5332
  40   2.0000     -10.308423      -280.5064
  41   2.0000     -10.307373      -280.4779
  42   2.0000     -10.306979      -280.4672
  43   2.0000     -10.305502      -280.4270
  44   2.0000     -10.305425      -280.4249
  45   2.0000     -10.304894      -280.4104
  46   2.0000     -10.304789      -280.4076
  47   2.0000     -10.304204      -280.3916
  48   2.0000     -10.303473      -280.3717
  49   2.0000     -10.302786      -280.3531
  50   2.0000     -10.301825      -280.3269
  51   2.0000     -10.301767      -280.3253
  52   2.0000     -10.300809      -280.2993
  53   2.0000     -10.300368      -280.2873
  54   2.0000     -10.296085      -280.1707
  55   2.0000     -10.291882      -280.0564
  56   2.0000     -10.288156      -279.9549
  57   2.0000     -10.286188      -279.9014
  58   2.0000     -10.275283      -279.6047
  59   2.0000     -10.269858      -279.4571
  60   2.0000     -10.267505      -279.3930
  61   2.0000     -10.260201      -279.1943
  62   2.0000     -10.257176      -279.1119
  63   2.0000      -8.077530      -219.8008
  64   2.0000      -8.077280      -219.7940
  65   2.0000      -6.046142      -164.5239
  66   2.0000      -6.045871      -164.5165
  67   2.0000      -6.042635      -164.4284
  68   2.0000      -6.042617      -164.4280
  69   2.0000      -6.040108      -164.3597
  70   2.0000      -6.039675      -164.3479
  71   2.0000      -1.317358       -35.8471
  72   2.0000      -1.315706       -35.8022
  73   2.0000      -1.160729       -31.5850
  74   2.0000      -1.147841       -31.2343
  75   2.0000      -1.147307       -31.2198
  76   2.0000      -1.142768       -31.0963
  77   2.0000      -1.137226       -30.9455
  78   2.0000      -1.134687       -30.8764
  79   2.0000      -1.134264       -30.8649
  80   2.0000      -1.132510       -30.8172
  81   2.0000      -1.071562       -29.1587
  82   2.0000      -1.061236       -28.8777
  83   2.0000      -1.051761       -28.6199
  84   2.0000      -1.022304       -27.8183
  85   2.0000      -1.000694       -27.2303
  86   2.0000      -0.991930       -26.9918
  87   2.0000      -0.955530       -26.0013
  88   2.0000      -0.948284       -25.8041
  89   2.0000      -0.936237       -25.4763
  90   2.0000      -0.932881       -25.3850
  91   2.0000      -0.928840       -25.2750
  92   2.0000      -0.917142       -24.9567
  93   2.0000      -0.914488       -24.8845
  94   2.0000      -0.913266       -24.8512
  95   2.0000      -0.907851       -24.7039
  96   2.0000      -0.891576       -24.2610
  97   2.0000      -0.884012       -24.0552
  98   2.0000      -0.880649       -23.9637
  99   2.0000      -0.875576       -23.8256
 100   2.0000      -0.865318       -23.5465
 101   2.0000      -0.853785       -23.2327
 102   2.0000      -0.848760       -23.0959
 103   2.0000      -0.836307       -22.7571
 104   2.0000      -0.826828       -22.4991
 105   2.0000      -0.824272       -22.4296
 106   2.0000      -0.806815       -21.9546
 107   2.0000      -0.798783       -21.7360
 108   2.0000      -0.775704       -21.1080
 109   2.0000      -0.770605       -20.9692
 110   2.0000      -0.763325       -20.7711
 111   2.0000      -0.752235       -20.4694
 112   2.0000      -0.735955       -20.0263
 113   2.0000      -0.733502       -19.9596
 114   2.0000      -0.733121       -19.9492
 115   2.0000      -0.732405       -19.9298
 116   2.0000      -0.718421       -19.5492
 117   2.0000      -0.716024       -19.4840
 118   2.0000      -0.713916       -19.4266
 119   2.0000      -0.704909       -19.1815
 120   2.0000      -0.700043       -19.0491
 121   2.0000      -0.691896       -18.8274
 122   2.0000      -0.682831       -18.5808
 123   2.0000      -0.679133       -18.4801
 124   2.0000      -0.676238       -18.4014
 125   2.0000      -0.660301       -17.9677
 126   2.0000      -0.656005       -17.8508
 127   2.0000      -0.650227       -17.6936
 128   2.0000      -0.647016       -17.6062
 129   2.0000      -0.637080       -17.3358
 130   2.0000      -0.628685       -17.1074
 131   2.0000      -0.627844       -17.0845
 132   2.0000      -0.625086       -17.0094
 133   2.0000      -0.621740       -16.9184
 134   2.0000      -0.620867       -16.8946
 135   2.0000      -0.616315       -16.7708
 136   2.0000      -0.606325       -16.4989
 137   2.0000      -0.601863       -16.3775
 138   2.0000      -0.597415       -16.2565
 139   2.0000      -0.592211       -16.1149
 140   2.0000      -0.590190       -16.0599
 141   2.0000      -0.585823       -15.9410
 142   2.0000      -0.584289       -15.8993
 143   2.0000      -0.582563       -15.8523
 144   2.0000      -0.576664       -15.6918
 145   2.0000      -0.574631       -15.6365
 146   2.0000      -0.571796       -15.5593
 147   2.0000      -0.568688       -15.4748
 148   2.0000      -0.565174       -15.3792
 149   2.0000      -0.555004       -15.1024
 150   2.0000      -0.553889       -15.0721
 151   2.0000      -0.548040       -14.9129
 152   2.0000      -0.543469       -14.7885
 153   2.0000      -0.542956       -14.7746
 154   2.0000      -0.541858       -14.7447
 155   2.0000      -0.541045       -14.7226
 156   2.0000      -0.538708       -14.6590
 157   2.0000      -0.536521       -14.5995
 158   2.0000      -0.534214       -14.5367
 159   2.0000      -0.532530       -14.4909
 160   2.0000      -0.527067       -14.3422
 161   2.0000      -0.524742       -14.2789
 162   2.0000      -0.522134       -14.2080
 163   2.0000      -0.520530       -14.1643
 164   2.0000      -0.517496       -14.0818
 165   2.0000      -0.514038       -13.9877
 166   2.0000      -0.512081       -13.9344
 167   2.0000      -0.510093       -13.8803
 168   2.0000      -0.509437       -13.8625
 169   2.0000      -0.507584       -13.8121
 170   2.0000      -0.504095       -13.7171
 171   2.0000      -0.498064       -13.5530
 172   2.0000      -0.497326       -13.5329
 173   2.0000      -0.493315       -13.4238
 174   2.0000      -0.490297       -13.3416
 175   2.0000      -0.485305       -13.2058
 176   2.0000      -0.484373       -13.1805
 177   2.0000      -0.483680       -13.1616
 178   2.0000      -0.480146       -13.0654
 179   2.0000      -0.474740       -12.9183
 180   2.0000      -0.472557       -12.8589
 181   2.0000      -0.470827       -12.8118
 182   2.0000      -0.468653       -12.7527
 183   2.0000      -0.467859       -12.7311
 184   2.0000      -0.461910       -12.5692
 185   2.0000      -0.460320       -12.5259
 186   2.0000      -0.458194       -12.4681
 187   2.0000      -0.458026       -12.4635
 188   2.0000      -0.455048       -12.3825
 189   2.0000      -0.452172       -12.3042
 190   2.0000      -0.450739       -12.2652
 191   2.0000      -0.449235       -12.2243
 192   2.0000      -0.442837       -12.0502
 193   2.0000      -0.435086       -11.8393
 194   2.0000      -0.434410       -11.8209
 195   2.0000      -0.427762       -11.6400
 196   2.0000      -0.426859       -11.6154
 197   2.0000      -0.422240       -11.4897
 198   2.0000      -0.418714       -11.3938
 199   2.0000      -0.397462       -10.8155
 200   2.0000      -0.395131       -10.7521
 201   2.0000      -0.393113       -10.6971
 202   2.0000      -0.391095       -10.6422
 203   2.0000      -0.386582       -10.5194
 204   2.0000      -0.384345       -10.4586
 205   2.0000      -0.377614       -10.2754
 206   2.0000      -0.376999       -10.2587
 207   2.0000      -0.376817       -10.2537
 208   2.0000      -0.375424       -10.2158
 209   2.0000      -0.372710       -10.1419
 210   2.0000      -0.368298       -10.0219
 211   2.0000      -0.364825        -9.9274
 212   2.0000      -0.358139        -9.7455
 213   2.0000      -0.356370        -9.6973
 214   2.0000      -0.352893        -9.6027
 215   2.0000      -0.348445        -9.4817
 216   2.0000      -0.346323        -9.4239
 217   2.0000      -0.343012        -9.3338
 218   2.0000      -0.342289        -9.3142
 219   2.0000      -0.338675        -9.2158
 220   2.0000      -0.332534        -9.0487
 221   2.0000      -0.328780        -8.9466
 222   2.0000      -0.326293        -8.8789
 223   2.0000      -0.324172        -8.8212
 224   2.0000      -0.307513        -8.3678
 225   2.0000      -0.291967        -7.9448
 226   2.0000      -0.287854        -7.8329
 227   2.0000      -0.242082        -6.5874
 228   0.0000      -0.142062        -3.8657
 229   0.0000      -0.096790        -2.6338
 230   0.0000      -0.071053        -1.9335
 231   0.0000      -0.058015        -1.5787
 232   0.0000      -0.040067        -1.0903

MULLIKEN ATOMIC CHARGES
-----------------------
   0 C :    0.002570
   1 S :    0.093689
   2 C :   -0.158663
   3 N :   -0.043202
   4 N :   -0.046853
   5 C :    0.077644
   6 C :   -0.019467
   7 C :    0.040471
   8 C :    0.086838
   9 N :    0.272601
  10 O :   -0.246219
  11 O :   -0.244285
  12 C :    0.017856
  13 C :   -0.016903
  14 C :    0.023508
  15 C :    0.017179
  16 C :   -0.005491
  17 C :    0.020113
  18 C :    0.072985
  19 N :    0.263598
  20 O :   -0.248019
  21 O :   -0.246883
  22 C :    0.076532
  23 C :   -0.099562
  24 C :    0.034459
  25 C :    0.102339
  26 N :   -0.272362
  27 C :    0.106151
  28 C :    0.011695
  29 C :    0.147037
  30 O :   -0.193043
  31 C :   -0.044890
  32 C :   -0.019555
  33 C :    0.151938
  34 O :   -0.168314
  35 N :   -0.270650
  36 C :    0.088860
  37 C :   -0.006716
  38 C :    0.125840
  39 C :   -0.019176
  40 C :   -0.030880
  41 C :    0.096492
  42 C :   -0.092267
  43 C :    0.015145
  44 C :    0.018113
  45 C :    0.188005
  46 O :   -0.157428
  47 N :   -0.302140
  48 C :    0.189116
  49 O :   -0.150358
  50 C :    0.134215
  51 C :   -0.008374
  52 C :   -0.098592
  53 C :    0.110015
  54 C :   -0.029648
  55 C :    0.063770
  56 C :   -0.102116
  57 S :    0.100669
  58 C :   -0.110998
  59 N :   -0.043960
  60 N :   -0.061303
  61 C :    0.032155
  62 C :    0.024651
  63 H :    0.051546
  64 H :    0.011452
  65 H :    0.053460
  66 H :    0.007832
  67 H :    0.015003
  68 H :    0.008496
  69 H :    0.008683
  70 H :    0.005482
  71 H :    0.023219
  72 H :    0.040130
  73 H :    0.024369
  74 H :    0.033188
  75 H :    0.023881
  76 H :    0.004866
  77 H :    0.027071
  78 H :    0.047775
  79 H :    0.023021
  80 H :    0.048012
  81 H :    0.025012
  82 H :    0.018147
  83 H :    0.006812
  84 H :    0.006694
  85 H :    0.031969
  86 H :    0.031646
  87 H :    0.028927
  88 H :    0.022980
  89 H :    0.025457
  90 H :   -0.008857
  91 H :    0.024987
  92 H :   -0.001197
  93 H :   -0.002476
  94 H :    0.050727
  95 H :    0.033755
Sum of atomic charges:    0.0000000

LOEWDIN ATOMIC CHARGES
----------------------
   0 C :   -0.140761
   1 S :    0.390745
   2 C :   -0.149718
   3 N :   -0.070384
   4 N :   -0.064351
   5 C :   -0.030395
   6 C :    0.016351
   7 C :    0.008098
   8 C :   -0.043297
   9 N :    0.284062
  10 O :   -0.211033
  11 O :   -0.205619
  12 C :    0.020247
  13 C :   -0.046959
  14 C :    0.031406
  15 C :    0.047435
  16 C :   -0.048009
  17 C :    0.017350
  18 C :   -0.049880
  19 N :    0.283151
  20 O :   -0.208513
  21 O :   -0.211308
  22 C :    0.005300
  23 C :   -0.031500
  24 C :    0.017534
  25 C :    0.063315
  26 N :   -0.004537
  27 C :    0.036575
  28 C :   -0.063028
  29 C :    0.078407
  30 O :   -0.194356
  31 C :   -0.118048
  32 C :   -0.093899
  33 C :    0.087909
  34 O :   -0.166632
  35 N :   -0.003301
  36 C :    0.034391
  37 C :   -0.064344
  38 C :    0.087040
  39 C :   -0.022412
  40 C :    0.008002
  41 C :   -0.009638
  42 C :    0.027294
  43 C :   -0.048285
  44 C :   -0.046401
  45 C :    0.086710
  46 O :   -0.158524
  47 N :   -0.034779
  48 C :    0.088030
  49 O :   -0.152181
  50 C :    0.044831
  51 C :   -0.059024
  52 C :    0.020387
  53 C :   -0.007242
  54 C :    0.012001
  55 C :   -0.043350
  56 C :   -0.149921
  57 S :    0.390405
  58 C :   -0.144103
  59 N :   -0.076745
  60 N :   -0.078029
  61 C :   -0.062973
  62 C :    0.014165
  63 H :    0.026744
  64 H :    0.032958
  65 H :    0.049864
  66 H :    0.040031
  67 H :    0.031417
  68 H :    0.033473
  69 H :    0.039367
  70 H :    0.033452
  71 H :    0.046530
  72 H :    0.037325
  73 H :    0.024040
  74 H :    0.035026
  75 H :    0.031724
  76 H :    0.017579
  77 H :    0.020805
  78 H :    0.039078
  79 H :    0.018832
  80 H :    0.036134
  81 H :    0.032828
  82 H :    0.046992
  83 H :    0.033537
  84 H :    0.043836
  85 H :    0.032602
  86 H :    0.032310
  87 H :    0.028869
  88 H :    0.030663
  89 H :    0.027821
  90 H :    0.037937
  91 H :    0.038745
  92 H :    0.032156
  93 H :    0.032203
  94 H :    0.036175
  95 H :    0.031288

  Mayer bond orders larger than 0.100000
B(  0-C ,  1-S ) :   1.1468 B(  0-C ,  4-N ) :   1.7111 B(  0-C , 63-H ) :   0.9712
B(  1-S ,  2-C ) :   1.1062 B(  1-S ,  3-N ) :   0.1007 B(  2-C ,  3-N ) :   1.7188
B(  2-C ,  5-C ) :   1.1133 B(  3-N ,  4-N ) :   1.2092 B(  5-C ,  6-C ) :   1.6631
B(  5-C , 64-H ) :   0.9415 B(  6-C ,  7-C ) :   1.1403 B(  6-C , 65-H ) :   0.9570
B(  7-C ,  8-C ) :   1.5208 B(  7-C , 14-C ) :   1.0233 B(  8-C ,  9-N ) :   0.9408
B(  8-C , 12-C ) :   1.1395 B(  9-N , 10-O ) :   1.5326 B(  9-N , 11-O ) :   1.5026
B( 10-O , 11-O ) :   0.2661 B( 12-C , 13-C ) :   1.5542 B( 12-C , 66-H ) :   1.0120
B( 13-C , 14-C ) :   1.1440 B( 13-C , 67-H ) :   0.9961 B( 14-C , 15-C ) :   1.4829
B( 15-C , 16-C ) :   1.1290 B( 15-C , 22-C ) :   1.0299 B( 16-C , 17-C ) :   1.5765
B( 16-C , 68-H ) :   1.0016 B( 17-C , 18-C ) :   1.1272 B( 17-C , 69-H ) :   1.0085
B( 18-C , 19-N ) :   0.9524 B( 18-C , 22-C ) :   1.4874 B( 19-N , 20-O ) :   1.5035
B( 19-N , 21-O ) :   1.5274 B( 20-O , 21-O ) :   0.2570 B( 22-C , 23-C ) :   1.1529
B( 23-C , 24-C ) :   1.5409 B( 23-C , 70-H ) :   0.9518 B( 24-C , 25-C ) :   1.2251
B( 24-C , 71-H ) :   0.9351 B( 25-C , 26-N ) :   1.1666 B( 25-C , 32-C ) :   1.3077
B( 26-N , 27-C ) :   0.9402 B( 26-N , 29-C ) :   1.0413 B( 27-C , 28-C ) :   1.1187
B( 27-C , 72-H ) :   0.9262 B( 27-C , 73-H ) :   0.9493 B( 28-C , 74-H ) :   0.9582
B( 28-C , 75-H ) :   0.9679 B( 28-C , 76-H ) :   0.9637 B( 29-C , 30-O ) :   2.1218
B( 29-C , 31-C ) :   0.9803 B( 31-C , 32-C ) :   1.2684 B( 31-C , 38-C ) :   1.3080
B( 32-C , 33-C ) :   0.9700 B( 33-C , 34-O ) :   2.1449 B( 33-C , 35-N ) :   1.0163
B( 35-N , 36-C ) :   0.9306 B( 35-N , 38-C ) :   1.1989 B( 36-C , 37-C ) :   1.1141
B( 36-C , 77-H ) :   0.9499 B( 36-C , 78-H ) :   0.9224 B( 37-C , 79-H ) :   0.9651
B( 37-C , 80-H ) :   0.9619 B( 37-C , 81-H ) :   0.9554 B( 38-C , 39-C ) :   1.1749
B( 39-C , 40-C ) :   1.6293 B( 39-C , 82-H ) :   0.9457 B( 40-C , 41-C ) :   1.0602
B( 40-C , 83-H ) :   0.9679 B( 41-C , 42-C ) :   1.2989 B( 41-C , 53-C ) :   1.3194
B( 42-C , 43-C ) :   1.4075 B( 42-C , 84-H ) :   1.0077 B( 43-C , 44-C ) :   1.3418
B( 43-C , 48-C ) :   0.8740 B( 44-C , 45-C ) :   0.8739 B( 44-C , 52-C ) :   1.4032
B( 45-C , 46-O ) :   2.2271 B( 45-C , 47-N ) :   1.0688 B( 47-N , 48-C ) :   1.0599
B( 47-N , 50-C ) :   0.9169 B( 48-C , 49-O ) :   2.2336 B( 50-C , 51-C ) :   1.1231
B( 50-C , 85-H ) :   0.9426 B( 50-C , 86-H ) :   0.9424 B( 51-C , 87-H ) :   0.9699
B( 51-C , 88-H ) :   0.9706 B( 51-C , 89-H ) :   0.9697 B( 52-C , 53-C ) :   1.3046
B( 52-C , 90-H ) :   1.0077 B( 53-C , 54-C ) :   1.0441 B( 54-C , 55-C ) :   1.7816
B( 54-C , 91-H ) :   0.9560 B( 55-C , 56-C ) :   1.0805 B( 55-C , 92-H ) :   0.9535
B( 56-C , 57-S ) :   1.0967 B( 56-C , 60-N ) :   1.6876 B( 57-S , 58-C ) :   1.0928
B( 58-C , 59-N ) :   1.7101 B( 58-C , 61-C ) :   1.0806 B( 59-N , 60-N ) :   1.2112
B( 61-C , 62-C ) :   1.9617 B( 61-C , 93-H ) :   0.9472 B( 62-C , 94-H ) :   0.9516
B( 62-C , 95-H ) :   0.9457

-----------------------------------------------------------------------------
         ABSORPTION SPECTRUM VIA TRANSITION ELECTRIC DIPOLE MOMENTS
-----------------------------------------------------------------------------
State   Energy  Wavelength   fosc         T2         TX        TY        TZ
        (cm-1)    (nm)                  (au**2)     (au)      (au)      (au)
-----------------------------------------------------------------------------
   0    6763.7   1478.5   0.297801255  14.49496  -0.10826   2.51690  -2.85454
   1   13487.5    741.4   0.023221453   0.56681   0.54239   0.31260  -0.41822
   2   16340.3    612.0   0.349894256   7.04941   0.34754   1.71266  -1.99886
   3   17442.1    573.3   0.152006862   2.86905   0.08929   0.96030  -1.39245
   4   22379.5    446.8   0.037772872   0.55565  -0.04868   0.39976  -0.62728
   5   22839.4    437.8   0.070785334   1.02031  -0.05551  -0.18216   0.99199
   6   23415.6    427.1   0.038656754   0.54349   0.15326   0.04388  -0.71978
   7   23600.4    423.7   0.001736472   0.02422  -0.06185   0.04358   0.13601
   8   24470.7    408.7   0.019408415   0.26111  -0.13669  -0.11088  -0.47972
   9   25191.8    397.0   0.009070756   0.11854  -0.22000   0.04404  -0.26115
  10   25639.9    390.0   0.053778067   0.69050   0.16333  -0.01122  -0.81468
  11   26267.6    380.7   0.058387187   0.73177   0.37929   0.52732  -0.55663
  12   26877.0    372.1   0.076171767   0.93301   0.25041   0.08025   0.92945
  13   27536.9    363.1   0.099409684   1.18847  -1.05608  -0.01908  -0.26984
  14   27808.2    359.6   0.110586369   1.30920  -0.43332  -0.88408   0.58295
  15   28674.2    348.7   0.217505598   2.49721  -0.31736   1.35852   0.74224
  16   28721.7    348.2   0.272830133   3.12721   0.08373   0.32549  -1.73616
  17   29100.3    343.6   0.046502365   0.52608   0.21422  -0.61710   0.31524
  18   29163.7    342.9   0.005786475   0.06532  -0.12597  -0.21769  -0.04545
  19   29648.5    337.3   0.104089025   1.15579  -0.37078   0.48764  -0.88347
  20   30257.5    330.5   0.069297558   0.75398  -0.06207   0.86609  -0.00372
  21   30617.0    326.6   0.066775360   0.71801   0.20260   0.72919   0.38110
  22   30697.2    325.8   0.150259376   1.61146   0.25331   0.97915   0.76718
  23   31491.6    317.5   0.027422797   0.28668  -0.29191  -0.18462   0.40912
  24   31559.3    316.9   0.031976986   0.33357  -0.40383   0.16098   0.38023
  25   31774.1    314.7   0.158121283   1.63830  -0.33001   1.01866   0.70122
  26   32455.6    308.1   0.009710835   0.09850   0.01958   0.25609   0.18038
  27   32914.2    303.8   0.444945844   4.45041   0.98947   1.63500   0.89338
  28   33150.8    301.7   0.046765233   0.46441   0.53420  -0.22534  -0.35815
  29   33201.7    301.2   0.114535070   1.13567   0.05582  -0.43635  -0.97065
  30   33311.8    300.2   0.309639691   3.06009  -0.57528  -1.41647  -0.85016
  31   33481.9    298.7   0.084661778   0.83244   0.02771  -0.44449  -0.79630
  32   33989.1    294.2   0.727065954   7.04222  -0.83717   2.11793   1.36225
  33   34746.9    287.8   0.026767986   0.25362   0.19823  -0.40472  -0.22478
  34   34906.5    286.5   0.008382875   0.07906  -0.06045   0.21345   0.17277
  35   35044.2    285.4   0.313344831   2.94362  -0.63621   1.53673   0.42111
  36   35078.9    285.1   0.002413431   0.02265  -0.08140  -0.12077   0.03792
  37   35554.6    281.3   0.003473880   0.03217  -0.15378  -0.07579  -0.05266
  38   36247.2    275.9   0.061991347   0.56303   0.19835  -0.36192   0.62666
  39   36339.5    275.2   0.060108795   0.54455   0.01813   0.24626  -0.69540
  40   36811.4    271.7   0.095051932   0.85007   0.53298   0.71591   0.23125
  41   37045.5    269.9   0.000707365   0.00629  -0.07453  -0.02700  -0.00140
  42   37300.9    268.1   0.098762068   0.87166   0.37860  -0.82424  -0.22124
  43   37867.7    264.1   0.000619811   0.00539   0.00867   0.07145   0.01441
  44   37956.4    263.5   0.001210070   0.01050  -0.04474   0.07123  -0.05848
  45   38234.9    261.5   0.003752985   0.03231   0.10855  -0.01790  -0.14216
  46   38431.4    260.2   0.021571687   0.18479  -0.16512  -0.37467  -0.13096
  47   38684.3    258.5   0.005051717   0.04299  -0.00138   0.04313  -0.20280
  48   39049.8    256.1   0.073241211   0.61746   0.18103   0.56351   0.51686
  49   39599.8    252.5   0.111484365   0.92682   0.06705   0.11042  -0.95401
  50   39737.1    251.7   0.025949886   0.21499  -0.03063   0.46264   0.00381
  51   40036.7    249.8   0.041420381   0.34059   0.04448  -0.02708   0.58127
  52   40182.1    248.9   0.088678790   0.72655  -0.30908   0.60108  -0.51935
  53   40282.0    248.2   0.055569891   0.45415  -0.00450   0.25954   0.62191

FINAL SINGLE POINT ENERGY     -3583.493491251303

DIPOLE MOMENT
-------------
                                X             Y             Z
Electronic contribution:     -7.78255      34.48044     -25.63749
Nuclear contribution   :      8.23441     -35.54373      28.97482
                        -----------------------------------------
Total Dipole Moment    :      0.45187      -1.06329       3.33733
                        -----------------------------------------
Magnitude (a.u.)       :      3.53165
Magnitude (Debye)      :      8.97673

Rotational constants in cm-1:     0.001681     0.000373     0.000322
Rotational constants in MHz :    50.396759    11.169272     9.645878

                             ****ORCA TERMINATED NORMALLY****
TOTAL RUN TIME: 0 days 0 hours 8 minutes 5 seconds 330 msec
