                         Program Version 4.2.0 -  RELEASE  -
|  1> # ORCA input file
|  2> # SCF done       -178.317190290389          0.000813353238
|  3> ! CAM-B3LYP def2-SVP def2/J RIJCOSX Grid4 TightSCF
|  4> %maxcore 5000
|  5> %tddft
|  6>     Mode sTDDFT
|  7>     Ethresh 5.0
|  8>     maxcore 5000
|  9> end
| 10>
| 11> %pal
| 12>   nprocs 6
| 13>   end
| 14> * xyz 0 1
| 15>    C        1.49491         0.74371        -7.47658
| 16>    C        1.01098        -0.30672        -6.76959
| 17>    C        2.14934        -1.07187        -6.33401
| 18>    C        3.33314        -0.37552        -6.79991
| 19>    O        4.50240        -0.56022        -6.64143
| 20>    O        2.83695         0.73103        -7.51360
| 21>    C        1.68227        -2.13126        -5.60463
| 22>    O        0.31802        -2.07176        -5.52801
| 23>    C       -0.17111        -0.97838        -6.24246
| 24>    O       -1.33916        -0.74280        -6.31199
| 25>    C        2.37802        -3.18453        -4.94606
| 26>    C        3.52566        -3.84019        -5.37133
| 27>    N        4.19960        -3.72991        -6.61522
| 28>    O        3.66381        -3.10831        -7.50914
| 29>    O        5.25525        -4.32095        -6.71582
| 30>    C        3.86513        -4.86295        -4.42293
| 31>    C        2.90419        -4.90087        -3.46717
| 32>    C        1.93711        -3.86407        -3.73571
| 33>    C        0.87355        -3.51686        -2.91836
| 34>    C        0.38876        -2.21141        -2.64110
| 35>    C       -0.45123        -2.26951        -1.56142
| 36>    C       -0.60482        -3.62949        -1.16133
| 37>    N       -1.45267        -4.03417        -0.11735
| 38>    O       -1.54464        -5.22919         0.12965
| 39>    O       -2.04284        -3.16474         0.49673
| 40>    C        0.16232        -4.44166        -2.00632
| 41>    C        0.11700        -5.83721        -2.10317
| 42>    C        0.53300        -6.53259        -3.21417
| 43>    C        0.68020        -7.91159        -3.41359
| 44>    N        0.43267        -8.98858        -2.59613
| 45>    C       -0.22213        -8.99661        -1.30685
| 46>    C       -1.72760        -8.78337        -1.42967
| 47>    C        0.81493       -10.19883        -3.19956
| 48>    O        0.68771       -11.28501        -2.67297
| 49>    C        1.36524        -9.81501        -4.48839
| 50>    C        1.25771        -8.42382        -4.58951
| 51>    C        1.84431        -8.00290        -5.84670
| 52>    O        1.99530        -6.91113        -6.34455
| 53>    N        2.25454        -9.21225        -6.44913
| 54>    C        2.94158        -9.21074        -7.71990
| 55>    C        4.45482        -9.30905        -7.54606
| 56>    C        1.99045       -10.29750        -5.65530
| 57>    C        2.29932       -11.63059        -5.99752
| 58>    C        2.01604       -12.66875        -5.15902
| 59>    C        2.28721       -14.02995        -5.42444
| 60>    S        1.87113       -15.22591        -4.23036
| 61>    C        2.46608       -16.51977        -5.21846
| 62>    C        2.96475       -16.01728        -6.43138
| 63>    C        2.86131       -14.62794        -6.53669
| 64>    C        3.52052       -16.78908        -7.46956
| 65>    N        3.98379       -17.35695        -8.35095
| 66>    C        2.39208       -17.84358        -4.72895
| 67>    C        2.81166       -18.97124        -5.36443
| 68>    C        2.68612       -20.24547        -4.76345
| 69>    C        3.04300       -21.48818        -5.22877
| 70>    C        2.69546       -22.44878        -4.21610
| 71>    C        2.10672       -21.70040        -3.10992
| 72>    O        1.66478       -22.03062        -2.05256
| 73>    O        2.13371       -20.36758        -3.51629
| 74>    C        3.05336       -23.66810        -4.68851
| 75>    O        3.59846       -23.57385        -5.91203
| 76>    C        3.63001       -22.22843        -6.32940
| 77>    O        4.07366       -21.90318        -7.38999
| 78>    H        1.00262         1.55085        -7.98754
| 79>    H        4.73743        -5.48133        -4.50950
| 80>    H        2.89511        -5.51803        -2.58994
| 81>    H        0.73392        -1.31404        -3.11542
| 82>    H       -0.93378        -1.44576        -1.06929
| 83>    H       -0.34123        -6.34413        -1.26577
| 84>    H        0.80795        -5.96444        -4.09414
| 85>    H        0.23285        -8.24182        -0.66154
| 86>    H       -0.02591        -9.98398        -0.87910
| 87>    H       -1.95505        -7.85399        -1.94562
| 88>    H       -2.16993        -8.74170        -0.43900
| 89>    H       -2.17821        -9.60538        -1.98069
| 90>    H        2.69189        -8.26043        -8.19916
| 91>    H        2.56249       -10.02766        -8.33944
| 92>    H        4.82206        -8.45084        -6.98919
| 93>    H        4.93439        -9.31558        -8.52044
| 94>    H        4.73134       -10.21579        -7.01190
| 95>    H        2.76991       -11.81343        -6.95193
| 96>    H        1.54773       -12.45671        -4.20584
| 97>    H        3.19692       -14.08519        -7.40219
| 98>    H        1.95532       -17.95430        -3.74421
| 99>    H        3.25777       -18.95455        -6.34713
|100>    H        2.97642       -24.65213        -4.26399
|101> *
|102>
|103>                          ****END OF INPUT****

CARTESIAN COORDINATES (ANGSTROEM)
---------------------------------
  C      1.494910    0.743710   -7.476580
  C      1.010980   -0.306720   -6.769590
  C      2.149340   -1.071870   -6.334010
  C      3.333140   -0.375520   -6.799910
  O      4.502400   -0.560220   -6.641430
  O      2.836950    0.731030   -7.513600
  C      1.682270   -2.131260   -5.604630
  O      0.318020   -2.071760   -5.528010
  C     -0.171110   -0.978380   -6.242460
  O     -1.339160   -0.742800   -6.311990
  C      2.378020   -3.184530   -4.946060
  C      3.525660   -3.840190   -5.371330
  N      4.199600   -3.729910   -6.615220
  O      3.663810   -3.108310   -7.509140
  O      5.255250   -4.320950   -6.715820
  C      3.865130   -4.862950   -4.422930
  C      2.904190   -4.900870   -3.467170
  C      1.937110   -3.864070   -3.735710
  C      0.873550   -3.516860   -2.918360
  C      0.388760   -2.211410   -2.641100
  C     -0.451230   -2.269510   -1.561420
  C     -0.604820   -3.629490   -1.161330
  N     -1.452670   -4.034170   -0.117350
  O     -1.544640   -5.229190    0.129650
  O     -2.042840   -3.164740    0.496730
  C      0.162320   -4.441660   -2.006320
  C      0.117000   -5.837210   -2.103170
  C      0.533000   -6.532590   -3.214170
  C      0.680200   -7.911590   -3.413590
  N      0.432670   -8.988580   -2.596130
  C     -0.222130   -8.996610   -1.306850
  C     -1.727600   -8.783370   -1.429670
  C      0.814930  -10.198830   -3.199560
  O      0.687710  -11.285010   -2.672970
  C      1.365240   -9.815010   -4.488390
  C      1.257710   -8.423820   -4.589510
  C      1.844310   -8.002900   -5.846700
  O      1.995300   -6.911130   -6.344550
  N      2.254540   -9.212250   -6.449130
  C      2.941580   -9.210740   -7.719900
  C      4.454820   -9.309050   -7.546060
  C      1.990450  -10.297500   -5.655300
  C      2.299320  -11.630590   -5.997520
  C      2.016040  -12.668750   -5.159020
  C      2.287210  -14.029950   -5.424440
  S      1.871130  -15.225910   -4.230360
  C      2.466080  -16.519770   -5.218460
  C      2.964750  -16.017280   -6.431380
  C      2.861310  -14.627940   -6.536690
  C      3.520520  -16.789080   -7.469560
  N      3.983790  -17.356950   -8.350950
  C      2.392080  -17.843580   -4.728950
  C      2.811660  -18.971240   -5.364430
  C      2.686120  -20.245470   -4.763450
  C      3.043000  -21.488180   -5.228770
  C      2.695460  -22.448780   -4.216100
  C      2.106720  -21.700400   -3.109920
  O      1.664780  -22.030620   -2.052560
  O      2.133710  -20.367580   -3.516290
  C      3.053360  -23.668100   -4.688510
  O      3.598460  -23.573850   -5.912030
  C      3.630010  -22.228430   -6.329400
  O      4.073660  -21.903180   -7.389990
  H      1.002620    1.550850   -7.987540
  H      4.737430   -5.481330   -4.509500
  H      2.895110   -5.518030   -2.589940
  H      0.733920   -1.314040   -3.115420
  H     -0.933780   -1.445760   -1.069290
  H     -0.341230   -6.344130   -1.265770
  H      0.807950   -5.964440   -4.094140
  H      0.232850   -8.241820   -0.661540
  H     -0.025910   -9.983980   -0.879100
  H     -1.955050   -7.853990   -1.945620
  H     -2.169930   -8.741700   -0.439000
  H     -2.178210   -9.605380   -1.980690
  H      2.691890   -8.260430   -8.199160
  H      2.562490  -10.027660   -8.339440
  H      4.822060   -8.450840   -6.989190
  H      4.934390   -9.315580   -8.520440
  H      4.731340  -10.215790   -7.011900
  H      2.769910  -11.813430   -6.951930
  H      1.547730  -12.456710   -4.205840
  H      3.196920  -14.085190   -7.402190
  H      1.955320  -17.954300   -3.744210
  H      3.257770  -18.954550   -6.347130
  H      2.976420  -24.652130   -4.263990

 Total Charge           Charge          ....    0
 Multiplicity           Mult            ....    1
 Number of Electrons    NEL             ....  444
 Basis Dimension        Dim             .... 1001

ORBITAL ENERGIES
----------------

  NO   OCC          E(Eh)            E(eV)
   0   2.0000     -89.003576     -2421.9104
   1   2.0000     -19.301327      -525.2158
   2   2.0000     -19.300245      -525.1864
   3   2.0000     -19.293207      -524.9949
   4   2.0000     -19.291683      -524.9534
   5   2.0000     -19.242827      -523.6239
   6   2.0000     -19.242075      -523.6035
   7   2.0000     -19.236789      -523.4596
   8   2.0000     -19.235641      -523.4284
   9   2.0000     -19.230145      -523.2788
  10   2.0000     -19.229278      -523.2553
  11   2.0000     -19.223942      -523.1101
  12   2.0000     -19.221793      -523.0516
  13   2.0000     -19.221005      -523.0301
  14   2.0000     -19.210960      -522.7568
  15   2.0000     -14.651117      -398.6772
  16   2.0000     -14.646173      -398.5426
  17   2.0000     -14.481704      -394.0672
  18   2.0000     -14.472824      -393.8256
  19   2.0000     -14.431503      -392.7012
  20   2.0000     -10.430963      -283.8409
  21   2.0000     -10.427667      -283.7512
  22   2.0000     -10.422826      -283.6195
  23   2.0000     -10.416523      -283.4480
  24   2.0000     -10.404439      -283.1192
  25   2.0000     -10.395445      -282.8745
  26   2.0000     -10.390518      -282.7404
  27   2.0000     -10.383424      -282.5473
  28   2.0000     -10.383292      -282.5437
  29   2.0000     -10.375065      -282.3199
  30   2.0000     -10.374707      -282.3101
  31   2.0000     -10.358693      -281.8744
  32   2.0000     -10.355901      -281.7984
  33   2.0000     -10.347536      -281.5708
  34   2.0000     -10.347469      -281.5689
  35   2.0000     -10.345065      -281.5035
  36   2.0000     -10.337456      -281.2965
  37   2.0000     -10.332553      -281.1631
  38   2.0000     -10.331677      -281.1392
  39   2.0000     -10.330919      -281.1186
  40   2.0000     -10.330853      -281.1168
  41   2.0000     -10.329936      -281.0919
  42   2.0000     -10.329328      -281.0753
  43   2.0000     -10.328701      -281.0582
  44   2.0000     -10.327050      -281.0133
  45   2.0000     -10.322947      -280.9017
  46   2.0000     -10.321648      -280.8663
  47   2.0000     -10.321386      -280.8592
  48   2.0000     -10.320374      -280.8316
  49   2.0000     -10.318167      -280.7716
  50   2.0000     -10.312338      -280.6130
  51   2.0000     -10.308745      -280.5152
  52   2.0000     -10.306803      -280.4624
  53   2.0000     -10.304137      -280.3898
  54   2.0000     -10.297238      -280.2021
  55   2.0000     -10.295946      -280.1669
  56   2.0000     -10.295329      -280.1501
  57   2.0000     -10.294975      -280.1405
  58   2.0000     -10.294954      -280.1400
  59   2.0000     -10.289942      -280.0035
  60   2.0000     -10.288053      -279.9522
  61   2.0000     -10.281081      -279.7624
  62   2.0000     -10.268914      -279.4314
  63   2.0000      -8.099217      -220.3909
  64   2.0000      -6.068237      -165.1251
  65   2.0000      -6.064144      -165.0137
  66   2.0000      -6.061683      -164.9468
  67   2.0000      -1.323905       -36.0253
  68   2.0000      -1.315467       -35.7957
  69   2.0000      -1.234900       -33.6033
  70   2.0000      -1.227212       -33.3941
  71   2.0000      -1.226878       -33.3850
  72   2.0000      -1.219015       -33.1711
  73   2.0000      -1.162107       -31.6225
  74   2.0000      -1.150199       -31.2985
  75   2.0000      -1.142711       -31.0948
  76   2.0000      -1.140619       -31.0378
  77   2.0000      -1.139440       -31.0057
  78   2.0000      -1.132809       -30.8253
  79   2.0000      -1.132570       -30.8188
  80   2.0000      -1.129881       -30.7456
  81   2.0000      -1.091871       -29.7113
  82   2.0000      -1.077031       -29.3075
  83   2.0000      -1.040190       -28.3050
  84   2.0000      -1.023730       -27.8571
  85   2.0000      -1.011134       -27.5144
  86   2.0000      -1.003134       -27.2967
  87   2.0000      -0.957494       -26.0547
  88   2.0000      -0.951444       -25.8901
  89   2.0000      -0.947670       -25.7874
  90   2.0000      -0.939132       -25.5551
  91   2.0000      -0.933604       -25.4047
  92   2.0000      -0.928329       -25.2611
  93   2.0000      -0.913248       -24.8507
  94   2.0000      -0.898317       -24.4444
  95   2.0000      -0.892759       -24.2932
  96   2.0000      -0.887746       -24.1568
  97   2.0000      -0.883279       -24.0352
  98   2.0000      -0.880477       -23.9590
  99   2.0000      -0.857363       -23.3300
 100   2.0000      -0.848330       -23.0842
 101   2.0000      -0.838369       -22.8132
 102   2.0000      -0.834987       -22.7211
 103   2.0000      -0.826244       -22.4832
 104   2.0000      -0.816775       -22.2256
 105   2.0000      -0.796704       -21.6794
 106   2.0000      -0.782052       -21.2807
 107   2.0000      -0.777450       -21.1555
 108   2.0000      -0.775340       -21.0981
 109   2.0000      -0.767506       -20.8849
 110   2.0000      -0.756811       -20.5939
 111   2.0000      -0.754598       -20.5337
 112   2.0000      -0.738794       -20.1036
 113   2.0000      -0.735347       -20.0098
 114   2.0000      -0.727880       -19.8066
 115   2.0000      -0.726841       -19.7784
 116   2.0000      -0.719695       -19.5839
 117   2.0000      -0.713022       -19.4023
 118   2.0000      -0.711698       -19.3663
 119   2.0000      -0.703890       -19.1538
 120   2.0000      -0.683087       -18.5877
 121   2.0000      -0.671296       -18.2669
 122   2.0000      -0.667450       -18.1622
 123   2.0000      -0.657671       -17.8961
 124   2.0000      -0.654123       -17.7996
 125   2.0000      -0.653198       -17.7744
 126   2.0000      -0.638708       -17.3801
 127   2.0000      -0.635227       -17.2854
 128   2.0000      -0.632083       -17.1999
 129   2.0000      -0.630904       -17.1678
 130   2.0000      -0.627403       -17.0725
 131   2.0000      -0.623717       -16.9722
 132   2.0000      -0.623002       -16.9527
 133   2.0000      -0.621225       -16.9044
 134   2.0000      -0.609968       -16.5981
 135   2.0000      -0.609519       -16.5859
 136   2.0000      -0.606732       -16.5100
 137   2.0000      -0.604324       -16.4445
 138   2.0000      -0.601358       -16.3638
 139   2.0000      -0.595888       -16.2149
 140   2.0000      -0.594113       -16.1666
 141   2.0000      -0.592230       -16.1154
 142   2.0000      -0.587494       -15.9865
 143   2.0000      -0.585738       -15.9387
 144   2.0000      -0.578501       -15.7418
 145   2.0000      -0.572895       -15.5893
 146   2.0000      -0.566812       -15.4237
 147   2.0000      -0.559097       -15.2138
 148   2.0000      -0.556472       -15.1424
 149   2.0000      -0.555351       -15.1119
 150   2.0000      -0.553848       -15.0710
 151   2.0000      -0.550702       -14.9854
 152   2.0000      -0.549480       -14.9521
 153   2.0000      -0.546224       -14.8635
 154   2.0000      -0.541888       -14.7455
 155   2.0000      -0.539735       -14.6869
 156   2.0000      -0.539435       -14.6788
 157   2.0000      -0.537964       -14.6388
 158   2.0000      -0.536839       -14.6081
 159   2.0000      -0.532123       -14.4798
 160   2.0000      -0.530135       -14.4257
 161   2.0000      -0.527849       -14.3635
 162   2.0000      -0.526996       -14.3403
 163   2.0000      -0.524660       -14.2767
 164   2.0000      -0.519731       -14.1426
 165   2.0000      -0.518331       -14.1045
 166   2.0000      -0.513527       -13.9738
 167   2.0000      -0.509673       -13.8689
 168   2.0000      -0.503308       -13.6957
 169   2.0000      -0.498855       -13.5745
 170   2.0000      -0.497231       -13.5303
 171   2.0000      -0.492371       -13.3981
 172   2.0000      -0.491854       -13.3840
 173   2.0000      -0.490557       -13.3487
 174   2.0000      -0.488832       -13.3018
 175   2.0000      -0.486934       -13.2501
 176   2.0000      -0.485118       -13.2007
 177   2.0000      -0.482755       -13.1364
 178   2.0000      -0.477880       -13.0038
 179   2.0000      -0.475575       -12.9410
 180   2.0000      -0.473709       -12.8903
 181   2.0000      -0.473011       -12.8713
 182   2.0000      -0.470782       -12.8106
 183   2.0000      -0.466801       -12.7023
 184   2.0000      -0.466138       -12.6843
 185   2.0000      -0.465482       -12.6664
 186   2.0000      -0.460127       -12.5207
 187   2.0000      -0.459469       -12.5028
 188   2.0000      -0.456502       -12.4221
 189   2.0000      -0.454856       -12.3773
 190   2.0000      -0.450921       -12.2702
 191   2.0000      -0.448672       -12.2090
 192   2.0000      -0.445494       -12.1225
 193   2.0000      -0.441708       -12.0195
 194   2.0000      -0.432522       -11.7695
 195   2.0000      -0.430220       -11.7069
 196   2.0000      -0.429202       -11.6792
 197   2.0000      -0.403251       -10.9730
 198   2.0000      -0.397555       -10.8180
 199   2.0000      -0.391157       -10.6439
 200   2.0000      -0.388785       -10.5794
 201   2.0000      -0.386020       -10.5041
 202   2.0000      -0.383343       -10.4313
 203   2.0000      -0.383015       -10.4224
 204   2.0000      -0.381067       -10.3694
 205   2.0000      -0.377028       -10.2595
 206   2.0000      -0.375013       -10.2046
 207   2.0000      -0.374801       -10.1989
 208   2.0000      -0.369227       -10.0472
 209   2.0000      -0.368522       -10.0280
 210   2.0000      -0.364025        -9.9056
 211   2.0000      -0.362880        -9.8745
 212   2.0000      -0.360194        -9.8014
 213   2.0000      -0.356555        -9.7024
 214   2.0000      -0.342062        -9.3080
 215   2.0000      -0.340793        -9.2735
 216   2.0000      -0.336412        -9.1542
 217   2.0000      -0.332132        -9.0378
 218   2.0000      -0.310137        -8.4393
 219   2.0000      -0.287893        -7.8340
 220   2.0000      -0.281821        -7.6688
 221   2.0000      -0.250438        -6.8148
 222   0.0000      -0.149943        -4.0802
 223   0.0000      -0.118757        -3.2315
 224   0.0000      -0.093992        -2.5577
 225   0.0000      -0.071197        -1.9374
 226   0.0000      -0.051552        -1.4028

MULLIKEN ATOMIC CHARGES
-----------------------
   0 C :    0.112231
   1 C :   -0.075971
   2 C :   -0.030331
   3 C :    0.231005
   4 O :   -0.113692
   5 O :   -0.234767
   6 C :    0.025373
   7 O :   -0.251837
   8 C :    0.252555
   9 O :   -0.114659
  10 C :    0.061777
  11 C :    0.110481
  12 N :    0.271777
  13 O :   -0.231527
  14 O :   -0.237415
  15 C :    0.014011
  16 C :    0.015578
  17 C :   -0.001102
  18 C :    0.041501
  19 C :    0.023617
  20 C :    0.028527
  21 C :    0.076409
  22 N :    0.275813
  23 O :   -0.267715
  24 O :   -0.248105
  25 C :    0.043014
  26 C :   -0.040181
  27 C :   -0.040031
  28 C :    0.112170
  29 N :   -0.259999
  30 C :    0.098871
  31 C :    0.006393
  32 C :    0.174244
  33 O :   -0.214935
  34 C :   -0.080146
  35 C :   -0.028698
  36 C :    0.164006
  37 O :   -0.172421
  38 N :   -0.263165
  39 C :    0.095447
  40 C :    0.002916
  41 C :    0.161171
  42 C :   -0.033281
  43 C :    0.099197
  44 C :   -0.084056
  45 S :    0.212496
  46 C :   -0.056126
  47 C :   -0.053477
  48 C :    0.018276
  49 C :   -0.181583
  50 N :    0.147378
  51 C :    0.057432
  52 C :   -0.040227
  53 C :    0.109729
  54 C :   -0.054433
  55 C :   -0.059418
  56 C :    0.253802
  57 O :   -0.111789
  58 O :   -0.261536
  59 C :    0.113539
  60 O :   -0.234990
  61 C :    0.231941
  62 O :   -0.105492
  63 H :    0.042659
  64 H :    0.000323
  65 H :    0.003463
  66 H :   -0.010036
  67 H :    0.011404
  68 H :    0.021662
  69 H :    0.045100
  70 H :    0.032545
  71 H :    0.043883
  72 H :    0.025000
  73 H :    0.035007
  74 H :    0.023792
  75 H :    0.052083
  76 H :    0.027721
  77 H :    0.037175
  78 H :    0.033955
  79 H :    0.013690
  80 H :   -0.022286
  81 H :    0.014096
  82 H :    0.005875
  83 H :    0.023793
  84 H :    0.034143
  85 H :    0.045377
Sum of atomic charges:   -0.0000000

LOEWDIN ATOMIC CHARGES
----------------------
   0 C :    0.135471
   1 C :   -0.135092
   2 C :   -0.114720
   3 C :    0.106195
   4 O :   -0.113436
   5 O :   -0.041712
   6 C :    0.101776
   7 O :   -0.048457
   8 C :    0.106233
   9 O :   -0.119954
  10 C :   -0.041703
  11 C :    0.009889
  12 N :    0.286517
  13 O :   -0.188037
  14 O :   -0.197899
  15 C :   -0.007891
  16 C :   -0.016895
  17 C :    0.026207
  18 C :    0.060082
  19 C :   -0.043170
  20 C :    0.044618
  21 C :   -0.068066
  22 N :    0.286127
  23 O :   -0.233942
  24 O :   -0.212777
  25 C :    0.018107
  26 C :   -0.008827
  27 C :    0.007454
  28 C :    0.049815
  29 N :    0.002733
  30 C :    0.037396
  31 C :   -0.058785
  32 C :    0.080505
  33 O :   -0.200843
  34 C :   -0.126123
  35 C :   -0.078881
  36 C :    0.087751
  37 O :   -0.169286
  38 N :    0.000865
  39 C :    0.038002
  40 C :   -0.059027
  41 C :    0.097873
  42 C :   -0.047378
  43 C :    0.029401
  44 C :   -0.171775
  45 S :    0.509438
  46 C :   -0.140809
  47 C :   -0.090935
  48 C :   -0.003143
  49 C :   -0.033556
  50 N :   -0.032388
  51 C :   -0.005959
  52 C :   -0.021407
  53 C :    0.106590
  54 C :   -0.118714
  55 C :   -0.135677
  56 C :    0.108186
  57 O :   -0.116697
  58 O :   -0.057350
  59 C :    0.137673
  60 O :   -0.043648
  61 C :    0.106624
  62 O :   -0.110609
  63 H :    0.039820
  64 H :    0.036744
  65 H :    0.032088
  66 H :    0.028961
  67 H :    0.042238
  68 H :    0.037635
  69 H :    0.051182
  70 H :    0.025884
  71 H :    0.037975
  72 H :    0.024625
  73 H :    0.037685
  74 H :    0.030482
  75 H :    0.042002
  76 H :    0.025015
  77 H :    0.035151
  78 H :    0.035711
  79 H :    0.021195
  80 H :    0.030793
  81 H :    0.039653
  82 H :    0.042050
  83 H :    0.042775
  84 H :    0.053120
  85 H :    0.041250

  Mayer bond orders larger than 0.100000
B(  0-C ,  1-C ) :   1.5384 B(  0-C ,  5-O ) :   1.1584 B(  0-C , 63-H ) :   0.9987
B(  1-C ,  2-C ) :   1.1109 B(  1-C ,  8-C ) :   0.9220 B(  2-C ,  3-C ) :   0.9447
B(  2-C ,  6-C ) :   1.5263 B(  3-C ,  4-O ) :   2.2596 B(  3-C ,  5-O ) :   0.9917
B(  6-C ,  7-O ) :   1.1473 B(  6-C , 10-C ) :   1.0395 B(  7-O ,  8-C ) :   0.9903
B(  8-C ,  9-O ) :   2.2838 B( 10-C , 11-C ) :   1.5437 B( 10-C , 17-C ) :   1.0952
B( 11-C , 12-N ) :   0.9224 B( 11-C , 15-C ) :   1.1580 B( 12-N , 13-O ) :   1.5277
B( 12-N , 14-O ) :   1.5359 B( 13-O , 14-O ) :   0.2746 B( 15-C , 16-C ) :   1.5720
B( 15-C , 64-H ) :   1.0098 B( 16-C , 17-C ) :   1.1206 B( 16-C , 65-H ) :   0.9926
B( 17-C , 18-C ) :   1.4270 B( 18-C , 19-C ) :   1.2054 B( 18-C , 25-C ) :   0.9952
B( 19-C , 20-C ) :   1.4996 B( 19-C , 66-H ) :   1.0065 B( 20-C , 21-C ) :   1.1695
B( 20-C , 67-H ) :   1.0095 B( 21-C , 22-N ) :   0.9658 B( 21-C , 25-C ) :   1.4166
B( 22-N , 23-O ) :   1.4797 B( 22-N , 24-O ) :   1.5351 B( 23-O , 24-O ) :   0.2494
B( 25-C , 26-C ) :   1.2784 B( 26-C , 27-C ) :   1.3931 B( 26-C , 68-H ) :   0.9510
B( 27-C , 28-C ) :   1.2750 B( 27-C , 69-H ) :   0.9221 B( 28-C , 29-N ) :   1.1584
B( 28-C , 35-C ) :   1.2963 B( 29-N , 30-C ) :   0.9305 B( 29-N , 32-C ) :   1.0793
B( 30-C , 31-C ) :   1.1201 B( 30-C , 70-H ) :   0.9502 B( 30-C , 71-H ) :   0.9253
B( 31-C , 72-H ) :   0.9675 B( 31-C , 73-H ) :   0.9678 B( 31-C , 74-H ) :   0.9618
B( 32-C , 33-O ) :   2.0048 B( 32-C , 34-C ) :   0.9856 B( 33-O , 81-H ) :   0.1271
B( 34-C , 35-C ) :   1.3080 B( 34-C , 41-C ) :   1.2606 B( 35-C , 36-C ) :   0.9605
B( 36-C , 37-O ) :   2.1218 B( 36-C , 38-N ) :   1.0315 B( 38-N , 39-C ) :   0.9343
B( 38-N , 41-C ) :   1.1856 B( 39-C , 40-C ) :   1.1201 B( 39-C , 75-H ) :   0.9289
B( 39-C , 76-H ) :   0.9499 B( 40-C , 77-H ) :   0.9639 B( 40-C , 78-H ) :   0.9678
B( 40-C , 79-H ) :   0.9685 B( 41-C , 42-C ) :   1.1972 B( 42-C , 43-C ) :   1.5863
B( 42-C , 80-H ) :   0.9637 B( 43-C , 44-C ) :   1.1420 B( 43-C , 81-H ) :   0.9270
B( 44-C , 45-S ) :   1.1364 B( 44-C , 48-C ) :   1.4240 B( 45-S , 46-C ) :   1.1614
B( 46-C , 47-C ) :   1.4070 B( 46-C , 51-C ) :   1.1321 B( 47-C , 48-C ) :   1.3483
B( 47-C , 49-C ) :   1.1087 B( 48-C , 82-H ) :   0.9989 B( 49-C , 50-N ) :   2.9823
B( 51-C , 52-C ) :   1.6164 B( 51-C , 83-H ) :   0.9557 B( 52-C , 53-C ) :   1.2150
B( 52-C , 84-H ) :   0.9489 B( 53-C , 54-C ) :   1.4219 B( 53-C , 58-O ) :   1.1326
B( 54-C , 55-C ) :   1.1284 B( 54-C , 61-C ) :   0.9572 B( 55-C , 56-C ) :   0.9225
B( 55-C , 59-C ) :   1.5413 B( 56-C , 57-O ) :   2.2887 B( 56-C , 58-O ) :   0.9933
B( 59-C , 60-O ) :   1.1572 B( 59-C , 85-H ) :   0.9997 B( 60-O , 61-C ) :   0.9879
B( 61-C , 62-O ) :   2.2687

-----------------------------------------------------------------------------
         ABSORPTION SPECTRUM VIA TRANSITION ELECTRIC DIPOLE MOMENTS
-----------------------------------------------------------------------------
State   Energy  Wavelength   fosc         T2         TX        TY        TZ
        (cm-1)    (nm)                  (au**2)     (au)      (au)      (au)
-----------------------------------------------------------------------------
   0    5774.1   1731.9   0.274426933  15.64660  -0.09680   3.90467   0.62513
   1   11087.1    901.9   0.022707023   0.67424   0.10539  -0.15198  -0.80002
   2   14702.3    680.2   0.714995993  16.01010   1.23918  -3.46114  -1.57956
   3   16651.7    600.5   0.014445486   0.28559  -0.18537   0.49665   0.06763
   4   19566.4    511.1   0.490801628   8.25791   0.39441  -2.84350  -0.12975
   5   20510.7    487.6   0.340764714   5.46953   0.19404   2.00945  -1.18068
   6   20681.8    483.5   0.010112077   0.16096  -0.30538   0.02656   0.25885
   7   22732.2    439.9   0.040926530   0.59271  -0.01954   0.66680  -0.38433
   8   23009.4    434.6   0.006481975   0.09274  -0.03073  -0.29424   0.07225
   9   23760.2    420.9   0.162878047   2.25678  -0.94639   0.05555   1.16535
  10   24393.5    409.9   0.171485215   2.31434   0.34006   1.38590  -0.52724
  11   24707.9    404.7   0.035218439   0.46926  -0.03623   0.68377  -0.02008
  12   25221.8    396.5   0.091733469   1.19737   0.66982   0.50528  -0.70242
  13   26091.3    383.3   0.046645271   0.58855   0.13954   0.71773  -0.23227
  14   26316.7    380.0   0.001842823   0.02305   0.10661   0.01404  -0.10719
  15   27177.7    367.9   0.101403201   1.22833   0.20151  -1.08872   0.04916
  16   27747.9    360.4   0.151597887   1.79862   0.67817  -0.43798  -1.07092
  17   27962.6    357.6   0.290438962   3.41942   0.32641  -1.81916  -0.05934
  18   27990.1    357.3   0.087383862   1.02779  -0.11697  -0.95434   0.32147
  19   28595.7    349.7   0.000901999   0.01038   0.09190  -0.02276  -0.03769
  20   29124.5    343.4   0.273983619   3.09700   1.16974  -0.42912  -1.24280
  21   29798.8    335.6   0.023919642   0.26426   0.23957   0.19490  -0.41095
  22   30002.6    333.3   0.031126153   0.34154  -0.26289   0.22868   0.46918
  23   30526.9    327.6   0.112263388   1.21068   0.59018  -0.27788  -0.88609
  24   31051.2    322.0   0.005247560   0.05564  -0.10745   0.13422   0.16148
  25   31290.1    319.6   0.006693523   0.07042   0.05275  -0.09194   0.24329
  26   31366.5    318.8   0.055658285   0.58417   0.11134  -0.75158  -0.08308
  27   31609.2    316.4   0.013546754   0.14109   0.15817  -0.26434  -0.21493
  28   31955.9    312.9   0.007885713   0.08124   0.05628   0.19899  -0.19615
  29   31985.0    312.6   0.000774210   0.00797  -0.07647  -0.00155  -0.04604
  30   32588.0    306.9   0.036567673   0.36942   0.05245  -0.59197   0.12743
  31   32776.3    305.1   0.012690737   0.12747   0.02611  -0.35317  -0.04538
  32   33171.4    301.5   0.043228826   0.42903  -0.46396   0.46229   0.00722
  33   33289.0    300.4   0.000851911   0.00842   0.02229   0.06792   0.05758
  34   33375.0    299.6   0.097098130   0.95778   0.56323  -0.53036  -0.59939
  35   33558.2    298.0   0.067952744   0.66663   0.10883  -0.80419  -0.08982
  36   33600.7    297.6   0.011729372   0.11492   0.10555   0.31258  -0.07792
  37   34191.5    292.5   0.016629433   0.16012  -0.13231  -0.07319   0.37048
  38   34590.2    289.1   0.036552631   0.34789  -0.42666   0.37062   0.16881
  39   34851.4    286.9   0.016227254   0.15329   0.25456   0.00798  -0.29736
  40   35617.7    280.8   0.162630487   1.50318  -0.83183  -0.36927   0.82152
  41   35739.0    279.8   0.118657116   1.09302   0.48072   0.25295  -0.89328
  42   36528.5    273.8   0.046799472   0.42178  -0.41054   0.41848   0.27948
  43   36649.9    272.9   0.001073787   0.00965  -0.09574  -0.01052   0.01920
  44   36977.5    270.4   0.006091405   0.05423  -0.16045   0.00269   0.16876
  45   37105.1    269.5   0.000674821   0.00599   0.06823   0.03214   0.01729
  46   37317.5    268.0   0.036483794   0.32186   0.30499  -0.23392  -0.41727
  47   37644.3    265.6   0.008918088   0.07799   0.18111   0.04883   0.20689
  48   37676.6    265.4   0.011234232   0.09816  -0.23523  -0.05999   0.19807
  49   38135.5    262.2   0.062041795   0.53559   0.37710  -0.39679  -0.48574
  50   38439.8    260.1   0.035296603   0.30229   0.13044  -0.42491  -0.32362
  51   38541.6    259.5   0.062439034   0.53334  -0.71997   0.01115   0.12186
  52   38941.0    256.8   0.003089647   0.02612  -0.02603   0.15423   0.04069
  53   39068.0    256.0   0.061999432   0.52245  -0.13018   0.50643   0.49903
  54   39628.3    252.3   0.046574888   0.38692   0.31530  -0.35253  -0.40402
  55   39903.8    250.6   0.000041528   0.00034  -0.01628  -0.00073  -0.00877
  56   40052.8    249.7   0.026197819   0.21533   0.41202  -0.07777  -0.19880
  57   40072.0    249.6   0.001575198   0.01294  -0.09785   0.01071   0.05702

FINAL SINGLE POINT ENERGY     -3373.463388386101

DIPOLE MOMENT
-------------
                                X             Y             Z
Electronic contribution:      3.92145      -6.59204      -5.44650
Nuclear contribution   :     -3.90472       5.10588       5.74056
                        -----------------------------------------
Total Dipole Moment    :      0.01674      -1.48616       0.29406
                        -----------------------------------------
Magnitude (a.u.)       :      1.51507
Magnitude (Debye)      :      3.85099

Rotational constants in cm-1:     0.002654     0.000354     0.000320
Rotational constants in MHz :    79.560802    10.609458     9.592421

                             ****ORCA TERMINATED NORMALLY****
TOTAL RUN TIME: 0 days 0 hours 9 minutes 30 seconds 905 msec
