                         Program Version 4.2.0 -  RELEASE  -
|  1> # ORCA input file
|  2> # SCF done       -172.197210301436          0.000428359985
|  3> ! CAM-B3LYP def2-SVP def2/J RIJCOSX Grid4 TightSCF
|  4> %maxcore 5000
|  5> %tddft
|  6>     Mode sTDDFT
|  7>     Ethresh 5.0
|  8>     maxcore 5000
|  9> end
| 10>
| 11> %pal
| 12>   nprocs 6
| 13>   end
| 14> * xyz 0 1
| 15>    C        1.00660         2.53789        -0.49585
| 16>    S        2.42147         1.58604        -0.81646
| 17>    C        1.47417         0.23890        -1.34870
| 18>    C        0.15304         0.52149        -1.27819
| 19>    C       -0.11932         1.84149        -0.78763
| 20>    C       -1.55043         2.02202        -0.75945
| 21>    C       -2.16765         0.89592        -1.20165
| 22>    C       -1.13590        -0.14210        -1.55999
| 23>    O       -1.32685        -1.26353        -1.96036
| 24>    C       -3.59450         0.66902        -1.32134
| 25>    C       -4.09962        -0.26219        -2.22742
| 26>    C       -5.46476        -0.46295        -2.33655
| 27>    N       -5.91762        -1.49497        -3.23500
| 28>    O       -5.20426        -1.77046        -4.17359
| 29>    O       -6.97066        -2.04127        -2.97868
| 30>    C       -6.38902         0.25513        -1.55998
| 31>    C       -5.86186         1.16804        -0.63913
| 32>    C       -4.50617         1.37081        -0.52067
| 33>    C       -7.81712         0.12426        -1.74441
| 34>    C       -8.71059         0.15465        -0.73543
| 35>    C      -10.11343         0.05783        -0.96765
| 36>    N      -11.05123        -0.08005         0.03395
| 37>    C      -10.79874        -0.11129         1.45323
| 38>    C      -10.60853         1.29122         2.02724
| 39>    C      -12.35463        -0.16994        -0.47533
| 40>    O      -13.34297        -0.30122         0.22905
| 41>    C      -12.18983        -0.07739        -1.90454
| 42>    C      -10.79768         0.06527        -2.17263
| 43>    C      -10.63394         0.18807        -3.60211
| 44>    O       -9.65465         0.35868        -4.30060
| 45>    N      -11.94495         0.09930        -4.11080
| 46>    C      -12.19936         0.12303        -5.53122
| 47>    C      -12.44722        -1.27635        -6.08773
| 48>    C      -12.87151        -0.06153        -3.11358
| 49>    C      -14.28110        -0.16687        -3.34976
| 50>    C      -15.13747        -0.35671        -2.34053
| 51>    C      -16.62225        -0.46400        -2.44131
| 52>    C      -17.25337        -0.06067        -3.77294
| 53>    O      -16.84364        -0.27590        -4.87460
| 54>    O      -18.39837         0.60457        -3.54208
| 55>    C      -18.70702         0.63406        -2.15170
| 56>    C      -17.34792         0.47164        -1.45964
| 57>    C      -17.41695         0.02660        -0.00734
| 58>    C      -18.31847        -1.18392         0.19922
| 59>    C      -19.70953        -1.03518        -0.40901
| 60>    C      -19.72273        -0.49045        -1.84897
| 61>    O      -21.04100         0.00679        -2.03677
| 62>    C      -21.64804         0.26472        -0.86832
| 63>    O      -22.74806         0.72249        -0.79458
| 64>    C      -20.72971        -0.11597         0.29519
| 65>    C      -20.16135         1.09380         0.96801
| 66>    C      -20.30524         2.35302         0.54605
| 67>    C      -19.73114         3.48924         1.20047
| 68>    S      -18.61470         3.32384         2.55682
| 69>    C      -18.41820         5.03711         2.69468
| 70>    C      -19.15500         5.68928         1.76795
| 71>    C      -19.90067         4.81552         0.91382
| 72>    C      -20.64409         5.63224        -0.02119
| 73>    C      -20.38813         6.93201         0.22082
| 74>    C      -19.43825         7.08679         1.35279
| 75>    O      -19.00145         8.11077         1.82068
| 76>    H        1.11902         3.53374        -0.11589
| 77>    H        1.96254        -0.65762        -1.67549
| 78>    H       -2.03047         2.93609        -0.45766
| 79>    H       -3.43675        -0.84909        -2.84479
| 80>    H       -6.54448         1.74458        -0.03347
| 81>    H       -4.13641         2.07539         0.20865
| 82>    H       -8.17655         0.00095        -2.75794
| 83>    H       -8.37085         0.20325         0.28983
| 84>    H       -9.92637        -0.73853         1.65604
| 85>    H      -11.67895        -0.57437         1.90831
| 86>    H       -9.76858         1.79571         1.55477
| 87>    H      -10.42599         1.23159         3.09674
| 88>    H      -11.50458         1.88353         1.85918
| 89>    H      -11.30155         0.54754        -5.98943
| 90>    H      -13.04900         0.77851        -5.74105
| 91>    H      -11.59006        -1.91391        -5.88507
| 92>    H      -12.59432        -1.22129        -7.16262
| 93>    H      -13.33049        -1.72326        -5.63752
| 94>    H      -14.63415        -0.09192        -4.36666
| 95>    H      -14.75913        -0.44072        -1.32969
| 96>    H      -16.90777        -1.50717        -2.25030
| 97>    H      -19.17660         1.59932        -1.94473
| 98>    H      -16.83581         1.44039        -1.49846
| 99>    H      -17.77522         0.86635         0.58779
|100>    H      -16.40901        -0.21164         0.33661
|101>    H      -18.41799        -1.38387         1.26686
|102>    H      -17.84867        -2.06285        -0.24798
|103>    H      -20.16554        -2.03193        -0.44470
|104>    H      -19.57787        -1.28481        -2.58917
|105>    H      -21.30529        -0.67376         1.04001
|106>    H      -19.62225         0.89970         1.88660
|107>    H      -20.89196         2.58272        -0.33352
|108>    H      -17.77200         5.43221         3.45351
|109>    H      -21.29811         5.23916        -0.77980
|110>    H      -20.79234         7.77745        -0.30525
|111> *
|112>
|113>                          ****END OF INPUT****

CARTESIAN COORDINATES (ANGSTROEM)
---------------------------------
  C      1.006600    2.537890   -0.495850
  S      2.421470    1.586040   -0.816460
  C      1.474170    0.238900   -1.348700
  C      0.153040    0.521490   -1.278190
  C     -0.119320    1.841490   -0.787630
  C     -1.550430    2.022020   -0.759450
  C     -2.167650    0.895920   -1.201650
  C     -1.135900   -0.142100   -1.559990
  O     -1.326850   -1.263530   -1.960360
  C     -3.594500    0.669020   -1.321340
  C     -4.099620   -0.262190   -2.227420
  C     -5.464760   -0.462950   -2.336550
  N     -5.917620   -1.494970   -3.235000
  O     -5.204260   -1.770460   -4.173590
  O     -6.970660   -2.041270   -2.978680
  C     -6.389020    0.255130   -1.559980
  C     -5.861860    1.168040   -0.639130
  C     -4.506170    1.370810   -0.520670
  C     -7.817120    0.124260   -1.744410
  C     -8.710590    0.154650   -0.735430
  C    -10.113430    0.057830   -0.967650
  N    -11.051230   -0.080050    0.033950
  C    -10.798740   -0.111290    1.453230
  C    -10.608530    1.291220    2.027240
  C    -12.354630   -0.169940   -0.475330
  O    -13.342970   -0.301220    0.229050
  C    -12.189830   -0.077390   -1.904540
  C    -10.797680    0.065270   -2.172630
  C    -10.633940    0.188070   -3.602110
  O     -9.654650    0.358680   -4.300600
  N    -11.944950    0.099300   -4.110800
  C    -12.199360    0.123030   -5.531220
  C    -12.447220   -1.276350   -6.087730
  C    -12.871510   -0.061530   -3.113580
  C    -14.281100   -0.166870   -3.349760
  C    -15.137470   -0.356710   -2.340530
  C    -16.622250   -0.464000   -2.441310
  C    -17.253370   -0.060670   -3.772940
  O    -16.843640   -0.275900   -4.874600
  O    -18.398370    0.604570   -3.542080
  C    -18.707020    0.634060   -2.151700
  C    -17.347920    0.471640   -1.459640
  C    -17.416950    0.026600   -0.007340
  C    -18.318470   -1.183920    0.199220
  C    -19.709530   -1.035180   -0.409010
  C    -19.722730   -0.490450   -1.848970
  O    -21.041000    0.006790   -2.036770
  C    -21.648040    0.264720   -0.868320
  O    -22.748060    0.722490   -0.794580
  C    -20.729710   -0.115970    0.295190
  C    -20.161350    1.093800    0.968010
  C    -20.305240    2.353020    0.546050
  C    -19.731140    3.489240    1.200470
  S    -18.614700    3.323840    2.556820
  C    -18.418200    5.037110    2.694680
  C    -19.155000    5.689280    1.767950
  C    -19.900670    4.815520    0.913820
  C    -20.644090    5.632240   -0.021190
  C    -20.388130    6.932010    0.220820
  C    -19.438250    7.086790    1.352790
  O    -19.001450    8.110770    1.820680
  H      1.119020    3.533740   -0.115890
  H      1.962540   -0.657620   -1.675490
  H     -2.030470    2.936090   -0.457660
  H     -3.436750   -0.849090   -2.844790
  H     -6.544480    1.744580   -0.033470
  H     -4.136410    2.075390    0.208650
  H     -8.176550    0.000950   -2.757940
  H     -8.370850    0.203250    0.289830
  H     -9.926370   -0.738530    1.656040
  H    -11.678950   -0.574370    1.908310
  H     -9.768580    1.795710    1.554770
  H    -10.425990    1.231590    3.096740
  H    -11.504580    1.883530    1.859180
  H    -11.301550    0.547540   -5.989430
  H    -13.049000    0.778510   -5.741050
  H    -11.590060   -1.913910   -5.885070
  H    -12.594320   -1.221290   -7.162620
  H    -13.330490   -1.723260   -5.637520
  H    -14.634150   -0.091920   -4.366660
  H    -14.759130   -0.440720   -1.329690
  H    -16.907770   -1.507170   -2.250300
  H    -19.176600    1.599320   -1.944730
  H    -16.835810    1.440390   -1.498460
  H    -17.775220    0.866350    0.587790
  H    -16.409010   -0.211640    0.336610
  H    -18.417990   -1.383870    1.266860
  H    -17.848670   -2.062850   -0.247980
  H    -20.165540   -2.031930   -0.444700
  H    -19.577870   -1.284810   -2.589170
  H    -21.305290   -0.673760    1.040010
  H    -19.622250    0.899700    1.886600
  H    -20.891960    2.582720   -0.333520
  H    -17.772000    5.432210    3.453510
  H    -21.298110    5.239160   -0.779800
  H    -20.792340    7.777450   -0.305250

 Total Charge           Charge          ....    0
 Multiplicity           Mult            ....    1
 Number of Electrons    NEL             ....  444
 Basis Dimension        Dim             .... 1037

ORBITAL ENERGIES
----------------

  NO   OCC          E(Eh)            E(eV)
   0   2.0000     -88.969211     -2420.9753
   1   2.0000     -88.966634     -2420.9052
   2   2.0000     -19.267109      -524.2847
   3   2.0000     -19.265137      -524.2310
   4   2.0000     -19.236058      -523.4397
   5   2.0000     -19.234653      -523.4015
   6   2.0000     -19.222090      -523.0597
   7   2.0000     -19.208939      -522.7018
   8   2.0000     -19.208208      -522.6819
   9   2.0000     -19.205384      -522.6051
  10   2.0000     -19.186609      -522.0942
  11   2.0000     -19.185140      -522.0542
  12   2.0000     -14.640183      -398.3796
  13   2.0000     -14.449423      -393.1888
  14   2.0000     -14.447553      -393.1379
  15   2.0000     -10.403994      -283.1071
  16   2.0000     -10.402275      -283.0603
  17   2.0000     -10.371457      -282.2217
  18   2.0000     -10.369249      -282.1616
  19   2.0000     -10.367354      -282.1100
  20   2.0000     -10.359686      -281.9014
  21   2.0000     -10.348111      -281.5864
  22   2.0000     -10.345165      -281.5063
  23   2.0000     -10.333392      -281.1859
  24   2.0000     -10.331345      -281.1302
  25   2.0000     -10.326433      -280.9965
  26   2.0000     -10.318513      -280.7810
  27   2.0000     -10.317734      -280.7598
  28   2.0000     -10.316502      -280.7263
  29   2.0000     -10.312334      -280.6129
  30   2.0000     -10.308182      -280.4999
  31   2.0000     -10.307974      -280.4942
  32   2.0000     -10.307091      -280.4702
  33   2.0000     -10.304764      -280.4069
  34   2.0000     -10.302969      -280.3580
  35   2.0000     -10.302720      -280.3513
  36   2.0000     -10.302659      -280.3496
  37   2.0000     -10.300800      -280.2990
  38   2.0000     -10.299722      -280.2697
  39   2.0000     -10.298976      -280.2494
  40   2.0000     -10.297771      -280.2166
  41   2.0000     -10.296716      -280.1879
  42   2.0000     -10.296236      -280.1748
  43   2.0000     -10.295126      -280.1446
  44   2.0000     -10.292273      -280.0670
  45   2.0000     -10.291915      -280.0572
  46   2.0000     -10.291415      -280.0437
  47   2.0000     -10.288669      -279.9689
  48   2.0000     -10.288069      -279.9526
  49   2.0000     -10.287747      -279.9438
  50   2.0000     -10.287745      -279.9438
  51   2.0000     -10.285418      -279.8804
  52   2.0000     -10.281015      -279.7606
  53   2.0000     -10.279840      -279.7287
  54   2.0000     -10.279316      -279.7144
  55   2.0000     -10.278849      -279.7017
  56   2.0000     -10.277081      -279.6536
  57   2.0000     -10.265830      -279.3474
  58   2.0000     -10.253908      -279.0230
  59   2.0000     -10.252739      -278.9912
  60   2.0000     -10.251643      -278.9614
  61   2.0000      -8.065295      -219.4678
  62   2.0000      -8.061972      -219.3774
  63   2.0000      -6.034833      -164.2162
  64   2.0000      -6.031519      -164.1260
  65   2.0000      -6.030120      -164.0879
  66   2.0000      -6.027373      -164.0132
  67   2.0000      -6.027054      -164.0045
  68   2.0000      -6.023941      -163.9198
  69   2.0000      -1.316486       -35.8234
  70   2.0000      -1.207262       -32.8513
  71   2.0000      -1.199069       -32.6283
  72   2.0000      -1.136597       -30.9284
  73   2.0000      -1.135561       -30.9002
  74   2.0000      -1.127859       -30.6906
  75   2.0000      -1.121856       -30.5273
  76   2.0000      -1.121163       -30.5084
  77   2.0000      -1.117152       -30.3992
  78   2.0000      -1.111427       -30.2435
  79   2.0000      -1.058117       -28.7928
  80   2.0000      -1.050200       -28.5774
  81   2.0000      -1.006513       -27.3886
  82   2.0000      -1.003931       -27.3184
  83   2.0000      -0.987840       -26.8805
  84   2.0000      -0.960344       -26.1323
  85   2.0000      -0.944979       -25.7142
  86   2.0000      -0.938511       -25.5382
  87   2.0000      -0.929534       -25.2939
  88   2.0000      -0.922927       -25.1141
  89   2.0000      -0.909001       -24.7352
  90   2.0000      -0.905250       -24.6331
  91   2.0000      -0.897788       -24.4301
  92   2.0000      -0.884538       -24.0695
  93   2.0000      -0.870931       -23.6992
  94   2.0000      -0.860531       -23.4163
  95   2.0000      -0.859476       -23.3875
  96   2.0000      -0.849770       -23.1234
  97   2.0000      -0.838673       -22.8214
  98   2.0000      -0.828051       -22.5324
  99   2.0000      -0.815911       -22.2021
 100   2.0000      -0.814881       -22.1740
 101   2.0000      -0.809547       -22.0289
 102   2.0000      -0.800228       -21.7753
 103   2.0000      -0.796917       -21.6852
 104   2.0000      -0.775199       -21.0942
 105   2.0000      -0.761740       -20.7280
 106   2.0000      -0.756417       -20.5832
 107   2.0000      -0.747584       -20.3428
 108   2.0000      -0.746516       -20.3137
 109   2.0000      -0.739082       -20.1114
 110   2.0000      -0.730805       -19.8862
 111   2.0000      -0.725878       -19.7522
 112   2.0000      -0.706405       -19.2223
 113   2.0000      -0.704218       -19.1627
 114   2.0000      -0.696624       -18.9561
 115   2.0000      -0.693961       -18.8836
 116   2.0000      -0.679138       -18.4803
 117   2.0000      -0.676278       -18.4025
 118   2.0000      -0.662458       -18.0264
 119   2.0000      -0.660036       -17.9605
 120   2.0000      -0.655850       -17.8466
 121   2.0000      -0.648799       -17.6547
 122   2.0000      -0.645689       -17.5701
 123   2.0000      -0.642555       -17.4848
 124   2.0000      -0.638545       -17.3757
 125   2.0000      -0.634205       -17.2576
 126   2.0000      -0.631239       -17.1769
 127   2.0000      -0.626667       -17.0525
 128   2.0000      -0.622030       -16.9263
 129   2.0000      -0.612048       -16.6547
 130   2.0000      -0.606570       -16.5056
 131   2.0000      -0.603196       -16.4138
 132   2.0000      -0.596673       -16.2363
 133   2.0000      -0.589139       -16.0313
 134   2.0000      -0.585444       -15.9307
 135   2.0000      -0.582635       -15.8543
 136   2.0000      -0.579632       -15.7726
 137   2.0000      -0.577454       -15.7133
 138   2.0000      -0.571124       -15.5411
 139   2.0000      -0.568429       -15.4677
 140   2.0000      -0.567901       -15.4534
 141   2.0000      -0.561501       -15.2792
 142   2.0000      -0.559849       -15.2343
 143   2.0000      -0.556004       -15.1296
 144   2.0000      -0.549226       -14.9452
 145   2.0000      -0.545995       -14.8573
 146   2.0000      -0.544738       -14.8231
 147   2.0000      -0.538919       -14.6647
 148   2.0000      -0.535370       -14.5681
 149   2.0000      -0.534232       -14.5372
 150   2.0000      -0.531365       -14.4592
 151   2.0000      -0.528075       -14.3697
 152   2.0000      -0.527596       -14.3566
 153   2.0000      -0.523079       -14.2337
 154   2.0000      -0.522016       -14.2048
 155   2.0000      -0.520976       -14.1765
 156   2.0000      -0.518752       -14.1160
 157   2.0000      -0.518228       -14.1017
 158   2.0000      -0.516216       -14.0469
 159   2.0000      -0.514286       -13.9944
 160   2.0000      -0.507054       -13.7976
 161   2.0000      -0.505667       -13.7599
 162   2.0000      -0.503822       -13.7097
 163   2.0000      -0.501287       -13.6407
 164   2.0000      -0.498963       -13.5775
 165   2.0000      -0.494240       -13.4489
 166   2.0000      -0.493514       -13.4292
 167   2.0000      -0.490685       -13.3522
 168   2.0000      -0.486160       -13.2291
 169   2.0000      -0.483617       -13.1599
 170   2.0000      -0.478860       -13.0304
 171   2.0000      -0.475157       -12.9297
 172   2.0000      -0.472995       -12.8708
 173   2.0000      -0.469669       -12.7803
 174   2.0000      -0.467659       -12.7257
 175   2.0000      -0.467355       -12.7174
 176   2.0000      -0.466586       -12.6964
 177   2.0000      -0.464439       -12.6380
 178   2.0000      -0.461651       -12.5622
 179   2.0000      -0.459396       -12.5008
 180   2.0000      -0.458053       -12.4642
 181   2.0000      -0.455380       -12.3915
 182   2.0000      -0.453957       -12.3528
 183   2.0000      -0.449630       -12.2350
 184   2.0000      -0.449124       -12.2213
 185   2.0000      -0.445880       -12.1330
 186   2.0000      -0.443334       -12.0637
 187   2.0000      -0.441876       -12.0241
 188   2.0000      -0.439588       -11.9618
 189   2.0000      -0.434677       -11.8282
 190   2.0000      -0.433266       -11.7898
 191   2.0000      -0.432040       -11.7564
 192   2.0000      -0.426714       -11.6115
 193   2.0000      -0.421847       -11.4790
 194   2.0000      -0.421354       -11.4656
 195   2.0000      -0.413948       -11.2641
 196   2.0000      -0.407680       -11.0935
 197   2.0000      -0.406372       -11.0579
 198   2.0000      -0.404912       -11.0182
 199   2.0000      -0.396347       -10.7851
 200   2.0000      -0.391986       -10.6665
 201   2.0000      -0.384212       -10.4549
 202   2.0000      -0.382742       -10.4150
 203   2.0000      -0.373585       -10.1658
 204   2.0000      -0.372025       -10.1233
 205   2.0000      -0.362287        -9.8583
 206   2.0000      -0.358362        -9.7515
 207   2.0000      -0.350419        -9.5354
 208   2.0000      -0.347579        -9.4581
 209   2.0000      -0.343009        -9.3337
 210   2.0000      -0.340227        -9.2581
 211   2.0000      -0.339503        -9.2383
 212   2.0000      -0.335246        -9.1225
 213   2.0000      -0.329952        -8.9785
 214   2.0000      -0.328754        -8.9459
 215   2.0000      -0.327016        -8.8986
 216   2.0000      -0.324893        -8.8408
 217   2.0000      -0.310873        -8.4593
 218   2.0000      -0.308726        -8.4009
 219   2.0000      -0.285614        -7.7720
 220   2.0000      -0.284909        -7.7528
 221   2.0000      -0.237006        -6.4493
 222   0.0000      -0.074376        -2.0239
 223   0.0000      -0.056111        -1.5269
 224   0.0000      -0.052832        -1.4376
 225   0.0000      -0.036954        -1.0056
 226   0.0000      -0.024887        -0.6772

MULLIKEN ATOMIC CHARGES
-----------------------
   0 C :   -0.138872
   1 S :    0.113539
   2 C :   -0.119333
   3 C :    0.008764
   4 C :    0.102230
   5 C :   -0.000254
   6 C :   -0.040352
   7 C :    0.161146
   8 O :   -0.123403
   9 C :    0.095191
  10 C :   -0.055100
  11 C :    0.148352
  12 N :    0.244495
  13 O :   -0.226580
  14 O :   -0.226674
  15 C :    0.053131
  16 C :   -0.028298
  17 C :    0.003786
  18 C :    0.027460
  19 C :   -0.039598
  20 C :    0.121105
  21 N :   -0.256765
  22 C :    0.104351
  23 C :    0.003973
  24 C :    0.159643
  25 O :   -0.234451
  26 C :   -0.071844
  27 C :   -0.063145
  28 C :    0.168189
  29 O :   -0.204262
  30 N :   -0.254711
  31 C :    0.097765
  32 C :    0.001486
  33 C :    0.125613
  34 C :    0.016875
  35 C :   -0.070161
  36 C :   -0.029329
  37 C :    0.203551
  38 O :   -0.163846
  39 O :   -0.256827
  40 C :    0.193452
  41 C :   -0.123984
  42 C :    0.120154
  43 C :    0.075116
  44 C :   -0.087351
  45 C :    0.155306
  46 O :   -0.254191
  47 C :    0.154142
  48 O :   -0.156228
  49 C :    0.021266
  50 C :   -0.122421
  51 C :    0.038040
  52 C :   -0.113509
  53 S :    0.100866
  54 C :   -0.119438
  55 C :    0.011865
  56 C :    0.063141
  57 C :    0.066562
  58 C :   -0.054797
  59 C :    0.154909
  60 O :   -0.132573
  61 H :    0.022756
  62 H :    0.037999
  63 H :   -0.007689
  64 H :    0.017491
  65 H :   -0.015011
  66 H :   -0.019753
  67 H :    0.041224
  68 H :   -0.027131
  69 H :    0.024109
  70 H :    0.037962
  71 H :    0.011003
  72 H :    0.021629
  73 H :    0.028636
  74 H :    0.042184
  75 H :    0.029196
  76 H :    0.030205
  77 H :    0.025359
  78 H :    0.021494
  79 H :   -0.000448
  80 H :    0.031858
  81 H :    0.051688
  82 H :    0.009518
  83 H :    0.023225
  84 H :    0.005568
  85 H :    0.032631
  86 H :    0.010512
  87 H :    0.008503
  88 H :    0.017537
  89 H :    0.018487
  90 H :    0.037392
  91 H :    0.018459
  92 H :    0.027525
  93 H :    0.036092
  94 H :    0.004440
  95 H :   -0.001814
Sum of atomic charges:   -0.0000000

LOEWDIN ATOMIC CHARGES
----------------------
   0 C :   -0.171869
   1 S :    0.438019
   2 C :   -0.127067
   3 C :   -0.101311
   4 C :   -0.065164
   5 C :    0.032618
   6 C :   -0.053134
   7 C :    0.090995
   8 O :   -0.115790
   9 C :   -0.021801
  10 C :    0.019560
  11 C :   -0.020928
  12 N :    0.285115
  13 O :   -0.193856
  14 O :   -0.187617
  15 C :   -0.006555
  16 C :   -0.010109
  17 C :    0.006273
  18 C :    0.038693
  19 C :   -0.051204
  20 C :    0.074574
  21 N :    0.000044
  22 C :    0.036604
  23 C :   -0.061963
  24 C :    0.080083
  25 O :   -0.223346
  26 C :   -0.132843
  27 C :   -0.121096
  28 C :    0.083144
  29 O :   -0.194329
  30 N :    0.003640
  31 C :    0.036625
  32 C :   -0.060210
  33 C :    0.084065
  34 C :   -0.048409
  35 C :    0.030823
  36 C :   -0.063702
  37 C :    0.088736
  38 O :   -0.146907
  39 O :   -0.068589
  40 C :    0.068083
  41 C :   -0.027132
  42 C :   -0.028062
  43 C :   -0.027739
  44 C :   -0.032204
  45 C :    0.067896
  46 O :   -0.066775
  47 C :    0.079289
  48 O :   -0.144915
  49 C :   -0.056405
  50 C :   -0.019270
  51 C :   -0.042345
  52 C :   -0.159295
  53 S :    0.417078
  54 C :   -0.125554
  55 C :   -0.098508
  56 C :   -0.058539
  57 C :    0.030675
  58 C :   -0.042925
  59 C :    0.073539
  60 O :   -0.124866
  61 H :    0.026625
  62 H :    0.034766
  63 H :    0.030920
  64 H :    0.043083
  65 H :    0.032715
  66 H :    0.030624
  67 H :    0.037939
  68 H :    0.025937
  69 H :    0.023722
  70 H :    0.035725
  71 H :    0.020067
  72 H :    0.029348
  73 H :    0.031772
  74 H :    0.036898
  75 H :    0.025896
  76 H :    0.032105
  77 H :    0.031843
  78 H :    0.024570
  79 H :    0.031972
  80 H :    0.032641
  81 H :    0.049944
  82 H :    0.027662
  83 H :    0.038037
  84 H :    0.024241
  85 H :    0.040242
  86 H :    0.032261
  87 H :    0.026737
  88 H :    0.036226
  89 H :    0.029920
  90 H :    0.051356
  91 H :    0.022362
  92 H :    0.037059
  93 H :    0.034084
  94 H :    0.034580
  95 H :    0.032282

  Mayer bond orders larger than 0.100000
B(  0-C ,  1-S ) :   1.1350 B(  0-C ,  4-C ) :   1.5584 B(  0-C , 61-H ) :   0.9674
B(  1-S ,  2-C ) :   1.1682 B(  2-C ,  3-C ) :   1.5926 B(  2-C , 62-H ) :   0.9702
B(  3-C ,  4-C ) :   1.2170 B(  3-C ,  7-C ) :   0.9252 B(  4-C ,  5-C ) :   1.0034
B(  5-C ,  6-C ) :   1.6896 B(  5-C , 63-H ) :   1.0111 B(  6-C ,  7-C ) :   0.9483
B(  6-C ,  9-C ) :   1.0043 B(  7-C ,  8-O ) :   2.2337 B(  9-C , 10-C ) :   1.3110
B(  9-C , 17-C ) :   1.3443 B( 10-C , 11-C ) :   1.3706 B( 10-C , 64-H ) :   0.9923
B( 11-C , 12-N ) :   0.8751 B( 11-C , 15-C ) :   1.3542 B( 12-N , 13-O ) :   1.5580
B( 12-N , 14-O ) :   1.5284 B( 13-O , 14-O ) :   0.2693 B( 15-C , 16-C ) :   1.3522
B( 15-C , 18-C ) :   1.0354 B( 16-C , 17-C ) :   1.3930 B( 16-C , 65-H ) :   0.9904
B( 17-C , 66-H ) :   0.9936 B( 18-C , 19-C ) :   1.7015 B( 18-C , 67-H ) :   0.9153
B( 19-C , 20-C ) :   1.1362 B( 19-C , 68-H ) :   0.9646 B( 20-C , 21-N ) :   1.1478
B( 20-C , 27-C ) :   1.3818 B( 21-N , 22-C ) :   0.9506 B( 21-N , 24-C ) :   1.0707
B( 22-C , 23-C ) :   1.1183 B( 22-C , 69-H ) :   0.9507 B( 22-C , 70-H ) :   0.9287
B( 23-C , 71-H ) :   0.9690 B( 23-C , 72-H ) :   0.9682 B( 23-C , 73-H ) :   0.9642
B( 24-C , 25-O ) :   2.0006 B( 24-C , 26-C ) :   1.0005 B( 25-O , 80-H ) :   0.1041
B( 26-C , 27-C ) :   1.2276 B( 26-C , 33-C ) :   1.3638 B( 27-C , 28-C ) :   0.9851
B( 28-C , 29-O ) :   2.0403 B( 28-C , 30-N ) :   1.0488 B( 29-O , 67-H ) :   0.1034
B( 30-N , 31-C ) :   0.9420 B( 30-N , 33-C ) :   1.1802 B( 31-C , 32-C ) :   1.1215
B( 31-C , 74-H ) :   0.9280 B( 31-C , 75-H ) :   0.9502 B( 32-C , 76-H ) :   0.9642
B( 32-C , 77-H ) :   0.9675 B( 32-C , 78-H ) :   0.9682 B( 33-C , 34-C ) :   1.0920
B( 34-C , 35-C ) :   1.7833 B( 34-C , 79-H ) :   0.9513 B( 35-C , 36-C ) :   0.9851
B( 35-C , 80-H ) :   0.9461 B( 36-C , 37-C ) :   0.9121 B( 36-C , 41-C ) :   0.9844
B( 36-C , 81-H ) :   0.8616 B( 37-C , 38-O ) :   2.1680 B( 37-C , 39-O ) :   1.1511
B( 39-O , 40-C ) :   0.9474 B( 40-C , 41-C ) :   1.0131 B( 40-C , 45-C ) :   0.9726
B( 40-C , 82-H ) :   0.9131 B( 41-C , 42-C ) :   1.0665 B( 41-C , 83-H ) :   0.9163
B( 42-C , 43-C ) :   1.0662 B( 42-C , 84-H ) :   0.9175 B( 42-C , 85-H ) :   0.9187
B( 43-C , 44-C ) :   1.0695 B( 43-C , 86-H ) :   0.9244 B( 43-C , 87-H ) :   0.9347
B( 44-C , 45-C ) :   1.0140 B( 44-C , 49-C ) :   1.0005 B( 44-C , 88-H ) :   0.9056
B( 45-C , 46-O ) :   0.9616 B( 45-C , 89-H ) :   0.9169 B( 46-O , 47-C ) :   1.1382
B( 47-C , 48-O ) :   2.2292 B( 47-C , 49-C ) :   0.9121 B( 49-C , 50-C ) :   1.0122
B( 49-C , 90-H ) :   0.8755 B( 50-C , 51-C ) :   1.8163 B( 50-C , 91-H ) :   0.9695
B( 51-C , 52-C ) :   1.1274 B( 51-C , 92-H ) :   0.9378 B( 52-C , 53-S ) :   1.0810
B( 52-C , 56-C ) :   1.5194 B( 53-S , 54-C ) :   1.1457 B( 54-C , 55-C ) :   1.6146
B( 54-C , 93-H ) :   0.9707 B( 55-C , 56-C ) :   1.1915 B( 55-C , 59-C ) :   0.8872
B( 56-C , 57-C ) :   1.0390 B( 57-C , 58-C ) :   1.6937 B( 57-C , 94-H ) :   1.0042
B( 58-C , 59-C ) :   1.0097 B( 58-C , 95-H ) :   1.0047 B( 59-C , 60-O ) :   2.2383

-----------------------------------------------------------------------------
         ABSORPTION SPECTRUM VIA TRANSITION ELECTRIC DIPOLE MOMENTS
-----------------------------------------------------------------------------
State   Energy  Wavelength   fosc         T2         TX        TY        TZ
        (cm-1)    (nm)                  (au**2)     (au)      (au)      (au)
-----------------------------------------------------------------------------
   0   19515.0    512.4   0.543136276   9.16254  -2.76320  -0.07405  -1.23361
   1   25395.4    393.8   0.074415501   0.96468   0.23406   0.11839  -0.94651
   2   26490.1    377.5   0.096705447   1.20183  -0.93646  -0.40814  -0.39786
   3   28315.4    353.2   0.084406659   0.98136  -0.98648  -0.08606  -0.02849
   4   28713.5    348.3   0.000122744   0.00141  -0.00063   0.03671  -0.00771
   5   28853.6    346.6   0.016038801   0.18300  -0.41954  -0.06858  -0.04778
   6   29255.9    341.8   0.000978038   0.01101   0.09337  -0.04117  -0.02435
   7   30164.2    331.5   0.000826802   0.00902   0.01794  -0.09227   0.01372
   8   30570.8    327.1   0.118343590   1.27442   0.12676  -1.11278   0.14165
   9   30858.8    324.1   0.042910935   0.45779  -0.64347  -0.14067   0.15473
  10   32280.4    309.8   0.357736461   3.64838   1.87085   0.04029  -0.38299
  11   32737.3    305.5   0.078724670   0.79167   0.84653   0.13450  -0.23866
  12   33900.3    295.0   0.122711147   1.19167   0.15960   1.06862   0.15570
  13   34941.0    286.2   0.159096081   1.49899   1.09934   0.48659   0.23166
  14   35479.1    281.9   0.000239136   0.00222  -0.03318  -0.03286   0.00618
  15   35570.3    281.1   0.034981367   0.32376  -0.54973  -0.10714   0.10038
  16   36208.8    276.2   0.010727025   0.09753  -0.29954  -0.08214  -0.03253
  17   36768.9    272.0   0.002581274   0.02311   0.14605   0.04104   0.00985
  18   37266.3    268.3   0.013690369   0.12094  -0.15272  -0.27850  -0.14161
  19   38352.2    260.7   0.090009057   0.77263  -0.76635  -0.42137   0.08824
  20   38525.2    259.6   0.168851565   1.44290   1.17300   0.01393  -0.25840
  21   40266.0    248.3   0.026051473   0.21300  -0.07438   0.35627   0.28378

FINAL SINGLE POINT ENERGY     -3483.201451136081

DIPOLE MOMENT
-------------
                                X             Y             Z
Electronic contribution:     38.75406       9.17026      -2.74467
Nuclear contribution   :    -36.79889      -8.71522       5.59765
                        -----------------------------------------
Total Dipole Moment    :      1.95517       0.45504       2.85297
                        -----------------------------------------
Magnitude (a.u.)       :      3.48844
Magnitude (Debye)      :      8.86691

Rotational constants in cm-1:     0.002391     0.000348     0.000321
Rotational constants in MHz :    71.671197    10.428146     9.610530

                             ****ORCA TERMINATED NORMALLY****
TOTAL RUN TIME: 0 days 0 hours 7 minutes 21 seconds 666 msec
