                         Program Version 4.2.0 -  RELEASE  -
|  1> # ORCA input file
|  2> # SCF done       -109.614941101137          0.000540870492
|  3> ! CAM-B3LYP def2-SVP def2/J RIJCOSX Grid4 TightSCF
|  4> %maxcore 5000
|  5> %tddft
|  6>     Mode sTDDFT
|  7>     Ethresh 5.0
|  8>     maxcore 5000
|  9> end
| 10>
| 11> %pal
| 12>   nprocs 6
| 13>   end
| 14> * xyz 0 1
| 15>    O        4.19045        -2.83366        -2.28383
| 16>    C        4.68198        -2.90428        -1.18630
| 17>    C        4.03858        -3.36413         0.09903
| 18>    C        2.69822        -3.82681         0.23251
| 19>    S        2.10537        -4.21726         1.85649
| 20>    C        0.55154        -4.67730         1.26363
| 21>    C        0.48669        -4.54515        -0.07914
| 22>    C        1.69660        -4.06248        -0.68204
| 23>    C        1.47952        -3.98667        -2.09780
| 24>    C        0.20832        -4.39351        -2.39476
| 25>    C       -0.35375        -4.45078        -3.72067
| 26>    C       -1.68328        -4.83516        -3.97468
| 27>    N       -2.17363        -4.89536        -5.19075
| 28>    C       -1.36419        -4.56846        -6.21024
| 29>    C       -1.91784        -4.65283        -7.52982
| 30>    S       -0.98157        -4.27352        -8.96947
| 31>    C       -2.31531        -4.62285       -10.01380
| 32>    C       -3.40397        -5.00468        -9.30652
| 33>    C       -3.18867        -5.02368        -7.89268
| 34>    C       -4.39791        -5.44159        -7.25490
| 35>    C       -5.35766        -5.69319        -8.19858
| 36>    C       -6.68311        -6.13470        -7.91816
| 37>    S       -7.19220        -6.22819        -6.22225
| 38>    C       -8.76079        -6.80727        -6.64913
| 39>    C       -8.88928        -6.92400        -7.98951
| 40>    C       -7.71826        -6.54385        -8.72193
| 41>    C       -8.00204        -6.73443       -10.12895
| 42>    C       -9.25903        -7.19857       -10.27448
| 43>    C       -9.92505        -7.35778        -8.96015
| 44>    O      -11.04526        -7.75164        -8.73322
| 45>    C       -4.79741        -5.42379        -9.56954
| 46>    O       -5.34941        -5.50987       -10.63879
| 47>    C       -0.04130        -4.16999        -5.95599
| 48>    N        0.45075        -4.11668        -4.74261
| 49>    C       -0.51431        -4.77464        -1.14359
| 50>    O       -1.64677        -5.17866        -1.01561
| 51>    C        4.93956        -3.26269         1.12121
| 52>    C        6.19235        -2.76536         0.62586
| 53>    C        7.43037        -2.45692         1.08947
| 54>    S        8.44688        -1.89038        -0.19541
| 55>    C        7.18411        -2.07306        -1.36467
| 56>    C        6.05566        -2.54330        -0.78486
| 57>    H       -0.20051        -5.01398         1.94993
| 58>    H        2.20367        -3.65512        -2.81855
| 59>    H       -2.35581        -5.10046        -3.17204
| 60>    H       -2.19420        -4.52107       -11.07446
| 61>    H       -4.50805        -5.54140        -6.19040
| 62>    H       -9.47505        -7.02082        -5.87830
| 63>    H       -7.29874        -6.52278       -10.91301
| 64>    H       -9.75252        -7.43512       -11.19939
| 65>    H        0.62581        -3.89326        -6.76284
| 66>    H        4.74828        -3.52021         2.14808
| 67>    H        7.82368        -2.51812         2.08402
| 68>    H        7.36878        -1.82174        -2.39016
| 69> *
| 70>
| 71>                          ****END OF INPUT****

CARTESIAN COORDINATES (ANGSTROEM)
---------------------------------
  O      4.190450   -2.833660   -2.283830
  C      4.681980   -2.904280   -1.186300
  C      4.038580   -3.364130    0.099030
  C      2.698220   -3.826810    0.232510
  S      2.105370   -4.217260    1.856490
  C      0.551540   -4.677300    1.263630
  C      0.486690   -4.545150   -0.079140
  C      1.696600   -4.062480   -0.682040
  C      1.479520   -3.986670   -2.097800
  C      0.208320   -4.393510   -2.394760
  C     -0.353750   -4.450780   -3.720670
  C     -1.683280   -4.835160   -3.974680
  N     -2.173630   -4.895360   -5.190750
  C     -1.364190   -4.568460   -6.210240
  C     -1.917840   -4.652830   -7.529820
  S     -0.981570   -4.273520   -8.969470
  C     -2.315310   -4.622850  -10.013800
  C     -3.403970   -5.004680   -9.306520
  C     -3.188670   -5.023680   -7.892680
  C     -4.397910   -5.441590   -7.254900
  C     -5.357660   -5.693190   -8.198580
  C     -6.683110   -6.134700   -7.918160
  S     -7.192200   -6.228190   -6.222250
  C     -8.760790   -6.807270   -6.649130
  C     -8.889280   -6.924000   -7.989510
  C     -7.718260   -6.543850   -8.721930
  C     -8.002040   -6.734430  -10.128950
  C     -9.259030   -7.198570  -10.274480
  C     -9.925050   -7.357780   -8.960150
  O    -11.045260   -7.751640   -8.733220
  C     -4.797410   -5.423790   -9.569540
  O     -5.349410   -5.509870  -10.638790
  C     -0.041300   -4.169990   -5.955990
  N      0.450750   -4.116680   -4.742610
  C     -0.514310   -4.774640   -1.143590
  O     -1.646770   -5.178660   -1.015610
  C      4.939560   -3.262690    1.121210
  C      6.192350   -2.765360    0.625860
  C      7.430370   -2.456920    1.089470
  S      8.446880   -1.890380   -0.195410
  C      7.184110   -2.073060   -1.364670
  C      6.055660   -2.543300   -0.784860
  H     -0.200510   -5.013980    1.949930
  H      2.203670   -3.655120   -2.818550
  H     -2.355810   -5.100460   -3.172040
  H     -2.194200   -4.521070  -11.074460
  H     -4.508050   -5.541400   -6.190400
  H     -9.475050   -7.020820   -5.878300
  H     -7.298740   -6.522780  -10.913010
  H     -9.752520   -7.435120  -11.199390
  H      0.625810   -3.893260   -6.762840
  H      4.748280   -3.520210    2.148080
  H      7.823680   -2.518120    2.084020
  H      7.368780   -1.821740   -2.390160

 Total Charge           Charge          ....    0
 Multiplicity           Mult            ....    1
 Number of Electrons    NEL             ....  314
 Basis Dimension        Dim             ....  664

ORBITAL ENERGIES
----------------

  NO   OCC          E(Eh)            E(eV)
   0   2.0000     -88.974171     -2421.1103
   1   2.0000     -88.968145     -2420.9463
   2   2.0000     -88.966749     -2420.9083
   3   2.0000     -88.951405     -2420.4908
   4   2.0000     -19.229943      -523.2734
   5   2.0000     -19.220375      -523.0130
   6   2.0000     -19.216853      -522.9171
   7   2.0000     -19.193943      -522.2937
   8   2.0000     -14.421945      -392.4411
   9   2.0000     -14.421707      -392.4346
  10   2.0000     -10.380695      -282.4731
  11   2.0000     -10.370676      -282.2004
  12   2.0000     -10.366380      -282.0835
  13   2.0000     -10.344116      -281.4777
  14   2.0000     -10.327244      -281.0186
  15   2.0000     -10.325033      -280.9584
  16   2.0000     -10.323692      -280.9219
  17   2.0000     -10.320643      -280.8390
  18   2.0000     -10.319261      -280.8014
  19   2.0000     -10.318225      -280.7732
  20   2.0000     -10.316750      -280.7330
  21   2.0000     -10.316519      -280.7267
  22   2.0000     -10.313199      -280.6364
  23   2.0000     -10.313127      -280.6345
  24   2.0000     -10.308386      -280.5055
  25   2.0000     -10.307668      -280.4859
  26   2.0000     -10.306840      -280.4634
  27   2.0000     -10.302796      -280.3533
  28   2.0000     -10.296688      -280.1871
  29   2.0000     -10.295131      -280.1447
  30   2.0000     -10.294096      -280.1166
  31   2.0000     -10.293097      -280.0894
  32   2.0000     -10.292997      -280.0867
  33   2.0000     -10.288029      -279.9515
  34   2.0000     -10.286540      -279.9110
  35   2.0000     -10.283123      -279.8180
  36   2.0000     -10.280080      -279.7352
  37   2.0000     -10.279505      -279.7195
  38   2.0000     -10.278943      -279.7043
  39   2.0000     -10.277453      -279.6637
  40   2.0000     -10.262752      -279.2637
  41   2.0000     -10.260595      -279.2050
  42   2.0000      -8.070193      -219.6011
  43   2.0000      -8.063692      -219.4242
  44   2.0000      -8.062274      -219.3856
  45   2.0000      -8.046957      -218.9688
  46   2.0000      -6.039733      -164.3495
  47   2.0000      -6.034995      -164.2206
  48   2.0000      -6.033341      -164.1755
  49   2.0000      -6.032311      -164.1475
  50   2.0000      -6.031850      -164.1350
  51   2.0000      -6.028755      -164.0508
  52   2.0000      -6.027337      -164.0122
  53   2.0000      -6.025543      -163.9634
  54   2.0000      -6.024165      -163.9259
  55   2.0000      -6.016599      -163.7200
  56   2.0000      -6.012047      -163.5961
  57   2.0000      -6.008770      -163.5070
  58   2.0000      -1.145213       -31.1628
  59   2.0000      -1.134663       -30.8758
  60   2.0000      -1.130632       -30.7660
  61   2.0000      -1.106468       -30.1085
  62   2.0000      -1.078622       -29.3508
  63   2.0000      -1.013558       -27.5803
  64   2.0000      -1.009496       -27.4698
  65   2.0000      -1.003337       -27.3022
  66   2.0000      -0.995369       -27.0854
  67   2.0000      -0.987584       -26.8735
  68   2.0000      -0.951315       -25.8866
  69   2.0000      -0.939675       -25.5699
  70   2.0000      -0.932926       -25.3862
  71   2.0000      -0.913475       -24.8569
  72   2.0000      -0.890374       -24.2283
  73   2.0000      -0.862936       -23.4817
  74   2.0000      -0.849196       -23.1078
  75   2.0000      -0.844423       -22.9779
  76   2.0000      -0.843112       -22.9423
  77   2.0000      -0.804858       -21.9013
  78   2.0000      -0.804100       -21.8807
  79   2.0000      -0.793920       -21.6037
  80   2.0000      -0.792906       -21.5761
  81   2.0000      -0.764781       -20.8107
  82   2.0000      -0.754439       -20.5293
  83   2.0000      -0.748507       -20.3679
  84   2.0000      -0.741492       -20.1770
  85   2.0000      -0.728240       -19.8164
  86   2.0000      -0.724732       -19.7210
  87   2.0000      -0.708797       -19.2873
  88   2.0000      -0.695992       -18.9389
  89   2.0000      -0.668771       -18.1982
  90   2.0000      -0.660718       -17.9790
  91   2.0000      -0.657551       -17.8929
  92   2.0000      -0.650027       -17.6881
  93   2.0000      -0.645715       -17.5708
  94   2.0000      -0.634950       -17.2779
  95   2.0000      -0.622674       -16.9438
  96   2.0000      -0.610718       -16.6185
  97   2.0000      -0.603809       -16.4305
  98   2.0000      -0.596678       -16.2364
  99   2.0000      -0.590020       -16.0553
 100   2.0000      -0.584679       -15.9099
 101   2.0000      -0.578570       -15.7437
 102   2.0000      -0.572089       -15.5673
 103   2.0000      -0.562476       -15.3057
 104   2.0000      -0.554456       -15.0875
 105   2.0000      -0.544429       -14.8147
 106   2.0000      -0.540945       -14.7199
 107   2.0000      -0.538287       -14.6475
 108   2.0000      -0.533529       -14.5180
 109   2.0000      -0.525058       -14.2875
 110   2.0000      -0.523786       -14.2529
 111   2.0000      -0.523240       -14.2381
 112   2.0000      -0.518819       -14.1178
 113   2.0000      -0.512648       -13.9499
 114   2.0000      -0.511692       -13.9238
 115   2.0000      -0.508453       -13.8357
 116   2.0000      -0.500074       -13.6077
 117   2.0000      -0.498909       -13.5760
 118   2.0000      -0.496171       -13.5015
 119   2.0000      -0.495434       -13.4815
 120   2.0000      -0.489639       -13.3238
 121   2.0000      -0.488947       -13.3049
 122   2.0000      -0.482910       -13.1407
 123   2.0000      -0.476978       -12.9792
 124   2.0000      -0.474587       -12.9142
 125   2.0000      -0.472817       -12.8660
 126   2.0000      -0.469390       -12.7727
 127   2.0000      -0.468024       -12.7356
 128   2.0000      -0.465229       -12.6595
 129   2.0000      -0.463155       -12.6031
 130   2.0000      -0.459759       -12.5107
 131   2.0000      -0.450848       -12.2682
 132   2.0000      -0.448084       -12.1930
 133   2.0000      -0.437669       -11.9096
 134   2.0000      -0.430717       -11.7204
 135   2.0000      -0.426786       -11.6134
 136   2.0000      -0.419735       -11.4216
 137   2.0000      -0.411383       -11.1943
 138   2.0000      -0.409897       -11.1539
 139   2.0000      -0.396664       -10.7938
 140   2.0000      -0.391189       -10.6448
 141   2.0000      -0.384451       -10.4614
 142   2.0000      -0.374420       -10.1885
 143   2.0000      -0.367320        -9.9953
 144   2.0000      -0.347640        -9.4598
 145   2.0000      -0.345267        -9.3952
 146   2.0000      -0.337318        -9.1789
 147   2.0000      -0.334925        -9.1138
 148   2.0000      -0.334603        -9.1050
 149   2.0000      -0.333259        -9.0685
 150   2.0000      -0.320223        -8.7137
 151   2.0000      -0.319506        -8.6942
 152   2.0000      -0.311844        -8.4857
 153   2.0000      -0.293744        -7.9932
 154   2.0000      -0.289988        -7.8910
 155   2.0000      -0.271132        -7.3779
 156   2.0000      -0.252769        -6.8782
 157   0.0000      -0.086698        -2.3592
 158   0.0000      -0.067145        -1.8271
 159   0.0000      -0.049667        -1.3515
 160   0.0000      -0.032230        -0.8770
 161   0.0000      -0.027696        -0.7536

MULLIKEN ATOMIC CHARGES
-----------------------
   0 O :   -0.121450
   1 C :    0.182880
   2 C :   -0.032514
   3 C :   -0.135745
   4 S :    0.101979
   5 C :   -0.106411
   6 C :    0.008801
   7 C :    0.102450
   8 C :   -0.031398
   9 C :    0.017240
  10 C :   -0.071989
  11 C :    0.016009
  12 N :   -0.033518
  13 C :   -0.012001
  14 C :   -0.103779
  15 S :    0.120435
  16 C :   -0.117337
  17 C :    0.015191
  18 C :    0.105141
  19 C :   -0.044503
  20 C :   -0.007066
  21 C :   -0.138627
  22 S :    0.104364
  23 C :   -0.110736
  24 C :   -0.005941
  25 C :    0.060487
  26 C :    0.060088
  27 C :   -0.055655
  28 C :    0.156348
  29 O :   -0.141718
  30 C :    0.172982
  31 O :   -0.129970
  32 C :   -0.026153
  33 N :   -0.018018
  34 C :    0.162787
  35 O :   -0.137144
  36 C :   -0.026769
  37 C :    0.121157
  38 C :   -0.141164
  39 S :    0.118578
  40 C :   -0.117316
  41 C :   -0.001261
  42 H :    0.035523
  43 H :    0.023066
  44 H :    0.019363
  45 H :    0.036911
  46 H :    0.013284
  47 H :    0.033256
  48 H :    0.013206
  49 H :   -0.010395
  50 H :    0.007108
  51 H :    0.005891
  52 H :    0.025179
  53 H :    0.038878
Sum of atomic charges:    0.0000000

LOEWDIN ATOMIC CHARGES
----------------------
   0 O :   -0.112884
   1 C :    0.098939
   2 C :   -0.077093
   3 C :   -0.146949
   4 S :    0.421945
   5 C :   -0.122265
   6 C :   -0.095190
   7 C :   -0.048494
   8 C :    0.071476
   9 C :   -0.079893
  10 C :   -0.010862
  11 C :    0.019252
  12 N :   -0.044648
  13 C :   -0.027519
  14 C :   -0.170318
  15 S :    0.430023
  16 C :   -0.121471
  17 C :   -0.096894
  18 C :   -0.037301
  19 C :    0.032615
  20 C :   -0.075289
  21 C :   -0.153953
  22 S :    0.421275
  23 C :   -0.127453
  24 C :   -0.100437
  25 C :   -0.047176
  26 C :    0.036266
  27 C :   -0.052940
  28 C :    0.072212
  29 O :   -0.133652
  30 C :    0.099117
  31 O :   -0.119692
  32 C :    0.000151
  33 N :   -0.037033
  34 C :    0.088138
  35 O :   -0.129783
  36 C :    0.027611
  37 C :   -0.065324
  38 C :   -0.169367
  39 S :    0.442560
  40 C :   -0.125559
  41 C :   -0.101113
  42 H :    0.035452
  43 H :    0.035926
  44 H :    0.028080
  45 H :    0.034826
  46 H :    0.029522
  47 H :    0.033263
  48 H :    0.031506
  49 H :    0.028884
  50 H :    0.020109
  51 H :    0.028484
  52 H :    0.027807
  53 H :    0.035112

  Mayer bond orders larger than 0.100000
B(  0-O ,  1-C ) :   2.2294 B(  1-C ,  2-C ) :   0.9273 B(  1-C , 41-C ) :   0.9412
B(  2-C ,  3-C ) :   1.1185 B(  2-C , 36-C ) :   1.6284 B(  3-C ,  4-S ) :   1.1038
B(  3-C ,  7-C ) :   1.4971 B(  4-S ,  5-C ) :   1.1362 B(  5-C ,  6-C ) :   1.6146
B(  5-C , 42-H ) :   0.9681 B(  6-C ,  7-C ) :   1.1872 B(  6-C , 34-C ) :   0.9252
B(  7-C ,  8-C ) :   1.0335 B(  8-C ,  9-C ) :   1.5816 B(  8-C , 43-H ) :   1.0178
B(  9-C , 10-C ) :   1.0201 B(  9-C , 34-C ) :   0.9651 B( 10-C , 11-C ) :   1.3305
B( 10-C , 33-N ) :   1.5464 B( 11-C , 12-N ) :   1.5680 B( 11-C , 44-H ) :   0.9561
B( 12-N , 13-C ) :   1.5410 B( 13-C , 14-C ) :   1.0694 B( 13-C , 32-C ) :   1.2896
B( 14-C , 15-S ) :   1.0983 B( 14-C , 18-C ) :   1.4952 B( 15-S , 16-C ) :   1.1499
B( 16-C , 17-C ) :   1.5920 B( 16-C , 45-H ) :   0.9698 B( 17-C , 18-C ) :   1.2019
B( 17-C , 30-C ) :   0.9222 B( 18-C , 19-C ) :   1.0755 B( 19-C , 20-C ) :   1.5659
B( 19-C , 46-H ) :   1.0080 B( 20-C , 21-C ) :   1.1156 B( 20-C , 30-C ) :   0.9374
B( 21-C , 22-S ) :   1.1026 B( 21-C , 25-C ) :   1.5264 B( 22-S , 23-C ) :   1.1439
B( 23-C , 24-C ) :   1.6160 B( 23-C , 47-H ) :   0.9690 B( 24-C , 25-C ) :   1.1806
B( 24-C , 28-C ) :   0.8851 B( 25-C , 26-C ) :   1.0590 B( 26-C , 27-C ) :   1.6564
B( 26-C , 48-H ) :   0.9996 B( 27-C , 28-C ) :   1.0115 B( 27-C , 49-H ) :   1.0055
B( 28-C , 29-O ) :   2.2327 B( 30-C , 31-O ) :   2.2245 B( 32-C , 33-N ) :   1.6079
B( 32-C , 50-H ) :   0.9768 B( 34-C , 35-O ) :   2.2076 B( 36-C , 37-C ) :   1.0194
B( 36-C , 51-H ) :   1.0077 B( 37-C , 38-C ) :   1.5442 B( 37-C , 41-C ) :   1.2213
B( 38-C , 39-S ) :   1.1367 B( 38-C , 52-H ) :   0.9689 B( 39-S , 40-C ) :   1.1683
B( 40-C , 41-C ) :   1.5901 B( 40-C , 53-H ) :   0.9693

-----------------------------------------------------------------------------
         ABSORPTION SPECTRUM VIA TRANSITION ELECTRIC DIPOLE MOMENTS
-----------------------------------------------------------------------------
State   Energy  Wavelength   fosc         T2         TX        TY        TZ
        (cm-1)    (nm)                  (au**2)     (au)      (au)      (au)
-----------------------------------------------------------------------------
   0   20801.4    480.7   1.395335393  22.08314   3.80659   1.03746   2.55278
   1   23195.2    431.1   0.028708963   0.40747   0.27920   0.01089   0.57393
   2   25553.7    391.3   0.072096416   0.92883  -0.36035  -0.19396   0.87256
   3   26393.5    378.9   0.144731376   1.80527  -0.95245  -0.22718  -0.92005
   4   27570.7    362.7   0.058678568   0.70066  -0.61927  -0.27512   0.49140
   5   28087.0    356.0   0.001996489   0.02340   0.09131   0.12122   0.01924
   6   28212.2    354.5   0.039621176   0.46234   0.65279   0.15640  -0.10840
   7   28762.7    347.7   0.003484701   0.03989  -0.13305  -0.04915  -0.14060
   8   29045.6    344.3   0.474554312   5.37874  -1.63003  -0.43888  -1.59032
   9   29294.0    341.4   0.001111764   0.01249  -0.01586  -0.09481  -0.05704
  10   30011.2    333.2   0.001669486   0.01831  -0.00823  -0.12827  -0.04233
  11   30177.0    331.4   0.000136906   0.00149  -0.02402  -0.01111  -0.02816
  12   30505.0    327.8   0.050107981   0.54077  -0.65814  -0.30289   0.12601
  13   31906.9    313.4   0.138400355   1.42800   1.06666   0.30434   0.44454
  14   32172.2    310.8   0.009104889   0.09317  -0.07946  -0.06350   0.28779
  15   34173.0    292.6   0.098301536   0.94701   0.61910   0.14979   0.73572
  16   34598.0    289.0   0.165648045   1.57620   1.08340   0.31421   0.55110
  17   35241.5    283.8   0.106528032   0.99514  -0.89383  -0.37762   0.23156
  18   36029.1    277.6   0.089984155   0.82222  -0.57785  -0.10588  -0.69072
  19   36051.9    277.4   0.006848627   0.06254   0.10535   0.06566  -0.21709
  20   36305.3    275.4   0.054490477   0.49411   0.66825   0.21748   0.01589
  21   36369.8    275.0   0.100275162   0.90767   0.91430   0.26564   0.03413
  22   36614.3    273.1   0.007785032   0.07000   0.21139   0.08241   0.13608
  23   36658.3    272.8   0.004839716   0.04346  -0.18644  -0.02489  -0.08991
  24   37161.6    269.1   0.075640882   0.67010  -0.77347  -0.20565  -0.17192
  25   37803.5    264.5   0.016434096   0.14312   0.29205   0.12365   0.20625
  26   37882.1    264.0   0.063087012   0.54825   0.62931   0.13833   0.36481
  27   38202.1    261.8   0.071792431   0.61868   0.71569   0.18623   0.26793
  28   38953.4    256.7   0.263319265   2.22542  -1.16668  -0.49557   0.78657
  29   39096.2    255.8   0.011580366   0.09751  -0.25464   0.14088   0.11325
  30   39870.2    250.8   0.051656416   0.42653  -0.59260  -0.19460  -0.19361
  31   40061.8    249.6   0.003371884   0.02771   0.11904   0.07335   0.09033
  32   40208.9    248.7   0.005190888   0.04250   0.18044   0.03217  -0.09438

FINAL SINGLE POINT ENERGY     -3227.199208512364

DIPOLE MOMENT
-------------
                                X             Y             Z
Electronic contribution:      4.46677       1.82591       3.22402
Nuclear contribution   :     -0.23518      -0.72500      -1.06885
                        -----------------------------------------
Total Dipole Moment    :      4.23160       1.10091       2.15517
                        -----------------------------------------
Magnitude (a.u.)       :      4.87475
Magnitude (Debye)      :     12.39062

Rotational constants in cm-1:     0.005946     0.000652     0.000588
Rotational constants in MHz :   178.259098    19.532299    17.614139

                             ****ORCA TERMINATED NORMALLY****
TOTAL RUN TIME: 0 days 0 hours 3 minutes 16 seconds 298 msec
