                         Program Version 4.2.0 -  RELEASE  -
|  1> # ORCA input file
|  2> # SCF done       -112.846218168162          0.000779202564
|  3> ! CAM-B3LYP def2-SVP def2/J RIJCOSX Grid4 TightSCF
|  4> %maxcore 5000
|  5> %tddft
|  6>     Mode sTDDFT
|  7>     Ethresh 5.0
|  8>     maxcore 5000
|  9> end
| 10>
| 11> %pal
| 12>   nprocs 6
| 13>   end
| 14> * xyz 0 1
| 15>    O        2.32956        -9.10663        -2.34580
| 16>    N        3.21522        -8.58605        -2.98718
| 17>    O        3.63471        -8.96967        -4.05485
| 18>    C        3.81175        -7.41734        -2.43424
| 19>    C        3.47441        -6.80348        -1.24699
| 20>    O        4.23967        -5.74647        -1.05200
| 21>    C        5.08769        -5.63877        -2.09967
| 22>    C        6.06121        -4.58693        -2.15831
| 23>    O        7.01896        -4.68252        -3.09055
| 24>    C        7.86592        -3.63342        -2.94198
| 25>    C        9.00317        -3.49503        -3.81842
| 26>    C        9.23747        -4.36779        -4.89379
| 27>    N       10.30699        -4.25677        -5.64590
| 28>    C       11.17083        -3.28170        -5.35449
| 29>    C       12.38087        -3.19327        -6.13738
| 30>    O       13.07759        -2.05465        -6.11969
| 31>    C       14.14055        -2.18778        -6.93417
| 32>    C       15.08248        -1.11937        -7.08920
| 33>    O       16.02656        -1.25654        -8.03182
| 34>    C       16.79105        -0.14989        -8.02973
| 35>    C       16.36373         0.73272        -7.09198
| 36>    C       15.24904         0.11309        -6.46361
| 37>    N       14.52858         0.69668        -5.38836
| 38>    O       13.73098         0.01143        -4.78323
| 39>    O       14.77916         1.85551        -5.13654
| 40>    C       14.13469        -3.43640        -7.51994
| 41>    C       13.00401        -4.09376        -6.99600
| 42>    N       12.66251        -5.45567        -7.27296
| 43>    O       12.16907        -6.10534        -6.38357
| 44>    O       12.94210        -5.86237        -8.37793
| 45>    C       10.90543        -2.36317        -4.32384
| 46>    N        9.83752        -2.47942        -3.56806
| 47>    C        7.45889        -2.84260        -1.89682
| 48>    C        6.28697        -3.44693        -1.39029
| 49>    N        5.50254        -2.90762        -0.32978
| 50>    O        4.36079        -3.29392        -0.21293
| 51>    O        6.03693        -2.07577         0.36817
| 52>    C        4.86793        -6.66210        -2.99404
| 53>    H        2.73016        -7.04882        -0.51421
| 54>    H        8.54636        -5.15802        -5.14724
| 55>    H       17.59750        -0.11280        -8.73434
| 56>    H       16.76126         1.69499        -6.84622
| 57>    H       14.84492        -3.83783        -8.21267
| 58>    H       11.57485        -1.53968        -4.11648
| 59>    H        7.92390        -1.94655        -1.54256
| 60>    H        5.37626        -6.85341        -3.91569
| 61> *
| 62>
| 63>                          ****END OF INPUT****

CARTESIAN COORDINATES (ANGSTROEM)
---------------------------------
  O      2.329560   -9.106630   -2.345800
  N      3.215220   -8.586050   -2.987180
  O      3.634710   -8.969670   -4.054850
  C      3.811750   -7.417340   -2.434240
  C      3.474410   -6.803480   -1.246990
  O      4.239670   -5.746470   -1.052000
  C      5.087690   -5.638770   -2.099670
  C      6.061210   -4.586930   -2.158310
  O      7.018960   -4.682520   -3.090550
  C      7.865920   -3.633420   -2.941980
  C      9.003170   -3.495030   -3.818420
  C      9.237470   -4.367790   -4.893790
  N     10.306990   -4.256770   -5.645900
  C     11.170830   -3.281700   -5.354490
  C     12.380870   -3.193270   -6.137380
  O     13.077590   -2.054650   -6.119690
  C     14.140550   -2.187780   -6.934170
  C     15.082480   -1.119370   -7.089200
  O     16.026560   -1.256540   -8.031820
  C     16.791050   -0.149890   -8.029730
  C     16.363730    0.732720   -7.091980
  C     15.249040    0.113090   -6.463610
  N     14.528580    0.696680   -5.388360
  O     13.730980    0.011430   -4.783230
  O     14.779160    1.855510   -5.136540
  C     14.134690   -3.436400   -7.519940
  C     13.004010   -4.093760   -6.996000
  N     12.662510   -5.455670   -7.272960
  O     12.169070   -6.105340   -6.383570
  O     12.942100   -5.862370   -8.377930
  C     10.905430   -2.363170   -4.323840
  N      9.837520   -2.479420   -3.568060
  C      7.458890   -2.842600   -1.896820
  C      6.286970   -3.446930   -1.390290
  N      5.502540   -2.907620   -0.329780
  O      4.360790   -3.293920   -0.212930
  O      6.036930   -2.075770    0.368170
  C      4.867930   -6.662100   -2.994040
  H      2.730160   -7.048820   -0.514210
  H      8.546360   -5.158020   -5.147240
  H     17.597500   -0.112800   -8.734340
  H     16.761260    1.694990   -6.846220
  H     14.844920   -3.837830   -8.212670
  H     11.574850   -1.539680   -4.116480
  H      7.923900   -1.946550   -1.542560
  H      5.376260   -6.853410   -3.915690

 Total Charge           Charge          ....    0
 Multiplicity           Mult            ....    1
 Number of Electrons    NEL             ....  266
 Basis Dimension        Dim             ....  572

ORBITAL ENERGIES
----------------

  NO   OCC          E(Eh)            E(eV)
   0   2.0000     -19.337941      -526.2121
   1   2.0000     -19.336696      -526.1783
   2   2.0000     -19.334875      -526.1287
   3   2.0000     -19.334672      -526.1232
   4   2.0000     -19.250961      -523.8453
   5   2.0000     -19.250418      -523.8305
   6   2.0000     -19.249788      -523.8134
   7   2.0000     -19.248098      -523.7674
   8   2.0000     -19.247989      -523.7644
   9   2.0000     -19.247569      -523.7530
  10   2.0000     -19.247217      -523.7434
  11   2.0000     -19.246947      -523.7361
  12   2.0000     -14.663707      -399.0198
  13   2.0000     -14.660251      -398.9257
  14   2.0000     -14.659668      -398.9098
  15   2.0000     -14.658306      -398.8728
  16   2.0000     -14.443584      -393.0299
  17   2.0000     -14.443420      -393.0254
  18   2.0000     -10.392126      -282.7841
  19   2.0000     -10.391242      -282.7601
  20   2.0000     -10.379963      -282.4532
  21   2.0000     -10.377642      -282.3900
  22   2.0000     -10.374004      -282.2910
  23   2.0000     -10.373942      -282.2893
  24   2.0000     -10.363803      -282.0134
  25   2.0000     -10.360148      -281.9140
  26   2.0000     -10.350549      -281.6528
  27   2.0000     -10.347706      -281.5754
  28   2.0000     -10.347061      -281.5578
  29   2.0000     -10.346033      -281.5299
  30   2.0000     -10.345740      -281.5219
  31   2.0000     -10.341154      -281.3971
  32   2.0000     -10.335891      -281.2539
  33   2.0000     -10.334898      -281.2269
  34   2.0000     -10.317353      -280.7495
  35   2.0000     -10.315337      -280.6946
  36   2.0000     -10.308743      -280.5152
  37   2.0000     -10.307947      -280.4935
  38   2.0000      -1.334800       -36.3218
  39   2.0000      -1.332795       -36.2672
  40   2.0000      -1.332068       -36.2474
  41   2.0000      -1.331806       -36.2403
  42   2.0000      -1.263069       -34.3698
  43   2.0000      -1.262335       -34.3499
  44   2.0000      -1.256221       -34.1835
  45   2.0000      -1.256047       -34.1788
  46   2.0000      -1.152342       -31.3568
  47   2.0000      -1.151948       -31.3461
  48   2.0000      -1.150941       -31.3187
  49   2.0000      -1.150377       -31.3033
  50   2.0000      -1.101443       -29.9718
  51   2.0000      -1.024162       -27.8689
  52   2.0000      -0.965659       -26.2769
  53   2.0000      -0.963900       -26.2290
  54   2.0000      -0.960871       -26.1466
  55   2.0000      -0.960055       -26.1244
  56   2.0000      -0.945269       -25.7221
  57   2.0000      -0.936095       -25.4724
  58   2.0000      -0.906234       -24.6599
  59   2.0000      -0.878965       -23.9179
  60   2.0000      -0.856079       -23.2951
  61   2.0000      -0.836695       -22.7676
  62   2.0000      -0.836047       -22.7500
  63   2.0000      -0.832931       -22.6652
  64   2.0000      -0.817606       -22.2482
  65   2.0000      -0.784758       -21.3544
  66   2.0000      -0.769626       -20.9426
  67   2.0000      -0.731807       -19.9135
  68   2.0000      -0.728293       -19.8179
  69   2.0000      -0.722603       -19.6630
  70   2.0000      -0.712423       -19.3860
  71   2.0000      -0.706198       -19.2166
  72   2.0000      -0.695866       -18.9355
  73   2.0000      -0.662650       -18.0316
  74   2.0000      -0.660167       -17.9641
  75   2.0000      -0.653435       -17.7809
  76   2.0000      -0.652171       -17.7465
  77   2.0000      -0.646566       -17.5939
  78   2.0000      -0.645011       -17.5517
  79   2.0000      -0.643000       -17.4969
  80   2.0000      -0.640895       -17.4396
  81   2.0000      -0.638833       -17.3835
  82   2.0000      -0.633431       -17.2365
  83   2.0000      -0.627018       -17.0620
  84   2.0000      -0.610788       -16.6204
  85   2.0000      -0.607634       -16.5346
  86   2.0000      -0.605418       -16.4743
  87   2.0000      -0.602000       -16.3812
  88   2.0000      -0.599457       -16.3121
  89   2.0000      -0.597440       -16.2572
  90   2.0000      -0.595648       -16.2084
  91   2.0000      -0.594065       -16.1653
  92   2.0000      -0.591573       -16.0975
  93   2.0000      -0.589498       -16.0411
  94   2.0000      -0.583299       -15.8724
  95   2.0000      -0.581730       -15.8297
  96   2.0000      -0.578642       -15.7457
  97   2.0000      -0.570362       -15.5203
  98   2.0000      -0.549565       -14.9544
  99   2.0000      -0.539979       -14.6936
 100   2.0000      -0.533837       -14.5264
 101   2.0000      -0.529767       -14.4157
 102   2.0000      -0.525833       -14.3086
 103   2.0000      -0.524819       -14.2811
 104   2.0000      -0.509377       -13.8609
 105   2.0000      -0.502321       -13.6688
 106   2.0000      -0.501237       -13.6393
 107   2.0000      -0.495207       -13.4753
 108   2.0000      -0.492572       -13.4036
 109   2.0000      -0.445065       -12.1108
 110   2.0000      -0.414439       -11.2775
 111   2.0000      -0.409107       -11.1324
 112   2.0000      -0.408989       -11.1292
 113   2.0000      -0.405653       -11.0384
 114   2.0000      -0.404071       -10.9953
 115   2.0000      -0.400689       -10.9033
 116   2.0000      -0.397983       -10.8297
 117   2.0000      -0.395402       -10.7594
 118   2.0000      -0.394209       -10.7270
 119   2.0000      -0.391213       -10.6455
 120   2.0000      -0.390157       -10.6167
 121   2.0000      -0.387698       -10.5498
 122   2.0000      -0.387180       -10.5357
 123   2.0000      -0.384820       -10.4715
 124   2.0000      -0.382191       -10.3999
 125   2.0000      -0.377931       -10.2840
 126   2.0000      -0.374901       -10.2016
 127   2.0000      -0.371088       -10.0978
 128   2.0000      -0.368962       -10.0400
 129   2.0000      -0.355757        -9.6806
 130   2.0000      -0.339332        -9.2337
 131   2.0000      -0.309702        -8.4274
 132   2.0000      -0.282479        -7.6867
 133   0.0000      -0.085634        -2.3302
 134   0.0000      -0.063895        -1.7387
 135   0.0000      -0.056720        -1.5434
 136   0.0000      -0.046883        -1.2758
 137   0.0000      -0.025503        -0.6940

MULLIKEN ATOMIC CHARGES
-----------------------
   0 O :   -0.241424
   1 N :    0.263218
   2 O :   -0.234623
   3 C :    0.134872
   4 C :    0.115765
   5 O :   -0.126417
   6 C :    0.077972
   7 C :    0.164138
   8 O :   -0.186263
   9 C :    0.231620
  10 C :   -0.046915
  11 C :    0.020660
  12 N :   -0.014166
  13 C :   -0.112451
  14 C :    0.201846
  15 O :   -0.150773
  16 C :    0.119876
  17 C :    0.134889
  18 O :   -0.172348
  19 C :    0.153873
  20 C :   -0.015157
  21 C :    0.090638
  22 N :    0.266902
  23 O :   -0.245688
  24 O :   -0.238336
  25 C :   -0.066314
  26 C :    0.110640
  27 N :    0.260048
  28 O :   -0.211426
  29 O :   -0.240555
  30 C :    0.039648
  31 N :   -0.029278
  32 C :   -0.083502
  33 C :    0.134149
  34 N :    0.254473
  35 O :   -0.233710
  36 O :   -0.234775
  37 C :   -0.060988
  38 H :    0.042855
  39 H :    0.013200
  40 H :    0.032425
  41 H :    0.011653
  42 H :    0.009118
  43 H :    0.030782
  44 H :    0.016265
  45 H :    0.013581
Sum of atomic charges:   -0.0000000

LOEWDIN ATOMIC CHARGES
----------------------
   0 O :   -0.204348
   1 N :    0.283469
   2 O :   -0.198718
   3 C :   -0.081695
   4 C :    0.093124
   5 O :    0.071446
   6 C :    0.005091
   7 C :    0.053197
   8 O :    0.037204
   9 C :    0.024434
  10 C :   -0.017786
  11 C :    0.017998
  12 N :   -0.021491
  13 C :   -0.036452
  14 C :    0.053434
  15 O :    0.063545
  16 C :    0.012049
  17 C :    0.043773
  18 O :    0.041500
  19 C :    0.053403
  20 C :   -0.044420
  21 C :   -0.073349
  22 N :    0.284424
  23 O :   -0.210722
  24 O :   -0.201494
  25 C :   -0.017001
  26 C :   -0.054510
  27 N :    0.281824
  28 O :   -0.179369
  29 O :   -0.202524
  30 C :    0.034647
  31 N :   -0.037595
  32 C :   -0.007592
  33 C :   -0.068382
  34 N :    0.280324
  35 O :   -0.199414
  36 O :   -0.199171
  37 C :   -0.018673
  38 H :    0.043648
  39 H :    0.030340
  40 H :    0.033278
  41 H :    0.047048
  42 H :    0.048374
  43 H :    0.037150
  44 H :    0.052040
  45 H :    0.047940

  Mayer bond orders larger than 0.100000
B(  0-O ,  1-N ) :   1.5472 B(  0-O ,  2-O ) :   0.2768 B(  1-N ,  2-O ) :   1.5555
B(  1-N ,  3-C ) :   0.9069 B(  3-C ,  4-C ) :   1.4644 B(  3-C , 37-C ) :   1.2318
B(  4-C ,  5-O ) :   1.2218 B(  4-C , 38-H ) :   1.0011 B(  5-O ,  6-C ) :   1.1789
B(  6-C ,  7-C ) :   1.0258 B(  6-C , 37-C ) :   1.4484 B(  7-C ,  8-O ) :   1.2256
B(  7-C ,  9-C ) :   0.1151 B(  7-C , 33-C ) :   1.4096 B(  8-O ,  9-C ) :   1.1284
B(  9-C , 10-C ) :   1.0105 B(  9-C , 32-C ) :   1.4492 B( 10-C , 11-C ) :   1.2834
B( 10-C , 31-N ) :   1.5868 B( 11-C , 12-N ) :   1.5781 B( 11-C , 39-H ) :   0.9838
B( 12-N , 13-C ) :   1.5577 B( 13-C , 14-C ) :   1.0081 B( 13-C , 30-C ) :   1.2982
B( 14-C , 15-O ) :   1.2201 B( 14-C , 16-C ) :   0.1191 B( 14-C , 26-C ) :   1.4312
B( 15-O , 16-C ) :   1.1771 B( 16-C , 17-C ) :   1.0266 B( 16-C , 25-C ) :   1.4035
B( 17-C , 18-O ) :   1.2563 B( 17-C , 21-C ) :   1.4183 B( 18-O , 19-C ) :   1.1029
B( 19-C , 20-C ) :   1.5390 B( 19-C , 40-H ) :   1.0060 B( 20-C , 21-C ) :   1.2343
B( 20-C , 41-H ) :   1.0092 B( 21-C , 22-N ) :   0.9344 B( 22-N , 23-O ) :   1.5093
B( 22-N , 24-O ) :   1.5410 B( 23-O , 24-O ) :   0.2704 B( 25-C , 26-C ) :   1.2324
B( 25-C , 42-H ) :   1.0428 B( 26-C , 27-N ) :   0.8962 B( 27-N , 28-O ) :   1.5640
B( 27-N , 29-O ) :   1.5322 B( 28-O , 29-O ) :   0.2824 B( 30-C , 31-N ) :   1.5696
B( 30-C , 43-H ) :   0.9777 B( 32-C , 33-C ) :   1.1862 B( 32-C , 44-H ) :   1.0394
B( 33-C , 34-N ) :   0.9158 B( 34-N , 35-O ) :   1.5390 B( 34-N , 36-O ) :   1.5467
B( 35-O , 36-O ) :   0.2764 B( 37-C , 45-H ) :   1.0282

-----------------------------------------------------------------------------
         ABSORPTION SPECTRUM VIA TRANSITION ELECTRIC DIPOLE MOMENTS
-----------------------------------------------------------------------------
State   Energy  Wavelength   fosc         T2         TX        TY        TZ
        (cm-1)    (nm)                  (au**2)     (au)      (au)      (au)
-----------------------------------------------------------------------------
   0   25793.4    387.7   1.316383052  16.80153  -3.40133  -1.68399   1.54812
   1   29814.9    335.4   0.007027865   0.07760  -0.22911   0.15846  -0.00094
   2   30292.3    330.1   0.037674815   0.40944  -0.59035  -0.09087   0.22950
   3   31200.1    320.5   0.438970728   4.63186   0.10154  -1.81463  -1.15268
   4   33156.6    301.6   0.034964892   0.34717  -0.46423  -0.09987   0.34883
   5   34985.7    285.8   0.000242698   0.00228  -0.01437  -0.03194  -0.03252
   6   35659.7    280.4   0.036738889   0.33918  -0.11825   0.29222   0.48969
   7   36440.7    274.4   0.056678877   0.51205  -0.46058  -0.54579   0.04511
   8   37297.3    268.1   0.108467060   0.95741   0.77925   0.38456  -0.44976
   9   38545.8    259.4   0.165707616   1.41528   0.55027  -0.56505  -0.89062
  10   39277.6    254.6   0.036977308   0.30993  -0.34907  -0.35411  -0.25039
  11   39524.8    253.0   0.051347553   0.42769  -0.31666  -0.56452   0.09344

FINAL SINGLE POINT ENERGY     -1995.336390523259

DIPOLE MOMENT
-------------
                                X             Y             Z
Electronic contribution:     -5.13737      -2.95679       2.68973
Nuclear contribution   :      7.44633       4.14254      -3.89364
                        -----------------------------------------
Total Dipole Moment    :      2.30896       1.18575      -1.20391
                        -----------------------------------------
Magnitude (a.u.)       :      2.86124
Magnitude (Debye)      :      7.27270

Rotational constants in cm-1:     0.006528     0.001119     0.000961
Rotational constants in MHz :   195.700007    33.546776    28.797604

                             ****ORCA TERMINATED NORMALLY****
TOTAL RUN TIME: 0 days 0 hours 6 minutes 22 seconds 875 msec
