                         Program Version 4.2.0 -  RELEASE  -
|  1> # ORCA input file
|  2> # SCF done       -144.193917156471          0.000880660850
|  3> ! CAM-B3LYP def2-SVP def2/J RIJCOSX Grid4 TightSCF
|  4> %maxcore 5000
|  5> %tddft
|  6>     Mode sTDDFT
|  7>     Ethresh 5.0
|  8>     maxcore 5000
|  9> end
| 10>
| 11> %pal
| 12>   nprocs 6
| 13>   end
| 14> * xyz 0 1
| 15>    C       -1.42953         0.86573         5.21383
| 16>    S       -1.44800         2.57470         5.00147
| 17>    C       -2.04859         2.48582         3.37494
| 18>    C       -2.22545         1.15613         3.01974
| 19>    C       -1.86888         0.25799         4.07642
| 20>    O       -2.05545        -1.02157         3.69332
| 21>    C       -2.52341        -0.94603         2.41414
| 22>    N       -2.81184        -2.16581         1.75071
| 23>    O       -3.22581        -2.07517         0.61123
| 24>    O       -2.62853        -3.19799         2.35712
| 25>    C       -2.64957         0.33473         1.94665
| 26>    C       -2.30611         3.62754         2.57820
| 27>    S       -2.06129         5.27999         3.12028
| 28>    C       -2.64063         5.74208         1.51978
| 29>    N       -2.93974         4.70768         0.78216
| 30>    N       -2.75924         3.55548         1.35425
| 31>    C       -2.75592         7.10047         1.12767
| 32>    C       -3.21467         7.45781        -0.09787
| 33>    C       -3.34162         8.81127        -0.50004
| 34>    N       -3.79945         9.20249        -1.73768
| 35>    C       -4.16705         8.33764        -2.83292
| 36>    C       -2.94275         7.78541        -3.55849
| 37>    C       -3.83297        10.59959        -1.86990
| 38>    O       -4.20557        11.17006        -2.87764
| 39>    C       -3.35976        11.09256        -0.59577
| 40>    C       -3.06744         9.97014         0.22193
| 41>    C       -2.60552        10.46085         1.50053
| 42>    O       -2.24546         9.89145         2.51252
| 43>    N       -2.65403        11.85957         1.37451
| 44>    C       -2.20908        12.71790         2.44575
| 45>    C       -0.78787        13.22529         2.21348
| 46>    C       -3.09422        12.25078         0.13094
| 47>    C       -3.23496        13.60951        -0.26118
| 48>    C       -3.66899        13.96295        -1.49312
| 49>    C       -3.83702        15.30813        -1.96433
| 50>    C       -4.44633        15.54801        -3.21014
| 51>    N       -4.62853        16.75232        -3.69565
| 52>    C       -4.20577        17.78027        -2.95252
| 53>    N       -3.60672        17.67644        -1.76510
| 54>    C       -3.42458        16.46831        -1.28635
| 55>    C       -4.41144        19.09357        -3.49002
| 56>    S       -5.22247        19.29802        -5.01577
| 57>    C       -5.09016        21.00242        -4.98334
| 58>    C       -4.44364        21.42444        -3.84491
| 59>    C       -4.06154        20.33052        -3.00022
| 60>    O       -3.43029        20.77365        -1.90088
| 61>    C       -3.40045        22.12895        -2.02502
| 62>    N       -2.77819        22.87692        -0.99127
| 63>    O       -2.77047        24.08495        -1.13454
| 64>    O       -2.30506        22.27339        -0.05543
| 65>    C       -3.99190        22.59119        -3.16870
| 66>    H       -1.10510         0.43638         6.13864
| 67>    H       -2.99411         0.63889         0.98031
| 68>    H       -2.46342         7.84943         1.85033
| 69>    H       -3.49693         6.67841        -0.79017
| 70>    H       -4.75305         8.95492        -3.51983
| 71>    H       -4.79758         7.52550        -2.46125
| 72>    H       -2.34367         8.60294        -3.95233
| 73>    H       -3.26032         7.15761        -4.38617
| 74>    H       -2.32484         7.19323        -2.88741
| 75>    H       -2.23544        12.10706         3.35255
| 76>    H       -2.90789        13.55067         2.56359
| 77>    H       -0.10106        12.38480         2.15041
| 78>    H       -0.48373        13.86122         3.04020
| 79>    H       -0.72174        13.79525         1.28912
| 80>    H       -2.99008        14.36420         0.47161
| 81>    H       -3.93025        13.18546        -2.19983
| 82>    H       -4.79655        14.72533        -3.82130
| 83>    H       -2.92049        16.42577        -0.32950
| 84>    H       -5.48516        21.59241        -5.78521
| 85>    H       -4.07989        23.61588        -3.46490
| 86> *
| 87>
| 88>                          ****END OF INPUT****

CARTESIAN COORDINATES (ANGSTROEM)
---------------------------------
  C     -1.429530    0.865730    5.213830
  S     -1.448000    2.574700    5.001470
  C     -2.048590    2.485820    3.374940
  C     -2.225450    1.156130    3.019740
  C     -1.868880    0.257990    4.076420
  O     -2.055450   -1.021570    3.693320
  C     -2.523410   -0.946030    2.414140
  N     -2.811840   -2.165810    1.750710
  O     -3.225810   -2.075170    0.611230
  O     -2.628530   -3.197990    2.357120
  C     -2.649570    0.334730    1.946650
  C     -2.306110    3.627540    2.578200
  S     -2.061290    5.279990    3.120280
  C     -2.640630    5.742080    1.519780
  N     -2.939740    4.707680    0.782160
  N     -2.759240    3.555480    1.354250
  C     -2.755920    7.100470    1.127670
  C     -3.214670    7.457810   -0.097870
  C     -3.341620    8.811270   -0.500040
  N     -3.799450    9.202490   -1.737680
  C     -4.167050    8.337640   -2.832920
  C     -2.942750    7.785410   -3.558490
  C     -3.832970   10.599590   -1.869900
  O     -4.205570   11.170060   -2.877640
  C     -3.359760   11.092560   -0.595770
  C     -3.067440    9.970140    0.221930
  C     -2.605520   10.460850    1.500530
  O     -2.245460    9.891450    2.512520
  N     -2.654030   11.859570    1.374510
  C     -2.209080   12.717900    2.445750
  C     -0.787870   13.225290    2.213480
  C     -3.094220   12.250780    0.130940
  C     -3.234960   13.609510   -0.261180
  C     -3.668990   13.962950   -1.493120
  C     -3.837020   15.308130   -1.964330
  C     -4.446330   15.548010   -3.210140
  N     -4.628530   16.752320   -3.695650
  C     -4.205770   17.780270   -2.952520
  N     -3.606720   17.676440   -1.765100
  C     -3.424580   16.468310   -1.286350
  C     -4.411440   19.093570   -3.490020
  S     -5.222470   19.298020   -5.015770
  C     -5.090160   21.002420   -4.983340
  C     -4.443640   21.424440   -3.844910
  C     -4.061540   20.330520   -3.000220
  O     -3.430290   20.773650   -1.900880
  C     -3.400450   22.128950   -2.025020
  N     -2.778190   22.876920   -0.991270
  O     -2.770470   24.084950   -1.134540
  O     -2.305060   22.273390   -0.055430
  C     -3.991900   22.591190   -3.168700
  H     -1.105100    0.436380    6.138640
  H     -2.994110    0.638890    0.980310
  H     -2.463420    7.849430    1.850330
  H     -3.496930    6.678410   -0.790170
  H     -4.753050    8.954920   -3.519830
  H     -4.797580    7.525500   -2.461250
  H     -2.343670    8.602940   -3.952330
  H     -3.260320    7.157610   -4.386170
  H     -2.324840    7.193230   -2.887410
  H     -2.235440   12.107060    3.352550
  H     -2.907890   13.550670    2.563590
  H     -0.101060   12.384800    2.150410
  H     -0.483730   13.861220    3.040200
  H     -0.721740   13.795250    1.289120
  H     -2.990080   14.364200    0.471610
  H     -3.930250   13.185460   -2.199830
  H     -4.796550   14.725330   -3.821300
  H     -2.920490   16.425770   -0.329500
  H     -5.485160   21.592410   -5.785210
  H     -4.079890   23.615880   -3.464900

 Total Charge           Charge          ....    0
 Multiplicity           Mult            ....    1
 Number of Electrons    NEL             ....  380
 Basis Dimension        Dim             ....  826

ORBITAL ENERGIES
----------------

  NO   OCC          E(Eh)            E(eV)
   0   2.0000     -88.990528     -2421.5554
   1   2.0000     -88.981676     -2421.3145
   2   2.0000     -88.980822     -2421.2913
   3   2.0000     -19.312190      -525.5114
   4   2.0000     -19.310489      -525.4651
   5   2.0000     -19.245205      -523.6886
   6   2.0000     -19.245080      -523.6853
   7   2.0000     -19.243040      -523.6297
   8   2.0000     -19.242470      -523.6142
   9   2.0000     -19.198677      -522.4225
  10   2.0000     -19.193630      -522.2852
  11   2.0000     -14.656915      -398.8349
  12   2.0000     -14.656734      -398.8300
  13   2.0000     -14.459365      -393.4593
  14   2.0000     -14.456583      -393.3836
  15   2.0000     -14.447225      -393.1290
  16   2.0000     -14.445012      -393.0687
  17   2.0000     -14.422186      -392.4476
  18   2.0000     -14.420912      -392.4130
  19   2.0000     -10.391329      -282.7624
  20   2.0000     -10.388510      -282.6857
  21   2.0000     -10.380234      -282.4605
  22   2.0000     -10.376808      -282.3673
  23   2.0000     -10.361999      -281.9643
  24   2.0000     -10.357716      -281.8478
  25   2.0000     -10.357319      -281.8370
  26   2.0000     -10.355510      -281.7877
  27   2.0000     -10.347803      -281.5780
  28   2.0000     -10.345184      -281.5068
  29   2.0000     -10.341231      -281.3992
  30   2.0000     -10.334120      -281.2057
  31   2.0000     -10.333974      -281.2017
  32   2.0000     -10.331556      -281.1359
  33   2.0000     -10.322020      -280.8764
  34   2.0000     -10.321255      -280.8556
  35   2.0000     -10.314862      -280.6817
  36   2.0000     -10.314476      -280.6712
  37   2.0000     -10.313659      -280.6489
  38   2.0000     -10.313014      -280.6314
  39   2.0000     -10.309706      -280.5414
  40   2.0000     -10.308071      -280.4969
  41   2.0000     -10.302272      -280.3391
  42   2.0000     -10.300477      -280.2902
  43   2.0000     -10.299278      -280.2576
  44   2.0000     -10.299073      -280.2520
  45   2.0000     -10.298434      -280.2346
  46   2.0000     -10.296738      -280.1885
  47   2.0000     -10.269392      -279.4444
  48   2.0000     -10.266446      -279.3642
  49   2.0000     -10.264417      -279.3090
  50   2.0000     -10.264324      -279.3065
  51   2.0000      -8.085539      -220.0187
  52   2.0000      -8.077940      -219.8119
  53   2.0000      -8.075343      -219.7413
  54   2.0000      -6.054842      -164.7606
  55   2.0000      -6.050520      -164.6430
  56   2.0000      -6.047884      -164.5713
  57   2.0000      -6.046700      -164.5391
  58   2.0000      -6.044570      -164.4811
  59   2.0000      -6.043260      -164.4455
  60   2.0000      -6.040180      -164.3617
  61   2.0000      -6.040113      -164.3598
  62   2.0000      -6.037994      -164.3022
  63   2.0000      -1.328701       -36.1558
  64   2.0000      -1.328482       -36.1498
  65   2.0000      -1.232983       -33.5512
  66   2.0000      -1.232540       -33.5391
  67   2.0000      -1.150576       -31.3088
  68   2.0000      -1.145218       -31.1630
  69   2.0000      -1.145119       -31.1603
  70   2.0000      -1.139067       -30.9956
  71   2.0000      -1.131367       -30.7861
  72   2.0000      -1.096747       -29.8440
  73   2.0000      -1.068765       -29.0826
  74   2.0000      -1.059895       -28.8412
  75   2.0000      -1.012391       -27.5486
  76   2.0000      -1.001565       -27.2540
  77   2.0000      -0.990958       -26.9653
  78   2.0000      -0.950307       -25.8592
  79   2.0000      -0.940951       -25.6046
  80   2.0000      -0.936952       -25.4958
  81   2.0000      -0.933950       -25.4141
  82   2.0000      -0.929016       -25.2798
  83   2.0000      -0.926325       -25.2066
  84   2.0000      -0.897928       -24.4339
  85   2.0000      -0.895226       -24.3603
  86   2.0000      -0.890957       -24.2442
  87   2.0000      -0.881161       -23.9776
  88   2.0000      -0.872447       -23.7405
  89   2.0000      -0.842406       -22.9230
  90   2.0000      -0.838236       -22.8096
  91   2.0000      -0.824196       -22.4275
  92   2.0000      -0.809825       -22.0365
  93   2.0000      -0.800310       -21.7775
  94   2.0000      -0.792006       -21.5516
  95   2.0000      -0.782933       -21.3047
  96   2.0000      -0.764544       -20.8043
  97   2.0000      -0.759760       -20.6741
  98   2.0000      -0.746898       -20.3241
  99   2.0000      -0.735757       -20.0210
 100   2.0000      -0.726174       -19.7602
 101   2.0000      -0.713048       -19.4030
 102   2.0000      -0.711039       -19.3484
 103   2.0000      -0.710561       -19.3354
 104   2.0000      -0.696456       -18.9515
 105   2.0000      -0.683956       -18.6114
 106   2.0000      -0.678179       -18.4542
 107   2.0000      -0.666624       -18.1398
 108   2.0000      -0.660650       -17.9772
 109   2.0000      -0.654455       -17.8086
 110   2.0000      -0.649325       -17.6690
 111   2.0000      -0.642721       -17.4893
 112   2.0000      -0.642161       -17.4741
 113   2.0000      -0.641687       -17.4612
 114   2.0000      -0.637912       -17.3585
 115   2.0000      -0.629013       -17.1163
 116   2.0000      -0.620554       -16.8861
 117   2.0000      -0.611325       -16.6350
 118   2.0000      -0.609392       -16.5824
 119   2.0000      -0.603348       -16.4179
 120   2.0000      -0.591476       -16.0949
 121   2.0000      -0.587869       -15.9967
 122   2.0000      -0.585552       -15.9337
 123   2.0000      -0.584290       -15.8993
 124   2.0000      -0.578506       -15.7419
 125   2.0000      -0.571947       -15.5635
 126   2.0000      -0.570739       -15.5306
 127   2.0000      -0.568558       -15.4712
 128   2.0000      -0.564801       -15.3690
 129   2.0000      -0.554391       -15.0857
 130   2.0000      -0.553418       -15.0593
 131   2.0000      -0.551118       -14.9967
 132   2.0000      -0.549124       -14.9424
 133   2.0000      -0.536244       -14.5919
 134   2.0000      -0.535439       -14.5700
 135   2.0000      -0.534169       -14.5355
 136   2.0000      -0.531089       -14.4517
 137   2.0000      -0.524611       -14.2754
 138   2.0000      -0.520804       -14.1718
 139   2.0000      -0.518157       -14.0998
 140   2.0000      -0.517099       -14.0710
 141   2.0000      -0.514121       -13.9899
 142   2.0000      -0.510002       -13.8779
 143   2.0000      -0.507840       -13.8190
 144   2.0000      -0.505970       -13.7681
 145   2.0000      -0.497710       -13.5434
 146   2.0000      -0.493668       -13.4334
 147   2.0000      -0.481774       -13.1097
 148   2.0000      -0.480325       -13.0703
 149   2.0000      -0.479252       -13.0411
 150   2.0000      -0.474092       -12.9007
 151   2.0000      -0.470268       -12.7966
 152   2.0000      -0.466385       -12.6910
 153   2.0000      -0.464907       -12.6508
 154   2.0000      -0.460881       -12.5412
 155   2.0000      -0.459706       -12.5092
 156   2.0000      -0.454293       -12.3619
 157   2.0000      -0.450854       -12.2684
 158   2.0000      -0.448641       -12.2082
 159   2.0000      -0.447068       -12.1653
 160   2.0000      -0.443903       -12.0792
 161   2.0000      -0.441275       -12.0077
 162   2.0000      -0.433563       -11.7978
 163   2.0000      -0.427836       -11.6420
 164   2.0000      -0.413561       -11.2536
 165   2.0000      -0.410380       -11.1670
 166   2.0000      -0.404647       -11.0110
 167   2.0000      -0.400014       -10.8849
 168   2.0000      -0.394470       -10.7341
 169   2.0000      -0.391393       -10.6503
 170   2.0000      -0.390990       -10.6394
 171   2.0000      -0.390914       -10.6373
 172   2.0000      -0.388386       -10.5685
 173   2.0000      -0.382977       -10.4213
 174   2.0000      -0.380276       -10.3478
 175   2.0000      -0.379581       -10.3289
 176   2.0000      -0.372673       -10.1409
 177   2.0000      -0.372551       -10.1376
 178   2.0000      -0.354326        -9.6417
 179   2.0000      -0.341156        -9.2833
 180   2.0000      -0.337874        -9.1940
 181   2.0000      -0.336955        -9.1690
 182   2.0000      -0.333291        -9.0693
 183   2.0000      -0.331023        -9.0076
 184   2.0000      -0.330299        -8.9879
 185   2.0000      -0.323508        -8.8031
 186   2.0000      -0.319475        -8.6934
 187   2.0000      -0.289703        -7.8832
 188   2.0000      -0.284236        -7.7344
 189   2.0000      -0.240484        -6.5439
 190   0.0000      -0.098934        -2.6921
 191   0.0000      -0.076169        -2.0727
 192   0.0000      -0.065692        -1.7876
 193   0.0000      -0.044748        -1.2176
 194   0.0000      -0.018615        -0.5065

MULLIKEN ATOMIC CHARGES
-----------------------
   0 C :   -0.191052
   1 S :    0.174185
   2 C :   -0.096886
   3 C :    0.084163
   4 C :    0.254535
   5 O :   -0.179734
   6 C :    0.237599
   7 N :    0.270365
   8 O :   -0.242642
   9 O :   -0.227987
  10 C :   -0.069150
  11 C :   -0.107113
  12 S :    0.118808
  13 C :   -0.095965
  14 N :   -0.045451
  15 N :   -0.048029
  16 C :    0.067149
  17 C :   -0.023514
  18 C :    0.133772
  19 N :   -0.255520
  20 C :    0.096976
  21 C :    0.002155
  22 C :    0.162600
  23 O :   -0.215906
  24 C :   -0.066779
  25 C :   -0.057996
  26 C :    0.163607
  27 O :   -0.209297
  28 N :   -0.257504
  29 C :    0.097133
  30 C :    0.003033
  31 C :    0.130619
  32 C :   -0.004055
  33 C :    0.016312
  34 C :    0.008647
  35 C :    0.041991
  36 N :   -0.062424
  37 C :   -0.075526
  38 N :   -0.037066
  39 C :    0.040007
  40 C :   -0.182112
  41 S :    0.218461
  42 C :   -0.131421
  43 C :    0.106071
  44 C :    0.215543
  45 O :   -0.161001
  46 C :    0.235850
  47 N :    0.269611
  48 O :   -0.250752
  49 O :   -0.224099
  50 C :   -0.072312
  51 H :    0.041002
  52 H :    0.025549
  53 H :    0.010591
  54 H :    0.003639
  55 H :    0.043205
  56 H :    0.029059
  57 H :    0.027319
  58 H :    0.026348
  59 H :    0.020683
  60 H :    0.043757
  61 H :    0.026291
  62 H :    0.031303
  63 H :    0.026746
  64 H :    0.014818
  65 H :   -0.028037
  66 H :    0.016127
  67 H :    0.024349
  68 H :    0.009202
  69 H :    0.035831
  70 H :    0.014316
Sum of atomic charges:   -0.0000000

LOEWDIN ATOMIC CHARGES
----------------------
   0 C :   -0.203985
   1 S :    0.483205
   2 C :   -0.209810
   3 C :   -0.056222
   4 C :    0.020581
   5 O :    0.000287
   6 C :    0.032957
   7 N :    0.270798
   8 O :   -0.204751
   9 O :   -0.189594
  10 C :    0.001205
  11 C :   -0.163475
  12 S :    0.397138
  13 C :   -0.146777
  14 N :   -0.073398
  15 N :   -0.078964
  16 C :   -0.014943
  17 C :   -0.010488
  18 C :    0.068580
  19 N :    0.002799
  20 C :    0.036814
  21 C :   -0.060473
  22 C :    0.078920
  23 O :   -0.207011
  24 C :   -0.125210
  25 C :   -0.115675
  26 C :    0.081619
  27 O :   -0.200052
  28 N :    0.000384
  29 C :    0.036204
  30 C :   -0.060986
  31 C :    0.081070
  32 C :   -0.050542
  33 C :    0.035960
  34 C :   -0.085289
  35 C :    0.065972
  36 N :   -0.094708
  37 C :    0.017193
  38 N :   -0.075551
  39 C :    0.065808
  40 C :   -0.229472
  41 S :    0.523145
  42 C :   -0.173041
  43 C :   -0.087460
  44 C :    0.041999
  45 O :    0.018916
  46 C :    0.026559
  47 N :    0.271265
  48 O :   -0.211458
  49 O :   -0.186960
  50 C :   -0.010342
  51 H :    0.036109
  52 H :    0.053198
  53 H :    0.036918
  54 H :    0.037861
  55 H :    0.037345
  56 H :    0.025755
  57 H :    0.031233
  58 H :    0.032110
  59 H :    0.024140
  60 H :    0.038023
  61 H :    0.023754
  62 H :    0.032786
  63 H :    0.031911
  64 H :    0.021850
  65 H :    0.026776
  66 H :    0.038965
  67 H :    0.034172
  68 H :    0.025908
  69 H :    0.030969
  70 H :    0.047476

  Mayer bond orders larger than 0.100000
B(  0-C ,  1-S ) :   1.1502 B(  0-C ,  2-C ) :   0.1209 B(  0-C ,  4-C ) :   1.4996
B(  0-C , 51-H ) :   0.9821 B(  1-S ,  2-C ) :   1.1742 B(  2-C ,  3-C ) :   1.3962
B(  2-C , 11-C ) :   1.1183 B(  3-C ,  4-C ) :   1.2065 B(  3-C , 10-C ) :   1.1121
B(  4-C ,  5-O ) :   1.1076 B(  5-O ,  6-C ) :   1.1214 B(  6-C ,  7-N ) :   0.9107
B(  6-C , 10-C ) :   1.5410 B(  7-N ,  8-O ) :   1.5372 B(  7-N ,  9-O ) :   1.5164
B(  8-O ,  9-O ) :   0.2829 B( 10-C , 52-H ) :   1.0310 B( 11-C , 12-S ) :   1.1088
B( 11-C , 15-N ) :   1.6972 B( 12-S , 13-C ) :   1.0839 B( 13-C , 14-N ) :   1.6707
B( 13-C , 16-C ) :   1.1089 B( 14-N , 15-N ) :   1.2352 B( 16-C , 17-C ) :   1.6544
B( 16-C , 53-H ) :   0.9227 B( 17-C , 18-C ) :   1.1324 B( 17-C , 54-H ) :   0.9718
B( 18-C , 19-N ) :   1.1573 B( 18-C , 25-C ) :   1.3484 B( 19-N , 20-C ) :   0.9422
B( 19-N , 22-C ) :   1.0687 B( 20-C , 21-C ) :   1.1211 B( 20-C , 55-H ) :   0.9289
B( 20-C , 56-H ) :   0.9500 B( 21-C , 57-H ) :   0.9639 B( 21-C , 58-H ) :   0.9678
B( 21-C , 59-H ) :   0.9690 B( 22-C , 23-O ) :   2.0161 B( 22-C , 24-C ) :   0.9890
B( 23-O , 66-H ) :   0.1187 B( 24-C , 25-C ) :   1.2510 B( 24-C , 31-C ) :   1.3437
B( 25-C , 26-C ) :   0.9845 B( 26-C , 27-O ) :   2.0271 B( 26-C , 28-N ) :   1.0610
B( 27-O , 53-H ) :   0.1124 B( 28-N , 29-C ) :   0.9442 B( 28-N , 31-C ) :   1.1611
B( 29-C , 30-C ) :   1.1208 B( 29-C , 60-H ) :   0.9281 B( 29-C , 61-H ) :   0.9496
B( 30-C , 62-H ) :   0.9636 B( 30-C , 63-H ) :   0.9681 B( 30-C , 64-H ) :   0.9685
B( 31-C , 32-C ) :   1.1542 B( 32-C , 33-C ) :   1.6221 B( 32-C , 65-H ) :   0.9572
B( 33-C , 34-C ) :   1.0772 B( 33-C , 66-H ) :   0.9579 B( 34-C , 35-C ) :   1.2991
B( 34-C , 39-C ) :   1.2933 B( 35-C , 36-N ) :   1.5765 B( 35-C , 67-H ) :   0.9864
B( 36-N , 37-C ) :   1.5818 B( 37-C , 38-N ) :   1.5987 B( 37-C , 40-C ) :   1.0438
B( 38-N , 39-C ) :   1.5822 B( 38-N , 40-C ) :  -0.1039 B( 39-C , 68-H ) :   0.9841
B( 40-C , 41-S ) :   1.1525 B( 40-C , 42-C ) :   0.1197 B( 40-C , 44-C ) :   1.4779
B( 41-S , 42-C ) :   1.2195 B( 42-C , 43-C ) :   1.4234 B( 42-C , 69-H ) :   0.9751
B( 43-C , 44-C ) :   1.2215 B( 43-C , 50-C ) :   1.0554 B( 44-C , 45-O ) :   1.1475
B( 45-O , 46-C ) :   1.1249 B( 46-C , 47-N ) :   0.9119 B( 46-C , 50-C ) :   1.5792
B( 47-N , 48-O ) :   1.5322 B( 47-N , 49-O ) :   1.5230 B( 48-O , 49-O ) :   0.2805
B( 50-C , 70-H ) :   1.0255

-----------------------------------------------------------------------------
         ABSORPTION SPECTRUM VIA TRANSITION ELECTRIC DIPOLE MOMENTS
-----------------------------------------------------------------------------
State   Energy  Wavelength   fosc         T2         TX        TY        TZ
        (cm-1)    (nm)                  (au**2)     (au)      (au)      (au)
-----------------------------------------------------------------------------
   0   15563.2    642.5   1.191239913  25.19853   0.27983  -4.92529   0.92831
   1   22766.0    439.3   0.011763308   0.17011  -0.09698   0.14326  -0.37440
   2   25369.9    394.2   0.473375220   6.14273   0.33448  -2.20542   1.08026
   3   26547.2    376.7   0.057192837   0.70925   0.07139   0.83848   0.03311
   4   26975.6    370.7   0.166098881   2.02708   0.34650  -1.07120   0.87152
   5   27637.7    361.8   0.509653958   6.07085   0.44754  -2.07441   1.25194
   6   28448.3    351.5   0.037671270   0.43594  -0.09618  -0.64499  -0.10333
   7   28603.5    349.6   0.000636774   0.00733  -0.07438  -0.03251  -0.02719
   8   29193.5    342.5   0.002272012   0.02562  -0.11029   0.08970  -0.07356
   9   30946.8    323.1   0.003293893   0.03504   0.05583  -0.01638   0.17792
  10   31088.8    321.7   0.033490738   0.35465   0.19974   0.00050   0.56103
  11   32109.3    311.4   0.049359070   0.50607   0.29786   0.51305   0.39260
  12   32813.8    304.8   0.000138824   0.00139   0.01622   0.02942   0.01626
  13   34030.3    293.9   0.137129837   1.32660   0.23511  -0.87642   0.70937
  14   34537.7    289.5   0.146854499   1.39981  -0.35944   0.71580  -0.87077
  15   35794.5    279.4   0.343184103   3.15636   0.54028   1.11748   1.27110
  16   35887.3    278.6   0.163580650   1.50061   0.24384  -1.07179   0.54076
  17   35913.6    278.4   0.133271207   1.22167   0.06830   0.96243  -0.53920
  18   36432.9    274.5   0.141159418   1.27553  -0.19930   0.98498  -0.51539
  19   36897.9    271.0   0.210403764   1.87727   0.50347   0.85931   0.94094
  20   37721.6    265.1   0.057838897   0.50478  -0.35526   0.00891  -0.61522
  21   38449.1    260.1   0.179271186   1.53497  -0.54474  -0.47384  -1.00683
  22   38950.3    256.7   0.108873364   0.92021  -0.30453  -0.81727  -0.39942
  23   39375.8    254.0   0.103728698   0.86725   0.41865   0.32361   0.76633
  24   39510.4    253.1   0.040730330   0.33938  -0.24705  -0.08690  -0.52038
  25   39564.7    252.8   0.004400230   0.03661   0.04561  -0.01756   0.18500

FINAL SINGLE POINT ENERGY     -3462.454138575006

DIPOLE MOMENT
-------------
                                X             Y             Z
Electronic contribution:     -3.41828     -11.19116      10.65616
Nuclear contribution   :      3.28857      12.63045     -10.72856
                        -----------------------------------------
Total Dipole Moment    :     -0.12971       1.43929      -0.07240
                        -----------------------------------------
Magnitude (a.u.)       :      1.44693
Magnitude (Debye)      :      3.67781

Rotational constants in cm-1:     0.005666     0.000339     0.000321
Rotational constants in MHz :   169.852146    10.167497     9.623475

                             ****ORCA TERMINATED NORMALLY****
TOTAL RUN TIME: 0 days 0 hours 4 minutes 41 seconds 671 msec
