                         Program Version 4.2.0 -  RELEASE  -
|  1> # ORCA input file
|  2> # SCF done       -183.425504781640          0.000876954648
|  3> ! CAM-B3LYP def2-SVP def2/J RIJCOSX Grid4 TightSCF
|  4> %maxcore 5000
|  5> %tddft
|  6>     Mode sTDDFT
|  7>     Ethresh 5.0
|  8>     maxcore 5000
|  9> end
| 10>
| 11> %pal
| 12>   nprocs 6
| 13>   end
| 14> * xyz 0 1
| 15>    C        0.63035         1.27419         3.38098
| 16>    S       -0.20522         1.33561         1.87878
| 17>    C       -0.14042         3.07767         1.76104
| 18>    C        0.51082         3.57376         2.88460
| 19>    C        0.94217         2.53755         3.77641
| 20>    O        1.58359         3.05924         4.84133
| 21>    C        1.57224         4.40667         4.63852
| 22>    N        2.19518         5.22328         5.61418
| 23>    O        2.18636         6.42071         5.40145
| 24>    O        2.68817         4.67906         6.57807
| 25>    C        0.94307         4.78464         3.48233
| 26>    C       -0.73832         3.81734         0.70966
| 27>    S       -0.99989         5.52047         0.93493
| 28>    C       -1.78298         5.66678        -0.60945
| 29>    C       -1.83213         4.43267        -1.25007
| 30>    C       -1.21795         3.39839        -0.52490
| 31>    C       -1.01675         2.03413        -1.10060
| 32>    N        0.41304         1.60785        -1.00220
| 33>    O        1.25330         2.46720        -0.93478
| 34>    O        0.61736         0.42320        -1.07019
| 35>    C       -1.32151         2.02525        -2.60469
| 36>    C       -2.65544         2.70659        -2.86638
| 37>    C       -2.55725         4.19864        -2.54490
| 38>    N       -3.95138         4.72120        -2.39820
| 39>    O       -4.26133         5.66102        -3.08914
| 40>    O       -4.66226         4.17530        -1.59611
| 41>    C       -2.25905         6.91594        -1.08533
| 42>    C       -2.24291         8.04293        -0.32830
| 43>    C       -2.70238         9.34679        -0.62807
| 44>    N       -3.36010         9.83777        -1.73524
| 45>    C       -3.72263         9.15201        -2.95250
| 46>    C       -2.53891         9.02556        -3.90929
| 47>    C       -3.66095        11.20585        -1.59478
| 48>    O       -4.23805        11.85327        -2.44879
| 49>    C       -3.14996        11.56631        -0.29283
| 50>    C       -2.57112        10.40641         0.26729
| 51>    C       -2.06697        10.73424         1.58172
| 52>    O       -1.50478        10.07210         2.42695
| 53>    N       -2.38825        12.09847         1.73691
| 54>    C       -1.99662        12.82379         2.92080
| 55>    C       -0.75662        13.68123         2.67918
| 56>    C       -3.03171        12.60701         0.63246
| 57>    C       -3.49586        13.94000         0.53343
| 58>    C       -4.11647        14.40304        -0.58427
| 59>    C       -4.63345        15.71210        -0.74339
| 60>    S       -5.37439        16.14582        -2.26308
| 61>    C       -5.73848        17.74545        -1.70225
| 62>    C       -5.29329        17.91172        -0.38744
| 63>    C       -4.67332        16.77154         0.14177
| 64>    C       -5.44040        19.11026         0.33369
| 65>    N       -5.54103        20.07815         0.94000
| 66>    C       -6.39960        18.71478        -2.49768
| 67>    C       -6.74179        18.50806        -3.79181
| 68>    C       -7.41199        19.46144        -4.60081
| 69>    S       -7.73635        19.14460        -6.29177
| 70>    C       -8.51218        20.64724        -6.55811
| 71>    C       -8.53739        21.38756        -5.40078
| 72>    C       -7.91391        20.71185        -4.30403
| 73>    O       -7.96821        21.46523        -3.18586
| 74>    C       -8.61496        22.60536        -3.55379
| 75>    N       -8.83042        23.59441        -2.55742
| 76>    O       -9.39888        24.60535        -2.92221
| 77>    O       -8.44079        23.36444        -1.43626
| 78>    C       -8.98421        22.62964        -4.86911
| 79>    H        0.83130         0.33361         3.84879
| 80>    H        0.82320         5.79072         3.13664
| 81>    H       -1.60963         1.27171        -0.58401
| 82>    H       -1.34262         0.99599        -2.96358
| 83>    H       -0.53029         2.56128        -3.13606
| 84>    H       -3.42345         2.26176        -2.22871
| 85>    H       -2.94697         2.57126        -3.90866
| 86>    H       -2.10040         4.76182        -3.36618
| 87>    H       -2.63196         6.93649        -2.09533
| 88>    H       -1.83004         7.97487         0.67232
| 89>    H       -4.49606         9.76761        -3.42133
| 90>    H       -4.15530         8.17654        -2.72021
| 91>    H       -2.21991        10.01266        -4.23473
| 92>    H       -2.83598         8.44926        -4.78090
| 93>    H       -1.69450         8.53443        -3.43022
| 94>    H       -1.77484        12.06560         3.67715
| 95>    H       -2.83277        13.43581         3.27116
| 96>    H        0.07561        13.05098         2.37582
| 97>    H       -0.48356        14.19886         3.59446
| 98>    H       -0.93516        14.41790         1.89868
| 99>    H       -3.35251        14.58929         1.38427
|100>    H       -4.24177        13.73575        -1.42732
|101>    H       -4.27684        16.73497         1.14044
|102>    H       -6.62421        19.65864        -2.01848
|103>    H       -6.49667        17.56757        -4.26744
|104>    H       -8.89633        20.89292        -7.52643
|105>    H       -9.50101        23.42477        -5.36498
|106> *
|107>
|108>                          ****END OF INPUT****

CARTESIAN COORDINATES (ANGSTROEM)
---------------------------------
  C      0.630350    1.274190    3.380980
  S     -0.205220    1.335610    1.878780
  C     -0.140420    3.077670    1.761040
  C      0.510820    3.573760    2.884600
  C      0.942170    2.537550    3.776410
  O      1.583590    3.059240    4.841330
  C      1.572240    4.406670    4.638520
  N      2.195180    5.223280    5.614180
  O      2.186360    6.420710    5.401450
  O      2.688170    4.679060    6.578070
  C      0.943070    4.784640    3.482330
  C     -0.738320    3.817340    0.709660
  S     -0.999890    5.520470    0.934930
  C     -1.782980    5.666780   -0.609450
  C     -1.832130    4.432670   -1.250070
  C     -1.217950    3.398390   -0.524900
  C     -1.016750    2.034130   -1.100600
  N      0.413040    1.607850   -1.002200
  O      1.253300    2.467200   -0.934780
  O      0.617360    0.423200   -1.070190
  C     -1.321510    2.025250   -2.604690
  C     -2.655440    2.706590   -2.866380
  C     -2.557250    4.198640   -2.544900
  N     -3.951380    4.721200   -2.398200
  O     -4.261330    5.661020   -3.089140
  O     -4.662260    4.175300   -1.596110
  C     -2.259050    6.915940   -1.085330
  C     -2.242910    8.042930   -0.328300
  C     -2.702380    9.346790   -0.628070
  N     -3.360100    9.837770   -1.735240
  C     -3.722630    9.152010   -2.952500
  C     -2.538910    9.025560   -3.909290
  C     -3.660950   11.205850   -1.594780
  O     -4.238050   11.853270   -2.448790
  C     -3.149960   11.566310   -0.292830
  C     -2.571120   10.406410    0.267290
  C     -2.066970   10.734240    1.581720
  O     -1.504780   10.072100    2.426950
  N     -2.388250   12.098470    1.736910
  C     -1.996620   12.823790    2.920800
  C     -0.756620   13.681230    2.679180
  C     -3.031710   12.607010    0.632460
  C     -3.495860   13.940000    0.533430
  C     -4.116470   14.403040   -0.584270
  C     -4.633450   15.712100   -0.743390
  S     -5.374390   16.145820   -2.263080
  C     -5.738480   17.745450   -1.702250
  C     -5.293290   17.911720   -0.387440
  C     -4.673320   16.771540    0.141770
  C     -5.440400   19.110260    0.333690
  N     -5.541030   20.078150    0.940000
  C     -6.399600   18.714780   -2.497680
  C     -6.741790   18.508060   -3.791810
  C     -7.411990   19.461440   -4.600810
  S     -7.736350   19.144600   -6.291770
  C     -8.512180   20.647240   -6.558110
  C     -8.537390   21.387560   -5.400780
  C     -7.913910   20.711850   -4.304030
  O     -7.968210   21.465230   -3.185860
  C     -8.614960   22.605360   -3.553790
  N     -8.830420   23.594410   -2.557420
  O     -9.398880   24.605350   -2.922210
  O     -8.440790   23.364440   -1.436260
  C     -8.984210   22.629640   -4.869110
  H      0.831300    0.333610    3.848790
  H      0.823200    5.790720    3.136640
  H     -1.609630    1.271710   -0.584010
  H     -1.342620    0.995990   -2.963580
  H     -0.530290    2.561280   -3.136060
  H     -3.423450    2.261760   -2.228710
  H     -2.946970    2.571260   -3.908660
  H     -2.100400    4.761820   -3.366180
  H     -2.631960    6.936490   -2.095330
  H     -1.830040    7.974870    0.672320
  H     -4.496060    9.767610   -3.421330
  H     -4.155300    8.176540   -2.720210
  H     -2.219910   10.012660   -4.234730
  H     -2.835980    8.449260   -4.780900
  H     -1.694500    8.534430   -3.430220
  H     -1.774840   12.065600    3.677150
  H     -2.832770   13.435810    3.271160
  H      0.075610   13.050980    2.375820
  H     -0.483560   14.198860    3.594460
  H     -0.935160   14.417900    1.898680
  H     -3.352510   14.589290    1.384270
  H     -4.241770   13.735750   -1.427320
  H     -4.276840   16.734970    1.140440
  H     -6.624210   19.658640   -2.018480
  H     -6.496670   17.567570   -4.267440
  H     -8.896330   20.892920   -7.526430
  H     -9.501010   23.424770   -5.364980

 Total Charge           Charge          ....    0
 Multiplicity           Mult            ....    1
 Number of Electrons    NEL             ....  482
 Basis Dimension        Dim             .... 1047

ORBITAL ENERGIES
----------------

  NO   OCC          E(Eh)            E(eV)
   0   2.0000     -88.988311     -2421.4951
   1   2.0000     -88.987727     -2421.4792
   2   2.0000     -88.979679     -2421.2602
   3   2.0000     -88.976976     -2421.1866
   4   2.0000     -19.320030      -525.7247
   5   2.0000     -19.311896      -525.5034
   6   2.0000     -19.266790      -524.2760
   7   2.0000     -19.266433      -524.2663
   8   2.0000     -19.257420      -524.0210
   9   2.0000     -19.256592      -523.9985
  10   2.0000     -19.249011      -523.7922
  11   2.0000     -19.246160      -523.7146
  12   2.0000     -19.244429      -523.6675
  13   2.0000     -19.242424      -523.6130
  14   2.0000     -19.192722      -522.2605
  15   2.0000     -19.189512      -522.1732
  16   2.0000     -14.662428      -398.9849
  17   2.0000     -14.660528      -398.9332
  18   2.0000     -14.656331      -398.8190
  19   2.0000     -14.655319      -398.7915
  20   2.0000     -14.454750      -393.3337
  21   2.0000     -14.452572      -393.2745
  22   2.0000     -14.405691      -391.9988
  23   2.0000     -10.395415      -282.8736
  24   2.0000     -10.391602      -282.7699
  25   2.0000     -10.375474      -282.3310
  26   2.0000     -10.372482      -282.2496
  27   2.0000     -10.358760      -281.8762
  28   2.0000     -10.357145      -281.8322
  29   2.0000     -10.356539      -281.8158
  30   2.0000     -10.354657      -281.7645
  31   2.0000     -10.344460      -281.4871
  32   2.0000     -10.337153      -281.2882
  33   2.0000     -10.335603      -281.2461
  34   2.0000     -10.335392      -281.2403
  35   2.0000     -10.333021      -281.1758
  36   2.0000     -10.327889      -281.0362
  37   2.0000     -10.326520      -280.9989
  38   2.0000     -10.326308      -280.9931
  39   2.0000     -10.321234      -280.8550
  40   2.0000     -10.320345      -280.8309
  41   2.0000     -10.318903      -280.7916
  42   2.0000     -10.317792      -280.7614
  43   2.0000     -10.316468      -280.7254
  44   2.0000     -10.313345      -280.6404
  45   2.0000     -10.312584      -280.6197
  46   2.0000     -10.311135      -280.5803
  47   2.0000     -10.310915      -280.5743
  48   2.0000     -10.309772      -280.5432
  49   2.0000     -10.309635      -280.5394
  50   2.0000     -10.309425      -280.5337
  51   2.0000     -10.307143      -280.4716
  52   2.0000     -10.305701      -280.4324
  53   2.0000     -10.303156      -280.3631
  54   2.0000     -10.302461      -280.3442
  55   2.0000     -10.302390      -280.3423
  56   2.0000     -10.301806      -280.3264
  57   2.0000     -10.299207      -280.2557
  58   2.0000     -10.297945      -280.2213
  59   2.0000     -10.295707      -280.1604
  60   2.0000     -10.265134      -279.3285
  61   2.0000     -10.263072      -279.2724
  62   2.0000     -10.262507      -279.2570
  63   2.0000     -10.259997      -279.1887
  64   2.0000      -8.083414      -219.9609
  65   2.0000      -8.082470      -219.9352
  66   2.0000      -8.074797      -219.7264
  67   2.0000      -8.072471      -219.6631
  68   2.0000      -6.052675      -164.7017
  69   2.0000      -6.051882      -164.6801
  70   2.0000      -6.048321      -164.5832
  71   2.0000      -6.047404      -164.5582
  72   2.0000      -6.045881      -164.5168
  73   2.0000      -6.044769      -164.4865
  74   2.0000      -6.044054      -164.4671
  75   2.0000      -6.041591      -164.4001
  76   2.0000      -6.040029      -164.3575
  77   2.0000      -6.037565      -164.2905
  78   2.0000      -6.036831      -164.2705
  79   2.0000      -6.034773      -164.2145
  80   2.0000      -1.347429       -36.6654
  81   2.0000      -1.339905       -36.4607
  82   2.0000      -1.332779       -36.2668
  83   2.0000      -1.327826       -36.1320
  84   2.0000      -1.239286       -33.7227
  85   2.0000      -1.233060       -33.5533
  86   2.0000      -1.168548       -31.7978
  87   2.0000      -1.160635       -31.5825
  88   2.0000      -1.149597       -31.2821
  89   2.0000      -1.144304       -31.1381
  90   2.0000      -1.133890       -30.8547
  91   2.0000      -1.126538       -30.6547
  92   2.0000      -1.064067       -28.9547
  93   2.0000      -1.053860       -28.6770
  94   2.0000      -1.029543       -28.0153
  95   2.0000      -1.014883       -27.6164
  96   2.0000      -1.008993       -27.4561
  97   2.0000      -1.005224       -27.3535
  98   2.0000      -0.984975       -26.8025
  99   2.0000      -0.972756       -26.4700
 100   2.0000      -0.949466       -25.8363
 101   2.0000      -0.945587       -25.7307
 102   2.0000      -0.938004       -25.5244
 103   2.0000      -0.931248       -25.3406
 104   2.0000      -0.925583       -25.1864
 105   2.0000      -0.914509       -24.8851
 106   2.0000      -0.908677       -24.7263
 107   2.0000      -0.895498       -24.3677
 108   2.0000      -0.893820       -24.3221
 109   2.0000      -0.878751       -23.9120
 110   2.0000      -0.871535       -23.7157
 111   2.0000      -0.868125       -23.6229
 112   2.0000      -0.862549       -23.4711
 113   2.0000      -0.856557       -23.3081
 114   2.0000      -0.840029       -22.8583
 115   2.0000      -0.826247       -22.4833
 116   2.0000      -0.820665       -22.3314
 117   2.0000      -0.818014       -22.2593
 118   2.0000      -0.800686       -21.7878
 119   2.0000      -0.796887       -21.6844
 120   2.0000      -0.786415       -21.3994
 121   2.0000      -0.776176       -21.1208
 122   2.0000      -0.760750       -20.7011
 123   2.0000      -0.745879       -20.2964
 124   2.0000      -0.738375       -20.0922
 125   2.0000      -0.732707       -19.9380
 126   2.0000      -0.724416       -19.7124
 127   2.0000      -0.717966       -19.5369
 128   2.0000      -0.715961       -19.4823
 129   2.0000      -0.708833       -19.2883
 130   2.0000      -0.707009       -19.2387
 131   2.0000      -0.699651       -19.0385
 132   2.0000      -0.689459       -18.7611
 133   2.0000      -0.685030       -18.6406
 134   2.0000      -0.679359       -18.4863
 135   2.0000      -0.668708       -18.1965
 136   2.0000      -0.665222       -18.1016
 137   2.0000      -0.658921       -17.9301
 138   2.0000      -0.653917       -17.7940
 139   2.0000      -0.649018       -17.6607
 140   2.0000      -0.646972       -17.6050
 141   2.0000      -0.646863       -17.6020
 142   2.0000      -0.646071       -17.5805
 143   2.0000      -0.641745       -17.4628
 144   2.0000      -0.640734       -17.4353
 145   2.0000      -0.639312       -17.3966
 146   2.0000      -0.638344       -17.3702
 147   2.0000      -0.631718       -17.1899
 148   2.0000      -0.627279       -17.0691
 149   2.0000      -0.621495       -16.9117
 150   2.0000      -0.618616       -16.8334
 151   2.0000      -0.609892       -16.5960
 152   2.0000      -0.603990       -16.4354
 153   2.0000      -0.602827       -16.4038
 154   2.0000      -0.595703       -16.2099
 155   2.0000      -0.593250       -16.1431
 156   2.0000      -0.590049       -16.0561
 157   2.0000      -0.588928       -16.0256
 158   2.0000      -0.587221       -15.9791
 159   2.0000      -0.579761       -15.7761
 160   2.0000      -0.578480       -15.7413
 161   2.0000      -0.575961       -15.6727
 162   2.0000      -0.572644       -15.5824
 163   2.0000      -0.570287       -15.5183
 164   2.0000      -0.562389       -15.3034
 165   2.0000      -0.552536       -15.0353
 166   2.0000      -0.552071       -15.0226
 167   2.0000      -0.547748       -14.9050
 168   2.0000      -0.545542       -14.8449
 169   2.0000      -0.544023       -14.8036
 170   2.0000      -0.540278       -14.7017
 171   2.0000      -0.535630       -14.5752
 172   2.0000      -0.532555       -14.4916
 173   2.0000      -0.529370       -14.4049
 174   2.0000      -0.525039       -14.2870
 175   2.0000      -0.522317       -14.2130
 176   2.0000      -0.518502       -14.1092
 177   2.0000      -0.516764       -14.0619
 178   2.0000      -0.515007       -14.0140
 179   2.0000      -0.514787       -14.0081
 180   2.0000      -0.512375       -13.9424
 181   2.0000      -0.506413       -13.7802
 182   2.0000      -0.501774       -13.6540
 183   2.0000      -0.499151       -13.5826
 184   2.0000      -0.496507       -13.5107
 185   2.0000      -0.492489       -13.4013
 186   2.0000      -0.490691       -13.3524
 187   2.0000      -0.482132       -13.1195
 188   2.0000      -0.477240       -12.9864
 189   2.0000      -0.476681       -12.9711
 190   2.0000      -0.474128       -12.9017
 191   2.0000      -0.471798       -12.8383
 192   2.0000      -0.470225       -12.7955
 193   2.0000      -0.469235       -12.7685
 194   2.0000      -0.462981       -12.5984
 195   2.0000      -0.459006       -12.4902
 196   2.0000      -0.457169       -12.4402
 197   2.0000      -0.455637       -12.3985
 198   2.0000      -0.453793       -12.3483
 199   2.0000      -0.450173       -12.2498
 200   2.0000      -0.449894       -12.2422
 201   2.0000      -0.447757       -12.1841
 202   2.0000      -0.447515       -12.1775
 203   2.0000      -0.439553       -11.9608
 204   2.0000      -0.438163       -11.9230
 205   2.0000      -0.436414       -11.8754
 206   2.0000      -0.434742       -11.8299
 207   2.0000      -0.431664       -11.7462
 208   2.0000      -0.430305       -11.7092
 209   2.0000      -0.430156       -11.7052
 210   2.0000      -0.422439       -11.4952
 211   2.0000      -0.418663       -11.3924
 212   2.0000      -0.409145       -11.1334
 213   2.0000      -0.407266       -11.0823
 214   2.0000      -0.403262       -10.9733
 215   2.0000      -0.400298       -10.8927
 216   2.0000      -0.398185       -10.8352
 217   2.0000      -0.394273       -10.7287
 218   2.0000      -0.394114       -10.7244
 219   2.0000      -0.391686       -10.6583
 220   2.0000      -0.390485       -10.6256
 221   2.0000      -0.389240       -10.5917
 222   2.0000      -0.387227       -10.5370
 223   2.0000      -0.384214       -10.4550
 224   2.0000      -0.380492       -10.3537
 225   2.0000      -0.377713       -10.2781
 226   2.0000      -0.376302       -10.2397
 227   2.0000      -0.372007       -10.1228
 228   2.0000      -0.363976        -9.9043
 229   2.0000      -0.348992        -9.4966
 230   2.0000      -0.345207        -9.3936
 231   2.0000      -0.338632        -9.2146
 232   2.0000      -0.334927        -9.1138
 233   2.0000      -0.333224        -9.0675
 234   2.0000      -0.332537        -9.0488
 235   2.0000      -0.325297        -8.8518
 236   2.0000      -0.318140        -8.6570
 237   2.0000      -0.315720        -8.5912
 238   2.0000      -0.279027        -7.5927
 239   2.0000      -0.267150        -7.2695
 240   2.0000      -0.230488        -6.2719
 241   0.0000      -0.101119        -2.7516
 242   0.0000      -0.079494        -2.1631
 243   0.0000      -0.069128        -1.8811
 244   0.0000      -0.052580        -1.4308
 245   0.0000      -0.037383        -1.0172

MULLIKEN ATOMIC CHARGES
-----------------------
   0 C :   -0.181161
   1 S :    0.143777
   2 C :   -0.147269
   3 C :    0.066184
   4 C :    0.257064
   5 O :   -0.178046
   6 C :    0.232539
   7 N :    0.271329
   8 O :   -0.243479
   9 O :   -0.226926
  10 C :   -0.075835
  11 C :   -0.070617
  12 S :    0.140029
  13 C :   -0.075276
  14 C :   -0.036521
  15 C :   -0.012732
  16 C :    0.078121
  17 N :    0.178244
  18 O :   -0.200510
  19 O :   -0.222588
  20 C :    0.071172
  21 C :    0.059986
  22 C :    0.129523
  23 N :    0.192626
  24 O :   -0.222652
  25 O :   -0.203798
  26 C :   -0.019285
  27 C :   -0.042132
  28 C :    0.115022
  29 N :   -0.262495
  30 C :    0.092425
  31 C :    0.006117
  32 C :    0.158721
  33 O :   -0.222192
  34 C :   -0.063764
  35 C :   -0.038041
  36 C :    0.147974
  37 O :   -0.189432
  38 N :   -0.267094
  39 C :    0.098309
  40 C :    0.004182
  41 C :    0.145009
  42 C :   -0.034043
  43 C :    0.083176
  44 C :   -0.074458
  45 S :    0.157473
  46 C :   -0.040225
  47 C :   -0.065649
  48 C :    0.021534
  49 C :   -0.191255
  50 N :    0.140944
  51 C :   -0.021648
  52 C :    0.066628
  53 C :   -0.223855
  54 S :    0.169406
  55 C :   -0.133612
  56 C :    0.124848
  57 C :    0.204373
  58 O :   -0.185942
  59 C :    0.248431
  60 N :    0.268531
  61 O :   -0.246518
  62 O :   -0.216047
  63 C :   -0.072829
  64 H :    0.040971
  65 H :    0.027540
  66 H :    0.051119
  67 H :    0.037588
  68 H :    0.029567
  69 H :    0.041771
  70 H :    0.030996
  71 H :    0.033599
  72 H :   -0.004197
  73 H :    0.011764
  74 H :    0.039886
  75 H :    0.037766
  76 H :    0.024567
  77 H :    0.020528
  78 H :    0.015417
  79 H :    0.046557
  80 H :    0.023541
  81 H :    0.029991
  82 H :    0.025495
  83 H :    0.015241
  84 H :   -0.027695
  85 H :    0.009791
  86 H :   -0.003072
  87 H :    0.031618
  88 H :   -0.010284
  89 H :    0.037269
  90 H :    0.016894
Sum of atomic charges:   -0.0000000

LOEWDIN ATOMIC CHARGES
----------------------
   0 C :   -0.207599
   1 S :    0.485583
   2 C :   -0.193594
   3 C :   -0.078631
   4 C :    0.022939
   5 O :    0.003035
   6 C :    0.034164
   7 N :    0.270815
   8 O :   -0.204971
   9 O :   -0.189447
  10 C :   -0.017135
  11 C :   -0.163149
  12 S :    0.486368
  13 C :   -0.158952
  14 C :   -0.069024
  15 C :   -0.075511
  16 C :    0.005786
  17 N :    0.261619
  18 O :   -0.186455
  19 O :   -0.195567
  20 C :   -0.014060
  21 C :   -0.022966
  22 C :    0.020995
  23 N :    0.275506
  24 O :   -0.196058
  25 O :   -0.179292
  26 C :   -0.044966
  27 C :   -0.024443
  28 C :    0.059616
  29 N :   -0.000064
  30 C :    0.033654
  31 C :   -0.063210
  32 C :    0.079748
  33 O :   -0.210588
  34 C :   -0.130905
  35 C :   -0.105321
  36 C :    0.080060
  37 O :   -0.191905
  38 N :   -0.004541
  39 C :    0.036056
  40 C :   -0.060780
  41 C :    0.085777
  42 C :   -0.049633
  43 C :    0.016609
  44 C :   -0.170531
  45 S :    0.472010
  46 C :   -0.132515
  47 C :   -0.104417
  48 C :   -0.013754
  49 C :   -0.036362
  50 N :   -0.046124
  51 C :   -0.039162
  52 C :   -0.027474
  53 C :   -0.207083
  54 S :    0.488368
  55 C :   -0.179045
  56 C :   -0.081446
  57 C :    0.027401
  58 O :    0.005174
  59 C :    0.031177
  60 N :    0.270390
  61 O :   -0.207772
  62 O :   -0.179256
  63 C :   -0.008488
  64 H :    0.036794
  65 H :    0.044368
  66 H :    0.038469
  67 H :    0.040576
  68 H :    0.034331
  69 H :    0.035472
  70 H :    0.038462
  71 H :    0.041408
  72 H :    0.027527
  73 H :    0.036690
  74 H :    0.036881
  75 H :    0.023342
  76 H :    0.030888
  77 H :    0.030390
  78 H :    0.019436
  79 H :    0.039152
  80 H :    0.022654
  81 H :    0.032811
  82 H :    0.031685
  83 H :    0.021504
  84 H :    0.028016
  85 H :    0.037352
  86 H :    0.038388
  87 H :    0.045863
  88 H :    0.026361
  89 H :    0.031564
  90 H :    0.048964

  Mayer bond orders larger than 0.100000
B(  0-C ,  1-S ) :   1.1439 B(  0-C ,  2-C ) :   0.1147 B(  0-C ,  4-C ) :   1.5037
B(  0-C , 64-H ) :   0.9830 B(  1-S ,  2-C ) :   1.1618 B(  2-C ,  3-C ) :   1.3889
B(  2-C , 11-C ) :   1.1677 B(  3-C ,  4-C ) :   1.2116 B(  3-C , 10-C ) :   1.0905
B(  4-C ,  5-O ) :   1.1047 B(  5-O ,  6-C ) :   1.1281 B(  6-C ,  7-N ) :   0.9155
B(  6-C , 10-C ) :   1.5758 B(  7-N ,  8-O ) :   1.5333 B(  7-N ,  9-O ) :   1.5139
B(  8-O ,  9-O ) :   0.2827 B( 10-C , 65-H ) :   1.0150 B( 11-C , 12-S ) :   1.1445
B( 11-C , 15-C ) :   1.5067 B( 12-S , 13-C ) :   1.1179 B( 13-C , 14-C ) :   1.4768
B( 13-C , 26-C ) :   1.1615 B( 14-C , 15-C ) :   1.3430 B( 14-C , 22-C ) :   0.9972
B( 15-C , 16-C ) :   0.9559 B( 16-C , 17-N ) :   0.8337 B( 16-C , 20-C ) :   1.0725
B( 16-C , 66-H ) :   0.8951 B( 17-N , 18-O ) :   1.6003 B( 17-N , 19-O ) :   1.5417
B( 18-O , 19-O ) :   0.2731 B( 20-C , 21-C ) :   1.1011 B( 20-C , 67-H ) :   0.9252
B( 20-C , 68-H ) :   0.9254 B( 21-C , 22-C ) :   1.0542 B( 21-C , 69-H ) :   0.9188
B( 21-C , 70-H ) :   0.9279 B( 22-C , 23-N ) :   0.8325 B( 22-C , 71-H ) :   0.8876
B( 23-N , 24-O ) :   1.5266 B( 23-N , 25-O ) :   1.5981 B( 24-O , 25-O ) :   0.2658
B( 26-C , 27-C ) :   1.5658 B( 26-C , 72-H ) :   0.9606 B( 27-C , 28-C ) :   1.1989
B( 27-C , 73-H ) :   0.9432 B( 28-C , 29-N ) :   1.1590 B( 28-C , 35-C ) :   1.3443
B( 29-N , 30-C ) :   0.9380 B( 29-N , 32-C ) :   1.0704 B( 30-C , 31-C ) :   1.1155
B( 30-C , 74-H ) :   0.9240 B( 30-C , 75-H ) :   0.9472 B( 31-C , 76-H ) :   0.9609
B( 31-C , 77-H ) :   0.9689 B( 31-C , 78-H ) :   0.9674 B( 32-C , 33-O ) :   2.0019
B( 32-C , 34-C ) :   0.9968 B( 33-O , 85-H ) :   0.1217 B( 34-C , 35-C ) :   1.2491
B( 34-C , 41-C ) :   1.3110 B( 35-C , 36-C ) :   0.9743 B( 36-C , 37-O ) :   2.1297
B( 36-C , 38-N ) :   1.0329 B( 38-N , 39-C ) :   0.9448 B( 38-N , 41-C ) :   1.1659
B( 39-C , 40-C ) :   1.1204 B( 39-C , 79-H ) :   0.9274 B( 39-C , 80-H ) :   0.9498
B( 40-C , 81-H ) :   0.9639 B( 40-C , 82-H ) :   0.9679 B( 40-C , 83-H ) :   0.9685
B( 41-C , 42-C ) :   1.1783 B( 42-C , 43-C ) :   1.6094 B( 42-C , 84-H ) :   0.9634
B( 43-C , 44-C ) :   1.1306 B( 43-C , 85-H ) :   0.9319 B( 44-C , 45-S ) :   1.1171
B( 44-C , 48-C ) :   1.4658 B( 45-S , 46-C ) :   1.1368 B( 46-C , 47-C ) :   1.4296
B( 46-C , 51-C ) :   1.1898 B( 47-C , 48-C ) :   1.3016 B( 47-C , 49-C ) :   1.1011
B( 48-C , 86-H ) :   0.9986 B( 49-C , 50-N ) :   3.0270 B( 51-C , 52-C ) :   1.6501
B( 51-C , 87-H ) :   0.9610 B( 52-C , 53-C ) :   1.1360 B( 52-C , 88-H ) :   0.9566
B( 53-C , 54-S ) :   1.1321 B( 53-C , 55-C ) :   0.1106 B( 53-C , 57-C ) :   1.4527
B( 54-S , 55-C ) :   1.2028 B( 55-C , 56-C ) :   1.4271 B( 55-C , 89-H ) :   0.9754
B( 56-C , 57-C ) :   1.2273 B( 56-C , 63-C ) :   1.0555 B( 57-C , 58-O ) :   1.1105
B( 58-O , 59-C ) :   1.1132 B( 59-C , 60-N ) :   0.9087 B( 59-C , 63-C ) :   1.5886
B( 60-N , 61-O ) :   1.5334 B( 60-N , 62-O ) :   1.5238 B( 61-O , 62-O ) :   0.2841
B( 63-C , 90-H ) :   1.0245

-----------------------------------------------------------------------------
         ABSORPTION SPECTRUM VIA TRANSITION ELECTRIC DIPOLE MOMENTS
-----------------------------------------------------------------------------
State   Energy  Wavelength   fosc         T2         TX        TY        TZ
        (cm-1)    (nm)                  (au**2)     (au)      (au)      (au)
-----------------------------------------------------------------------------
   0   13632.0    733.6   1.236273645  29.85583   1.81029  -5.08904   0.82483
   1   19851.0    503.8   0.034545893   0.57291   0.06162   0.61431   0.43788
   2   22710.9    440.3   0.110682140   1.60443   0.43860  -1.16340   0.24198
   3   23272.1    429.7   0.391063508   5.53206  -1.00370   0.08465  -2.12544
   4   23775.8    420.6   0.732006751  10.13573  -1.51747   1.80825  -2.13618
   5   24858.6    402.3   0.050063546   0.66301   0.51980  -0.14943   0.60868
   6   25653.0    389.8   0.068631608   0.88077  -0.43038   0.04217  -0.83292
   7   26711.7    374.4   0.024923386   0.30717   0.28648  -0.13376   0.45520
   8   28217.5    354.4   0.006423124   0.07494   0.06353  -0.22596   0.14087
   9   28710.1    348.3   0.054970724   0.63034  -0.13959   0.77317   0.11427
  10   28808.0    347.1   0.021696140   0.24794   0.04506  -0.41102  -0.27744
  11   29382.4    340.3   0.067699663   0.75853   0.39296   0.32928   0.70405
  12   29789.2    335.7   0.308146042   3.40544   0.79824  -0.80462   1.45631
  13   31603.0    316.4   0.003366914   0.03507   0.05618  -0.17357  -0.04232
  14   32221.9    310.3   0.005118082   0.05229   0.02969  -0.21628  -0.06807
  15   33263.7    300.6   0.137775169   1.36357  -0.03257   0.99147   0.61603
  16   33986.6    294.2   0.086226580   0.83524   0.27579  -0.83952   0.23320
  17   34222.7    292.2   0.036048912   0.34678  -0.06966   0.56315  -0.15746
  18   34539.9    289.5   0.081478266   0.77660   0.39892   0.47327   0.62727
  19   34786.2    287.5   0.141184449   1.33615   0.57767  -0.83852   0.54712
  20   35554.9    281.3   0.020010235   0.18528   0.26969   0.29106   0.16683
  21   35921.9    278.4   0.151243844   1.38610  -0.19340  -1.12308  -0.29561
  22   36515.2    273.9   0.032731475   0.29510   0.12726   0.07836   0.52227
  23   36596.0    273.3   0.218892237   1.96912  -0.35859  -0.78207  -1.10856
  24   36987.6    270.4   0.046826367   0.41678  -0.36413   0.34533   0.40612
  25   37437.7    267.1   0.149139877   1.31148  -0.09651  -0.51778  -1.01689
  26   37759.8    264.8   0.109473721   0.95446  -0.22403  -0.26252  -0.91397
  27   38532.6    259.5   0.007097946   0.06064  -0.01950   0.19227  -0.15262
  28   39296.3    254.5   0.040664877   0.34068   0.11394   0.31923   0.47517
  29   39674.6    252.1   0.021375948   0.17737   0.36835   0.05732   0.19597
  30   40064.9    249.6   0.060639243   0.49827   0.49135  -0.44326   0.24570
  31   40280.8    248.3   0.017921468   0.14647   0.04860  -0.31451  -0.21258

FINAL SINGLE POINT ENERGY     -4452.935021616719

DIPOLE MOMENT
-------------
                                X             Y             Z
Electronic contribution:     -7.23877      12.25551      11.32886
Nuclear contribution   :      6.19385     -14.30447     -15.44277
                        -----------------------------------------
Total Dipole Moment    :     -1.04491      -2.04896      -4.11390
                        -----------------------------------------
Magnitude (a.u.)       :      4.71320
Magnitude (Debye)      :     11.98001

Rotational constants in cm-1:     0.002336     0.000277     0.000251
Rotational constants in MHz :    70.038876     8.294743     7.513638

                             ****ORCA TERMINATED NORMALLY****
TOTAL RUN TIME: 0 days 0 hours 12 minutes 23 seconds 42 msec
