                         Program Version 4.2.0 -  RELEASE  -
|  1> # ORCA input file
|  2> # SCF done       -172.791376933058          0.000691986833
|  3> ! CAM-B3LYP def2-SVP def2/J RIJCOSX Grid4 TightSCF
|  4> %maxcore 5000
|  5> %tddft
|  6>     Mode sTDDFT
|  7>     Ethresh 5.0
|  8>     maxcore 5000
|  9> end
| 10>
| 11> %pal
| 12>   nprocs 6
| 13>   end
| 14> * xyz 0 1
| 15>    C       -2.50013        -0.59120         4.67972
| 16>    O       -2.78094        -1.71372         4.02868
| 17>    C       -1.76855        -1.94114         3.15431
| 18>    C       -0.82666        -0.94195         3.25377
| 19>    C       -1.30536        -0.05722         4.25300
| 20>    C       -0.70074         1.18932         4.76978
| 21>    O       -1.21589         1.85547         5.62467
| 22>    O        0.47222         1.53943         4.22199
| 23>    C       -1.80607        -3.08528         2.30649
| 24>    S       -3.13610        -4.20976         2.36126
| 25>    C       -0.89127        -3.48779         1.36046
| 26>    C        0.40812        -3.03388         0.84628
| 27>    O        1.07619        -2.06959         1.14068
| 28>    N        0.75699        -3.97153        -0.11262
| 29>    C        2.00747        -3.93175        -0.84120
| 30>    C        3.09713        -4.70405        -0.10560
| 31>    C       -0.18113        -4.98379        -0.27825
| 32>    O       -0.06776        -5.88803        -1.07329
| 33>    C       -1.25251        -4.67468         0.67807
| 34>    C       -2.45573        -5.21613         1.09271
| 35>    C       -3.16949        -6.36916         0.68481
| 36>    C       -2.78953        -7.16010        -0.35433
| 37>    C       -3.51679        -8.30948        -0.74273
| 38>    N       -3.17864        -9.09229        -1.81885
| 39>    C       -2.04960        -8.90956        -2.70058
| 40>    C       -0.74651        -9.39741        -2.07418
| 41>    C       -4.06317       -10.17219        -1.98447
| 42>    O       -3.96364       -10.99165        -2.87463
| 43>    C       -5.02020       -10.01966        -0.90824
| 44>    C       -4.66240        -8.87017        -0.16946
| 45>    C       -5.61542        -8.71691         0.90897
| 46>    O       -5.72395        -7.88290         1.78703
| 47>    N       -6.49548        -9.79676         0.75035
| 48>    C       -7.57800       -10.01756         1.67868
| 49>    C       -7.23077       -11.08438         2.71425
| 50>    C       -6.15837       -10.58939        -0.32626
| 51>    C       -6.87936       -11.73817        -0.70820
| 52>    C       -6.55345       -12.49339        -1.79880
| 53>    C       -7.24970       -13.65389        -2.20100
| 54>    C       -6.96822       -14.41432        -3.32296
| 55>    C       -7.86092       -15.51689        -3.38358
| 56>    C       -8.74227       -15.39078        -2.20724
| 57>    C       -8.37580       -14.27890        -1.51962
| 58>    C       -9.80906       -16.22377        -1.84999
| 59>    N      -10.70220       -16.86436        -1.51677
| 60>    C       -7.91093       -16.51769        -4.33104
| 61>    C       -8.74118       -17.67273        -4.33561
| 62>    C       -8.47585       -18.41799        -5.46544
| 63>    C       -7.45059       -17.71855        -6.22738
| 64>    C       -7.09368       -16.59209        -5.55828
| 65>    C       -6.13751       -15.67146        -5.99919
| 66>    N       -5.34575       -14.94461        -6.40512
| 67>    C       -9.04294       -19.64911        -5.89095
| 68>    C       -9.91034       -20.39763        -5.16645
| 69>    C      -10.45467       -21.62378        -5.64009
| 70>    O      -10.18944       -22.06342        -6.88844
| 71>    C      -10.83649       -23.22351        -7.06231
| 72>    C      -11.53505       -23.56772        -5.94643
| 73>    C      -11.29824       -22.53296        -5.00028
| 74>    C      -11.79217       -22.41447        -3.61909
| 75>    O      -11.43901       -21.55578        -2.85642
| 76>    O      -12.68400       -23.34729        -3.23467
| 77>    H       -3.19079        -0.24240         5.42166
| 78>    H        0.07030        -0.89357         2.66833
| 79>    H        0.77189         0.91433         3.54750
| 80>    H        2.28972        -2.88192        -0.94816
| 81>    H        1.82720        -4.37138        -1.82492
| 82>    H        3.26073        -4.27615         0.88090
| 83>    H        4.02587        -4.65398        -0.66652
| 84>    H        2.81002        -5.74729         0.00405
| 85>    H       -4.06567        -6.60380         1.24464
| 86>    H       -1.90062        -6.91202        -0.91469
| 87>    H       -1.96846        -7.85556        -2.97743
| 88>    H       -2.27057        -9.49849        -3.59521
| 89>    H       -0.49234        -8.81006        -1.19619
| 90>    H        0.05894        -9.30204        -2.79600
| 91>    H       -0.83673       -10.44216        -1.78786
| 92>    H       -8.48355       -10.28646         1.12780
| 93>    H       -7.74463        -9.06091         2.18164
| 94>    H       -7.00484       -12.03552         2.23729
| 95>    H       -8.06643       -11.22323         3.39425
| 96>    H       -6.36273       -10.77286         3.28956
| 97>    H       -7.73071       -12.01348        -0.10313
| 98>    H       -5.70883       -12.20245        -2.40979
| 99>    H       -6.18803       -14.21010        -4.02996
|100>    H       -8.84072       -13.92299        -0.61915
|101>    H       -9.45111       -17.91454        -3.56987
|102>    H       -7.04804       -18.05848        -7.16423
|103>    H       -8.73670       -20.00636        -6.86662
|104>    H      -10.22423       -20.10835        -4.17512
|105>    H      -10.72812       -23.71036        -8.01144
|106>    H      -12.12543       -24.45588        -5.83322
|107>    H      -12.89503       -23.97153        -3.94015
|108> *
|109>
|110>                          ****END OF INPUT****

CARTESIAN COORDINATES (ANGSTROEM)
---------------------------------
  C     -2.500130   -0.591200    4.679720
  O     -2.780940   -1.713720    4.028680
  C     -1.768550   -1.941140    3.154310
  C     -0.826660   -0.941950    3.253770
  C     -1.305360   -0.057220    4.253000
  C     -0.700740    1.189320    4.769780
  O     -1.215890    1.855470    5.624670
  O      0.472220    1.539430    4.221990
  C     -1.806070   -3.085280    2.306490
  S     -3.136100   -4.209760    2.361260
  C     -0.891270   -3.487790    1.360460
  C      0.408120   -3.033880    0.846280
  O      1.076190   -2.069590    1.140680
  N      0.756990   -3.971530   -0.112620
  C      2.007470   -3.931750   -0.841200
  C      3.097130   -4.704050   -0.105600
  C     -0.181130   -4.983790   -0.278250
  O     -0.067760   -5.888030   -1.073290
  C     -1.252510   -4.674680    0.678070
  C     -2.455730   -5.216130    1.092710
  C     -3.169490   -6.369160    0.684810
  C     -2.789530   -7.160100   -0.354330
  C     -3.516790   -8.309480   -0.742730
  N     -3.178640   -9.092290   -1.818850
  C     -2.049600   -8.909560   -2.700580
  C     -0.746510   -9.397410   -2.074180
  C     -4.063170  -10.172190   -1.984470
  O     -3.963640  -10.991650   -2.874630
  C     -5.020200  -10.019660   -0.908240
  C     -4.662400   -8.870170   -0.169460
  C     -5.615420   -8.716910    0.908970
  O     -5.723950   -7.882900    1.787030
  N     -6.495480   -9.796760    0.750350
  C     -7.578000  -10.017560    1.678680
  C     -7.230770  -11.084380    2.714250
  C     -6.158370  -10.589390   -0.326260
  C     -6.879360  -11.738170   -0.708200
  C     -6.553450  -12.493390   -1.798800
  C     -7.249700  -13.653890   -2.201000
  C     -6.968220  -14.414320   -3.322960
  C     -7.860920  -15.516890   -3.383580
  C     -8.742270  -15.390780   -2.207240
  C     -8.375800  -14.278900   -1.519620
  C     -9.809060  -16.223770   -1.849990
  N    -10.702200  -16.864360   -1.516770
  C     -7.910930  -16.517690   -4.331040
  C     -8.741180  -17.672730   -4.335610
  C     -8.475850  -18.417990   -5.465440
  C     -7.450590  -17.718550   -6.227380
  C     -7.093680  -16.592090   -5.558280
  C     -6.137510  -15.671460   -5.999190
  N     -5.345750  -14.944610   -6.405120
  C     -9.042940  -19.649110   -5.890950
  C     -9.910340  -20.397630   -5.166450
  C    -10.454670  -21.623780   -5.640090
  O    -10.189440  -22.063420   -6.888440
  C    -10.836490  -23.223510   -7.062310
  C    -11.535050  -23.567720   -5.946430
  C    -11.298240  -22.532960   -5.000280
  C    -11.792170  -22.414470   -3.619090
  O    -11.439010  -21.555780   -2.856420
  O    -12.684000  -23.347290   -3.234670
  H     -3.190790   -0.242400    5.421660
  H      0.070300   -0.893570    2.668330
  H      0.771890    0.914330    3.547500
  H      2.289720   -2.881920   -0.948160
  H      1.827200   -4.371380   -1.824920
  H      3.260730   -4.276150    0.880900
  H      4.025870   -4.653980   -0.666520
  H      2.810020   -5.747290    0.004050
  H     -4.065670   -6.603800    1.244640
  H     -1.900620   -6.912020   -0.914690
  H     -1.968460   -7.855560   -2.977430
  H     -2.270570   -9.498490   -3.595210
  H     -0.492340   -8.810060   -1.196190
  H      0.058940   -9.302040   -2.796000
  H     -0.836730  -10.442160   -1.787860
  H     -8.483550  -10.286460    1.127800
  H     -7.744630   -9.060910    2.181640
  H     -7.004840  -12.035520    2.237290
  H     -8.066430  -11.223230    3.394250
  H     -6.362730  -10.772860    3.289560
  H     -7.730710  -12.013480   -0.103130
  H     -5.708830  -12.202450   -2.409790
  H     -6.188030  -14.210100   -4.029960
  H     -8.840720  -13.922990   -0.619150
  H     -9.451110  -17.914540   -3.569870
  H     -7.048040  -18.058480   -7.164230
  H     -8.736700  -20.006360   -6.866620
  H    -10.224230  -20.108350   -4.175120
  H    -10.728120  -23.710360   -8.011440
  H    -12.125430  -24.455880   -5.833220
  H    -12.895030  -23.971530   -3.940150

 Total Charge           Charge          ....    0
 Multiplicity           Mult            ....    1
 Number of Electrons    NEL             ....  438
 Basis Dimension        Dim             .... 1027

ORBITAL ENERGIES
----------------

  NO   OCC          E(Eh)            E(eV)
   0   2.0000     -88.985847     -2421.4280
   1   2.0000     -19.320834      -525.7466
   2   2.0000     -19.313753      -525.5539
   3   2.0000     -19.260591      -524.1073
   4   2.0000     -19.258076      -524.0389
   5   2.0000     -19.225564      -523.1542
   6   2.0000     -19.225280      -523.1465
   7   2.0000     -19.197847      -522.4000
   8   2.0000     -19.194255      -522.3022
   9   2.0000     -19.193517      -522.2822
  10   2.0000     -19.192890      -522.2651
  11   2.0000     -14.465549      -393.6276
  12   2.0000     -14.455964      -393.3668
  13   2.0000     -14.453851      -393.3093
  14   2.0000     -14.403979      -391.9522
  15   2.0000     -14.402445      -391.9105
  16   2.0000     -10.407182      -283.1938
  17   2.0000     -10.407021      -283.1894
  18   2.0000     -10.406624      -283.1786
  19   2.0000     -10.403231      -283.0863
  20   2.0000     -10.376714      -282.3647
  21   2.0000     -10.374944      -282.3166
  22   2.0000     -10.356475      -281.8140
  23   2.0000     -10.354134      -281.7503
  24   2.0000     -10.352493      -281.7056
  25   2.0000     -10.347135      -281.5599
  26   2.0000     -10.346512      -281.5429
  27   2.0000     -10.340974      -281.3922
  28   2.0000     -10.339998      -281.3656
  29   2.0000     -10.337580      -281.2999
  30   2.0000     -10.318512      -280.7810
  31   2.0000     -10.317726      -280.7596
  32   2.0000     -10.314276      -280.6657
  33   2.0000     -10.312825      -280.6262
  34   2.0000     -10.311591      -280.5926
  35   2.0000     -10.310144      -280.5533
  36   2.0000     -10.305593      -280.4295
  37   2.0000     -10.305520      -280.4275
  38   2.0000     -10.304472      -280.3989
  39   2.0000     -10.304038      -280.3871
  40   2.0000     -10.303180      -280.3638
  41   2.0000     -10.303138      -280.3626
  42   2.0000     -10.303115      -280.3620
  43   2.0000     -10.299715      -280.2695
  44   2.0000     -10.297939      -280.2212
  45   2.0000     -10.297624      -280.2126
  46   2.0000     -10.297437      -280.2075
  47   2.0000     -10.297313      -280.2041
  48   2.0000     -10.297091      -280.1981
  49   2.0000     -10.295404      -280.1522
  50   2.0000     -10.294434      -280.1258
  51   2.0000     -10.294019      -280.1145
  52   2.0000     -10.292984      -280.0863
  53   2.0000     -10.292033      -280.0605
  54   2.0000     -10.292026      -280.0603
  55   2.0000     -10.281710      -279.7795
  56   2.0000     -10.277403      -279.6624
  57   2.0000     -10.266903      -279.3766
  58   2.0000     -10.266652      -279.3698
  59   2.0000     -10.265670      -279.3431
  60   2.0000     -10.264630      -279.3148
  61   2.0000     -10.256209      -279.0856
  62   2.0000      -8.080854      -219.8912
  63   2.0000      -6.050241      -164.6354
  64   2.0000      -6.045830      -164.5154
  65   2.0000      -6.042965      -164.4374
  66   2.0000      -1.241033       -33.7702
  67   2.0000      -1.233753       -33.5721
  68   2.0000      -1.182742       -32.1840
  69   2.0000      -1.180205       -32.1150
  70   2.0000      -1.170843       -31.8602
  71   2.0000      -1.147369       -31.2215
  72   2.0000      -1.136122       -30.9154
  73   2.0000      -1.129376       -30.7319
  74   2.0000      -1.097352       -29.8605
  75   2.0000      -1.093872       -29.7658
  76   2.0000      -1.065966       -29.0064
  77   2.0000      -1.061759       -28.8919
  78   2.0000      -1.057356       -28.7721
  79   2.0000      -1.011853       -27.5339
  80   2.0000      -1.011037       -27.5117
  81   2.0000      -0.995296       -27.0834
  82   2.0000      -0.980509       -26.6810
  83   2.0000      -0.976233       -26.5646
  84   2.0000      -0.931497       -25.3473
  85   2.0000      -0.926885       -25.2218
  86   2.0000      -0.924666       -25.1614
  87   2.0000      -0.919887       -25.0314
  88   2.0000      -0.917590       -24.9689
  89   2.0000      -0.912969       -24.8432
  90   2.0000      -0.910767       -24.7832
  91   2.0000      -0.886842       -24.1322
  92   2.0000      -0.873254       -23.7624
  93   2.0000      -0.869596       -23.6629
  94   2.0000      -0.855179       -23.2706
  95   2.0000      -0.846261       -23.0279
  96   2.0000      -0.841167       -22.8893
  97   2.0000      -0.835043       -22.7227
  98   2.0000      -0.822603       -22.3842
  99   2.0000      -0.820440       -22.3253
 100   2.0000      -0.800974       -21.7956
 101   2.0000      -0.789358       -21.4795
 102   2.0000      -0.767344       -20.8805
 103   2.0000      -0.760422       -20.6921
 104   2.0000      -0.759382       -20.6638
 105   2.0000      -0.756967       -20.5981
 106   2.0000      -0.749364       -20.3912
 107   2.0000      -0.746211       -20.3054
 108   2.0000      -0.731321       -19.9003
 109   2.0000      -0.727861       -19.8061
 110   2.0000      -0.714269       -19.4362
 111   2.0000      -0.710581       -19.3359
 112   2.0000      -0.708713       -19.2851
 113   2.0000      -0.704232       -19.1631
 114   2.0000      -0.700720       -19.0676
 115   2.0000      -0.696120       -18.9424
 116   2.0000      -0.686838       -18.6898
 117   2.0000      -0.684408       -18.6237
 118   2.0000      -0.679653       -18.4943
 119   2.0000      -0.673206       -18.3189
 120   2.0000      -0.668650       -18.1949
 121   2.0000      -0.651345       -17.7240
 122   2.0000      -0.646178       -17.5834
 123   2.0000      -0.639252       -17.3949
 124   2.0000      -0.634100       -17.2547
 125   2.0000      -0.627868       -17.0852
 126   2.0000      -0.623657       -16.9706
 127   2.0000      -0.608557       -16.5597
 128   2.0000      -0.599706       -16.3188
 129   2.0000      -0.593891       -16.1606
 130   2.0000      -0.591325       -16.0908
 131   2.0000      -0.590307       -16.0631
 132   2.0000      -0.582185       -15.8421
 133   2.0000      -0.581189       -15.8149
 134   2.0000      -0.578866       -15.7517
 135   2.0000      -0.577128       -15.7044
 136   2.0000      -0.575814       -15.6687
 137   2.0000      -0.566921       -15.4267
 138   2.0000      -0.565066       -15.3762
 139   2.0000      -0.557839       -15.1796
 140   2.0000      -0.552987       -15.0475
 141   2.0000      -0.551382       -15.0039
 142   2.0000      -0.549225       -14.9452
 143   2.0000      -0.548122       -14.9151
 144   2.0000      -0.540469       -14.7069
 145   2.0000      -0.538992       -14.6667
 146   2.0000      -0.537178       -14.6174
 147   2.0000      -0.531983       -14.4760
 148   2.0000      -0.529587       -14.4108
 149   2.0000      -0.528419       -14.3790
 150   2.0000      -0.526947       -14.3389
 151   2.0000      -0.524709       -14.2781
 152   2.0000      -0.523156       -14.2358
 153   2.0000      -0.520778       -14.1711
 154   2.0000      -0.517496       -14.0818
 155   2.0000      -0.516331       -14.0501
 156   2.0000      -0.515129       -14.0174
 157   2.0000      -0.512920       -13.9573
 158   2.0000      -0.511633       -13.9222
 159   2.0000      -0.508115       -13.8265
 160   2.0000      -0.506344       -13.7783
 161   2.0000      -0.502107       -13.6630
 162   2.0000      -0.501005       -13.6330
 163   2.0000      -0.496681       -13.5154
 164   2.0000      -0.495296       -13.4777
 165   2.0000      -0.495236       -13.4761
 166   2.0000      -0.493771       -13.4362
 167   2.0000      -0.485324       -13.2063
 168   2.0000      -0.485035       -13.1985
 169   2.0000      -0.478572       -13.0226
 170   2.0000      -0.476263       -12.9598
 171   2.0000      -0.475618       -12.9422
 172   2.0000      -0.472701       -12.8628
 173   2.0000      -0.471778       -12.8377
 174   2.0000      -0.471252       -12.8234
 175   2.0000      -0.463639       -12.6163
 176   2.0000      -0.459849       -12.5131
 177   2.0000      -0.459237       -12.4965
 178   2.0000      -0.457524       -12.4499
 179   2.0000      -0.454728       -12.3738
 180   2.0000      -0.453555       -12.3419
 181   2.0000      -0.449445       -12.2300
 182   2.0000      -0.448756       -12.2113
 183   2.0000      -0.446004       -12.1364
 184   2.0000      -0.444537       -12.0965
 185   2.0000      -0.441196       -12.0056
 186   2.0000      -0.436564       -11.8795
 187   2.0000      -0.435682       -11.8555
 188   2.0000      -0.434322       -11.8185
 189   2.0000      -0.432757       -11.7759
 190   2.0000      -0.432407       -11.7664
 191   2.0000      -0.431260       -11.7352
 192   2.0000      -0.423343       -11.5197
 193   2.0000      -0.420148       -11.4328
 194   2.0000      -0.410846       -11.1797
 195   2.0000      -0.404289       -11.0013
 196   2.0000      -0.401141       -10.9156
 197   2.0000      -0.394812       -10.7434
 198   2.0000      -0.394148       -10.7253
 199   2.0000      -0.391983       -10.6664
 200   2.0000      -0.377743       -10.2789
 201   2.0000      -0.375970       -10.2307
 202   2.0000      -0.374473       -10.1899
 203   2.0000      -0.368757       -10.0344
 204   2.0000      -0.365669        -9.9503
 205   2.0000      -0.359701        -9.7880
 206   2.0000      -0.352994        -9.6054
 207   2.0000      -0.350458        -9.5365
 208   2.0000      -0.349926        -9.5220
 209   2.0000      -0.341405        -9.2901
 210   2.0000      -0.339032        -9.2255
 211   2.0000      -0.334356        -9.0983
 212   2.0000      -0.332122        -9.0375
 213   2.0000      -0.317793        -8.6476
 214   2.0000      -0.316261        -8.6059
 215   2.0000      -0.300167        -8.1680
 216   2.0000      -0.286698        -7.8015
 217   2.0000      -0.268526        -7.3070
 218   2.0000      -0.232943        -6.3387
 219   0.0000      -0.127219        -3.4618
 220   0.0000      -0.085993        -2.3400
 221   0.0000      -0.052566        -1.4304
 222   0.0000      -0.038001        -1.0341
 223   0.0000      -0.033141        -0.9018

MULLIKEN ATOMIC CHARGES
-----------------------
   0 C :    0.133046
   1 O :   -0.171012
   2 C :    0.118392
   3 C :   -0.098166
   4 C :   -0.054244
   5 C :    0.168291
   6 O :   -0.172304
   7 O :   -0.153367
   8 C :   -0.118604
   9 S :    0.221433
  10 C :   -0.005017
  11 C :    0.199349
  12 O :   -0.182667
  13 N :   -0.298146
  14 C :    0.135408
  15 C :   -0.009117
  16 C :    0.202181
  17 O :   -0.181373
  18 C :    0.005680
  19 C :   -0.146906
  20 C :    0.063075
  21 C :   -0.023831
  22 C :    0.130293
  23 N :   -0.253113
  24 C :    0.098752
  25 C :    0.009636
  26 C :    0.158883
  27 O :   -0.197402
  28 C :   -0.057662
  29 C :   -0.064821
  30 C :    0.160547
  31 O :   -0.211794
  32 N :   -0.257068
  33 C :    0.102571
  34 C :    0.004178
  35 C :    0.144453
  36 C :   -0.029953
  37 C :    0.011976
  38 C :    0.104619
  39 C :   -0.101541
  40 C :    0.117712
  41 C :   -0.094457
  42 C :   -0.012479
  43 C :   -0.179478
  44 N :    0.142092
  45 C :    0.117142
  46 C :   -0.115898
  47 C :    0.112901
  48 C :   -0.006326
  49 C :   -0.092756
  50 C :   -0.179640
  51 N :    0.135276
  52 C :    0.004877
  53 C :   -0.008232
  54 C :    0.103971
  55 O :   -0.179193
  56 C :    0.157112
  57 C :   -0.058538
  58 C :   -0.057897
  59 C :    0.169724
  60 O :   -0.170070
  61 O :   -0.156173
  62 H :    0.035984
  63 H :    0.003708
  64 H :    0.185367
  65 H :    0.032779
  66 H :    0.032994
  67 H :    0.026112
  68 H :    0.026290
  69 H :    0.028523
  70 H :   -0.001913
  71 H :   -0.006187
  72 H :    0.031975
  73 H :    0.042740
  74 H :    0.020303
  75 H :    0.024420
  76 H :    0.022127
  77 H :    0.023081
  78 H :    0.042371
  79 H :    0.014785
  80 H :    0.025309
  81 H :    0.029977
  82 H :   -0.032530
  83 H :    0.016779
  84 H :    0.016737
  85 H :   -0.003666
  86 H :    0.010408
  87 H :   -0.005122
  88 H :   -0.008955
  89 H :    0.040948
  90 H :    0.020675
  91 H :   -0.005682
  92 H :    0.175340
Sum of atomic charges:   -0.0000000

LOEWDIN ATOMIC CHARGES
----------------------
   0 C :    0.095558
   1 O :    0.034907
   2 C :    0.000834
   3 C :   -0.043565
   4 C :   -0.131821
   5 C :    0.077723
   6 O :   -0.160060
   7 O :   -0.027145
   8 C :   -0.144446
   9 S :    0.490528
  10 C :   -0.096422
  11 C :    0.096282
  12 O :   -0.172255
  13 N :   -0.026249
  14 C :    0.044241
  15 C :   -0.059228
  16 C :    0.097395
  17 O :   -0.166356
  18 C :   -0.091862
  19 C :   -0.132553
  20 C :   -0.007278
  21 C :   -0.021745
  22 C :    0.074084
  23 N :    0.005054
  24 C :    0.037683
  25 C :   -0.059051
  26 C :    0.079573
  27 O :   -0.189556
  28 C :   -0.111994
  29 C :   -0.117272
  30 C :    0.078909
  31 O :   -0.203712
  32 N :   -0.000186
  33 C :    0.036704
  34 C :   -0.060808
  35 C :    0.072113
  36 C :   -0.042214
  37 C :    0.035496
  38 C :   -0.022300
  39 C :   -0.009689
  40 C :    0.031442
  41 C :   -0.075892
  42 C :    0.048040
  43 C :   -0.034180
  44 N :   -0.056403
  45 C :    0.039747
  46 C :   -0.025513
  47 C :   -0.014580
  48 C :    0.051259
  49 C :   -0.081822
  50 C :   -0.033225
  51 N :   -0.061472
  52 C :   -0.012065
  53 C :   -0.002869
  54 C :    0.060508
  55 O :    0.032621
  56 C :    0.053293
  57 C :   -0.077783
  58 C :   -0.121085
  59 C :    0.083418
  60 O :   -0.155118
  61 O :   -0.030465
  62 H :    0.037664
  63 H :    0.028195
  64 H :    0.097091
  65 H :    0.032861
  66 H :    0.032911
  67 H :    0.028163
  68 H :    0.031890
  69 H :    0.028670
  70 H :    0.035011
  71 H :    0.032006
  72 H :    0.027446
  73 H :    0.037484
  74 H :    0.023546
  75 H :    0.032214
  76 H :    0.028847
  77 H :    0.022803
  78 H :    0.037836
  79 H :    0.021552
  80 H :    0.031344
  81 H :    0.032665
  82 H :    0.026780
  83 H :    0.042920
  84 H :    0.040272
  85 H :    0.033426
  86 H :    0.035777
  87 H :    0.035802
  88 H :    0.031110
  89 H :    0.048217
  90 H :    0.028493
  91 H :    0.028799
  92 H :    0.091032

  Mayer bond orders larger than 0.100000
B(  0-C ,  1-O ) :   1.1879 B(  0-C ,  4-C ) :   1.5135 B(  0-C , 62-H ) :   1.0012
B(  1-O ,  2-C ) :   1.1667 B(  2-C ,  3-C ) :   1.5813 B(  2-C ,  8-C ) :   1.0840
B(  3-C ,  4-C ) :   1.1724 B(  3-C , 63-H ) :   0.9572 B(  4-C ,  5-C ) :   0.9064
B(  5-C ,  6-O ) :   2.2161 B(  5-C ,  7-O ) :   1.2473 B(  7-O , 64-H ) :   0.9569
B(  8-C ,  9-S ) :   1.1321 B(  8-C , 10-C ) :   1.5611 B(  9-S , 19-C ) :   1.1152
B( 10-C , 11-C ) :   0.8934 B( 10-C , 18-C ) :   1.2603 B( 11-C , 12-O ) :   2.0961
B( 11-C , 13-N ) :   1.0930 B( 13-N , 14-C ) :   0.9165 B( 13-N , 16-C ) :   1.0889
B( 14-C , 15-C ) :   1.1288 B( 14-C , 65-H ) :   0.9404 B( 14-C , 66-H ) :   0.9405
B( 15-C , 67-H ) :   0.9686 B( 15-C , 68-H ) :   0.9703 B( 15-C , 69-H ) :   0.9687
B( 16-C , 17-O ) :   2.0770 B( 16-C , 18-C ) :   0.9070 B( 18-C , 19-C ) :   1.4887
B( 19-C , 20-C ) :   1.1445 B( 20-C , 21-C ) :   1.5986 B( 20-C , 70-H ) :   0.9334
B( 21-C , 22-C ) :   1.1752 B( 21-C , 71-H ) :   0.9419 B( 22-C , 23-N ) :   1.1711
B( 22-C , 29-C ) :   1.3104 B( 23-N , 24-C ) :   0.9396 B( 23-N , 26-C ) :   1.0604
B( 24-C , 25-C ) :   1.1252 B( 24-C , 72-H ) :   0.9482 B( 24-C , 73-H ) :   0.9278
B( 25-C , 74-H ) :   0.9665 B( 25-C , 75-H ) :   0.9671 B( 25-C , 76-H ) :   0.9631
B( 26-C , 27-O ) :   2.0397 B( 26-C , 28-C ) :   0.9787 B( 27-O , 83-H ) :   0.1080
B( 28-C , 29-C ) :   1.2722 B( 28-C , 35-C ) :   1.3258 B( 29-C , 30-C ) :   0.9846
B( 30-C , 31-O ) :   2.0245 B( 30-C , 32-N ) :   1.0678 B( 31-O , 70-H ) :   0.1140
B( 32-N , 33-C ) :   0.9467 B( 32-N , 35-C ) :   1.1508 B( 33-C , 34-C ) :   1.1189
B( 33-C , 77-H ) :   0.9495 B( 33-C , 78-H ) :   0.9277 B( 34-C , 79-H ) :   0.9686
B( 34-C , 80-H ) :   0.9683 B( 34-C , 81-H ) :   0.9639 B( 35-C , 36-C ) :   1.1736
B( 36-C , 37-C ) :   1.5356 B( 36-C , 82-H ) :   0.9623 B( 37-C , 38-C ) :   1.1361
B( 37-C , 83-H ) :   0.9606 B( 38-C , 39-C ) :   1.4876 B( 38-C , 42-C ) :   1.0377
B( 39-C , 40-C ) :   1.1249 B( 39-C , 84-H ) :   1.0116 B( 40-C , 41-C ) :   1.1025
B( 40-C , 45-C ) :   1.3862 B( 41-C , 42-C ) :   1.6893 B( 41-C , 43-C ) :   1.0868
B( 42-C , 85-H ) :   1.0140 B( 43-C , 44-N ) :   2.9774 B( 45-C , 46-C ) :   1.1383
B( 45-C , 49-C ) :   1.1028 B( 46-C , 47-C ) :   1.5396 B( 46-C , 86-H ) :   0.9981
B( 47-C , 48-C ) :   1.0368 B( 47-C , 52-C ) :   1.0855 B( 48-C , 49-C ) :   1.6659
B( 48-C , 87-H ) :   1.0244 B( 49-C , 50-C ) :   1.0868 B( 50-C , 51-N ) :   2.9718
B( 52-C , 53-C ) :   1.6213 B( 52-C , 88-H ) :   0.9830 B( 53-C , 54-C ) :   1.1762
B( 53-C , 89-H ) :   0.9475 B( 54-C , 55-O ) :   1.1805 B( 54-C , 58-C ) :   1.4457
B( 55-O , 56-C ) :   1.1390 B( 56-C , 57-C ) :   1.5790 B( 56-C , 90-H ) :   1.0029
B( 57-C , 58-C ) :   1.1901 B( 57-C , 91-H ) :   0.9892 B( 58-C , 59-C ) :   0.9324
B( 59-C , 60-O ) :   2.1455 B( 59-C , 61-O ) :   1.2442 B( 61-O , 92-H ) :   0.9594

-----------------------------------------------------------------------------
         ABSORPTION SPECTRUM VIA TRANSITION ELECTRIC DIPOLE MOMENTS
-----------------------------------------------------------------------------
State   Energy  Wavelength   fosc         T2         TX        TY        TZ
        (cm-1)    (nm)                  (au**2)     (au)      (au)      (au)
-----------------------------------------------------------------------------
   0    9647.4   1036.6   0.911403542  31.10127  -2.30447  -4.64759  -2.04709
   1   14790.6    676.1   0.070660214   1.57276  -0.04546  -1.02334  -0.72352
   2   16810.4    594.9   0.350274696   6.85972  -1.82710  -1.87648   0.01491
   3   19300.2    518.1   0.007161405   0.12216   0.12503  -0.13881  -0.29539
   4   23631.9    423.2   0.569540920   7.93418   0.82636   2.42729   1.16601
   5   23976.9    417.1   0.211450212   2.90329  -0.60829  -1.40834  -0.74151
   6   24832.6    402.7   0.008900242   0.11799   0.04081  -0.22195  -0.25897
   7   25904.7    386.0   0.111634126   1.41871  -0.43805   0.71405   0.84673
   8   26749.8    373.8   0.010465358   0.12880  -0.05838   0.28743   0.20682
   9   27107.8    368.9   0.069415445   0.84302  -0.15029   0.59836   0.68000
  10   28458.3    351.4   0.252900829   2.92561  -0.21820  -1.29034  -1.10137
  11   29388.3    340.3   0.171660060   1.92296   0.12077   1.05930   0.88671
  12   29742.5    336.2   0.028998233   0.32097   0.16808   0.46179   0.28191
  13   30495.2    327.9   0.000191023   0.00206   0.01883   0.00462  -0.04106
  14   31519.6    317.3   0.494240506   5.16218   1.25161   1.89612  -0.01917
  15   31949.3    313.0   0.004985366   0.05137   0.11978   0.05544  -0.18426
  16   32137.9    311.2   0.038286693   0.39220   0.22447  -0.11025  -0.57416
  17   32809.6    304.8   0.001606446   0.01612   0.10455   0.06758  -0.02490
  18   33241.3    300.8   0.399807490   3.95958  -0.37093   1.42621   1.33713
  19   35061.2    285.2   0.071107961   0.66768  -0.64744  -0.49828   0.01458
  20   35146.3    284.5   0.033244861   0.31140  -0.42182  -0.35168   0.09894
  21   35255.3    283.6   0.153098249   1.42962  -0.77776  -0.74274   0.52254
  22   35796.3    279.4   0.030281727   0.27850  -0.37277  -0.35024  -0.12990
  23   35977.1    278.0   0.417724849   3.82243   0.12105  -1.40696  -1.35212
  24   36203.3    276.2   0.028476830   0.25895  -0.01163  -0.37562  -0.34311
  25   37131.9    269.3   0.004421864   0.03920   0.15022   0.12664  -0.02452
  26   38131.6    262.2   0.000383118   0.00331   0.01750  -0.01727  -0.05199
  27   38227.4    261.6   0.001109031   0.00955   0.01516   0.06908   0.06745
  28   38338.0    260.8   0.003210453   0.02757  -0.01868   0.13118   0.10006
  29   38714.5    258.3   0.027873456   0.23702   0.26951   0.38870   0.11533
  30   40278.9    248.3   0.014368833   0.11744   0.26004  -0.07593  -0.20989

FINAL SINGLE POINT ENERGY     -3192.178374339217

DIPOLE MOMENT
-------------
                                X             Y             Z
Electronic contribution:    -18.24921       6.34904       2.98765
Nuclear contribution   :     18.06236      -8.91234      -4.95560
                        -----------------------------------------
Total Dipole Moment    :     -0.18685      -2.56330      -1.96795
                        -----------------------------------------
Magnitude (a.u.)       :      3.23702
Magnitude (Debye)      :      8.22784

Rotational constants in cm-1:     0.003873     0.000263     0.000248
Rotational constants in MHz :   116.106443     7.891718     7.448714

                             ****ORCA TERMINATED NORMALLY****
TOTAL RUN TIME: 0 days 0 hours 10 minutes 19 seconds 444 msec
