                         Program Version 4.2.0 -  RELEASE  -
|  1> # ORCA input file
|  2> # SCF done       -127.494204438006          0.000667439299
|  3> ! CAM-B3LYP def2-SVP def2/J RIJCOSX Grid4 TightSCF
|  4> %maxcore 5000
|  5> %tddft
|  6>     Mode sTDDFT
|  7>     Ethresh 5.0
|  8>     maxcore 5000
|  9> end
| 10>
| 11> %pal
| 12>   nprocs 6
| 13>   end
| 14> * xyz 0 1
| 15>    C       -5.18277        -0.88151        -0.93134
| 16>    C       -4.26675        -2.08881        -0.84325
| 17>    O       -4.44046        -3.26065        -0.74037
| 18>    C       -3.94727        -0.01241        -1.07924
| 19>    O       -3.76056         1.15042        -1.24240
| 20>    C       -2.99913        -1.22285        -0.97047
| 21>    C       -2.13204        -1.48621        -2.14257
| 22>    S       -2.82261        -1.60834        -3.73063
| 23>    C       -1.26470        -1.88206        -4.45058
| 24>    C       -0.27399        -1.87630        -3.47059
| 25>    C       -0.77946        -1.65098        -2.16858
| 26>    C        1.09553        -2.07730        -3.69747
| 27>    N        2.22404        -2.24064        -3.83509
| 28>    C       -1.18813        -2.06105        -5.85536
| 29>    C       -0.03941        -2.23183        -6.55921
| 30>    C       -0.02897        -2.39091        -7.96683
| 31>    N        1.12338        -2.55279        -8.70293
| 32>    C        2.46782        -2.65461        -8.18710
| 33>    C        2.74875        -4.03059        -7.58948
| 34>    C        0.85928        -2.66105       -10.07655
| 35>    O        1.72505        -2.80110       -10.92091
| 36>    C       -0.57780        -2.55309       -10.17563
| 37>    C       -1.09467        -2.39118        -8.86418
| 38>    C       -2.53120        -2.28164        -8.96413
| 39>    O       -3.40080        -2.13785        -8.12466
| 40>    N       -2.79444        -2.39079       -10.33911
| 41>    C       -4.13725        -2.27955       -10.85348
| 42>    C       -4.41899        -0.88739       -11.41391
| 43>    C       -1.64042        -2.54328       -11.07571
| 44>    C       -1.61528        -2.66079       -12.48683
| 45>    C       -0.46040        -2.77849       -13.18929
| 46>    C       -0.39126        -2.87337       -14.60081
| 47>    S       -1.80717        -2.86112       -15.62500
| 48>    C       -0.85276        -2.98624       -17.06472
| 49>    C        0.50265        -3.03453       -16.74704
| 50>    C        0.75096        -2.97182       -15.36312
| 51>    C        1.55112        -3.12973       -17.67803
| 52>    N        2.43668        -3.20953       -18.40368
| 53>    C       -1.52060        -3.02151       -18.32910
| 54>    C       -0.92193        -3.11469       -19.52354
| 55>    C       -1.65628        -3.14302       -20.81307
| 56>    C       -1.19065        -4.24388       -21.78311
| 57>    O       -1.29789        -5.42842       -21.77661
| 58>    C       -1.13559        -2.13715       -21.85697
| 59>    O       -1.18248        -0.95112       -21.93266
| 60>    C       -0.57920        -3.23774       -22.74116
| 61>    H       -5.79379        -0.68696        -0.05020
| 62>    H       -5.84340        -0.87791        -1.79899
| 63>    H       -2.39430        -1.21138        -0.06005
| 64>    H       -0.15139        -1.61500        -1.29593
| 65>    H       -2.13332        -2.05016        -6.38332
| 66>    H        0.91064        -2.23822        -6.04795
| 67>    H        2.63753        -1.87050        -7.44418
| 68>    H        3.12974        -2.48264        -9.04057
| 69>    H        2.08695        -4.23533        -6.75115
| 70>    H        3.77522        -4.07186        -7.23705
| 71>    H        2.60608        -4.80121        -8.34333
| 72>    H       -4.80130        -2.47408       -10.00642
| 73>    H       -4.30302        -3.04725       -11.61465
| 74>    H       -4.28702        -0.14140       -10.63410
| 75>    H       -5.44243        -0.83582       -11.77491
| 76>    H       -3.74488        -0.65248       -12.23467
| 77>    H       -2.55859        -2.64875       -13.01664
| 78>    H        0.48784        -2.79457       -12.66691
| 79>    H        1.73771        -2.99571       -14.93603
| 80>    H       -2.60061        -2.96530       -18.27377
| 81>    H        0.15396        -3.17082       -19.59660
| 82>    H       -2.73541        -3.10732       -20.64852
| 83>    H        0.51104        -3.26703       -22.76776
| 84>    H       -0.93596        -3.26406       -23.77046
| 85> *
| 86>
| 87>                          ****END OF INPUT****

CARTESIAN COORDINATES (ANGSTROEM)
---------------------------------
  C     -5.182770   -0.881510   -0.931340
  C     -4.266750   -2.088810   -0.843250
  O     -4.440460   -3.260650   -0.740370
  C     -3.947270   -0.012410   -1.079240
  O     -3.760560    1.150420   -1.242400
  C     -2.999130   -1.222850   -0.970470
  C     -2.132040   -1.486210   -2.142570
  S     -2.822610   -1.608340   -3.730630
  C     -1.264700   -1.882060   -4.450580
  C     -0.273990   -1.876300   -3.470590
  C     -0.779460   -1.650980   -2.168580
  C      1.095530   -2.077300   -3.697470
  N      2.224040   -2.240640   -3.835090
  C     -1.188130   -2.061050   -5.855360
  C     -0.039410   -2.231830   -6.559210
  C     -0.028970   -2.390910   -7.966830
  N      1.123380   -2.552790   -8.702930
  C      2.467820   -2.654610   -8.187100
  C      2.748750   -4.030590   -7.589480
  C      0.859280   -2.661050  -10.076550
  O      1.725050   -2.801100  -10.920910
  C     -0.577800   -2.553090  -10.175630
  C     -1.094670   -2.391180   -8.864180
  C     -2.531200   -2.281640   -8.964130
  O     -3.400800   -2.137850   -8.124660
  N     -2.794440   -2.390790  -10.339110
  C     -4.137250   -2.279550  -10.853480
  C     -4.418990   -0.887390  -11.413910
  C     -1.640420   -2.543280  -11.075710
  C     -1.615280   -2.660790  -12.486830
  C     -0.460400   -2.778490  -13.189290
  C     -0.391260   -2.873370  -14.600810
  S     -1.807170   -2.861120  -15.625000
  C     -0.852760   -2.986240  -17.064720
  C      0.502650   -3.034530  -16.747040
  C      0.750960   -2.971820  -15.363120
  C      1.551120   -3.129730  -17.678030
  N      2.436680   -3.209530  -18.403680
  C     -1.520600   -3.021510  -18.329100
  C     -0.921930   -3.114690  -19.523540
  C     -1.656280   -3.143020  -20.813070
  C     -1.190650   -4.243880  -21.783110
  O     -1.297890   -5.428420  -21.776610
  C     -1.135590   -2.137150  -21.856970
  O     -1.182480   -0.951120  -21.932660
  C     -0.579200   -3.237740  -22.741160
  H     -5.793790   -0.686960   -0.050200
  H     -5.843400   -0.877910   -1.798990
  H     -2.394300   -1.211380   -0.060050
  H     -0.151390   -1.615000   -1.295930
  H     -2.133320   -2.050160   -6.383320
  H      0.910640   -2.238220   -6.047950
  H      2.637530   -1.870500   -7.444180
  H      3.129740   -2.482640   -9.040570
  H      2.086950   -4.235330   -6.751150
  H      3.775220   -4.071860   -7.237050
  H      2.606080   -4.801210   -8.343330
  H     -4.801300   -2.474080  -10.006420
  H     -4.303020   -3.047250  -11.614650
  H     -4.287020   -0.141400  -10.634100
  H     -5.442430   -0.835820  -11.774910
  H     -3.744880   -0.652480  -12.234670
  H     -2.558590   -2.648750  -13.016640
  H      0.487840   -2.794570  -12.666910
  H      1.737710   -2.995710  -14.936030
  H     -2.600610   -2.965300  -18.273770
  H      0.153960   -3.170820  -19.596600
  H     -2.735410   -3.107320  -20.648520
  H      0.511040   -3.267030  -22.767760
  H     -0.935960   -3.264060  -23.770460

 Total Charge           Charge          ....    0
 Multiplicity           Mult            ....    1
 Number of Electrons    NEL             ....  336
 Basis Dimension        Dim             ....  772

ORBITAL ENERGIES
----------------

  NO   OCC          E(Eh)            E(eV)
   0   2.0000     -88.981235     -2421.3025
   1   2.0000     -88.979951     -2421.2675
   2   2.0000     -19.240086      -523.5494
   3   2.0000     -19.239981      -523.5465
   4   2.0000     -19.233205      -523.3621
   5   2.0000     -19.232978      -523.3559
   6   2.0000     -19.194012      -522.2956
   7   2.0000     -19.189901      -522.1838
   8   2.0000     -14.455570      -393.3561
   9   2.0000     -14.452324      -393.2677
  10   2.0000     -14.415215      -392.2579
  11   2.0000     -14.412756      -392.1910
  12   2.0000     -10.384862      -282.5865
  13   2.0000     -10.384730      -282.5829
  14   2.0000     -10.377983      -282.3993
  15   2.0000     -10.377786      -282.3939
  16   2.0000     -10.376136      -282.3490
  17   2.0000     -10.372721      -282.2561
  18   2.0000     -10.340915      -281.3906
  19   2.0000     -10.338102      -281.3141
  20   2.0000     -10.337767      -281.3049
  21   2.0000     -10.334054      -281.2039
  22   2.0000     -10.330111      -281.0966
  23   2.0000     -10.321432      -280.8604
  24   2.0000     -10.320572      -280.8370
  25   2.0000     -10.320462      -280.8340
  26   2.0000     -10.316533      -280.7271
  27   2.0000     -10.314062      -280.6599
  28   2.0000     -10.311868      -280.6002
  29   2.0000     -10.311529      -280.5910
  30   2.0000     -10.306116      -280.4437
  31   2.0000     -10.303806      -280.3808
  32   2.0000     -10.303321      -280.3676
  33   2.0000     -10.302432      -280.3434
  34   2.0000     -10.302219      -280.3376
  35   2.0000     -10.300338      -280.2864
  36   2.0000     -10.299336      -280.2592
  37   2.0000     -10.299272      -280.2574
  38   2.0000     -10.298256      -280.2298
  39   2.0000     -10.294985      -280.1408
  40   2.0000     -10.294571      -280.1295
  41   2.0000     -10.292043      -280.0607
  42   2.0000     -10.267469      -279.3920
  43   2.0000     -10.262095      -279.2458
  44   2.0000     -10.260591      -279.2049
  45   2.0000     -10.257116      -279.1103
  46   2.0000      -8.076935      -219.7846
  47   2.0000      -8.075541      -219.7466
  48   2.0000      -6.046080      -164.5222
  49   2.0000      -6.044592      -164.4817
  50   2.0000      -6.041965      -164.4102
  51   2.0000      -6.040681      -164.3753
  52   2.0000      -6.039226      -164.3357
  53   2.0000      -6.037887      -164.2993
  54   2.0000      -1.160250       -31.5720
  55   2.0000      -1.154030       -31.4027
  56   2.0000      -1.153136       -31.3784
  57   2.0000      -1.147009       -31.2117
  58   2.0000      -1.134571       -30.8733
  59   2.0000      -1.126924       -30.6652
  60   2.0000      -1.064500       -28.9665
  61   2.0000      -1.055742       -28.7282
  62   2.0000      -1.019224       -27.7345
  63   2.0000      -1.017419       -27.6854
  64   2.0000      -0.995141       -27.0792
  65   2.0000      -0.991939       -26.9920
  66   2.0000      -0.968078       -26.3427
  67   2.0000      -0.967436       -26.3253
  68   2.0000      -0.931094       -25.3364
  69   2.0000      -0.924548       -25.1582
  70   2.0000      -0.915130       -24.9020
  71   2.0000      -0.900098       -24.4929
  72   2.0000      -0.876451       -23.8494
  73   2.0000      -0.873459       -23.7680
  74   2.0000      -0.868096       -23.6221
  75   2.0000      -0.860295       -23.4098
  76   2.0000      -0.849808       -23.1245
  77   2.0000      -0.819846       -22.3092
  78   2.0000      -0.814164       -22.1545
  79   2.0000      -0.803245       -21.8574
  80   2.0000      -0.780801       -21.2467
  81   2.0000      -0.770778       -20.9739
  82   2.0000      -0.760318       -20.6893
  83   2.0000      -0.729446       -19.8492
  84   2.0000      -0.724234       -19.7074
  85   2.0000      -0.711841       -19.3702
  86   2.0000      -0.706411       -19.2224
  87   2.0000      -0.692621       -18.8472
  88   2.0000      -0.684479       -18.6256
  89   2.0000      -0.682310       -18.5666
  90   2.0000      -0.673915       -18.3382
  91   2.0000      -0.650887       -17.7115
  92   2.0000      -0.649913       -17.6850
  93   2.0000      -0.641929       -17.4678
  94   2.0000      -0.640318       -17.4239
  95   2.0000      -0.639198       -17.3935
  96   2.0000      -0.631886       -17.1945
  97   2.0000      -0.617001       -16.7895
  98   2.0000      -0.603298       -16.4166
  99   2.0000      -0.595421       -16.2022
 100   2.0000      -0.590707       -16.0740
 101   2.0000      -0.587363       -15.9830
 102   2.0000      -0.582772       -15.8580
 103   2.0000      -0.578058       -15.7298
 104   2.0000      -0.573761       -15.6128
 105   2.0000      -0.572942       -15.5905
 106   2.0000      -0.568662       -15.4741
 107   2.0000      -0.566023       -15.4023
 108   2.0000      -0.558467       -15.1967
 109   2.0000      -0.552180       -15.0256
 110   2.0000      -0.539746       -14.6872
 111   2.0000      -0.539400       -14.6778
 112   2.0000      -0.536768       -14.6062
 113   2.0000      -0.533710       -14.5230
 114   2.0000      -0.531895       -14.4736
 115   2.0000      -0.528985       -14.3944
 116   2.0000      -0.527247       -14.3471
 117   2.0000      -0.519574       -14.1383
 118   2.0000      -0.517283       -14.0760
 119   2.0000      -0.516684       -14.0597
 120   2.0000      -0.515072       -14.0158
 121   2.0000      -0.508223       -13.8294
 122   2.0000      -0.503271       -13.6947
 123   2.0000      -0.502236       -13.6665
 124   2.0000      -0.500981       -13.6324
 125   2.0000      -0.500351       -13.6153
 126   2.0000      -0.495531       -13.4841
 127   2.0000      -0.493036       -13.4162
 128   2.0000      -0.491173       -13.3655
 129   2.0000      -0.483224       -13.1492
 130   2.0000      -0.482365       -13.1258
 131   2.0000      -0.477739       -12.9999
 132   2.0000      -0.476974       -12.9791
 133   2.0000      -0.470255       -12.7963
 134   2.0000      -0.469237       -12.7686
 135   2.0000      -0.465856       -12.6766
 136   2.0000      -0.458486       -12.4760
 137   2.0000      -0.456952       -12.4343
 138   2.0000      -0.452739       -12.3197
 139   2.0000      -0.451804       -12.2942
 140   2.0000      -0.446636       -12.1536
 141   2.0000      -0.445580       -12.1248
 142   2.0000      -0.442630       -12.0446
 143   2.0000      -0.440614       -11.9897
 144   2.0000      -0.440003       -11.9731
 145   2.0000      -0.438885       -11.9427
 146   2.0000      -0.436170       -11.8688
 147   2.0000      -0.435050       -11.8383
 148   2.0000      -0.432984       -11.7821
 149   2.0000      -0.427395       -11.6300
 150   2.0000      -0.420504       -11.4425
 151   2.0000      -0.410774       -11.1777
 152   2.0000      -0.410249       -11.1634
 153   2.0000      -0.408279       -11.1098
 154   2.0000      -0.386172       -10.5083
 155   2.0000      -0.362850        -9.8736
 156   2.0000      -0.360437        -9.8080
 157   2.0000      -0.352630        -9.5955
 158   2.0000      -0.349455        -9.5092
 159   2.0000      -0.341038        -9.2801
 160   2.0000      -0.340498        -9.2654
 161   2.0000      -0.336219        -9.1490
 162   2.0000      -0.333029        -9.0622
 163   2.0000      -0.324581        -8.8323
 164   2.0000      -0.315600        -8.5879
 165   2.0000      -0.300193        -8.1687
 166   2.0000      -0.287315        -7.8182
 167   2.0000      -0.235289        -6.4025
 168   0.0000      -0.093653        -2.5484
 169   0.0000      -0.057061        -1.5527
 170   0.0000      -0.029757        -0.8097
 171   0.0000      -0.025635        -0.6976
 172   0.0000      -0.019335        -0.5261

MULLIKEN ATOMIC CHARGES
-----------------------
   0 C :    0.023634
   1 C :    0.026951
   2 O :   -0.106483
   3 C :    0.030792
   4 O :   -0.108020
   5 C :   -0.075443
   6 C :   -0.040815
   7 S :    0.168353
   8 C :   -0.059005
   9 C :   -0.090916
  10 C :    0.032772
  11 C :   -0.169090
  12 N :    0.111625
  13 C :    0.057682
  14 C :   -0.037084
  15 C :    0.132998
  16 N :   -0.255931
  17 C :    0.092778
  18 C :    0.008973
  19 C :    0.163333
  20 O :   -0.216185
  21 C :   -0.067117
  22 C :   -0.062454
  23 C :    0.164438
  24 O :   -0.214682
  25 N :   -0.258644
  26 C :    0.097718
  27 C :    0.003244
  28 C :    0.138071
  29 C :   -0.043020
  30 C :    0.044489
  31 C :   -0.048608
  32 S :    0.132699
  33 C :   -0.060682
  34 C :   -0.062782
  35 C :    0.024551
  36 C :   -0.171064
  37 N :    0.110190
  38 C :    0.059469
  39 C :    0.039939
  40 C :   -0.100424
  41 C :    0.033926
  42 O :   -0.116621
  43 C :    0.033896
  44 O :   -0.116470
  45 C :    0.021878
  46 H :    0.083241
  47 H :    0.083426
  48 H :    0.058192
  49 H :   -0.004854
  50 H :    0.003505
  51 H :   -0.013561
  52 H :    0.035583
  53 H :    0.041863
  54 H :    0.018991
  55 H :    0.028404
  56 H :    0.024002
  57 H :    0.043913
  58 H :    0.023274
  59 H :    0.030868
  60 H :    0.023211
  61 H :    0.016472
  62 H :   -0.022073
  63 H :    0.020971
  64 H :    0.013006
  65 H :   -0.011895
  66 H :    0.017133
  67 H :    0.048105
  68 H :    0.088114
  69 H :    0.077248
Sum of atomic charges:    0.0000000

LOEWDIN ATOMIC CHARGES
----------------------
   0 C :   -0.085560
   1 C :    0.076612
   2 O :   -0.089372
   3 C :    0.077775
   4 O :   -0.089806
   5 C :   -0.100051
   6 C :   -0.156124
   7 S :    0.473181
   8 C :   -0.136595
   9 C :   -0.104530
  10 C :   -0.026222
  11 C :   -0.025490
  12 N :   -0.062040
  13 C :   -0.004998
  14 C :   -0.029813
  15 C :    0.072246
  16 N :    0.003733
  17 C :    0.036274
  18 C :   -0.059102
  19 C :    0.079213
  20 O :   -0.206686
  21 C :   -0.123259
  22 C :   -0.118704
  23 C :    0.080910
  24 O :   -0.204971
  25 N :   -0.000439
  26 C :    0.035941
  27 C :   -0.061325
  28 C :    0.077339
  29 C :   -0.060914
  30 C :    0.018625
  31 C :   -0.170359
  32 S :    0.457745
  33 C :   -0.128562
  34 C :   -0.110432
  35 C :   -0.003910
  36 C :   -0.025175
  37 N :   -0.059049
  38 C :   -0.048475
  39 C :    0.020042
  40 C :   -0.087405
  41 C :    0.085034
  42 O :   -0.094555
  43 C :    0.085288
  44 O :   -0.094650
  45 C :   -0.083873
  46 H :    0.064706
  47 H :    0.066972
  48 H :    0.066430
  49 H :    0.040659
  50 H :    0.036188
  51 H :    0.035721
  52 H :    0.027423
  53 H :    0.037231
  54 H :    0.023623
  55 H :    0.033681
  56 H :    0.029647
  57 H :    0.037825
  58 H :    0.022875
  59 H :    0.032761
  60 H :    0.030548
  61 H :    0.022003
  62 H :    0.020921
  63 H :    0.044979
  64 H :    0.047322
  65 H :    0.031465
  66 H :    0.034849
  67 H :    0.053420
  68 H :    0.070123
  69 H :    0.061113

  Mayer bond orders larger than 0.100000
B(  0-C ,  1-C ) :   0.9813 B(  0-C ,  3-C ) :   0.9807 B(  0-C ,  5-C ) :  -0.1182
B(  0-C , 46-H ) :   0.9029 B(  0-C , 47-H ) :   0.8998 B(  1-C ,  2-O ) :   2.2964
B(  1-C ,  5-C ) :   0.8750 B(  3-C ,  4-O ) :   2.2951 B(  3-C ,  5-C ) :   0.8777
B(  5-C ,  6-C ) :   1.0494 B(  5-C , 48-H ) :   0.8772 B(  6-C ,  7-S ) :   1.1330
B(  6-C , 10-C ) :   1.5589 B(  7-S ,  8-C ) :   1.1479 B(  8-C ,  9-C ) :   1.4570
B(  8-C , 13-C ) :   1.1504 B(  9-C , 10-C ) :   1.2532 B(  9-C , 11-C ) :   1.1309
B( 10-C , 49-H ) :   1.0134 B( 11-C , 12-N ) :   2.9628 B( 13-C , 14-C ) :   1.6223
B( 13-C , 50-H ) :   0.9219 B( 14-C , 15-C ) :   1.1662 B( 14-C , 51-H ) :   0.9498
B( 15-C , 16-N ) :   1.1613 B( 15-C , 22-C ) :   1.3375 B( 16-N , 17-C ) :   0.9399
B( 16-N , 19-C ) :   1.0674 B( 17-C , 18-C ) :   1.1230 B( 17-C , 52-H ) :   0.9483
B( 17-C , 53-H ) :   0.9272 B( 18-C , 54-H ) :   0.9676 B( 18-C , 55-H ) :   0.9676
B( 18-C , 56-H ) :   0.9633 B( 19-C , 20-O ) :   2.0157 B( 19-C , 21-C ) :   0.9909
B( 20-O , 63-H ) :   0.1192 B( 21-C , 22-C ) :   1.2499 B( 21-C , 28-C ) :   1.3415
B( 22-C , 23-C ) :   0.9894 B( 23-C , 24-O ) :   2.0180 B( 23-C , 25-N ) :   1.0624
B( 24-O , 50-H ) :   0.1171 B( 25-N , 26-C ) :   0.9479 B( 25-N , 28-C ) :   1.1557
B( 26-C , 27-C ) :   1.1194 B( 26-C , 57-H ) :   0.9281 B( 26-C , 58-H ) :   0.9502
B( 27-C , 59-H ) :   0.9637 B( 27-C , 60-H ) :   0.9681 B( 27-C , 61-H ) :   0.9684
B( 28-C , 29-C ) :   1.1725 B( 29-C , 30-C ) :   1.5801 B( 29-C , 62-H ) :   0.9590
B( 30-C , 31-C ) :   1.1524 B( 30-C , 63-H ) :   0.9514 B( 31-C , 32-S ) :   1.0903
B( 31-C , 35-C ) :   1.4656 B( 32-S , 33-C ) :   1.1497 B( 33-C , 34-C ) :   1.4712
B( 33-C , 38-C ) :   1.1081 B( 34-C , 35-C ) :   1.2656 B( 34-C , 36-C ) :   1.1099
B( 35-C , 64-H ) :   1.0131 B( 36-C , 37-N ) :   2.9662 B( 38-C , 39-C ) :   1.8222
B( 38-C , 65-H ) :   0.9537 B( 39-C , 40-C ) :   1.0202 B( 39-C , 66-H ) :   0.9477
B( 40-C , 41-C ) :   0.8773 B( 40-C , 43-C ) :   0.8780 B( 40-C , 45-C ) :  -0.1188
B( 40-C , 67-H ) :   0.8980 B( 41-C , 42-O ) :   2.2841 B( 41-C , 45-C ) :   0.9784
B( 43-C , 44-O ) :   2.2839 B( 43-C , 45-C ) :   0.9784 B( 45-C , 68-H ) :   0.9042
B( 45-C , 69-H ) :   0.9053

-----------------------------------------------------------------------------
         ABSORPTION SPECTRUM VIA TRANSITION ELECTRIC DIPOLE MOMENTS
-----------------------------------------------------------------------------
State   Energy  Wavelength   fosc         T2         TX        TY        TZ
        (cm-1)    (nm)                  (au**2)     (au)      (au)      (au)
-----------------------------------------------------------------------------
   0   15263.8    655.1   0.922878716  19.90483   0.63622   0.34399   4.40247
   1   23426.7    426.9   0.010879399   0.15289  -0.10795   0.03193  -0.37445
   2   26894.1    371.8   0.139798558   1.71128   0.20843  -0.08068  -1.28893
   3   27357.9    365.5   0.508439299   6.11831   0.46016  -0.18544  -2.42326
   4   28640.0    349.2   0.096953011   1.11446  -0.45096   0.20064   0.93319
   5   29161.6    342.9   0.003923660   0.04430  -0.05801   0.11029   0.16961
   6   30068.7    332.6   0.000257744   0.00282   0.00358   0.05296  -0.00215
   7   30569.6    327.1   0.342128944   3.68448  -0.67168   0.24663   1.78115
   8   32428.4    308.4   0.000235182   0.00239  -0.00755   0.00361  -0.04814
   9   34770.1    287.6   0.000014589   0.00014  -0.00342   0.00153  -0.01114
  10   34910.1    286.5   0.054898321   0.51771  -0.40588   0.03939  -0.59280
  11   35026.8    285.5   0.010804018   0.10155  -0.13964  -0.07394  -0.27673
  12   36586.5    273.3   0.150850127   1.35738  -0.98448   0.16035   0.60205
  13   37506.2    266.6   0.106903705   0.93835   0.38473   0.01675   0.88885
  14   37784.4    264.7   0.021826825   0.19017   0.06680  -0.06184  -0.42649
  15   38806.3    257.7   0.096337667   0.81728   0.79765  -0.10861  -0.41138
  16   39272.6    254.6   0.148010318   1.24073  -0.84107   0.11151   0.72173
  17   39957.9    250.3   0.134360803   1.10700  -0.83010   0.14512   0.62998

FINAL SINGLE POINT ENERGY     -2774.005529815425

DIPOLE MOMENT
-------------
                                X             Y             Z
Electronic contribution:     -1.39006       0.81656       4.93522
Nuclear contribution   :     -0.86007      -0.48814      -4.20526
                        -----------------------------------------
Total Dipole Moment    :     -2.25013       0.32842       0.72996
                        -----------------------------------------
Magnitude (a.u.)       :      2.38826
Magnitude (Debye)      :      6.07047

Rotational constants in cm-1:     0.005772     0.000536     0.000503
Rotational constants in MHz :   173.035037    16.054091    15.066348

                             ****ORCA TERMINATED NORMALLY****
TOTAL RUN TIME: 0 days 0 hours 3 minutes 59 seconds 749 msec
