                         Program Version 4.2.0 -  RELEASE  -
|  1> # ORCA input file
|  2> # SCF done       -222.200716842649          0.000772512901
|  3> ! CAM-B3LYP def2-SVP def2/J RIJCOSX Grid4 TightSCF
|  4> %maxcore 5000
|  5> %tddft
|  6>     Mode sTDDFT
|  7>     Ethresh 5.0
|  8>     maxcore 5000
|  9> end
| 10>
| 11> %pal
| 12>   nprocs 6
| 13>   end
| 14> * xyz 0 1
| 15>    C        2.31544        -0.53331        -6.66561
| 16>    S        3.53320         0.62191        -6.35995
| 17>    C        2.35895         1.81909        -5.88880
| 18>    C        1.07776         1.31643        -6.00881
| 19>    C        1.06573        -0.03461        -6.43703
| 20>    C       -0.20157        -0.78575        -6.70521
| 21>    F       -0.45510        -0.73843        -8.06769
| 22>    C       -1.37928        -0.13971        -5.96920
| 23>    F       -2.54019        -0.75635        -6.35207
| 24>    C       -1.41072         1.35152        -6.31285
| 25>    F       -2.54794         1.93146        -5.82214
| 26>    C       -0.19227         2.04481        -5.68859
| 27>    F       -0.35703         2.03524        -4.30648
| 28>    C        2.84564         3.10536        -5.49217
| 29>    C        2.15860         4.02939        -4.79386
| 30>    C        2.64374         5.36030        -4.55550
| 31>    C        1.92485         6.49823        -4.85721
| 32>    N        0.65124         6.54948        -5.44765
| 33>    O        0.12536         5.49489        -5.77693
| 34>    O        0.15139         7.64553        -5.61735
| 35>    C        2.74258         7.66719        -4.63017
| 36>    C        3.94838         7.25762        -4.17889
| 37>    C        3.94397         5.81895        -4.03783
| 38>    C        4.89122         5.03995        -3.41430
| 39>    C        4.84183         3.61447        -3.19815
| 40>    C        6.05528         3.18669        -2.78447
| 41>    C        6.93705         4.32599        -2.68528
| 42>    N        8.22359         4.21532        -2.12262
| 43>    O        8.65989         3.09091        -1.95548
| 44>    O        8.81777         5.23243        -1.79869
| 45>    C        6.23830         5.47818        -2.99869
| 46>    C        6.73551         6.81630        -2.94315
| 47>    C        7.90740         7.19475        -3.50865
| 48>    C        8.52623         8.46804        -3.48381
| 49>    N        8.38634         9.48932        -2.57287
| 50>    C        7.73908         9.44052        -1.27963
| 51>    C        8.41644         8.44216        -0.34634
| 52>    C        9.18898        10.59169        -2.90827
| 53>    O        9.25008        11.61028        -2.24142
| 54>    C        9.83948        10.21624        -4.14366
| 55>    C        9.42391         8.91013        -4.45935
| 56>    C       10.05520         8.51668        -5.70405
| 57>    O        9.98979         7.50732        -6.36725
| 58>    N       10.84769         9.63217        -6.04925
| 59>    C       11.61726         9.65363        -7.26963
| 60>    C       10.90842        10.43730        -8.37161
| 61>    C       10.72938        10.65349        -5.13996
| 62>    C       11.40848        11.88204        -5.21993
| 63>    C       11.24451        12.84153        -4.25823
| 64>    C       11.88716        14.08322        -4.23105
| 65>    S       12.99483        14.60337        -5.45552
| 66>    C       13.32392        16.11397        -4.67895
| 67>    C       12.56847        16.22620        -3.48777
| 68>    C       11.76170        15.07261        -3.23510
| 69>    C       10.95027        14.99633        -2.09319
| 70>    C       10.91728        16.05733        -1.21746
| 71>    C       10.11061        16.00447        -0.05627
| 72>    N        9.45287        15.95799         0.88021
| 73>    C       11.68663        17.22785        -1.48216
| 74>    C       11.61473        18.32511        -0.59144
| 75>    N       11.57295        19.22177         0.12001
| 76>    C       12.49312        17.30886        -2.59478
| 77>    C       14.24927        17.04046        -5.23332
| 78>    S       14.93011        18.30763        -4.24821
| 79>    C       15.84698        18.96177        -5.55950
| 80>    C       15.61399        18.24205        -6.71227
| 81>    C       14.75532        17.13680        -6.52802
| 82>    C       14.42322        16.18731        -7.64183
| 83>    F       14.87756        14.91484        -7.34400
| 84>    C       15.05082        16.57068        -8.99512
| 85>    F       16.32970        16.08278        -9.07028
| 86>    C       15.11547        18.09031        -9.13906
| 87>    F       13.85170        18.58946        -8.94142
| 88>    C       16.08705        18.63130        -8.08253
| 89>    F       16.16769        19.99559        -8.22017
| 90>    C       16.69955        20.09028        -5.27805
| 91>    C       17.82333        20.39783        -5.91843
| 92>    H        2.57602        -1.51739        -7.00090
| 93>    H       -0.11880        -1.85054        -6.45732
| 94>    H       -1.28828        -0.27922        -4.88443
| 95>    H       -1.42421         1.49186        -7.40095
| 96>    H       -0.16842         3.10098        -5.98465
| 97>    H        3.85644         3.32821        -5.81147
| 98>    H        1.14595         3.84162        -4.47213
| 99>    H        2.41112         8.66855        -4.82748
|100>    H        4.78022         7.89341        -3.95837
|101>    H        3.96765         3.00993        -3.32496
|102>    H        6.35353         2.18802        -2.52906
|103>    H        6.11206         7.53224        -2.42831
|104>    H        8.42633         6.48769        -4.14374
|105>    H        6.67701         9.21446        -1.39669
|106>    H        7.82642        10.45202        -0.87129
|107>    H        8.43185         7.44296        -0.77485
|108>    H        7.88602         8.41193         0.60113
|109>    H        9.44258         8.74794        -0.15776
|110>    H       11.72863         8.60991        -7.57582
|111>    H       12.60784        10.07105        -7.06980
|112>    H        9.94525         9.98259        -8.58955
|113>    H       11.51021        10.42545        -9.27580
|114>    H       10.74432        11.47031        -8.07248
|115>    H       12.08086        12.05910        -6.04781
|116>    H       10.57032        12.63390        -3.43835
|117>    H       10.35296        14.11841        -1.90005
|118>    H       13.04422        18.21785        -2.76860
|119>    H       13.33282        16.09963        -7.75967
|120>    H       14.49156        16.10580        -9.81515
|121>    H       15.42889        18.39951       -10.14232
|122>    H       17.08982        18.23554        -8.30050
|123>    H       16.39041        20.67829        -4.42346
|124>    H       18.20270        19.82025        -6.74198
|125>    H       18.40692        21.25174        -5.62435
|126> *
|127>
|128>                          ****END OF INPUT****

CARTESIAN COORDINATES (ANGSTROEM)
---------------------------------
  C      2.315440   -0.533310   -6.665610
  S      3.533200    0.621910   -6.359950
  C      2.358950    1.819090   -5.888800
  C      1.077760    1.316430   -6.008810
  C      1.065730   -0.034610   -6.437030
  C     -0.201570   -0.785750   -6.705210
  F     -0.455100   -0.738430   -8.067690
  C     -1.379280   -0.139710   -5.969200
  F     -2.540190   -0.756350   -6.352070
  C     -1.410720    1.351520   -6.312850
  F     -2.547940    1.931460   -5.822140
  C     -0.192270    2.044810   -5.688590
  F     -0.357030    2.035240   -4.306480
  C      2.845640    3.105360   -5.492170
  C      2.158600    4.029390   -4.793860
  C      2.643740    5.360300   -4.555500
  C      1.924850    6.498230   -4.857210
  N      0.651240    6.549480   -5.447650
  O      0.125360    5.494890   -5.776930
  O      0.151390    7.645530   -5.617350
  C      2.742580    7.667190   -4.630170
  C      3.948380    7.257620   -4.178890
  C      3.943970    5.818950   -4.037830
  C      4.891220    5.039950   -3.414300
  C      4.841830    3.614470   -3.198150
  C      6.055280    3.186690   -2.784470
  C      6.937050    4.325990   -2.685280
  N      8.223590    4.215320   -2.122620
  O      8.659890    3.090910   -1.955480
  O      8.817770    5.232430   -1.798690
  C      6.238300    5.478180   -2.998690
  C      6.735510    6.816300   -2.943150
  C      7.907400    7.194750   -3.508650
  C      8.526230    8.468040   -3.483810
  N      8.386340    9.489320   -2.572870
  C      7.739080    9.440520   -1.279630
  C      8.416440    8.442160   -0.346340
  C      9.188980   10.591690   -2.908270
  O      9.250080   11.610280   -2.241420
  C      9.839480   10.216240   -4.143660
  C      9.423910    8.910130   -4.459350
  C     10.055200    8.516680   -5.704050
  O      9.989790    7.507320   -6.367250
  N     10.847690    9.632170   -6.049250
  C     11.617260    9.653630   -7.269630
  C     10.908420   10.437300   -8.371610
  C     10.729380   10.653490   -5.139960
  C     11.408480   11.882040   -5.219930
  C     11.244510   12.841530   -4.258230
  C     11.887160   14.083220   -4.231050
  S     12.994830   14.603370   -5.455520
  C     13.323920   16.113970   -4.678950
  C     12.568470   16.226200   -3.487770
  C     11.761700   15.072610   -3.235100
  C     10.950270   14.996330   -2.093190
  C     10.917280   16.057330   -1.217460
  C     10.110610   16.004470   -0.056270
  N      9.452870   15.957990    0.880210
  C     11.686630   17.227850   -1.482160
  C     11.614730   18.325110   -0.591440
  N     11.572950   19.221770    0.120010
  C     12.493120   17.308860   -2.594780
  C     14.249270   17.040460   -5.233320
  S     14.930110   18.307630   -4.248210
  C     15.846980   18.961770   -5.559500
  C     15.613990   18.242050   -6.712270
  C     14.755320   17.136800   -6.528020
  C     14.423220   16.187310   -7.641830
  F     14.877560   14.914840   -7.344000
  C     15.050820   16.570680   -8.995120
  F     16.329700   16.082780   -9.070280
  C     15.115470   18.090310   -9.139060
  F     13.851700   18.589460   -8.941420
  C     16.087050   18.631300   -8.082530
  F     16.167690   19.995590   -8.220170
  C     16.699550   20.090280   -5.278050
  C     17.823330   20.397830   -5.918430
  H      2.576020   -1.517390   -7.000900
  H     -0.118800   -1.850540   -6.457320
  H     -1.288280   -0.279220   -4.884430
  H     -1.424210    1.491860   -7.400950
  H     -0.168420    3.100980   -5.984650
  H      3.856440    3.328210   -5.811470
  H      1.145950    3.841620   -4.472130
  H      2.411120    8.668550   -4.827480
  H      4.780220    7.893410   -3.958370
  H      3.967650    3.009930   -3.324960
  H      6.353530    2.188020   -2.529060
  H      6.112060    7.532240   -2.428310
  H      8.426330    6.487690   -4.143740
  H      6.677010    9.214460   -1.396690
  H      7.826420   10.452020   -0.871290
  H      8.431850    7.442960   -0.774850
  H      7.886020    8.411930    0.601130
  H      9.442580    8.747940   -0.157760
  H     11.728630    8.609910   -7.575820
  H     12.607840   10.071050   -7.069800
  H      9.945250    9.982590   -8.589550
  H     11.510210   10.425450   -9.275800
  H     10.744320   11.470310   -8.072480
  H     12.080860   12.059100   -6.047810
  H     10.570320   12.633900   -3.438350
  H     10.352960   14.118410   -1.900050
  H     13.044220   18.217850   -2.768600
  H     13.332820   16.099630   -7.759670
  H     14.491560   16.105800   -9.815150
  H     15.428890   18.399510  -10.142320
  H     17.089820   18.235540   -8.300500
  H     16.390410   20.678290   -4.423460
  H     18.202700   19.820250   -6.741980
  H     18.406920   21.251740   -5.624350

 Total Charge           Charge          ....    0
 Multiplicity           Mult            ....    1
 Number of Electrons    NEL             ....  568
 Basis Dimension        Dim             .... 1260

ORBITAL ENERGIES
----------------

  NO   OCC          E(Eh)            E(eV)
   0   2.0000     -89.000513     -2421.8271
   1   2.0000     -88.987315     -2421.4679
   2   2.0000     -88.978396     -2421.2253
   3   2.0000     -24.791574      -674.6130
   4   2.0000     -24.789149      -674.5470
   5   2.0000     -24.784496      -674.4204
   6   2.0000     -24.775967      -674.1883
   7   2.0000     -24.760762      -673.7746
   8   2.0000     -24.756821      -673.6673
   9   2.0000     -24.755172      -673.6225
  10   2.0000     -24.752795      -673.5578
  11   2.0000     -19.244631      -523.6730
  12   2.0000     -19.244523      -523.6701
  13   2.0000     -19.243041      -523.6298
  14   2.0000     -19.239416      -523.5311
  15   2.0000     -19.203250      -522.5470
  16   2.0000     -19.197962      -522.4031
  17   2.0000     -14.652457      -398.7136
  18   2.0000     -14.651351      -398.6835
  19   2.0000     -14.464058      -393.5870
  20   2.0000     -14.459942      -393.4750
  21   2.0000     -14.413427      -392.2093
  22   2.0000     -14.411882      -392.1672
  23   2.0000     -10.387663      -282.6627
  24   2.0000     -10.386107      -282.6203
  25   2.0000     -10.385935      -282.6157
  26   2.0000     -10.381953      -282.5073
  27   2.0000     -10.380754      -282.4747
  28   2.0000     -10.380418      -282.4655
  29   2.0000     -10.363715      -282.0110
  30   2.0000     -10.360250      -281.9167
  31   2.0000     -10.355330      -281.7829
  32   2.0000     -10.355106      -281.7768
  33   2.0000     -10.354523      -281.7609
  34   2.0000     -10.354197      -281.7520
  35   2.0000     -10.344190      -281.4797
  36   2.0000     -10.339975      -281.3650
  37   2.0000     -10.338185      -281.3163
  38   2.0000     -10.337862      -281.3075
  39   2.0000     -10.335713      -281.2490
  40   2.0000     -10.334856      -281.2257
  41   2.0000     -10.334154      -281.2066
  42   2.0000     -10.333150      -281.1793
  43   2.0000     -10.332187      -281.1531
  44   2.0000     -10.330987      -281.1205
  45   2.0000     -10.327697      -281.0309
  46   2.0000     -10.325986      -280.9844
  47   2.0000     -10.324123      -280.9337
  48   2.0000     -10.322590      -280.8920
  49   2.0000     -10.321029      -280.8495
  50   2.0000     -10.320272      -280.8289
  51   2.0000     -10.318840      -280.7899
  52   2.0000     -10.317879      -280.7638
  53   2.0000     -10.317001      -280.7399
  54   2.0000     -10.315973      -280.7119
  55   2.0000     -10.312718      -280.6233
  56   2.0000     -10.311664      -280.5946
  57   2.0000     -10.310842      -280.5723
  58   2.0000     -10.309724      -280.5419
  59   2.0000     -10.309262      -280.5293
  60   2.0000     -10.307923      -280.4928
  61   2.0000     -10.305202      -280.4188
  62   2.0000     -10.304108      -280.3890
  63   2.0000     -10.303741      -280.3790
  64   2.0000     -10.301828      -280.3270
  65   2.0000     -10.301133      -280.3081
  66   2.0000     -10.301022      -280.3051
  67   2.0000     -10.300311      -280.2857
  68   2.0000     -10.299584      -280.2659
  69   2.0000     -10.297825      -280.2181
  70   2.0000     -10.290551      -280.0201
  71   2.0000     -10.288572      -279.9663
  72   2.0000     -10.287123      -279.9269
  73   2.0000     -10.274518      -279.5838
  74   2.0000     -10.274286      -279.5775
  75   2.0000     -10.268907      -279.4312
  76   2.0000     -10.256031      -279.0808
  77   2.0000      -8.094723      -220.2686
  78   2.0000      -8.082855      -219.9457
  79   2.0000      -8.074540      -219.7194
  80   2.0000      -6.063675      -165.0010
  81   2.0000      -6.059398      -164.8846
  82   2.0000      -6.057704      -164.8385
  83   2.0000      -6.052139      -164.6871
  84   2.0000      -6.047868      -164.5708
  85   2.0000      -6.044994      -164.4927
  86   2.0000      -6.043609      -164.4550
  87   2.0000      -6.039352      -164.3391
  88   2.0000      -6.037105      -164.2780
  89   2.0000      -1.322453       -35.9858
  90   2.0000      -1.321361       -35.9561
  91   2.0000      -1.314252       -35.7626
  92   2.0000      -1.304688       -35.5024
  93   2.0000      -1.290731       -35.1226
  94   2.0000      -1.287136       -35.0247
  95   2.0000      -1.282487       -34.8982
  96   2.0000      -1.273507       -34.6539
  97   2.0000      -1.262998       -34.3679
  98   2.0000      -1.256250       -34.1843
  99   2.0000      -1.143874       -31.1264
 100   2.0000      -1.140109       -31.0239
 101   2.0000      -1.138207       -30.9722
 102   2.0000      -1.135077       -30.8870
 103   2.0000      -1.074051       -29.2264
 104   2.0000      -1.062601       -28.9149
 105   2.0000      -1.039209       -28.2783
 106   2.0000      -1.022728       -27.8298
 107   2.0000      -1.019487       -27.7417
 108   2.0000      -1.009901       -27.4808
 109   2.0000      -1.006116       -27.3778
 110   2.0000      -1.002660       -27.2838
 111   2.0000      -0.992923       -27.0188
 112   2.0000      -0.969328       -26.3767
 113   2.0000      -0.943699       -25.6794
 114   2.0000      -0.939148       -25.5555
 115   2.0000      -0.933384       -25.3987
 116   2.0000      -0.927925       -25.2501
 117   2.0000      -0.918116       -24.9832
 118   2.0000      -0.915567       -24.9138
 119   2.0000      -0.914223       -24.8773
 120   2.0000      -0.910255       -24.7693
 121   2.0000      -0.896577       -24.3971
 122   2.0000      -0.886022       -24.1099
 123   2.0000      -0.884238       -24.0613
 124   2.0000      -0.878809       -23.9136
 125   2.0000      -0.868579       -23.6352
 126   2.0000      -0.866326       -23.5739
 127   2.0000      -0.861051       -23.4304
 128   2.0000      -0.856223       -23.2990
 129   2.0000      -0.848024       -23.0759
 130   2.0000      -0.840738       -22.8777
 131   2.0000      -0.833049       -22.6684
 132   2.0000      -0.825821       -22.4717
 133   2.0000      -0.822290       -22.3756
 134   2.0000      -0.812830       -22.1182
 135   2.0000      -0.791450       -21.5365
 136   2.0000      -0.783013       -21.3069
 137   2.0000      -0.771887       -21.0041
 138   2.0000      -0.768268       -20.9056
 139   2.0000      -0.765444       -20.8288
 140   2.0000      -0.759224       -20.6595
 141   2.0000      -0.750126       -20.4120
 142   2.0000      -0.739636       -20.1265
 143   2.0000      -0.738620       -20.0989
 144   2.0000      -0.733547       -19.9608
 145   2.0000      -0.728890       -19.8341
 146   2.0000      -0.724873       -19.7248
 147   2.0000      -0.715763       -19.4769
 148   2.0000      -0.704413       -19.1680
 149   2.0000      -0.699278       -19.0283
 150   2.0000      -0.695340       -18.9212
 151   2.0000      -0.692687       -18.8490
 152   2.0000      -0.683218       -18.5913
 153   2.0000      -0.676590       -18.4109
 154   2.0000      -0.674673       -18.3588
 155   2.0000      -0.673162       -18.3177
 156   2.0000      -0.659621       -17.9492
 157   2.0000      -0.656847       -17.8737
 158   2.0000      -0.653403       -17.7800
 159   2.0000      -0.648234       -17.6393
 160   2.0000      -0.646659       -17.5965
 161   2.0000      -0.641730       -17.4624
 162   2.0000      -0.640340       -17.4245
 163   2.0000      -0.639255       -17.3950
 164   2.0000      -0.635071       -17.2812
 165   2.0000      -0.633241       -17.2314
 166   2.0000      -0.628667       -17.1069
 167   2.0000      -0.624502       -16.9936
 168   2.0000      -0.621955       -16.9243
 169   2.0000      -0.618744       -16.8369
 170   2.0000      -0.617958       -16.8155
 171   2.0000      -0.615883       -16.7590
 172   2.0000      -0.614761       -16.7285
 173   2.0000      -0.610467       -16.6116
 174   2.0000      -0.610009       -16.5992
 175   2.0000      -0.605219       -16.4688
 176   2.0000      -0.602167       -16.3858
 177   2.0000      -0.599537       -16.3142
 178   2.0000      -0.595047       -16.1921
 179   2.0000      -0.594662       -16.1816
 180   2.0000      -0.591572       -16.0975
 181   2.0000      -0.588059       -16.0019
 182   2.0000      -0.584315       -15.9000
 183   2.0000      -0.582296       -15.8451
 184   2.0000      -0.580437       -15.7945
 185   2.0000      -0.580165       -15.7871
 186   2.0000      -0.578439       -15.7401
 187   2.0000      -0.575011       -15.6469
 188   2.0000      -0.572776       -15.5860
 189   2.0000      -0.565859       -15.3978
 190   2.0000      -0.564057       -15.3488
 191   2.0000      -0.560350       -15.2479
 192   2.0000      -0.557398       -15.1676
 193   2.0000      -0.556562       -15.1448
 194   2.0000      -0.550756       -14.9868
 195   2.0000      -0.544732       -14.8229
 196   2.0000      -0.543854       -14.7990
 197   2.0000      -0.542174       -14.7533
 198   2.0000      -0.541447       -14.7335
 199   2.0000      -0.540592       -14.7103
 200   2.0000      -0.539384       -14.6774
 201   2.0000      -0.538226       -14.6459
 202   2.0000      -0.536013       -14.5857
 203   2.0000      -0.535538       -14.5727
 204   2.0000      -0.530491       -14.4354
 205   2.0000      -0.525230       -14.2922
 206   2.0000      -0.521188       -14.1823
 207   2.0000      -0.519361       -14.1325
 208   2.0000      -0.517542       -14.0830
 209   2.0000      -0.515675       -14.0322
 210   2.0000      -0.514481       -13.9997
 211   2.0000      -0.514061       -13.9883
 212   2.0000      -0.510409       -13.8889
 213   2.0000      -0.508269       -13.8307
 214   2.0000      -0.504345       -13.7239
 215   2.0000      -0.502684       -13.6787
 216   2.0000      -0.498756       -13.5718
 217   2.0000      -0.496762       -13.5176
 218   2.0000      -0.495934       -13.4951
 219   2.0000      -0.492593       -13.4041
 220   2.0000      -0.486874       -13.2485
 221   2.0000      -0.485722       -13.2172
 222   2.0000      -0.483497       -13.1566
 223   2.0000      -0.483058       -13.1447
 224   2.0000      -0.480395       -13.0722
 225   2.0000      -0.478773       -13.0281
 226   2.0000      -0.476636       -12.9699
 227   2.0000      -0.473170       -12.8756
 228   2.0000      -0.472166       -12.8483
 229   2.0000      -0.470886       -12.8135
 230   2.0000      -0.468269       -12.7422
 231   2.0000      -0.467210       -12.7134
 232   2.0000      -0.466526       -12.6948
 233   2.0000      -0.465426       -12.6649
 234   2.0000      -0.463026       -12.5996
 235   2.0000      -0.462280       -12.5793
 236   2.0000      -0.456990       -12.4353
 237   2.0000      -0.453837       -12.3495
 238   2.0000      -0.452233       -12.3059
 239   2.0000      -0.449983       -12.2447
 240   2.0000      -0.448792       -12.2123
 241   2.0000      -0.448013       -12.1911
 242   2.0000      -0.446436       -12.1481
 243   2.0000      -0.442499       -12.0410
 244   2.0000      -0.439076       -11.9479
 245   2.0000      -0.438678       -11.9370
 246   2.0000      -0.435476       -11.8499
 247   2.0000      -0.433603       -11.7989
 248   2.0000      -0.431676       -11.7465
 249   2.0000      -0.430070       -11.7028
 250   2.0000      -0.426778       -11.6132
 251   2.0000      -0.423806       -11.5323
 252   2.0000      -0.422667       -11.5013
 253   2.0000      -0.419018       -11.4021
 254   2.0000      -0.418052       -11.3758
 255   2.0000      -0.413903       -11.2629
 256   2.0000      -0.412940       -11.2367
 257   2.0000      -0.407879       -11.0989
 258   2.0000      -0.407500       -11.0886
 259   2.0000      -0.405511       -11.0345
 260   2.0000      -0.404813       -11.0155
 261   2.0000      -0.393544       -10.7089
 262   2.0000      -0.387690       -10.5496
 263   2.0000      -0.383717       -10.4415
 264   2.0000      -0.382951       -10.4206
 265   2.0000      -0.382583       -10.4106
 266   2.0000      -0.381511       -10.3814
 267   2.0000      -0.374222       -10.1831
 268   2.0000      -0.369672       -10.0593
 269   2.0000      -0.359973        -9.7954
 270   2.0000      -0.357720        -9.7341
 271   2.0000      -0.352557        -9.5936
 272   2.0000      -0.350090        -9.5264
 273   2.0000      -0.349067        -9.4986
 274   2.0000      -0.342983        -9.3330
 275   2.0000      -0.341585        -9.2950
 276   2.0000      -0.341348        -9.2886
 277   2.0000      -0.330468        -8.9925
 278   2.0000      -0.325840        -8.8665
 279   2.0000      -0.324491        -8.8299
 280   2.0000      -0.311136        -8.4665
 281   2.0000      -0.287426        -7.8213
 282   2.0000      -0.277108        -7.5405
 283   2.0000      -0.238718        -6.4958
 284   0.0000      -0.135529        -3.6879
 285   0.0000      -0.109994        -2.9931
 286   0.0000      -0.069996        -1.9047
 287   0.0000      -0.052708        -1.4343
 288   0.0000      -0.040482        -1.1016

MULLIKEN ATOMIC CHARGES
-----------------------
   0 C :   -0.094447
   1 S :    0.154060
   2 C :   -0.153400
   3 C :   -0.035757
   4 C :   -0.069465
   5 C :    0.306348
   6 F :   -0.251215
   7 C :    0.208923
   8 F :   -0.231287
   9 C :    0.219851
  10 F :   -0.228525
  11 C :    0.280796
  12 F :   -0.255602
  13 C :    0.028736
  14 C :   -0.042724
  15 C :    0.013090
  16 C :    0.087854
  17 N :    0.280105
  18 O :   -0.260486
  19 O :   -0.238765
  20 C :    0.023070
  21 C :   -0.006609
  22 C :    0.049662
  23 C :    0.053514
  24 C :   -0.023102
  25 C :    0.024799
  26 C :    0.064709
  27 N :    0.266050
  28 O :   -0.238564
  29 O :   -0.242885
  30 C :    0.035389
  31 C :   -0.068491
  32 C :    0.036881
  33 C :    0.071029
  34 N :   -0.253808
  35 C :    0.098246
  36 C :   -0.009152
  37 C :    0.171728
  38 O :   -0.229694
  39 C :   -0.088925
  40 C :   -0.013931
  41 C :    0.148244
  42 O :   -0.177633
  43 N :   -0.263943
  44 C :    0.100315
  45 C :    0.001982
  46 C :    0.160037
  47 C :   -0.046525
  48 C :    0.011066
  49 C :   -0.069290
  50 S :    0.170805
  51 C :   -0.103006
  52 C :    0.121635
  53 C :    0.117202
  54 C :   -0.053794
  55 C :   -0.067479
  56 C :   -0.170835
  57 N :    0.182245
  58 C :   -0.072941
  59 C :   -0.181313
  60 N :    0.176628
  61 C :   -0.060274
  62 C :   -0.105907
  63 S :    0.142452
  64 C :   -0.130347
  65 C :   -0.075118
  66 C :   -0.059039
  67 C :    0.308462
  68 F :   -0.244780
  69 C :    0.189993
  70 F :   -0.230365
  71 C :    0.192112
  72 F :   -0.235093
  73 C :    0.321107
  74 F :   -0.230082
  75 C :    0.021511
  76 C :    0.009031
  77 H :    0.029910
  78 H :    0.012589
  79 H :    0.025303
  80 H :    0.029001
  81 H :    0.044169
  82 H :    0.012535
  83 H :    0.044314
  84 H :    0.006696
  85 H :   -0.011651
  86 H :    0.013903
  87 H :    0.006120
  88 H :    0.019949
  89 H :    0.019068
  90 H :    0.016701
  91 H :    0.046808
  92 H :    0.043593
  93 H :    0.019727
  94 H :    0.022002
  95 H :    0.046016
  96 H :    0.025646
  97 H :    0.031354
  98 H :    0.025594
  99 H :    0.012679
 100 H :   -0.023361
 101 H :    0.020098
 102 H :    0.021289
 103 H :    0.007230
 104 H :    0.029702
 105 H :    0.027893
 106 H :    0.031234
 107 H :    0.041094
 108 H :    0.006782
 109 H :    0.023308
 110 H :    0.037639
Sum of atomic charges:   -0.0000000

LOEWDIN ATOMIC CHARGES
----------------------
   0 C :   -0.164915
   1 S :    0.473162
   2 C :   -0.164847
   3 C :   -0.070923
   4 C :   -0.085967
   5 C :    0.104995
   6 F :   -0.128526
   7 C :    0.075231
   8 F :   -0.107530
   9 C :    0.079669
  10 F :   -0.103998
  11 C :    0.100038
  12 F :   -0.128540
  13 C :   -0.021219
  14 C :   -0.014832
  15 C :    0.021793
  16 C :   -0.045261
  17 N :    0.289060
  18 O :   -0.217115
  19 O :   -0.203237
  20 C :    0.018549
  21 C :   -0.044016
  22 C :    0.035036
  23 C :    0.044341
  24 C :   -0.045263
  25 C :    0.013551
  26 C :   -0.046862
  27 N :    0.286273
  28 O :   -0.202934
  29 O :   -0.210227
  30 C :    0.015137
  31 C :   -0.034110
  32 C :    0.015471
  33 C :    0.053475
  34 N :    0.003962
  35 C :    0.036800
  36 C :   -0.063816
  37 C :    0.079544
  38 O :   -0.216288
  39 C :   -0.132597
  40 C :   -0.094518
  41 C :    0.083876
  42 O :   -0.180493
  43 N :   -0.004636
  44 C :    0.037383
  45 C :   -0.061039
  46 C :    0.089533
  47 C :   -0.065069
  48 C :    0.022296
  49 C :   -0.186229
  50 S :    0.534687
  51 C :   -0.167854
  52 C :   -0.049891
  53 C :   -0.025003
  54 C :    0.038903
  55 C :   -0.046639
  56 C :   -0.030565
  57 N :   -0.028534
  58 C :   -0.050322
  59 C :   -0.032565
  60 N :   -0.033232
  61 C :    0.018559
  62 C :   -0.180515
  63 S :    0.488764
  64 C :   -0.149631
  65 C :   -0.077187
  66 C :   -0.072798
  67 C :    0.084082
  68 F :   -0.120448
  69 C :    0.087116
  70 F :   -0.104302
  71 C :    0.086264
  72 F :   -0.109292
  73 C :    0.094410
  74 F :   -0.104385
  75 C :   -0.051029
  76 C :   -0.005745
  77 H :    0.030395
  78 H :    0.028209
  79 H :    0.027034
  80 H :    0.028745
  81 H :    0.032912
  82 H :    0.032657
  83 H :    0.038473
  84 H :    0.039518
  85 H :    0.029576
  86 H :    0.032719
  87 H :    0.038324
  88 H :    0.031636
  89 H :    0.046820
  90 H :    0.017114
  91 H :    0.037486
  92 H :    0.025988
  93 H :    0.030561
  94 H :    0.030406
  95 H :    0.039002
  96 H :    0.024222
  97 H :    0.032949
  98 H :    0.031435
  99 H :    0.020774
 100 H :    0.022653
 101 H :    0.043064
 102 H :    0.053023
 103 H :    0.024921
 104 H :    0.023463
 105 H :    0.028627
 106 H :    0.030554
 107 H :    0.030217
 108 H :    0.033110
 109 H :    0.023592
 110 H :    0.032806

  Mayer bond orders larger than 0.100000
B(  0-C ,  1-S ) :   1.1835 B(  0-C ,  4-C ) :   1.5668 B(  0-C , 77-H ) :   0.9683
B(  1-S ,  2-C ) :   1.1574 B(  2-C ,  3-C ) :   1.5381 B(  2-C , 13-C ) :   1.1097
B(  3-C ,  4-C ) :   1.3117 B(  3-C , 11-C ) :   0.9665 B(  4-C ,  5-C ) :   0.9533
B(  5-C ,  6-F ) :   1.0220 B(  5-C ,  7-C ) :   0.9971 B(  5-C , 78-H ) :   0.9299
B(  7-C ,  8-F ) :   1.0511 B(  7-C ,  9-C ) :   0.9776 B(  7-C , 79-H ) :   0.9352
B(  9-C , 10-F ) :   1.0537 B(  9-C , 11-C ) :   0.9953 B(  9-C , 80-H ) :   0.9345
B( 11-C , 12-F ) :   0.9682 B( 11-C , 81-H ) :   0.9195 B( 13-C , 14-C ) :   1.7411
B( 13-C , 82-H ) :   0.9496 B( 14-C , 15-C ) :   1.0809 B( 14-C , 83-H ) :   0.9210
B( 15-C , 16-C ) :   1.5912 B( 15-C , 22-C ) :   1.0358 B( 16-C , 17-N ) :   0.9464
B( 16-C , 20-C ) :   1.1016 B( 17-N , 18-O ) :   1.4671 B( 17-N , 19-O ) :   1.5386
B( 18-O , 19-O ) :   0.2598 B( 20-C , 21-C ) :   1.6185 B( 20-C , 84-H ) :   1.0145
B( 21-C , 22-C ) :   1.0821 B( 21-C , 85-H ) :   1.0025 B( 22-C , 23-C ) :   1.5564
B( 23-C , 24-C ) :   1.0883 B( 23-C , 30-C ) :   1.0359 B( 24-C , 25-C ) :   1.6180
B( 24-C , 86-H ) :   0.9985 B( 25-C , 26-C ) :   1.1017 B( 25-C , 87-H ) :   1.0124
B( 26-C , 27-N ) :   0.9425 B( 26-C , 30-C ) :   1.5803 B( 27-N , 28-O ) :   1.5319
B( 27-N , 29-O ) :   1.5004 B( 28-O , 29-O ) :   0.2603 B( 30-C , 31-C ) :   1.0865
B( 31-C , 32-C ) :   1.6399 B( 31-C , 88-H ) :   0.9363 B( 32-C , 33-C ) :   1.2043
B( 32-C , 89-H ) :   0.9406 B( 33-C , 34-N ) :   1.1699 B( 33-C , 40-C ) :   1.3515
B( 34-N , 35-C ) :   0.9362 B( 34-N , 37-C ) :   1.0796 B( 35-C , 36-C ) :   1.1168
B( 35-C , 90-H ) :   0.9497 B( 35-C , 91-H ) :   0.9260 B( 36-C , 92-H ) :   0.9596
B( 36-C , 93-H ) :   0.9645 B( 36-C , 94-H ) :   0.9616 B( 37-C , 38-O ) :   1.9688
B( 37-C , 39-C ) :   1.0150 B( 38-O ,101-H ) :   0.1162 B( 39-C , 40-C ) :   1.2644
B( 39-C , 46-C ) :   1.2859 B( 40-C , 41-C ) :   0.9605 B( 41-C , 42-O ) :   2.1564
B( 41-C , 43-N ) :   1.0249 B( 43-N , 44-C ) :   0.9441 B( 43-N , 46-C ) :   1.1706
B( 44-C , 45-C ) :   1.1213 B( 44-C , 95-H ) :   0.9289 B( 44-C , 96-H ) :   0.9501
B( 45-C , 97-H ) :   0.9641 B( 45-C , 98-H ) :   0.9681 B( 45-C , 99-H ) :   0.9683
B( 46-C , 47-C ) :   1.2038 B( 47-C , 48-C ) :   1.5113 B( 47-C ,100-H ) :   0.9686
B( 48-C , 49-C ) :   1.2327 B( 48-C ,101-H ) :   0.9408 B( 49-C , 50-S ) :   1.1000
B( 49-C , 51-C ) :   0.1068 B( 49-C , 53-C ) :   1.2739 B( 50-S , 51-C ) :   1.2058
B( 51-C , 52-C ) :   1.2935 B( 51-C , 62-C ) :   1.1535 B( 52-C , 53-C ) :   1.2112
B( 52-C , 61-C ) :   1.1861 B( 53-C , 54-C ) :   1.2240 B( 54-C , 55-C ) :   1.5399
B( 54-C ,102-H ) :   0.9937 B( 55-C , 56-C ) :   1.0810 B( 55-C , 58-C ) :   1.2525
B( 56-C , 57-N ) :   3.0434 B( 58-C , 59-C ) :   1.0802 B( 58-C , 61-C ) :   1.5801
B( 59-C , 60-N ) :   3.0459 B( 61-C ,103-H ) :   0.9725 B( 62-C , 63-S ) :   1.1385
B( 62-C , 66-C ) :   1.4986 B( 63-S , 64-C ) :   1.1406 B( 64-C , 65-C ) :   1.5565
B( 64-C , 75-C ) :   1.0677 B( 65-C , 66-C ) :   1.3252 B( 65-C , 73-C ) :   0.9404
B( 66-C , 67-C ) :   0.9893 B( 67-C , 68-F ) :   1.0086 B( 67-C , 69-C ) :   0.9766
B( 67-C ,104-H ) :   0.9101 B( 69-C , 70-F ) :   1.0299 B( 69-C , 71-C ) :   1.0059
B( 69-C ,105-H ) :   0.9316 B( 71-C , 72-F ) :   1.0267 B( 71-C , 73-C ) :   0.9956
B( 71-C ,106-H ) :   0.9321 B( 73-C , 74-F ) :   1.0540 B( 73-C ,107-H ) :   0.9117
B( 75-C , 76-C ) :   1.9543 B( 75-C ,108-H ) :   0.9489 B( 76-C ,109-H ) :   0.9599
B( 76-C ,110-H ) :   0.9478

-----------------------------------------------------------------------------
         ABSORPTION SPECTRUM VIA TRANSITION ELECTRIC DIPOLE MOMENTS
-----------------------------------------------------------------------------
State   Energy  Wavelength   fosc         T2         TX        TY        TZ
        (cm-1)    (nm)                  (au**2)     (au)      (au)      (au)
-----------------------------------------------------------------------------
   0    7986.8   1252.1   0.439576573  18.11915   2.71262   3.25925  -0.37166
   1   13796.7    724.8   0.522975989  12.47906   1.90866   2.89176  -0.68831
   2   14617.7    684.1   0.042129788   0.94883  -0.30355  -0.69707  -0.60891
   3   18284.7    546.9   0.070814255   1.27500  -0.42080  -1.04666  -0.04917
   4   19486.4    513.2   0.257364944   4.34805  -1.01683  -1.81897  -0.07382
   5   21726.9    460.3   0.010861496   0.16458  -0.02652  -0.07572   0.39767
   6   22478.0    444.9   0.066623391   0.97576   0.60336   0.75312  -0.21101
   7   23126.6    432.4   0.039804279   0.56662  -0.07493  -0.69803  -0.27160
   8   24639.0    405.9   0.002653402   0.03545  -0.12197  -0.00372   0.14340
   9   25096.0    398.5   0.002245105   0.02945   0.13982   0.08171  -0.05678
  10   26373.2    379.2   0.036578791   0.45661   0.02484  -0.02415   0.67484
  11   27103.2    369.0   0.002090964   0.02540   0.15543   0.03514  -0.00214
  12   28015.8    356.9   0.114890725   1.35007  -1.01244  -0.50643   0.26187
  13   28071.1    356.2   0.014357422   0.16838  -0.10743   0.38340  -0.09921
  14   28699.2    348.4   0.032136247   0.36864  -0.51534   0.16160  -0.27738
  15   28838.6    346.8   0.030407632   0.34712  -0.34102  -0.10096  -0.46972
  16   29175.2    342.8   0.112227033   1.26637   1.12285  -0.00757   0.07429
  17   29782.6    335.8   0.165328310   1.82751   0.18894   1.16376   0.66142
  18   29947.1    333.9   0.002376256   0.02612   0.15665   0.00990  -0.03853
  19   30068.2    332.6   0.009043112   0.09901  -0.23466   0.07563   0.19551
  20   30251.7    330.6   0.364421130   3.96578  -0.96609   0.07426   1.73981
  21   30558.2    327.2   0.020611839   0.22206   0.18880   0.42904   0.04832
  22   30941.1    323.2   0.068321903   0.72694  -0.33894  -0.49001  -0.60987
  23   31162.9    320.9   0.155243905   1.64003   1.07954  -0.45026   0.52144
  24   32013.7    312.4   0.050617335   0.52052   0.26392  -0.42991  -0.51579
  25   32613.5    306.6   0.004556023   0.04599   0.14913  -0.04524   0.14732
  26   32855.7    304.4   0.508642440   5.09656  -1.52282   1.55748  -0.59315
  27   33056.8    302.5   0.166432325   1.65750  -0.65967   1.07318  -0.26575
  28   33251.0    300.7   0.242274324   2.39871  -0.78160   0.55077   1.21839
  29   33746.9    296.3   0.050243944   0.49015  -0.56726  -0.10415  -0.39689
  30   34247.3    292.0   0.055981903   0.53814  -0.15888   0.51268   0.50006
  31   34521.9    289.7   0.008308854   0.07924   0.08597  -0.02597   0.26678
  32   34809.7    287.3   0.013324221   0.12601  -0.25712  -0.24333   0.02632
  33   35765.1    279.6   0.137221466   1.26310   0.62884   0.91598   0.16925
  34   35845.5    279.0   0.009633596   0.08848   0.19775  -0.17516   0.13672
  35   35871.1    278.8   0.000598382   0.00549  -0.02008   0.05922   0.03977
  36   36062.2    277.3   0.003796523   0.03466   0.15025   0.10947   0.00998
  37   36250.2    275.9   0.086954832   0.78969   0.36011   0.41718  -0.69712
  38   36399.2    274.7   0.256485812   2.31978   0.94239  -1.19609  -0.03252
  39   36692.9    272.5   0.054155553   0.48589  -0.68725   0.04045  -0.10925
  40   37019.4    270.1   0.003351105   0.02980  -0.08117   0.11300  -0.10220
  41   37508.9    266.6   0.039224545   0.34427   0.28916  -0.31195   0.40416
  42   38034.2    262.9   0.037343149   0.32323   0.34090  -0.18165  -0.41716
  43   38290.7    261.2   0.170111163   1.46257   0.36385  -0.66111  -0.94505
  44   38368.4    260.6   0.032871001   0.28204   0.28954   0.38376   0.22571
  45   38558.7    259.3   0.087803789   0.74966  -0.30612   0.02619   0.80948
  46   39043.8    256.1   0.068558796   0.57808  -0.03594  -0.71137  -0.26597
  47   39326.3    254.3   0.004657504   0.03899   0.06100   0.18149   0.04828
  48   39537.4    252.9   0.035700860   0.29727   0.12685  -0.51773  -0.11460
  49   40107.6    249.3   0.109951769   0.90251  -0.84082  -0.25046  -0.36442
  50   40210.5    248.7   0.011729568   0.09603  -0.01791  -0.10466  -0.29113

FINAL SINGLE POINT ENERGY     -4846.309700884656

DIPOLE MOMENT
-------------
                                X             Y             Z
Electronic contribution:    -17.49736       0.59581     -13.19898
Nuclear contribution   :     21.33351      -0.24724       9.94019
                        -----------------------------------------
Total Dipole Moment    :      3.83615       0.34857      -3.25880
                        -----------------------------------------
Magnitude (a.u.)       :      5.04552
Magnitude (Debye)      :     12.82470

Rotational constants in cm-1:     0.001683     0.000201     0.000196
Rotational constants in MHz :    50.451648     6.035901     5.861817

                             ****ORCA TERMINATED NORMALLY****
TOTAL RUN TIME: 0 days 0 hours 12 minutes 32 seconds 646 msec
