                         Program Version 4.2.0 -  RELEASE  -
|  1> # ORCA input file
|  2> # SCF done       -195.227665139299          0.000639292558
|  3> ! CAM-B3LYP def2-SVP def2/J RIJCOSX Grid4 TightSCF
|  4> %maxcore 5000
|  5> %tddft
|  6>     Mode sTDDFT
|  7>     Ethresh 5.0
|  8>     maxcore 5000
|  9> end
| 10>
| 11> %pal
| 12>   nprocs 6
| 13>   end
| 14> * xyz 0 1
| 15>    C        6.82868        -5.51169         7.10727
| 16>    S        5.43894        -6.06931         7.95006
| 17>    C        4.41202        -5.97526         6.52857
| 18>    C        5.17120        -5.51869         5.46372
| 19>    C        6.52556        -5.26306         5.80380
| 20>    C        7.21015        -4.79214         4.59292
| 21>    O        8.34088        -4.46510         4.40846
| 22>    O        6.25691        -4.78189         3.59358
| 23>    C        5.02084        -5.20056         4.04642
| 24>    O        4.06887        -5.24853         3.32124
| 25>    C        3.05262        -6.35450         6.65089
| 26>    C        2.17708        -6.31851         5.60984
| 27>    C        0.81069        -6.69415         5.60068
| 28>    C        0.00980        -7.46982         6.44919
| 29>    N        0.28723        -8.09882         7.67083
| 30>    O       -0.45241        -9.01940         7.99064
| 31>    O        1.21428        -7.71935         8.36695
| 32>    C       -1.26568        -7.68845         5.82787
| 33>    C       -1.26224        -7.11607         4.59783
| 34>    C        0.00812        -6.48175         4.39332
| 35>    C        0.35854        -5.77732         3.24432
| 36>    C        1.06164        -4.56008         3.10893
| 37>    C        0.90839        -4.10114         1.82064
| 38>    C        0.16668        -5.05161         1.06939
| 39>    N       -0.11936        -4.93128        -0.29690
| 40>    O        0.23483        -3.91391        -0.86526
| 41>    O       -0.72676        -5.84416        -0.84254
| 42>    C       -0.14955        -6.13395         1.90395
| 43>    C       -0.64758        -7.39412         1.56533
| 44>    C       -0.40814        -8.49714         2.35864
| 45>    C       -1.02438        -9.75112         2.40766
| 46>    N       -2.06204       -10.28774         1.68576
| 47>    C       -2.66421        -9.75401         0.48675
| 48>    C       -1.75396        -9.91297        -0.72735
| 49>    C       -2.47256       -11.53174         2.20374
| 50>    O       -3.36847       -12.19112         1.72387
| 51>    C       -1.61388       -11.75167         3.35675
| 52>    C       -0.73570       -10.66416         3.43740
| 53>    C        0.11504       -10.83604         4.59818
| 54>    O        1.01288       -10.16014         5.05074
| 55>    N       -0.31167       -12.05991         5.14932
| 56>    C        0.26939       -12.56859         6.37034
| 57>    C       -0.61383       -12.28918         7.58316
| 58>    C       -1.34210       -12.61618         4.43480
| 59>    C       -1.94953       -13.84766         4.76411
| 60>    C       -2.99001       -14.36375         4.05450
| 61>    C       -3.62982       -15.61448         4.30627
| 62>    C       -3.24516       -16.54240         5.27893
| 63>    N       -3.80766       -17.71903         5.47371
| 64>    C       -4.83350       -18.10879         4.72553
| 65>    C       -5.36114       -17.25111         3.70852
| 66>    C       -4.74753       -15.99032         3.49713
| 67>    N       -5.21600       -15.15881         2.54992
| 68>    C       -6.23351       -15.55736         1.83890
| 69>    C       -6.83866       -16.81645         2.04588
| 70>    N       -6.41066       -17.63795         2.96405
| 71>    C       -5.40683       -19.40672         4.92645
| 72>    C       -4.92200       -20.26853         5.85136
| 73>    C       -5.42491       -21.57419         6.08161
| 74>    S       -4.66542       -22.57160         7.30914
| 75>    C       -5.72592       -23.92800         7.02408
| 76>    C       -6.61108       -23.59142         6.02686
| 77>    C       -6.45324       -22.29043         5.49755
| 78>    C       -7.47297       -22.12531         4.45680
| 79>    O       -7.72624       -21.20458         3.73950
| 80>    O       -8.18450       -23.30881         4.40712
| 81>    C       -7.72173       -24.23463         5.32168
| 82>    O       -8.19864       -25.32194         5.44001
| 83>    C       -5.64767       -25.16984         7.73350
| 84>    C       -4.75589       -25.43673         8.68596
| 85>    H        7.76803        -5.40158         7.61091
| 86>    H        2.73660        -6.68128         7.63046
| 87>    H        2.54493        -5.95934         4.65765
| 88>    H       -2.06983        -8.21803         6.30233
| 89>    H       -2.09102        -7.04976         3.91991
| 90>    H        1.52626        -4.02160         3.91151
| 91>    H        1.28097        -3.17877         1.41628
| 92>    H       -1.17478        -7.46961         0.62426
| 93>    H        0.36327        -8.40357         3.11366
| 94>    H       -2.92394        -8.70447         0.64787
| 95>    H       -3.58488       -10.32459         0.33447
| 96>    H       -0.79347        -9.42996        -0.56571
| 97>    H       -2.22293        -9.46290        -1.59722
| 98>    H       -1.58192       -10.96752        -0.92913
| 99>    H        1.22448       -12.05005         6.48817
|100>    H        0.46348       -13.63959         6.25970
|101>    H       -0.71646       -11.21744         7.73505
|102>    H       -0.15715       -12.71762         8.47072
|103>    H       -1.60410       -12.72073         7.45445
|104>    H       -1.55091       -14.37996         5.61516
|105>    H       -3.39522       -13.80860         3.21712
|106>    H       -2.41730       -16.33395         5.94356
|107>    H       -6.59364       -14.87213         1.08421
|108>    H       -7.68213       -17.14508         1.45523
|109>    H       -6.24123       -19.66241         4.28935
|110>    H       -4.08470       -19.95564         6.46111
|111>    H       -6.38659       -25.89984         7.42993
|112>    H       -4.01960       -24.70901         8.98787
|113>    H       -4.73796       -26.38676         9.18874
|114> *
|115>
|116>                          ****END OF INPUT****

CARTESIAN COORDINATES (ANGSTROEM)
---------------------------------
  C      6.828680   -5.511690    7.107270
  S      5.438940   -6.069310    7.950060
  C      4.412020   -5.975260    6.528570
  C      5.171200   -5.518690    5.463720
  C      6.525560   -5.263060    5.803800
  C      7.210150   -4.792140    4.592920
  O      8.340880   -4.465100    4.408460
  O      6.256910   -4.781890    3.593580
  C      5.020840   -5.200560    4.046420
  O      4.068870   -5.248530    3.321240
  C      3.052620   -6.354500    6.650890
  C      2.177080   -6.318510    5.609840
  C      0.810690   -6.694150    5.600680
  C      0.009800   -7.469820    6.449190
  N      0.287230   -8.098820    7.670830
  O     -0.452410   -9.019400    7.990640
  O      1.214280   -7.719350    8.366950
  C     -1.265680   -7.688450    5.827870
  C     -1.262240   -7.116070    4.597830
  C      0.008120   -6.481750    4.393320
  C      0.358540   -5.777320    3.244320
  C      1.061640   -4.560080    3.108930
  C      0.908390   -4.101140    1.820640
  C      0.166680   -5.051610    1.069390
  N     -0.119360   -4.931280   -0.296900
  O      0.234830   -3.913910   -0.865260
  O     -0.726760   -5.844160   -0.842540
  C     -0.149550   -6.133950    1.903950
  C     -0.647580   -7.394120    1.565330
  C     -0.408140   -8.497140    2.358640
  C     -1.024380   -9.751120    2.407660
  N     -2.062040  -10.287740    1.685760
  C     -2.664210   -9.754010    0.486750
  C     -1.753960   -9.912970   -0.727350
  C     -2.472560  -11.531740    2.203740
  O     -3.368470  -12.191120    1.723870
  C     -1.613880  -11.751670    3.356750
  C     -0.735700  -10.664160    3.437400
  C      0.115040  -10.836040    4.598180
  O      1.012880  -10.160140    5.050740
  N     -0.311670  -12.059910    5.149320
  C      0.269390  -12.568590    6.370340
  C     -0.613830  -12.289180    7.583160
  C     -1.342100  -12.616180    4.434800
  C     -1.949530  -13.847660    4.764110
  C     -2.990010  -14.363750    4.054500
  C     -3.629820  -15.614480    4.306270
  C     -3.245160  -16.542400    5.278930
  N     -3.807660  -17.719030    5.473710
  C     -4.833500  -18.108790    4.725530
  C     -5.361140  -17.251110    3.708520
  C     -4.747530  -15.990320    3.497130
  N     -5.216000  -15.158810    2.549920
  C     -6.233510  -15.557360    1.838900
  C     -6.838660  -16.816450    2.045880
  N     -6.410660  -17.637950    2.964050
  C     -5.406830  -19.406720    4.926450
  C     -4.922000  -20.268530    5.851360
  C     -5.424910  -21.574190    6.081610
  S     -4.665420  -22.571600    7.309140
  C     -5.725920  -23.928000    7.024080
  C     -6.611080  -23.591420    6.026860
  C     -6.453240  -22.290430    5.497550
  C     -7.472970  -22.125310    4.456800
  O     -7.726240  -21.204580    3.739500
  O     -8.184500  -23.308810    4.407120
  C     -7.721730  -24.234630    5.321680
  O     -8.198640  -25.321940    5.440010
  C     -5.647670  -25.169840    7.733500
  C     -4.755890  -25.436730    8.685960
  H      7.768030   -5.401580    7.610910
  H      2.736600   -6.681280    7.630460
  H      2.544930   -5.959340    4.657650
  H     -2.069830   -8.218030    6.302330
  H     -2.091020   -7.049760    3.919910
  H      1.526260   -4.021600    3.911510
  H      1.280970   -3.178770    1.416280
  H     -1.174780   -7.469610    0.624260
  H      0.363270   -8.403570    3.113660
  H     -2.923940   -8.704470    0.647870
  H     -3.584880  -10.324590    0.334470
  H     -0.793470   -9.429960   -0.565710
  H     -2.222930   -9.462900   -1.597220
  H     -1.581920  -10.967520   -0.929130
  H      1.224480  -12.050050    6.488170
  H      0.463480  -13.639590    6.259700
  H     -0.716460  -11.217440    7.735050
  H     -0.157150  -12.717620    8.470720
  H     -1.604100  -12.720730    7.454450
  H     -1.550910  -14.379960    5.615160
  H     -3.395220  -13.808600    3.217120
  H     -2.417300  -16.333950    5.943560
  H     -6.593640  -14.872130    1.084210
  H     -7.682130  -17.145080    1.455230
  H     -6.241230  -19.662410    4.289350
  H     -4.084700  -19.955640    6.461110
  H     -6.386590  -25.899840    7.429930
  H     -4.019600  -24.709010    8.987870
  H     -4.737960  -26.386760    9.188740

 Total Charge           Charge          ....    0
 Multiplicity           Mult            ....    1
 Number of Electrons    NEL             ....  500
 Basis Dimension        Dim             .... 1133

ORBITAL ENERGIES
----------------

  NO   OCC          E(Eh)            E(eV)
   0   2.0000     -88.991259     -2421.5753
   1   2.0000     -88.987398     -2421.4702
   2   2.0000     -19.284371      -524.7544
   3   2.0000     -19.279638      -524.6256
   4   2.0000     -19.239263      -523.5270
   5   2.0000     -19.235666      -523.4291
   6   2.0000     -19.232650      -523.3470
   7   2.0000     -19.230985      -523.3017
   8   2.0000     -19.228567      -523.2359
   9   2.0000     -19.224469      -523.1244
  10   2.0000     -19.221755      -523.0505
  11   2.0000     -19.220888      -523.0269
  12   2.0000     -19.214551      -522.8545
  13   2.0000     -19.196731      -522.3696
  14   2.0000     -14.644994      -398.5106
  15   2.0000     -14.631401      -398.1407
  16   2.0000     -14.470940      -393.7743
  17   2.0000     -14.460623      -393.4936
  18   2.0000     -14.444135      -393.0449
  19   2.0000     -14.440746      -392.9527
  20   2.0000     -14.429587      -392.6490
  21   2.0000     -10.429070      -283.7894
  22   2.0000     -10.427100      -283.7358
  23   2.0000     -10.425073      -283.6807
  24   2.0000     -10.421238      -283.5763
  25   2.0000     -10.394958      -282.8612
  26   2.0000     -10.382979      -282.5352
  27   2.0000     -10.364142      -282.0227
  28   2.0000     -10.346726      -281.5487
  29   2.0000     -10.343984      -281.4741
  30   2.0000     -10.343897      -281.4717
  31   2.0000     -10.342724      -281.4398
  32   2.0000     -10.342321      -281.4289
  33   2.0000     -10.339342      -281.3478
  34   2.0000     -10.339090      -281.3409
  35   2.0000     -10.336176      -281.2616
  36   2.0000     -10.335696      -281.2486
  37   2.0000     -10.335578      -281.2454
  38   2.0000     -10.330160      -281.0979
  39   2.0000     -10.323808      -280.9251
  40   2.0000     -10.317503      -280.7535
  41   2.0000     -10.316954      -280.7386
  42   2.0000     -10.315751      -280.7059
  43   2.0000     -10.312716      -280.6233
  44   2.0000     -10.311901      -280.6011
  45   2.0000     -10.310443      -280.5614
  46   2.0000     -10.310255      -280.5563
  47   2.0000     -10.310121      -280.5527
  48   2.0000     -10.309800      -280.5439
  49   2.0000     -10.309506      -280.5359
  50   2.0000     -10.309376      -280.5324
  51   2.0000     -10.308622      -280.5119
  52   2.0000     -10.306833      -280.4632
  53   2.0000     -10.305178      -280.4182
  54   2.0000     -10.304744      -280.4063
  55   2.0000     -10.304577      -280.4018
  56   2.0000     -10.303216      -280.3648
  57   2.0000     -10.302310      -280.3401
  58   2.0000     -10.295693      -280.1600
  59   2.0000     -10.294819      -280.1363
  60   2.0000     -10.292297      -280.0676
  61   2.0000     -10.291425      -280.0439
  62   2.0000     -10.291071      -280.0343
  63   2.0000     -10.287068      -279.9254
  64   2.0000     -10.281382      -279.7706
  65   2.0000     -10.278479      -279.6916
  66   2.0000     -10.277761      -279.6721
  67   2.0000     -10.274994      -279.5968
  68   2.0000     -10.262877      -279.2671
  69   2.0000     -10.261579      -279.2318
  70   2.0000      -8.086723      -220.0509
  71   2.0000      -8.082907      -219.9471
  72   2.0000      -6.055903      -164.7895
  73   2.0000      -6.052165      -164.6878
  74   2.0000      -6.051715      -164.6755
  75   2.0000      -6.049015      -164.6021
  76   2.0000      -6.047559      -164.5624
  77   2.0000      -6.045485      -164.5060
  78   2.0000      -1.315135       -35.7867
  79   2.0000      -1.300071       -35.3767
  80   2.0000      -1.230884       -33.4940
  81   2.0000      -1.226093       -33.3637
  82   2.0000      -1.158961       -31.5369
  83   2.0000      -1.153699       -31.3937
  84   2.0000      -1.151589       -31.3363
  85   2.0000      -1.137611       -30.9560
  86   2.0000      -1.131268       -30.7834
  87   2.0000      -1.120714       -30.4962
  88   2.0000      -1.117337       -30.4043
  89   2.0000      -1.115301       -30.3489
  90   2.0000      -1.104057       -30.0429
  91   2.0000      -1.081117       -29.4187
  92   2.0000      -1.065504       -28.9938
  93   2.0000      -1.059606       -28.8333
  94   2.0000      -1.024037       -27.8655
  95   2.0000      -1.020491       -27.7690
  96   2.0000      -1.012779       -27.5591
  97   2.0000      -1.009069       -27.4582
  98   2.0000      -0.987354       -26.8673
  99   2.0000      -0.945177       -25.7196
 100   2.0000      -0.939513       -25.5654
 101   2.0000      -0.928364       -25.2621
 102   2.0000      -0.920113       -25.0376
 103   2.0000      -0.911088       -24.7920
 104   2.0000      -0.907822       -24.7031
 105   2.0000      -0.903341       -24.5812
 106   2.0000      -0.900659       -24.5082
 107   2.0000      -0.891211       -24.2511
 108   2.0000      -0.885173       -24.0868
 109   2.0000      -0.879325       -23.9276
 110   2.0000      -0.872438       -23.7402
 111   2.0000      -0.865030       -23.5387
 112   2.0000      -0.853113       -23.2144
 113   2.0000      -0.845532       -23.0081
 114   2.0000      -0.833486       -22.6803
 115   2.0000      -0.826893       -22.5009
 116   2.0000      -0.811804       -22.0903
 117   2.0000      -0.804437       -21.8898
 118   2.0000      -0.790807       -21.5190
 119   2.0000      -0.785858       -21.3843
 120   2.0000      -0.776808       -21.1380
 121   2.0000      -0.772477       -21.0202
 122   2.0000      -0.766299       -20.8520
 123   2.0000      -0.765918       -20.8417
 124   2.0000      -0.761775       -20.7290
 125   2.0000      -0.751750       -20.4562
 126   2.0000      -0.733375       -19.9562
 127   2.0000      -0.726863       -19.7789
 128   2.0000      -0.723140       -19.6776
 129   2.0000      -0.719890       -19.5892
 130   2.0000      -0.717737       -19.5306
 131   2.0000      -0.716671       -19.5016
 132   2.0000      -0.705045       -19.1852
 133   2.0000      -0.701226       -19.0813
 134   2.0000      -0.700437       -19.0598
 135   2.0000      -0.682528       -18.5725
 136   2.0000      -0.674228       -18.3467
 137   2.0000      -0.668663       -18.1952
 138   2.0000      -0.666140       -18.1266
 139   2.0000      -0.659709       -17.9516
 140   2.0000      -0.654692       -17.8151
 141   2.0000      -0.649155       -17.6644
 142   2.0000      -0.636226       -17.3126
 143   2.0000      -0.633862       -17.2483
 144   2.0000      -0.629264       -17.1231
 145   2.0000      -0.625324       -17.0159
 146   2.0000      -0.624092       -16.9824
 147   2.0000      -0.621614       -16.9150
 148   2.0000      -0.614775       -16.7289
 149   2.0000      -0.612714       -16.6728
 150   2.0000      -0.609865       -16.5953
 151   2.0000      -0.605507       -16.4767
 152   2.0000      -0.599115       -16.3027
 153   2.0000      -0.595609       -16.2073
 154   2.0000      -0.593173       -16.1410
 155   2.0000      -0.591930       -16.1072
 156   2.0000      -0.588854       -16.0235
 157   2.0000      -0.587812       -15.9952
 158   2.0000      -0.585589       -15.9347
 159   2.0000      -0.579468       -15.7681
 160   2.0000      -0.578771       -15.7492
 161   2.0000      -0.576877       -15.6976
 162   2.0000      -0.570655       -15.5283
 163   2.0000      -0.567112       -15.4319
 164   2.0000      -0.566845       -15.4246
 165   2.0000      -0.559218       -15.2171
 166   2.0000      -0.559024       -15.2118
 167   2.0000      -0.556498       -15.1431
 168   2.0000      -0.553524       -15.0622
 169   2.0000      -0.541814       -14.7435
 170   2.0000      -0.539766       -14.6878
 171   2.0000      -0.538731       -14.6596
 172   2.0000      -0.537660       -14.6305
 173   2.0000      -0.536203       -14.5908
 174   2.0000      -0.533149       -14.5077
 175   2.0000      -0.531497       -14.4628
 176   2.0000      -0.530746       -14.4423
 177   2.0000      -0.526013       -14.3135
 178   2.0000      -0.523449       -14.2438
 179   2.0000      -0.523072       -14.2335
 180   2.0000      -0.518350       -14.1050
 181   2.0000      -0.514099       -13.9893
 182   2.0000      -0.512695       -13.9511
 183   2.0000      -0.510438       -13.8897
 184   2.0000      -0.507031       -13.7970
 185   2.0000      -0.506951       -13.7948
 186   2.0000      -0.503145       -13.6913
 187   2.0000      -0.502130       -13.6636
 188   2.0000      -0.497927       -13.5493
 189   2.0000      -0.497378       -13.5343
 190   2.0000      -0.495806       -13.4916
 191   2.0000      -0.494206       -13.4480
 192   2.0000      -0.492852       -13.4112
 193   2.0000      -0.491359       -13.3706
 194   2.0000      -0.488883       -13.3032
 195   2.0000      -0.484814       -13.1925
 196   2.0000      -0.482009       -13.1161
 197   2.0000      -0.480550       -13.0764
 198   2.0000      -0.478565       -13.0224
 199   2.0000      -0.476343       -12.9619
 200   2.0000      -0.473776       -12.8921
 201   2.0000      -0.472972       -12.8702
 202   2.0000      -0.470736       -12.8094
 203   2.0000      -0.464926       -12.6513
 204   2.0000      -0.463800       -12.6206
 205   2.0000      -0.462371       -12.5818
 206   2.0000      -0.461365       -12.5544
 207   2.0000      -0.459825       -12.5125
 208   2.0000      -0.454412       -12.3652
 209   2.0000      -0.452025       -12.3002
 210   2.0000      -0.445062       -12.1107
 211   2.0000      -0.444713       -12.1013
 212   2.0000      -0.441589       -12.0163
 213   2.0000      -0.438765       -11.9394
 214   2.0000      -0.436823       -11.8866
 215   2.0000      -0.428859       -11.6698
 216   2.0000      -0.428458       -11.6589
 217   2.0000      -0.424665       -11.5557
 218   2.0000      -0.408098       -11.1049
 219   2.0000      -0.404671       -11.0116
 220   2.0000      -0.402590       -10.9550
 221   2.0000      -0.400945       -10.9103
 222   2.0000      -0.396006       -10.7759
 223   2.0000      -0.386951       -10.5295
 224   2.0000      -0.383416       -10.4333
 225   2.0000      -0.379892       -10.3374
 226   2.0000      -0.376975       -10.2580
 227   2.0000      -0.376295       -10.2395
 228   2.0000      -0.374371       -10.1872
 229   2.0000      -0.368655       -10.0316
 230   2.0000      -0.367860       -10.0100
 231   2.0000      -0.365196        -9.9375
 232   2.0000      -0.363260        -9.8848
 233   2.0000      -0.362730        -9.8704
 234   2.0000      -0.362014        -9.8509
 235   2.0000      -0.359505        -9.7826
 236   2.0000      -0.358421        -9.7531
 237   2.0000      -0.356354        -9.6969
 238   2.0000      -0.352096        -9.5810
 239   2.0000      -0.350019        -9.5245
 240   2.0000      -0.343429        -9.3452
 241   2.0000      -0.337652        -9.1880
 242   2.0000      -0.335459        -9.1283
 243   2.0000      -0.330341        -8.9890
 244   2.0000      -0.325491        -8.8570
 245   2.0000      -0.322460        -8.7746
 246   2.0000      -0.298881        -8.1330
 247   2.0000      -0.283003        -7.7009
 248   2.0000      -0.267476        -7.2784
 249   2.0000      -0.239666        -6.5216
 250   0.0000      -0.139115        -3.7855
 251   0.0000      -0.107026        -2.9123
 252   0.0000      -0.079688        -2.1684
 253   0.0000      -0.057441        -1.5631
 254   0.0000      -0.053392        -1.4529

MULLIKEN ATOMIC CHARGES
-----------------------
   0 C :   -0.117925
   1 S :    0.178851
   2 C :   -0.148779
   3 C :   -0.037416
   4 C :   -0.017618
   5 C :    0.234982
   6 O :   -0.107051
   7 O :   -0.244818
   8 C :    0.254517
   9 O :   -0.127948
  10 C :    0.063638
  11 C :   -0.073791
  12 C :    0.114307
  13 C :    0.075700
  14 N :    0.295744
  15 O :   -0.259516
  16 O :   -0.250461
  17 C :    0.000022
  18 C :    0.037625
  19 C :   -0.065961
  20 C :    0.044486
  21 C :    0.030225
  22 C :    0.022806
  23 C :    0.083604
  24 N :    0.276440
  25 O :   -0.256644
  26 O :   -0.276389
  27 C :    0.025483
  28 C :   -0.038860
  29 C :   -0.008895
  30 C :    0.097156
  31 N :   -0.260842
  32 C :    0.103123
  33 C :    0.000799
  34 C :    0.161256
  35 O :   -0.197112
  36 C :   -0.077818
  37 C :   -0.022061
  38 C :    0.170622
  39 O :   -0.178568
  40 N :   -0.257310
  41 C :    0.097226
  42 C :   -0.002260
  43 C :    0.161599
  44 C :   -0.004857
  45 C :    0.000628
  46 C :    0.022528
  47 C :   -0.016187
  48 N :   -0.037796
  49 C :   -0.024764
  50 C :   -0.033140
  51 C :    0.006967
  52 N :   -0.000190
  53 C :    0.041737
  54 C :    0.030700
  55 N :    0.012099
  56 C :   -0.038917
  57 C :    0.089800
  58 C :   -0.125396
  59 S :    0.167974
  60 C :   -0.131628
  61 C :   -0.031572
  62 C :   -0.024786
  63 C :    0.251504
  64 O :   -0.114469
  65 O :   -0.248254
  66 C :    0.234759
  67 O :   -0.116216
  68 C :    0.006560
  69 C :   -0.005337
  70 H :    0.047889
  71 H :    0.001595
  72 H :    0.012202
  73 H :   -0.009499
  74 H :   -0.008106
  75 H :   -0.014524
  76 H :    0.005154
  77 H :    0.023854
  78 H :    0.042785
  79 H :    0.026192
  80 H :    0.041340
  81 H :    0.027666
  82 H :    0.032172
  83 H :    0.024234
  84 H :    0.044617
  85 H :    0.022661
  86 H :    0.042769
  87 H :    0.022042
  88 H :    0.006824
  89 H :   -0.025181
  90 H :    0.042075
  91 H :    0.002711
  92 H :    0.029092
  93 H :    0.026881
  94 H :    0.022614
  95 H :   -0.001463
  96 H :    0.024931
  97 H :    0.029698
  98 H :    0.042862
Sum of atomic charges:   -0.0000000

LOEWDIN ATOMIC CHARGES
----------------------
   0 C :   -0.141775
   1 S :    0.492792
   2 C :   -0.123057
   3 C :   -0.118449
   4 C :   -0.105986
   5 C :    0.103586
   6 O :   -0.107645
   7 O :   -0.066798
   8 C :    0.110698
   9 O :   -0.118979
  10 C :   -0.033470
  11 C :    0.002429
  12 C :   -0.006202
  13 C :   -0.029980
  14 N :    0.296486
  15 O :   -0.217536
  16 O :   -0.207979
  17 C :   -0.019248
  18 C :   -0.033826
  19 C :    0.027482
  20 C :    0.042441
  21 C :   -0.047027
  22 C :    0.050316
  23 C :   -0.080256
  24 N :    0.287064
  25 O :   -0.220816
  26 O :   -0.241221
  27 C :    0.017030
  28 C :   -0.000200
  29 C :    0.015073
  30 C :    0.043622
  31 N :   -0.000994
  32 C :    0.036660
  33 C :   -0.060099
  34 C :    0.077768
  35 O :   -0.191243
  36 C :   -0.125531
  37 C :   -0.069417
  38 C :    0.089476
  39 O :   -0.172810
  40 N :    0.004176
  41 C :    0.037024
  42 C :   -0.065474
  43 C :    0.105188
  44 C :   -0.053337
  45 C :    0.065810
  46 C :   -0.062106
  47 C :    0.044207
  48 N :   -0.064976
  49 C :    0.027800
  50 C :   -0.027269
  51 C :    0.013471
  52 N :   -0.025808
  53 C :    0.030053
  54 C :    0.014277
  55 N :   -0.018558
  56 C :   -0.001659
  57 C :   -0.012115
  58 C :   -0.126403
  59 S :    0.475361
  60 C :   -0.129138
  61 C :   -0.105933
  62 C :   -0.105016
  63 C :    0.110087
  64 O :   -0.107522
  65 O :   -0.067123
  66 C :    0.105751
  67 O :   -0.113703
  68 C :   -0.037468
  69 C :   -0.015154
  70 H :    0.038205
  71 H :    0.026577
  72 H :    0.036014
  73 H :    0.031528
  74 H :    0.028526
  75 H :    0.028223
  76 H :    0.040537
  77 H :    0.040005
  78 H :    0.051675
  79 H :    0.023893
  80 H :    0.036768
  81 H :    0.025325
  82 H :    0.035750
  83 H :    0.030639
  84 H :    0.039235
  85 H :    0.021992
  86 H :    0.031425
  87 H :    0.031464
  88 H :    0.018657
  89 H :    0.028181
  90 H :    0.043782
  91 H :    0.023714
  92 H :    0.034463
  93 H :    0.033128
  94 H :    0.036069
  95 H :    0.033353
  96 H :    0.047057
  97 H :    0.021994
  98 H :    0.035000

  Mayer bond orders larger than 0.100000
B(  0-C ,  1-S ) :   1.1800 B(  0-C ,  4-C ) :   1.5505 B(  0-C , 70-H ) :   0.9702
B(  1-S ,  2-C ) :   1.1699 B(  2-C ,  3-C ) :   1.4512 B(  2-C , 10-C ) :   1.1351
B(  3-C ,  4-C ) :   1.2485 B(  3-C ,  8-C ) :   0.9440 B(  4-C ,  5-C ) :   0.9032
B(  5-C ,  6-O ) :   2.2998 B(  5-C ,  7-O ) :   1.0349 B(  7-O ,  8-C ) :   1.0577
B(  8-C ,  9-O ) :   2.1578 B( 10-C , 11-C ) :   1.6403 B( 10-C , 71-H ) :   0.9419
B( 11-C , 12-C ) :   1.1638 B( 11-C , 72-H ) :   0.9357 B( 12-C , 13-C ) :   1.4289
B( 12-C , 19-C ) :   1.0781 B( 13-C , 14-N ) :   0.9623 B( 13-C , 17-C ) :   1.1607
B( 14-N , 15-O ) :   1.4838 B( 14-N , 16-O ) :   1.4794 B( 15-O , 16-O ) :   0.2446
B( 17-C , 18-C ) :   1.5519 B( 17-C , 73-H ) :   1.0119 B( 18-C , 19-C ) :   1.1500
B( 18-C , 74-H ) :   0.9931 B( 19-C , 20-C ) :   1.3554 B( 20-C , 21-C ) :   1.2570
B( 20-C , 27-C ) :   1.0102 B( 21-C , 22-C ) :   1.4366 B( 21-C , 75-H ) :   1.0080
B( 22-C , 23-C ) :   1.2134 B( 22-C , 76-H ) :   1.0104 B( 23-C , 24-N ) :   0.9696
B( 23-C , 27-C ) :   1.3635 B( 24-N , 25-O ) :   1.5280 B( 24-N , 26-O ) :   1.4789
B( 25-O , 26-O ) :   0.2461 B( 27-C , 28-C ) :   1.3147 B( 28-C , 29-C ) :   1.3622
B( 28-C , 77-H ) :   0.9529 B( 29-C , 30-C ) :   1.2971 B( 29-C , 78-H ) :   0.9136
B( 30-C , 31-N ) :   1.1583 B( 30-C , 37-C ) :   1.2898 B( 31-N , 32-C ) :   0.9378
B( 31-N , 34-C ) :   1.0658 B( 32-C , 33-C ) :   1.1200 B( 32-C , 79-H ) :   0.9494
B( 32-C , 80-H ) :   0.9257 B( 33-C , 81-H ) :   0.9675 B( 33-C , 82-H ) :   0.9684
B( 33-C , 83-H ) :   0.9621 B( 34-C , 35-O ) :   2.0506 B( 34-C , 36-C ) :   0.9781
B( 36-C , 37-C ) :   1.3166 B( 36-C , 43-C ) :   1.2595 B( 37-C , 38-C ) :   0.9563
B( 38-C , 39-O ) :   2.1098 B( 38-C , 40-N ) :   1.0377 B( 40-N , 41-C ) :   0.9345
B( 40-N , 43-C ) :   1.1906 B( 41-C , 42-C ) :   1.1197 B( 41-C , 84-H ) :   0.9271
B( 41-C , 85-H ) :   0.9497 B( 42-C , 86-H ) :   0.9487 B( 42-C , 87-H ) :   0.9642
B( 42-C , 88-H ) :   0.9646 B( 43-C , 44-C ) :   1.1866 B( 44-C , 45-C ) :   1.5216
B( 44-C , 89-H ) :   0.9597 B( 45-C , 46-C ) :   1.1228 B( 45-C , 90-H ) :   0.9636
B( 46-C , 47-C ) :   1.3379 B( 46-C , 49-C ) :   0.1041 B( 46-C , 51-C ) :   1.2010
B( 47-C , 48-N ) :   1.5260 B( 47-C , 91-H ) :   0.9817 B( 48-N , 49-C ) :   1.5791
B( 49-C , 50-C ) :   1.1421 B( 49-C , 56-C ) :   1.1403 B( 50-C , 51-C ) :   1.2478
B( 50-C , 55-N ) :   1.5069 B( 51-C , 52-N ) :   1.4782 B( 52-N , 53-C ) :   1.6669
B( 53-C , 54-C ) :   1.2082 B( 53-C , 92-H ) :   0.9761 B( 54-C , 55-N ) :   1.6632
B( 54-C , 93-H ) :   0.9761 B( 56-C , 57-C ) :   1.6240 B( 56-C , 94-H ) :   0.9564
B( 57-C , 58-C ) :   1.1056 B( 57-C , 95-H ) :   0.9624 B( 58-C , 59-S ) :   1.1450
B( 58-C , 62-C ) :   1.4882 B( 59-S , 60-C ) :   1.1231 B( 60-C , 61-C ) :   1.5098
B( 60-C , 68-C ) :   1.1376 B( 61-C , 62-C ) :   1.2450 B( 61-C , 66-C ) :   0.9207
B( 62-C , 63-C ) :   0.9232 B( 63-C , 64-O ) :   2.1911 B( 63-C , 65-O ) :   1.0509
B( 65-O , 66-C ) :   1.0420 B( 66-C , 67-O ) :   2.2563 B( 68-C , 69-C ) :   1.8963
B( 68-C , 96-H ) :   0.9579 B( 69-C , 97-H ) :   0.9585 B( 69-C , 98-H ) :   0.9508

-----------------------------------------------------------------------------
         ABSORPTION SPECTRUM VIA TRANSITION ELECTRIC DIPOLE MOMENTS
-----------------------------------------------------------------------------
State   Energy  Wavelength   fosc         T2         TX        TY        TZ
        (cm-1)    (nm)                  (au**2)     (au)      (au)      (au)
-----------------------------------------------------------------------------
   0    5405.6   1849.9   0.227874667  13.87802  -1.51273  -3.39182  -0.29187
   1    9903.7   1009.7   0.036445759   1.21150  -0.83603   0.52208  -0.48988
   2   14558.1    686.9   0.722770215  16.34446  -0.84254  -3.52175   1.79773
   3   16603.2    602.3   0.037171815   0.73705  -0.58542  -0.57911   0.24282
   4   19888.5    502.8   0.423427707   7.00896   0.73325   2.45590  -0.66322
   5   20247.1    493.9   0.383865304   6.24155  -1.63490  -1.84411   0.40976
   6   20870.5    479.1   0.044204618   0.69728  -0.29113   0.78052  -0.05765
   7   22104.0    452.4   0.262166918   3.90466  -1.14519   0.18811  -1.59931
   8   22797.6    438.6   0.009430842   0.13619   0.08333  -0.23676   0.27054
   9   24092.1    415.1   0.007301696   0.09978   0.16010   0.26043   0.07951
  10   24874.6    402.0   0.098373006   1.30196  -0.74708  -0.75048  -0.42499
  11   24984.5    400.2   0.054780185   0.72182  -0.62169   0.57608   0.05871
  12   25358.7    394.3   0.015690067   0.20369  -0.18985  -0.28434   0.29462
  13   25400.2    393.7   0.144701378   1.87547   0.03147   0.91207  -1.02108
  14   26305.4    380.1   0.025960224   0.32489   0.35463   0.44504   0.03272
  15   26707.0    374.4   0.105709213   1.30305  -1.13765   0.09361  -0.00733
  16   26981.1    370.6   0.023682028   0.28896   0.51377   0.11698  -0.10638
  17   27639.0    361.8   0.237417772   2.82791   0.74683   1.31984  -0.72677
  18   27900.4    358.4   0.057952800   0.68382  -0.35412  -0.67674   0.31693
  19   28438.7    351.6   0.320937807   3.71524   0.96670   1.59372  -0.49072
  20   29212.6    342.3   0.029587954   0.33344   0.13908   0.21090   0.51925
  21   29344.8    340.8   0.109298156   1.22619   1.02766   0.33488   0.24075
  22   29802.6    335.5   0.365015879   4.03212   0.87630   1.07206  -1.45427
  23   29881.1    334.7   0.002840149   0.03129   0.00803   0.16415   0.06544
  24   30498.5    327.9   0.012065560   0.13024  -0.05701  -0.15330   0.32169
  25   30830.7    324.4   0.011346468   0.12116  -0.04632  -0.23829   0.24946
  26   30869.7    323.9   0.147347174   1.57139   0.21463   0.92857  -0.81430
  27   31284.5    319.6   0.011103068   0.11684   0.07681   0.06213  -0.32723
  28   31704.9    315.4   0.025507572   0.26486  -0.37208   0.08881  -0.34429
  29   31856.0    313.9   0.002048380   0.02117  -0.04241  -0.10774   0.08810
  30   31889.8    313.6   0.011552229   0.11926  -0.22795   0.05036  -0.25448
  31   31968.3    312.8   0.003026830   0.03117   0.11133   0.09678  -0.09701
  32   32089.2    311.6   0.105026987   1.07750   0.41850  -0.28565   0.90596
  33   32216.5    310.4   0.085265522   0.87130  -0.85245  -0.37180   0.07996
  34   32575.4    307.0   0.016614822   0.16791  -0.17331  -0.35210   0.11789
  35   32615.0    306.6   0.007715555   0.07788   0.11185   0.25431   0.02641
  36   32831.5    304.6   0.032674864   0.32764   0.35834   0.25988  -0.36290
  37   33081.5    302.3   0.018199807   0.18112   0.10586  -0.40875  -0.05320
  38   33170.7    301.5   0.050325377   0.49947  -0.43042  -0.06774  -0.55643
  39   33511.2    298.4   0.010712028   0.10523  -0.27440  -0.11822  -0.12635
  40   33916.0    294.8   0.030582886   0.29686  -0.07977  -0.44998   0.29667
  41   34140.3    292.9   0.009214710   0.08886   0.01036   0.15754   0.25284
  42   34322.6    291.4   0.107026775   1.02657   0.69913  -0.24596   0.69086
  43   34823.2    287.2   0.072777053   0.68802   0.15002   0.52966  -0.62046
  44   35281.3    283.4   0.033583265   0.31337   0.05624  -0.53555   0.15294
  45   35716.5    280.0   0.001384339   0.01276   0.02914   0.07388  -0.08033
  46   35901.5    278.5   0.051217872   0.46966   0.39770   0.30126   0.46983
  47   36018.5    277.6   0.023377132   0.21367  -0.11444   0.35158  -0.27742
  48   36089.7    277.1   0.021032208   0.19186   0.03746   0.19502  -0.39041
  49   36180.7    276.4   0.102227908   0.93018  -0.81482  -0.20342  -0.47420
  50   36408.0    274.7   0.098012568   0.88626   0.68862  -0.24444   0.59355
  51   36846.1    271.4   0.003774516   0.03372   0.03031   0.15412  -0.09515
  52   37007.0    270.2   0.011600139   0.10319  -0.23317   0.17462  -0.13540
  53   37534.0    266.4   0.031669449   0.27777   0.28056   0.19054  -0.40343
  54   37608.6    265.9   0.000857129   0.00750   0.03386  -0.07806  -0.01620
  55   37786.7    264.6   0.043406080   0.37817   0.40036  -0.22229   0.41045
  56   37859.5    264.1   0.003028523   0.02633   0.04796  -0.04004  -0.14977
  57   37881.8    264.0   0.015906795   0.13824   0.12689  -0.21007   0.27930
  58   38504.6    259.7   0.029671911   0.25369   0.20328  -0.19410   0.41797
  59   38965.9    256.6   0.045826557   0.38718  -0.20806   0.25585  -0.52766
  60   39030.5    256.2   0.031933074   0.26935  -0.00453  -0.19196   0.48216
  61   39139.0    255.5   0.014692631   0.12358   0.33682   0.07369  -0.06861
  62   39514.2    253.1   0.012669645   0.10556  -0.04533  -0.17351   0.27092
  63   39601.4    252.5   0.027912657   0.23204   0.03757   0.47352  -0.08009
  64   40052.2    249.7   0.011259222   0.09255  -0.17615  -0.22986   0.09317
  65   40209.5    248.7   0.051511273   0.42174  -0.41830   0.04110  -0.49506

FINAL SINGLE POINT ENERGY     -3962.644622361083

DIPOLE MOMENT
-------------
                                X             Y             Z
Electronic contribution:      9.62435       2.63620       4.97061
Nuclear contribution   :    -10.07459      -5.29063      -2.14124
                        -----------------------------------------
Total Dipole Moment    :     -0.45023      -2.65443       2.82938
                        -----------------------------------------
Magnitude (a.u.)       :      3.90564
Magnitude (Debye)      :      9.92736

Rotational constants in cm-1:     0.001935     0.000287     0.000259
Rotational constants in MHz :    58.007919     8.591226     7.777090

                             ****ORCA TERMINATED NORMALLY****
TOTAL RUN TIME: 0 days 0 hours 11 minutes 41 seconds 952 msec
