                         Program Version 4.2.0 -  RELEASE  -
|  1> # ORCA input file
|  2> # SCF done       -198.024592551885          0.000719798482
|  3> ! CAM-B3LYP def2-SVP def2/J RIJCOSX Grid4 TightSCF
|  4> %maxcore 5000
|  5> %tddft
|  6>     Mode sTDDFT
|  7>     Ethresh 5.0
|  8>     maxcore 5000
|  9> end
| 10>
| 11> %pal
| 12>   nprocs 6
| 13>   end
| 14> * xyz 0 1
| 15>    C        4.38434        -1.01791         2.43081
| 16>    S        3.60355        -0.24809         1.12428
| 17>    C        4.30944         1.29513         1.54481
| 18>    C        5.13305         1.15916         2.64854
| 19>    C        5.16668        -0.16378         3.14833
| 20>    C        5.91969        -0.56515         4.38951
| 21>    C        4.94173        -0.72196         5.44805
| 22>    N        4.15337        -0.82037         6.26925
| 23>    C        6.95576         0.49390         4.78877
| 24>    C        6.32620         1.88142         4.73369
| 25>    C        5.96099         2.24176         3.28519
| 26>    C        7.17913         2.37164         2.50793
| 27>    N        8.15020         2.41480         1.90755
| 28>    C        4.01684         2.48048         0.79327
| 29>    S        5.13566         3.81514         0.78964
| 30>    C        4.13959         4.75690        -0.28021
| 31>    C        2.96799         4.08463        -0.55651
| 32>    C        2.90808         2.79574         0.02201
| 33>    C        1.78084         1.87923        -0.34806
| 34>    N        2.27683         1.28515        -1.63609
| 35>    O        2.05197         1.89689        -2.65053
| 36>    O        2.91795         0.26912        -1.55654
| 37>    C        0.43994         2.58321        -0.57956
| 38>    C        0.52353         4.09825        -0.44503
| 39>    C        1.73951         4.64690        -1.20650
| 40>    N        1.66709         6.12022        -1.05557
| 41>    O        1.37808         6.75753        -2.03948
| 42>    O        1.84708         6.57449         0.04458
| 43>    C        4.66515         6.00347        -0.73286
| 44>    C        4.43949         6.55220        -1.95156
| 45>    C        5.04419         7.77573        -2.34307
| 46>    N        4.92977         8.32456        -3.59507
| 47>    C        4.17798         7.81111        -4.71587
| 48>    C        2.71332         8.23558        -4.65965
| 49>    C        5.63225         9.53855        -3.70280
| 50>    O        5.68067        10.19409        -4.72503
| 51>    C        6.22450         9.72878        -2.39739
| 52>    C        5.85367         8.62979        -1.58983
| 53>    C        6.45643         8.81207        -0.28579
| 54>    O        6.43921         8.12940         0.72016
| 55>    N        7.14146        10.03051        -0.38642
| 56>    C        7.90879        10.55024         0.72074
| 57>    C        9.39921        10.25804         0.56854
| 58>    C        7.02676        10.59017        -1.63941
| 59>    C        7.63275        11.80564        -2.01475
| 60>    C        7.52027        12.32944        -3.27107
| 61>    C        8.13286        13.53144        -3.68930
| 62>    C        8.94855        14.39685        -2.98212
| 63>    C        9.34288        15.46696        -3.82597
| 64>    C        8.70510        15.21532        -5.13426
| 65>    C        7.99165        14.06475        -5.03806
| 66>    C        8.80280        16.00975        -6.28177
| 67>    N        8.86253        16.63813        -7.24173
| 68>    C       10.16389        16.52803        -3.50820
| 69>    C       10.58965        17.58492        -4.35718
| 70>    C       11.43110        18.42433        -3.66170
| 71>    C       11.54212        17.91575        -2.30472
| 72>    C       10.79157        16.78457        -2.20067
| 73>    C       10.65689        16.01867        -1.03978
| 74>    N       10.56679        15.39671        -0.07692
| 75>    C       12.05236        19.58885        -4.20700
| 76>    S       11.40854        20.24491        -5.69259
| 77>    C       12.58024        21.48814        -5.70069
| 78>    C       13.43017        21.41495        -4.63475
| 79>    C       13.14145        20.32597        -3.78115
| 80>    C       13.97069        20.05041        -2.55474
| 81>    C       13.24529        20.54900        -1.40332
| 82>    N       12.67087        20.97395        -0.51125
| 83>    C       15.33359        20.75601        -2.63663
| 84>    C       15.14658        22.22665        -2.99437
| 85>    C       14.59257        22.34841        -4.42069
| 86>    C       15.62077        21.99371        -5.37873
| 87>    N       16.42902        21.68470        -6.12493
| 88>    H        4.22639        -2.06461         2.60089
| 89>    H        6.40375        -1.53718         4.23746
| 90>    H        7.80296         0.44632         4.10073
| 91>    H        7.32041         0.28507         5.79622
| 92>    H        7.02366         2.62527         5.12251
| 93>    H        5.42248         1.90301         5.34752
| 94>    H        5.43338         3.20222         3.26189
| 95>    H        1.69508         1.05111         0.35729
| 96>    H       -0.29425         2.20492         0.13090
| 97>    H        0.09247         2.34068        -1.58632
| 98>    H        0.63004         4.38183         0.60501
| 99>    H       -0.39342         4.54527        -0.83232
|100>    H        1.67364         4.41188        -2.27444
|101>    H        5.35658         6.49119        -0.05723
|102>    H        3.81615         6.05053        -2.67805
|103>    H        4.27159         6.72297        -4.74991
|104>    H        4.64523         8.23204        -5.61106
|105>    H        2.22797         7.86239        -3.76142
|106>    H        2.18734         7.84857        -5.52778
|107>    H        2.64420         9.32037        -4.66721
|108>    H        7.52665        10.04920         1.61446
|109>    H        7.73067        11.62459         0.81587
|110>    H        9.56494         9.18431         0.52490
|111>    H        9.93958        10.66009         1.42071
|112>    H        9.79547        10.70779        -0.33906
|113>    H        8.21053        12.33274        -1.26982
|114>    H        6.93475        11.79918        -4.01067
|115>    H        9.25268        14.29430        -1.95977
|116>    H        7.40916        13.60093        -5.81258
|117>    H       10.31220        17.69399        -5.38728
|118>    H       12.07595        18.37939        -1.49738
|119>    H       12.59005        22.20860        -6.49495
|120>    H       14.11870        18.97110        -2.43137
|121>    H       15.94537        20.26628        -3.39833
|122>    H       15.84472        20.66505        -1.67614
|123>    H       16.09962        22.75473        -2.92620
|124>    H       14.44679        22.69080        -2.29502
|125>    H       14.28804        23.38151        -4.62738
|126> *
|127>
|128>                          ****END OF INPUT****

CARTESIAN COORDINATES (ANGSTROEM)
---------------------------------
  C      4.384340   -1.017910    2.430810
  S      3.603550   -0.248090    1.124280
  C      4.309440    1.295130    1.544810
  C      5.133050    1.159160    2.648540
  C      5.166680   -0.163780    3.148330
  C      5.919690   -0.565150    4.389510
  C      4.941730   -0.721960    5.448050
  N      4.153370   -0.820370    6.269250
  C      6.955760    0.493900    4.788770
  C      6.326200    1.881420    4.733690
  C      5.960990    2.241760    3.285190
  C      7.179130    2.371640    2.507930
  N      8.150200    2.414800    1.907550
  C      4.016840    2.480480    0.793270
  S      5.135660    3.815140    0.789640
  C      4.139590    4.756900   -0.280210
  C      2.967990    4.084630   -0.556510
  C      2.908080    2.795740    0.022010
  C      1.780840    1.879230   -0.348060
  N      2.276830    1.285150   -1.636090
  O      2.051970    1.896890   -2.650530
  O      2.917950    0.269120   -1.556540
  C      0.439940    2.583210   -0.579560
  C      0.523530    4.098250   -0.445030
  C      1.739510    4.646900   -1.206500
  N      1.667090    6.120220   -1.055570
  O      1.378080    6.757530   -2.039480
  O      1.847080    6.574490    0.044580
  C      4.665150    6.003470   -0.732860
  C      4.439490    6.552200   -1.951560
  C      5.044190    7.775730   -2.343070
  N      4.929770    8.324560   -3.595070
  C      4.177980    7.811110   -4.715870
  C      2.713320    8.235580   -4.659650
  C      5.632250    9.538550   -3.702800
  O      5.680670   10.194090   -4.725030
  C      6.224500    9.728780   -2.397390
  C      5.853670    8.629790   -1.589830
  C      6.456430    8.812070   -0.285790
  O      6.439210    8.129400    0.720160
  N      7.141460   10.030510   -0.386420
  C      7.908790   10.550240    0.720740
  C      9.399210   10.258040    0.568540
  C      7.026760   10.590170   -1.639410
  C      7.632750   11.805640   -2.014750
  C      7.520270   12.329440   -3.271070
  C      8.132860   13.531440   -3.689300
  C      8.948550   14.396850   -2.982120
  C      9.342880   15.466960   -3.825970
  C      8.705100   15.215320   -5.134260
  C      7.991650   14.064750   -5.038060
  C      8.802800   16.009750   -6.281770
  N      8.862530   16.638130   -7.241730
  C     10.163890   16.528030   -3.508200
  C     10.589650   17.584920   -4.357180
  C     11.431100   18.424330   -3.661700
  C     11.542120   17.915750   -2.304720
  C     10.791570   16.784570   -2.200670
  C     10.656890   16.018670   -1.039780
  N     10.566790   15.396710   -0.076920
  C     12.052360   19.588850   -4.207000
  S     11.408540   20.244910   -5.692590
  C     12.580240   21.488140   -5.700690
  C     13.430170   21.414950   -4.634750
  C     13.141450   20.325970   -3.781150
  C     13.970690   20.050410   -2.554740
  C     13.245290   20.549000   -1.403320
  N     12.670870   20.973950   -0.511250
  C     15.333590   20.756010   -2.636630
  C     15.146580   22.226650   -2.994370
  C     14.592570   22.348410   -4.420690
  C     15.620770   21.993710   -5.378730
  N     16.429020   21.684700   -6.124930
  H      4.226390   -2.064610    2.600890
  H      6.403750   -1.537180    4.237460
  H      7.802960    0.446320    4.100730
  H      7.320410    0.285070    5.796220
  H      7.023660    2.625270    5.122510
  H      5.422480    1.903010    5.347520
  H      5.433380    3.202220    3.261890
  H      1.695080    1.051110    0.357290
  H     -0.294250    2.204920    0.130900
  H      0.092470    2.340680   -1.586320
  H      0.630040    4.381830    0.605010
  H     -0.393420    4.545270   -0.832320
  H      1.673640    4.411880   -2.274440
  H      5.356580    6.491190   -0.057230
  H      3.816150    6.050530   -2.678050
  H      4.271590    6.722970   -4.749910
  H      4.645230    8.232040   -5.611060
  H      2.227970    7.862390   -3.761420
  H      2.187340    7.848570   -5.527780
  H      2.644200    9.320370   -4.667210
  H      7.526650   10.049200    1.614460
  H      7.730670   11.624590    0.815870
  H      9.564940    9.184310    0.524900
  H      9.939580   10.660090    1.420710
  H      9.795470   10.707790   -0.339060
  H      8.210530   12.332740   -1.269820
  H      6.934750   11.799180   -4.010670
  H      9.252680   14.294300   -1.959770
  H      7.409160   13.600930   -5.812580
  H     10.312200   17.693990   -5.387280
  H     12.075950   18.379390   -1.497380
  H     12.590050   22.208600   -6.494950
  H     14.118700   18.971100   -2.431370
  H     15.945370   20.266280   -3.398330
  H     15.844720   20.665050   -1.676140
  H     16.099620   22.754730   -2.926200
  H     14.446790   22.690800   -2.295020
  H     14.288040   23.381510   -4.627380

 Total Charge           Charge          ....    0
 Multiplicity           Mult            ....    1
 Number of Electrons    NEL             ....  528
 Basis Dimension        Dim             .... 1224

ORBITAL ENERGIES
----------------

  NO   OCC          E(Eh)            E(eV)
   0   2.0000     -88.982171     -2421.3280
   1   2.0000     -88.979210     -2421.2474
   2   2.0000     -88.972030     -2421.0520
   3   2.0000     -19.267010      -524.2820
   4   2.0000     -19.265647      -524.2449
   5   2.0000     -19.260974      -524.1177
   6   2.0000     -19.260536      -524.1058
   7   2.0000     -19.197468      -522.3897
   8   2.0000     -19.191848      -522.2367
   9   2.0000     -14.662224      -398.9794
  10   2.0000     -14.657899      -398.8617
  11   2.0000     -14.457086      -393.3973
  12   2.0000     -14.454336      -393.3225
  13   2.0000     -14.413371      -392.2078
  14   2.0000     -14.410142      -392.1199
  15   2.0000     -14.409286      -392.0966
  16   2.0000     -14.408970      -392.0880
  17   2.0000     -14.406242      -392.0138
  18   2.0000     -14.406199      -392.0126
  19   2.0000     -10.378222      -282.4058
  20   2.0000     -10.375056      -282.3196
  21   2.0000     -10.356764      -281.8219
  22   2.0000     -10.350638      -281.6552
  23   2.0000     -10.344339      -281.4838
  24   2.0000     -10.341169      -281.3975
  25   2.0000     -10.339980      -281.3651
  26   2.0000     -10.336287      -281.2647
  27   2.0000     -10.335862      -281.2531
  28   2.0000     -10.334869      -281.2261
  29   2.0000     -10.332717      -281.1675
  30   2.0000     -10.332426      -281.1596
  31   2.0000     -10.326138      -280.9885
  32   2.0000     -10.322585      -280.8918
  33   2.0000     -10.320568      -280.8369
  34   2.0000     -10.319986      -280.8211
  35   2.0000     -10.315916      -280.7103
  36   2.0000     -10.314443      -280.6703
  37   2.0000     -10.313364      -280.6409
  38   2.0000     -10.312715      -280.6232
  39   2.0000     -10.312653      -280.6215
  40   2.0000     -10.312337      -280.6130
  41   2.0000     -10.311550      -280.5915
  42   2.0000     -10.311455      -280.5889
  43   2.0000     -10.310772      -280.5704
  44   2.0000     -10.309964      -280.5484
  45   2.0000     -10.309434      -280.5340
  46   2.0000     -10.309156      -280.5264
  47   2.0000     -10.308623      -280.5119
  48   2.0000     -10.308419      -280.5064
  49   2.0000     -10.307606      -280.4842
  50   2.0000     -10.307131      -280.4713
  51   2.0000     -10.307114      -280.4708
  52   2.0000     -10.307009      -280.4680
  53   2.0000     -10.306980      -280.4672
  54   2.0000     -10.306190      -280.4457
  55   2.0000     -10.306030      -280.4413
  56   2.0000     -10.305780      -280.4345
  57   2.0000     -10.303381      -280.3692
  58   2.0000     -10.302262      -280.3388
  59   2.0000     -10.300209      -280.2829
  60   2.0000     -10.300074      -280.2793
  61   2.0000     -10.299458      -280.2625
  62   2.0000     -10.299387      -280.2606
  63   2.0000     -10.298899      -280.2473
  64   2.0000     -10.298211      -280.2286
  65   2.0000     -10.298073      -280.2248
  66   2.0000     -10.292491      -280.0729
  67   2.0000     -10.282435      -279.7993
  68   2.0000     -10.281625      -279.7772
  69   2.0000     -10.267111      -279.3823
  70   2.0000     -10.263871      -279.2941
  71   2.0000     -10.260875      -279.2126
  72   2.0000     -10.252998      -278.9983
  73   2.0000      -8.076931      -219.7845
  74   2.0000      -8.074049      -219.7061
  75   2.0000      -8.067436      -219.5261
  76   2.0000      -6.046295      -164.5280
  77   2.0000      -6.043425      -164.4500
  78   2.0000      -6.041892      -164.4082
  79   2.0000      -6.039139      -164.3333
  80   2.0000      -6.038739      -164.3224
  81   2.0000      -6.036655      -164.2657
  82   2.0000      -6.036440      -164.2599
  83   2.0000      -6.032343      -164.1484
  84   2.0000      -6.029876      -164.0813
  85   2.0000      -1.347620       -36.6706
  86   2.0000      -1.342052       -36.5191
  87   2.0000      -1.169299       -31.8182
  88   2.0000      -1.162412       -31.6309
  89   2.0000      -1.137344       -30.9487
  90   2.0000      -1.129752       -30.7421
  91   2.0000      -1.066947       -29.0331
  92   2.0000      -1.057995       -28.7895
  93   2.0000      -1.033853       -28.1326
  94   2.0000      -1.022827       -27.8325
  95   2.0000      -1.018733       -27.7211
  96   2.0000      -1.013252       -27.5720
  97   2.0000      -1.000154       -27.2156
  98   2.0000      -0.999258       -27.1912
  99   2.0000      -0.999090       -27.1866
 100   2.0000      -0.994792       -27.0697
 101   2.0000      -0.992624       -27.0107
 102   2.0000      -0.983676       -26.7672
 103   2.0000      -0.978468       -26.6255
 104   2.0000      -0.972116       -26.4526
 105   2.0000      -0.954096       -25.9623
 106   2.0000      -0.948381       -25.8068
 107   2.0000      -0.945684       -25.7334
 108   2.0000      -0.930705       -25.3258
 109   2.0000      -0.919311       -25.0157
 110   2.0000      -0.914074       -24.8732
 111   2.0000      -0.910315       -24.7709
 112   2.0000      -0.907710       -24.7000
 113   2.0000      -0.876735       -23.8572
 114   2.0000      -0.872289       -23.7362
 115   2.0000      -0.867062       -23.5940
 116   2.0000      -0.864123       -23.5140
 117   2.0000      -0.859714       -23.3940
 118   2.0000      -0.853157       -23.2156
 119   2.0000      -0.849158       -23.1068
 120   2.0000      -0.844333       -22.9755
 121   2.0000      -0.838510       -22.8170
 122   2.0000      -0.821012       -22.3409
 123   2.0000      -0.819031       -22.2870
 124   2.0000      -0.816320       -22.2132
 125   2.0000      -0.795757       -21.6537
 126   2.0000      -0.784743       -21.3539
 127   2.0000      -0.780504       -21.2386
 128   2.0000      -0.776877       -21.1399
 129   2.0000      -0.764902       -20.8140
 130   2.0000      -0.758426       -20.6378
 131   2.0000      -0.750961       -20.4347
 132   2.0000      -0.730431       -19.8760
 133   2.0000      -0.726137       -19.7592
 134   2.0000      -0.724786       -19.7224
 135   2.0000      -0.716882       -19.5073
 136   2.0000      -0.712830       -19.3971
 137   2.0000      -0.709387       -19.3034
 138   2.0000      -0.708907       -19.2903
 139   2.0000      -0.705541       -19.1988
 140   2.0000      -0.700176       -19.0527
 141   2.0000      -0.689473       -18.7615
 142   2.0000      -0.677715       -18.4416
 143   2.0000      -0.676528       -18.4092
 144   2.0000      -0.664582       -18.0842
 145   2.0000      -0.662839       -18.0368
 146   2.0000      -0.657405       -17.8889
 147   2.0000      -0.654697       -17.8152
 148   2.0000      -0.652633       -17.7590
 149   2.0000      -0.649716       -17.6797
 150   2.0000      -0.646737       -17.5986
 151   2.0000      -0.646442       -17.5906
 152   2.0000      -0.640936       -17.4408
 153   2.0000      -0.635710       -17.2985
 154   2.0000      -0.628016       -17.0892
 155   2.0000      -0.623922       -16.9778
 156   2.0000      -0.614651       -16.7255
 157   2.0000      -0.610983       -16.6257
 158   2.0000      -0.606738       -16.5102
 159   2.0000      -0.605868       -16.4865
 160   2.0000      -0.601184       -16.3590
 161   2.0000      -0.598162       -16.2768
 162   2.0000      -0.593502       -16.1500
 163   2.0000      -0.591904       -16.1065
 164   2.0000      -0.590074       -16.0567
 165   2.0000      -0.584621       -15.9083
 166   2.0000      -0.579396       -15.7662
 167   2.0000      -0.573226       -15.5983
 168   2.0000      -0.568642       -15.4735
 169   2.0000      -0.566577       -15.4173
 170   2.0000      -0.564906       -15.3719
 171   2.0000      -0.553751       -15.0683
 172   2.0000      -0.550746       -14.9865
 173   2.0000      -0.545691       -14.8490
 174   2.0000      -0.544222       -14.8090
 175   2.0000      -0.543801       -14.7976
 176   2.0000      -0.542167       -14.7531
 177   2.0000      -0.541158       -14.7257
 178   2.0000      -0.538939       -14.6653
 179   2.0000      -0.532190       -14.4816
 180   2.0000      -0.531675       -14.4676
 181   2.0000      -0.529685       -14.4135
 182   2.0000      -0.528854       -14.3908
 183   2.0000      -0.526240       -14.3197
 184   2.0000      -0.525021       -14.2865
 185   2.0000      -0.521189       -14.1823
 186   2.0000      -0.519929       -14.1480
 187   2.0000      -0.517890       -14.0925
 188   2.0000      -0.513409       -13.9706
 189   2.0000      -0.511868       -13.9286
 190   2.0000      -0.509295       -13.8586
 191   2.0000      -0.507491       -13.8095
 192   2.0000      -0.504554       -13.7296
 193   2.0000      -0.499046       -13.5797
 194   2.0000      -0.498323       -13.5601
 195   2.0000      -0.491609       -13.3774
 196   2.0000      -0.488742       -13.2994
 197   2.0000      -0.487302       -13.2602
 198   2.0000      -0.483574       -13.1587
 199   2.0000      -0.481276       -13.0962
 200   2.0000      -0.478915       -13.0319
 201   2.0000      -0.476957       -12.9787
 202   2.0000      -0.475544       -12.9402
 203   2.0000      -0.474516       -12.9122
 204   2.0000      -0.467368       -12.7177
 205   2.0000      -0.465366       -12.6632
 206   2.0000      -0.462791       -12.5932
 207   2.0000      -0.462366       -12.5816
 208   2.0000      -0.461783       -12.5658
 209   2.0000      -0.459503       -12.5037
 210   2.0000      -0.457247       -12.4423
 211   2.0000      -0.454458       -12.3664
 212   2.0000      -0.453118       -12.3300
 213   2.0000      -0.450975       -12.2717
 214   2.0000      -0.449864       -12.2414
 215   2.0000      -0.448650       -12.2084
 216   2.0000      -0.446270       -12.1436
 217   2.0000      -0.444453       -12.0942
 218   2.0000      -0.442098       -12.0301
 219   2.0000      -0.441629       -12.0173
 220   2.0000      -0.439553       -11.9609
 221   2.0000      -0.439432       -11.9576
 222   2.0000      -0.439084       -11.9481
 223   2.0000      -0.437765       -11.9122
 224   2.0000      -0.435629       -11.8541
 225   2.0000      -0.434055       -11.8112
 226   2.0000      -0.432635       -11.7726
 227   2.0000      -0.431082       -11.7303
 228   2.0000      -0.430777       -11.7220
 229   2.0000      -0.428573       -11.6621
 230   2.0000      -0.427541       -11.6340
 231   2.0000      -0.423137       -11.5141
 232   2.0000      -0.419233       -11.4079
 233   2.0000      -0.415278       -11.3003
 234   2.0000      -0.412708       -11.2304
 235   2.0000      -0.411884       -11.2079
 236   2.0000      -0.411596       -11.2001
 237   2.0000      -0.410843       -11.1796
 238   2.0000      -0.406069       -11.0497
 239   2.0000      -0.404492       -11.0068
 240   2.0000      -0.404266       -11.0006
 241   2.0000      -0.402997       -10.9661
 242   2.0000      -0.402658       -10.9569
 243   2.0000      -0.401430       -10.9235
 244   2.0000      -0.397871       -10.8266
 245   2.0000      -0.395162       -10.7529
 246   2.0000      -0.393111       -10.6971
 247   2.0000      -0.387003       -10.5309
 248   2.0000      -0.383697       -10.4409
 249   2.0000      -0.381881       -10.3915
 250   2.0000      -0.375644       -10.2218
 251   2.0000      -0.351495        -9.5647
 252   2.0000      -0.347911        -9.4671
 253   2.0000      -0.344529        -9.3751
 254   2.0000      -0.340634        -9.2691
 255   2.0000      -0.335688        -9.1345
 256   2.0000      -0.334569        -9.1041
 257   2.0000      -0.333583        -9.0773
 258   2.0000      -0.323977        -8.8159
 259   2.0000      -0.317710        -8.6453
 260   2.0000      -0.300544        -8.1782
 261   2.0000      -0.288338        -7.8461
 262   2.0000      -0.278856        -7.5881
 263   2.0000      -0.234843        -6.3904
 264   0.0000      -0.130058        -3.5391
 265   0.0000      -0.079376        -2.1599
 266   0.0000      -0.046230        -1.2580
 267   0.0000      -0.036730        -0.9995
 268   0.0000      -0.029715        -0.8086

MULLIKEN ATOMIC CHARGES
-----------------------
   0 C :   -0.094848
   1 S :    0.161987
   2 C :   -0.142456
   3 C :    0.010497
   4 C :   -0.028334
   5 C :    0.042138
   6 C :   -0.287628
   7 N :    0.114139
   8 C :    0.057860
   9 C :    0.072220
  10 C :    0.007429
  11 C :   -0.291997
  12 N :    0.123857
  13 C :   -0.106381
  14 S :    0.160079
  15 C :   -0.116589
  16 C :    0.000435
  17 C :   -0.045774
  18 C :    0.036415
  19 N :    0.207709
  20 O :   -0.224885
  21 O :   -0.212714
  22 C :    0.133936
  23 C :    0.038518
  24 C :    0.135077
  25 N :    0.196137
  26 O :   -0.222750
  27 O :   -0.198787
  28 C :    0.031434
  29 C :   -0.013512
  30 C :    0.132211
  31 N :   -0.256478
  32 C :    0.096473
  33 C :    0.002495
  34 C :    0.167731
  35 O :   -0.206668
  36 C :   -0.056571
  37 C :   -0.072346
  38 C :    0.173527
  39 O :   -0.215295
  40 N :   -0.257653
  41 C :    0.095999
  42 C :    0.005420
  43 C :    0.144504
  44 C :   -0.008838
  45 C :   -0.002367
  46 C :    0.115834
  47 C :   -0.125956
  48 C :    0.119440
  49 C :   -0.095025
  50 C :    0.001136
  51 C :   -0.170489
  52 N :    0.131481
  53 C :    0.118397
  54 C :   -0.140677
  55 C :    0.113562
  56 C :   -0.024971
  57 C :   -0.109925
  58 C :   -0.164139
  59 N :    0.125525
  60 C :   -0.150173
  61 S :    0.171449
  62 C :   -0.102207
  63 C :   -0.022805
  64 C :    0.025685
  65 C :    0.007682
  66 C :   -0.289076
  67 N :    0.119499
  68 C :    0.066859
  69 C :    0.059316
  70 C :    0.036778
  71 C :   -0.285771
  72 N :    0.113456
  73 H :    0.027736
  74 H :    0.046689
  75 H :    0.044044
  76 H :    0.032334
  77 H :    0.034720
  78 H :    0.042406
  79 H :    0.057603
  80 H :    0.029078
  81 H :    0.030254
  82 H :    0.030672
  83 H :    0.037805
  84 H :    0.032395
  85 H :    0.049286
  86 H :    0.025903
  87 H :   -0.020035
  88 H :    0.023786
  89 H :    0.038754
  90 H :    0.024903
  91 H :    0.016450
  92 H :    0.025051
  93 H :    0.042542
  94 H :    0.031911
  95 H :    0.029249
  96 H :    0.029222
  97 H :    0.016263
  98 H :   -0.012735
  99 H :    0.003170
 100 H :   -0.001294
 101 H :    0.011785
 102 H :    0.010695
 103 H :   -0.001706
 104 H :    0.029499
 105 H :    0.053068
 106 H :    0.043671
 107 H :    0.033204
 108 H :    0.033173
 109 H :    0.042035
 110 H :    0.046175
Sum of atomic charges:   -0.0000000

LOEWDIN ATOMIC CHARGES
----------------------
   0 C :   -0.175837
   1 S :    0.505149
   2 C :   -0.187875
   3 C :   -0.046837
   4 C :   -0.056239
   5 C :   -0.040398
   6 C :   -0.036703
   7 N :   -0.065426
   8 C :   -0.009342
   9 C :   -0.005872
  10 C :   -0.055355
  11 C :   -0.052306
  12 N :   -0.058966
  13 C :   -0.168078
  14 S :    0.514744
  15 C :   -0.165093
  16 C :   -0.061649
  17 C :   -0.080075
  18 C :    0.011691
  19 N :    0.275022
  20 O :   -0.198223
  21 O :   -0.188631
  22 C :   -0.026788
  23 C :   -0.015330
  24 C :    0.014102
  25 N :    0.279590
  26 O :   -0.188789
  27 O :   -0.176635
  28 C :    0.003495
  29 C :   -0.044644
  30 C :    0.084129
  31 N :    0.005842
  32 C :    0.036746
  33 C :   -0.065783
  34 C :    0.083471
  35 O :   -0.194264
  36 C :   -0.108316
  37 C :   -0.120682
  38 C :    0.080610
  39 O :   -0.202800
  40 N :    0.002558
  41 C :    0.036997
  42 C :   -0.059725
  43 C :    0.069352
  44 C :   -0.016219
  45 C :    0.017611
  46 C :   -0.014782
  47 C :   -0.027760
  48 C :    0.042868
  49 C :   -0.082518
  50 C :    0.062936
  51 C :   -0.029896
  52 N :   -0.064017
  53 C :    0.031363
  54 C :   -0.035817
  55 C :   -0.031801
  56 C :    0.042017
  57 C :   -0.080400
  58 C :   -0.026609
  59 N :   -0.070695
  60 C :   -0.162224
  61 S :    0.488614
  62 C :   -0.166556
  63 C :   -0.058653
  64 C :   -0.044270
  65 C :   -0.044428
  66 C :   -0.039638
  67 N :   -0.060905
  68 C :   -0.006417
  69 C :   -0.008810
  70 C :   -0.040721
  71 C :   -0.037272
  72 N :   -0.063836
  73 H :    0.030035
  74 H :    0.061920
  75 H :    0.037475
  76 H :    0.038396
  77 H :    0.039573
  78 H :    0.036950
  79 H :    0.048591
  80 H :    0.023534
  81 H :    0.040891
  82 H :    0.037341
  83 H :    0.035266
  84 H :    0.037215
  85 H :    0.042085
  86 H :    0.039725
  87 H :    0.027096
  88 H :    0.023464
  89 H :    0.035884
  90 H :    0.020594
  91 H :    0.028619
  92 H :    0.030361
  93 H :    0.037904
  94 H :    0.026105
  95 H :    0.031850
  96 H :    0.033502
  97 H :    0.022590
  98 H :    0.034989
  99 H :    0.037217
 100 H :    0.030785
 101 H :    0.042640
 102 H :    0.029184
 103 H :    0.037166
 104 H :    0.030181
 105 H :    0.059447
 106 H :    0.037744
 107 H :    0.038684
 108 H :    0.038614
 109 H :    0.036777
 110 H :    0.061605

  Mayer bond orders larger than 0.100000
B(  0-C ,  1-S ) :   1.1678 B(  0-C ,  4-C ) :   1.5591 B(  0-C , 73-H ) :   0.9706
B(  1-S ,  2-C ) :   1.1657 B(  2-C ,  3-C ) :   1.4992 B(  2-C , 13-C ) :   1.1025
B(  3-C ,  4-C ) :   1.3341 B(  3-C , 10-C ) :   1.0162 B(  4-C ,  5-C ) :   0.9790
B(  5-C ,  6-C ) :   1.0338 B(  5-C ,  8-C ) :   1.0826 B(  5-C , 74-H ) :   0.8647
B(  6-C ,  7-N ) :   3.1182 B(  8-C ,  9-C ) :   1.0444 B(  8-C , 75-H ) :   0.9401
B(  8-C , 76-H ) :   0.9354 B(  9-C , 10-C ) :   1.0749 B(  9-C , 77-H ) :   0.9332
B(  9-C , 78-H ) :   0.9458 B( 10-C , 11-C ) :   1.0099 B( 10-C , 79-H ) :   0.8466
B( 11-C , 12-N ) :   3.1114 B( 13-C , 14-S ) :   1.1525 B( 13-C , 15-C ) :   0.1011
B( 13-C , 17-C ) :   1.5045 B( 14-S , 15-C ) :   1.1302 B( 15-C , 16-C ) :   1.5416
B( 15-C , 28-C ) :   1.0855 B( 16-C , 17-C ) :   1.2812 B( 16-C , 24-C ) :   0.9757
B( 17-C , 18-C ) :   1.0562 B( 18-C , 19-N ) :   0.8333 B( 18-C , 22-C ) :   1.0236
B( 18-C , 80-H ) :   0.8721 B( 19-N , 20-O ) :   1.5735 B( 19-N , 21-O ) :   1.5853
B( 20-O , 21-O ) :   0.2593 B( 22-C , 23-C ) :   1.1384 B( 22-C , 81-H ) :   0.9223
B( 22-C , 82-H ) :   0.8999 B( 23-C , 24-C ) :   1.0828 B( 23-C , 83-H ) :   0.9067
B( 23-C , 84-H ) :   0.9351 B( 24-C , 25-N ) :   0.8351 B( 24-C , 85-H ) :   0.8863
B( 25-N , 26-O ) :   1.4975 B( 25-N , 27-O ) :   1.5844 B( 26-O , 27-O ) :   0.2666
B( 28-C , 29-C ) :   1.6453 B( 28-C , 86-H ) :   0.9164 B( 29-C , 30-C ) :   1.1821
B( 29-C , 87-H ) :   0.9548 B( 30-C , 31-N ) :   1.1729 B( 30-C , 37-C ) :   1.3190
B( 31-N , 32-C ) :   0.9391 B( 31-N , 34-C ) :   1.0598 B( 32-C , 33-C ) :   1.1217
B( 32-C , 88-H ) :   0.9493 B( 32-C , 89-H ) :   0.9289 B( 33-C , 90-H ) :   0.9578
B( 33-C , 91-H ) :   0.9647 B( 33-C , 92-H ) :   0.9602 B( 34-C , 35-O ) :   2.0231
B( 34-C , 36-C ) :   0.9835 B( 35-O , 99-H ) :   0.1131 B( 36-C , 37-C ) :   1.2744
B( 36-C , 43-C ) :   1.3158 B( 37-C , 38-C ) :   0.9867 B( 38-C , 39-O ) :   2.0141
B( 38-C , 40-N ) :   1.0700 B( 39-O , 86-H ) :   0.1198 B( 40-N , 41-C ) :   0.9413
B( 40-N , 43-C ) :   1.1545 B( 41-C , 42-C ) :   1.1218 B( 41-C , 93-H ) :   0.9279
B( 41-C , 94-H ) :   0.9500 B( 42-C , 95-H ) :   0.9636 B( 42-C , 96-H ) :   0.9678
B( 42-C , 97-H ) :   0.9684 B( 43-C , 44-C ) :   1.1758 B( 44-C , 45-C ) :   1.5540
B( 44-C , 98-H ) :   0.9662 B( 45-C , 46-C ) :   1.1253 B( 45-C , 99-H ) :   0.9563
B( 46-C , 47-C ) :   1.5076 B( 46-C , 50-C ) :   1.0306 B( 47-C , 48-C ) :   1.1521
B( 47-C ,100-H ) :   0.9942 B( 48-C , 49-C ) :   1.0990 B( 48-C , 53-C ) :   1.3788
B( 49-C , 50-C ) :   1.6657 B( 49-C , 51-C ) :   1.0886 B( 50-C ,101-H ) :   1.0282
B( 51-C , 52-N ) :   2.9611 B( 53-C , 54-C ) :   1.1423 B( 53-C , 57-C ) :   1.1119
B( 54-C , 55-C ) :   1.5424 B( 54-C ,102-H ) :   0.9932 B( 55-C , 56-C ) :   1.0607
B( 55-C , 60-C ) :   1.0799 B( 56-C , 57-C ) :   1.6613 B( 56-C ,103-H ) :   1.0111
B( 57-C , 58-C ) :   1.0925 B( 58-C , 59-N ) :   2.9554 B( 60-C , 61-S ) :   1.1683
B( 60-C , 64-C ) :   1.5075 B( 61-S , 62-C ) :   1.1799 B( 62-C , 63-C ) :   1.5540
B( 62-C ,104-H ) :   0.9716 B( 63-C , 64-C ) :   1.3286 B( 63-C , 70-C ) :   0.9768
B( 64-C , 65-C ) :   1.0079 B( 65-C , 66-C ) :   1.0225 B( 65-C , 68-C ) :   1.0754
B( 65-C ,105-H ) :   0.8569 B( 66-C , 67-N ) :   3.0859 B( 68-C , 69-C ) :   1.0430
B( 68-C ,106-H ) :   0.9439 B( 68-C ,107-H ) :   0.9344 B( 69-C , 70-C ) :   1.0848
B( 69-C ,108-H ) :   0.9358 B( 69-C ,109-H ) :   0.9419 B( 70-C , 71-C ) :   1.0337
B( 70-C ,110-H ) :   0.8651 B( 71-C , 72-N ) :   3.1156

-----------------------------------------------------------------------------
         ABSORPTION SPECTRUM VIA TRANSITION ELECTRIC DIPOLE MOMENTS
-----------------------------------------------------------------------------
State   Energy  Wavelength   fosc         T2         TX        TY        TZ
        (cm-1)    (nm)                  (au**2)     (au)      (au)      (au)
-----------------------------------------------------------------------------
   0    9130.6   1095.2   0.694801563  25.05160  -2.48277  -4.32312   0.44508
   1   15391.7    649.7   0.039013058   0.83445   0.58254   0.67171   0.20953
   2   17720.2    564.3   0.198046481   3.67937   0.75005   1.73544  -0.32412
   3   18983.9    526.8   0.176345173   3.05812   0.71623   1.59116  -0.11556
   4   23970.2    417.2   0.221479425   3.04184   0.38491   1.48312  -0.83310
   5   24408.3    409.7   0.055844698   0.75322   0.06838   0.69324  -0.51765
   6   24922.4    401.2   0.495646075   6.54723   1.41215   2.11649  -0.27117
   7   25949.7    385.4   0.016063516   0.20379   0.00067   0.29567  -0.34113
   8   26803.5    373.1   0.001879908   0.02309  -0.02716  -0.14897  -0.01270
   9   27221.5    367.4   0.117953219   1.42650   0.34646  -0.69032   0.91101
  10   28378.4    352.4   0.012797370   0.14846  -0.24566  -0.02558  -0.29573
  11   29151.4    343.0   0.010037952   0.11336   0.20729   0.25116   0.08552
  12   30269.8    330.4   0.115673685   1.25806   0.42910   0.93563  -0.44557
  13   30331.2    329.7   0.040005815   0.43422  -0.11358   0.50368  -0.40942
  14   30722.6    325.5   0.122344989   1.31100   0.04141  -1.03241   0.49338
  15   31151.4    321.0   0.324412668   3.42844   0.05550   1.26822  -1.34795
  16   32238.5    310.2   0.025754786   0.26300  -0.12407   0.21947  -0.44659
  17   33179.3    301.4   0.027573976   0.27360   0.08210   0.41438  -0.30846
  18   33827.0    295.6   0.057111509   0.55582  -0.33822  -0.63631   0.19116
  19   34730.5    287.9   0.180936818   1.71511  -0.22711   0.93846  -0.88478
  20   34969.0    286.0   0.009682568   0.09116   0.08870  -0.22630   0.17909
  21   35271.8    283.5   0.001920061   0.01792  -0.10428   0.06320  -0.05525
  22   35458.8    282.0   0.058731466   0.54528   0.30304  -0.27446   0.61492
  23   36137.5    276.7   0.007854853   0.07156  -0.12894  -0.21717   0.08814
  24   36221.1    276.1   0.127325884   1.15726  -0.48062  -0.90958   0.31452
  25   36488.0    274.1   0.018651773   0.16828  -0.23043   0.33010  -0.07886
  26   37091.1    269.6   0.001785970   0.01585   0.04903   0.06596   0.09538
  27   37479.4    266.8   0.090449304   0.79449   0.37275   0.62426  -0.51560
  28   38421.7    260.3   0.002519738   0.02159  -0.14185  -0.01281  -0.03613
  29   38570.0    259.3   0.001887799   0.01611   0.00859   0.10412  -0.07210
  30   39044.8    256.1   0.091399467   0.77065  -0.40946  -0.16432  -0.75894
  31   39757.1    251.5   0.199418141   1.65130  -0.18018   1.15306  -0.53785
  32   40085.0    249.5   0.055903900   0.45913  -0.42310  -0.50007   0.17333

FINAL SINGLE POINT ENERGY     -4269.545843586538

DIPOLE MOMENT
-------------
                                X             Y             Z
Electronic contribution:     -2.32736      -0.27417     -11.56822
Nuclear contribution   :      1.09637      -1.55727      12.49343
                        -----------------------------------------
Total Dipole Moment    :     -1.23099      -1.83144       0.92522
                        -----------------------------------------
Magnitude (a.u.)       :      2.39281
Magnitude (Debye)      :      6.08203

Rotational constants in cm-1:     0.002152     0.000220     0.000205
Rotational constants in MHz :    64.529800     6.608354     6.158486

                             ****ORCA TERMINATED NORMALLY****
TOTAL RUN TIME: 0 days 0 hours 12 minutes 31 seconds 290 msec
