                         Program Version 4.2.0 -  RELEASE  -
|  1> # ORCA input file
|  2> # SCF done       -172.903027493075          0.000821305530
|  3> ! CAM-B3LYP def2-SVP def2/J RIJCOSX Grid4 TightSCF
|  4> %maxcore 5000
|  5> %tddft
|  6>     Mode sTDDFT
|  7>     Ethresh 5.0
|  8>     maxcore 5000
|  9> end
| 10>
| 11> %pal
| 12>   nprocs 6
| 13>   end
| 14> * xyz 0 1
| 15>    C        1.27673        -1.23852         0.75066
| 16>    S        1.22140         0.45496         0.98452
| 17>    C        2.44222         0.71022        -0.23306
| 18>    C        2.85188        -0.48709        -0.76926
| 19>    C        2.18059        -1.60060        -0.20049
| 20>    C        2.50829        -3.03073        -0.54271
| 21>    C        3.23638        -3.57987         0.58396
| 22>    N        3.82769        -3.98454         1.47409
| 23>    C        3.36465        -3.13112        -1.81294
| 24>    C        4.48341        -2.09480        -1.77552
| 25>    C        3.89106        -0.67802        -1.84170
| 26>    C        3.23712        -0.50427        -3.12515
| 27>    N        2.68466        -0.41109        -4.12095
| 28>    C        2.88981         2.06678        -0.49049
| 29>    C        3.33735         2.49046        -1.73811
| 30>    C        3.76797         3.79623        -1.92514
| 31>    N        4.33730         4.12554        -3.20717
| 32>    O        4.05600         3.41329        -4.14630
| 33>    O        5.10064         5.06777        -3.25847
| 34>    C        3.72854         4.75065        -0.89634
| 35>    C        3.27366         4.30574         0.35155
| 36>    C        2.87421         3.00611         0.55137
| 37>    C        4.04177         6.14472        -1.11294
| 38>    C        4.66392         6.92591        -0.20701
| 39>    C        4.88304         8.31529        -0.43458
| 40>    N        5.65926         9.11560         0.37284
| 41>    C        6.46097         8.68967         1.49225
| 42>    C        7.72801         7.96707         1.04054
| 43>    C        5.68469        10.45289        -0.07712
| 44>    O        6.31114        11.33525         0.47495
| 45>    C        4.83427        10.44365        -1.24152
| 46>    C        4.36085         9.12090        -1.43719
| 47>    C        3.49902         9.13936        -2.59601
| 48>    O        2.86792         8.26308        -3.15324
| 49>    N        3.51069        10.48128        -3.03002
| 50>    C        2.74733        10.85566        -4.19674
| 51>    C        1.35589        11.36512        -3.82936
| 52>    C        4.29502        11.26990        -2.22122
| 53>    C        4.57773        12.66465        -2.28525
| 54>    C        4.01153        13.62053        -3.05161
| 55>    C        4.38539        15.01019        -3.00704
| 56>    C        5.46887        15.52665        -2.34312
| 57>    S        5.61430        17.22387        -2.50882
| 58>    C        4.21108        17.28931        -3.47635
| 59>    C        3.65093        16.05587        -3.67421
| 60>    C        2.42977        15.86200        -4.46155
| 61>    O        1.89578        14.81056        -4.71719
| 62>    O        1.94177        17.05642        -4.88927
| 63>    C        0.77844        17.06156        -5.59987
| 64>    C        0.25607        18.21006        -6.03804
| 65>    C       -0.97402        18.30212        -6.76615
| 66>    S       -1.94629        16.89948        -7.10844
| 67>    C       -3.13322        17.86241        -7.88769
| 68>    C       -2.81076        19.18527        -7.88998
| 69>    C       -1.56661        19.44032        -7.26415
| 70>    C       -1.00532        20.83171        -7.13123
| 71>    C       -1.18615        21.25354        -5.75713
| 72>    N       -1.35109        21.57580        -4.67295
| 73>    C       -1.71428        21.81099        -8.07958
| 74>    C       -3.22797        21.65012        -7.98164
| 75>    C       -3.64370        20.27177        -8.51634
| 76>    C       -3.44246        20.21493        -9.95000
| 77>    N       -3.25459        20.17077       -11.07638
| 78>    H        0.64568        -1.87755         1.33619
| 79>    H        1.58569        -3.61240        -0.65747
| 80>    H        2.73326        -2.95815        -2.68759
| 81>    H        3.78476        -4.13602        -1.88873
| 82>    H        5.15861        -2.24366        -2.62019
| 83>    H        5.05836        -2.20169        -0.85223
| 84>    H        4.68468         0.07205        -1.74619
| 85>    H        3.33988         1.83434        -2.59495
| 86>    H        3.21040         5.01439         1.16275
| 87>    H        2.53385         2.69679         1.52863
| 88>    H        3.74043         6.57860        -2.05787
| 89>    H        5.04683         6.49974         0.71035
| 90>    H        5.86486         8.05283         2.15296
| 91>    H        6.72981         9.60183         2.03284
| 92>    H        7.48391         7.08707         0.44931
| 93>    H        8.30809         7.66030         1.90667
| 94>    H        8.33559         8.63248         0.43240
| 95>    H        2.64755         9.94549        -4.79641
| 96>    H        3.30448        11.59654        -4.77305
| 97>    H        0.78504        10.56873        -3.35806
| 98>    H        0.83609        11.68791        -4.72657
| 99>    H        1.41243        12.20598        -3.14253
|100>    H        5.33743        12.94616        -1.56727
|101>    H        3.20589        13.39903        -3.73047
|102>    H        6.20108        14.99693        -1.76801
|103>    H        3.86213        18.22883        -3.85536
|104>    H        0.32443        16.09239        -5.76831
|105>    H        0.76966        19.13513        -5.81821
|106>    H       -4.00475        17.39714        -8.30383
|107>    H        0.07120        20.82843        -7.34138
|108>    H       -1.39117        21.61203        -9.10443
|109>    H       -1.42850        22.83315        -7.82320
|110>    H       -3.72570        22.43160        -8.55903
|111>    H       -3.54233        21.74000        -6.93889
|112>    H       -4.70753        20.08988        -8.32224
|113> *
|114>
|115>                          ****END OF INPUT****

CARTESIAN COORDINATES (ANGSTROEM)
---------------------------------
  C      1.276730   -1.238520    0.750660
  S      1.221400    0.454960    0.984520
  C      2.442220    0.710220   -0.233060
  C      2.851880   -0.487090   -0.769260
  C      2.180590   -1.600600   -0.200490
  C      2.508290   -3.030730   -0.542710
  C      3.236380   -3.579870    0.583960
  N      3.827690   -3.984540    1.474090
  C      3.364650   -3.131120   -1.812940
  C      4.483410   -2.094800   -1.775520
  C      3.891060   -0.678020   -1.841700
  C      3.237120   -0.504270   -3.125150
  N      2.684660   -0.411090   -4.120950
  C      2.889810    2.066780   -0.490490
  C      3.337350    2.490460   -1.738110
  C      3.767970    3.796230   -1.925140
  N      4.337300    4.125540   -3.207170
  O      4.056000    3.413290   -4.146300
  O      5.100640    5.067770   -3.258470
  C      3.728540    4.750650   -0.896340
  C      3.273660    4.305740    0.351550
  C      2.874210    3.006110    0.551370
  C      4.041770    6.144720   -1.112940
  C      4.663920    6.925910   -0.207010
  C      4.883040    8.315290   -0.434580
  N      5.659260    9.115600    0.372840
  C      6.460970    8.689670    1.492250
  C      7.728010    7.967070    1.040540
  C      5.684690   10.452890   -0.077120
  O      6.311140   11.335250    0.474950
  C      4.834270   10.443650   -1.241520
  C      4.360850    9.120900   -1.437190
  C      3.499020    9.139360   -2.596010
  O      2.867920    8.263080   -3.153240
  N      3.510690   10.481280   -3.030020
  C      2.747330   10.855660   -4.196740
  C      1.355890   11.365120   -3.829360
  C      4.295020   11.269900   -2.221220
  C      4.577730   12.664650   -2.285250
  C      4.011530   13.620530   -3.051610
  C      4.385390   15.010190   -3.007040
  C      5.468870   15.526650   -2.343120
  S      5.614300   17.223870   -2.508820
  C      4.211080   17.289310   -3.476350
  C      3.650930   16.055870   -3.674210
  C      2.429770   15.862000   -4.461550
  O      1.895780   14.810560   -4.717190
  O      1.941770   17.056420   -4.889270
  C      0.778440   17.061560   -5.599870
  C      0.256070   18.210060   -6.038040
  C     -0.974020   18.302120   -6.766150
  S     -1.946290   16.899480   -7.108440
  C     -3.133220   17.862410   -7.887690
  C     -2.810760   19.185270   -7.889980
  C     -1.566610   19.440320   -7.264150
  C     -1.005320   20.831710   -7.131230
  C     -1.186150   21.253540   -5.757130
  N     -1.351090   21.575800   -4.672950
  C     -1.714280   21.810990   -8.079580
  C     -3.227970   21.650120   -7.981640
  C     -3.643700   20.271770   -8.516340
  C     -3.442460   20.214930   -9.950000
  N     -3.254590   20.170770  -11.076380
  H      0.645680   -1.877550    1.336190
  H      1.585690   -3.612400   -0.657470
  H      2.733260   -2.958150   -2.687590
  H      3.784760   -4.136020   -1.888730
  H      5.158610   -2.243660   -2.620190
  H      5.058360   -2.201690   -0.852230
  H      4.684680    0.072050   -1.746190
  H      3.339880    1.834340   -2.594950
  H      3.210400    5.014390    1.162750
  H      2.533850    2.696790    1.528630
  H      3.740430    6.578600   -2.057870
  H      5.046830    6.499740    0.710350
  H      5.864860    8.052830    2.152960
  H      6.729810    9.601830    2.032840
  H      7.483910    7.087070    0.449310
  H      8.308090    7.660300    1.906670
  H      8.335590    8.632480    0.432400
  H      2.647550    9.945490   -4.796410
  H      3.304480   11.596540   -4.773050
  H      0.785040   10.568730   -3.358060
  H      0.836090   11.687910   -4.726570
  H      1.412430   12.205980   -3.142530
  H      5.337430   12.946160   -1.567270
  H      3.205890   13.399030   -3.730470
  H      6.201080   14.996930   -1.768010
  H      3.862130   18.228830   -3.855360
  H      0.324430   16.092390   -5.768310
  H      0.769660   19.135130   -5.818210
  H     -4.004750   17.397140   -8.303830
  H      0.071200   20.828430   -7.341380
  H     -1.391170   21.612030   -9.104430
  H     -1.428500   22.833150   -7.823200
  H     -3.725700   22.431600   -8.559030
  H     -3.542330   21.740000   -6.938890
  H     -4.707530   20.089880   -8.322240

 Total Charge           Charge          ....    0
 Multiplicity           Mult            ....    1
 Number of Electrons    NEL             ....  462
 Basis Dimension        Dim             .... 1069

ORBITAL ENERGIES
----------------

  NO   OCC          E(Eh)            E(eV)
   0   2.0000     -88.976974     -2421.1866
   1   2.0000     -88.974054     -2421.1071
   2   2.0000     -88.965806     -2420.8827
   3   2.0000     -19.291941      -524.9604
   4   2.0000     -19.242716      -523.6209
   5   2.0000     -19.240812      -523.5691
   6   2.0000     -19.227179      -523.1981
   7   2.0000     -19.183137      -521.9997
   8   2.0000     -19.181758      -521.9622
   9   2.0000     -14.647285      -398.5729
  10   2.0000     -14.446411      -393.1068
  11   2.0000     -14.445142      -393.0723
  12   2.0000     -14.409231      -392.0951
  13   2.0000     -14.406465      -392.0198
  14   2.0000     -14.406006      -392.0074
  15   2.0000     -14.403779      -391.9468
  16   2.0000     -10.425541      -283.6934
  17   2.0000     -10.365779      -282.0672
  18   2.0000     -10.365388      -282.0565
  19   2.0000     -10.345548      -281.5167
  20   2.0000     -10.335750      -281.2501
  21   2.0000     -10.333968      -281.2016
  22   2.0000     -10.333417      -281.1866
  23   2.0000     -10.332249      -281.1548
  24   2.0000     -10.330716      -281.1131
  25   2.0000     -10.330146      -281.0976
  26   2.0000     -10.329028      -281.0671
  27   2.0000     -10.320980      -280.8481
  28   2.0000     -10.317041      -280.7409
  29   2.0000     -10.314568      -280.6737
  30   2.0000     -10.314516      -280.6722
  31   2.0000     -10.314117      -280.6614
  32   2.0000     -10.310073      -280.5513
  33   2.0000     -10.308150      -280.4990
  34   2.0000     -10.306686      -280.4592
  35   2.0000     -10.305957      -280.4393
  36   2.0000     -10.305531      -280.4277
  37   2.0000     -10.305204      -280.4189
  38   2.0000     -10.305092      -280.4158
  39   2.0000     -10.303988      -280.3858
  40   2.0000     -10.303790      -280.3804
  41   2.0000     -10.303781      -280.3801
  42   2.0000     -10.302723      -280.3514
  43   2.0000     -10.302032      -280.3326
  44   2.0000     -10.299243      -280.2567
  45   2.0000     -10.299193      -280.2553
  46   2.0000     -10.298081      -280.2250
  47   2.0000     -10.297605      -280.2121
  48   2.0000     -10.296761      -280.1891
  49   2.0000     -10.296722      -280.1880
  50   2.0000     -10.296232      -280.1747
  51   2.0000     -10.296090      -280.1708
  52   2.0000     -10.295946      -280.1669
  53   2.0000     -10.295477      -280.1542
  54   2.0000     -10.292043      -280.0607
  55   2.0000     -10.291428      -280.0440
  56   2.0000     -10.288974      -279.9772
  57   2.0000     -10.284622      -279.8588
  58   2.0000     -10.283142      -279.8185
  59   2.0000     -10.260851      -279.2120
  60   2.0000     -10.251626      -278.9609
  61   2.0000     -10.251281      -278.9515
  62   2.0000     -10.249296      -278.8975
  63   2.0000      -8.073266      -219.6847
  64   2.0000      -8.069811      -219.5907
  65   2.0000      -8.061706      -219.3702
  66   2.0000      -6.042319      -164.4199
  67   2.0000      -6.039009      -164.3298
  68   2.0000      -6.037814      -164.2973
  69   2.0000      -6.036114      -164.2510
  70   2.0000      -6.034740      -164.2136
  71   2.0000      -6.032204      -164.1446
  72   2.0000      -6.030889      -164.1088
  73   2.0000      -6.026761      -163.9965
  74   2.0000      -6.023969      -163.9205
  75   2.0000      -1.323091       -36.0031
  76   2.0000      -1.221555       -33.2402
  77   2.0000      -1.141824       -31.0706
  78   2.0000      -1.125570       -30.6283
  79   2.0000      -1.124888       -30.6098
  80   2.0000      -1.118146       -30.4263
  81   2.0000      -1.055152       -28.7122
  82   2.0000      -1.046297       -28.4712
  83   2.0000      -1.021778       -27.8040
  84   2.0000      -1.014612       -27.6090
  85   2.0000      -1.001641       -27.2560
  86   2.0000      -0.998465       -27.1696
  87   2.0000      -0.997346       -27.1392
  88   2.0000      -0.993908       -27.0456
  89   2.0000      -0.988565       -26.9002
  90   2.0000      -0.988153       -26.8890
  91   2.0000      -0.949243       -25.8302
  92   2.0000      -0.945506       -25.7285
  93   2.0000      -0.924878       -25.1672
  94   2.0000      -0.919814       -25.0294
  95   2.0000      -0.913714       -24.8634
  96   2.0000      -0.907632       -24.6979
  97   2.0000      -0.903894       -24.5962
  98   2.0000      -0.903130       -24.5754
  99   2.0000      -0.895876       -24.3780
 100   2.0000      -0.873730       -23.7754
 101   2.0000      -0.864148       -23.5147
 102   2.0000      -0.861410       -23.4402
 103   2.0000      -0.850856       -23.1530
 104   2.0000      -0.844597       -22.9826
 105   2.0000      -0.839044       -22.8316
 106   2.0000      -0.819827       -22.3086
 107   2.0000      -0.812379       -22.1059
 108   2.0000      -0.808844       -22.0098
 109   2.0000      -0.802475       -21.8365
 110   2.0000      -0.781915       -21.2770
 111   2.0000      -0.777021       -21.1438
 112   2.0000      -0.776020       -21.1166
 113   2.0000      -0.762661       -20.7531
 114   2.0000      -0.752805       -20.4849
 115   2.0000      -0.751035       -20.4367
 116   2.0000      -0.733230       -19.9522
 117   2.0000      -0.711698       -19.3663
 118   2.0000      -0.711435       -19.3591
 119   2.0000      -0.704962       -19.1830
 120   2.0000      -0.702105       -19.1052
 121   2.0000      -0.696608       -18.9557
 122   2.0000      -0.694940       -18.9103
 123   2.0000      -0.688468       -18.7342
 124   2.0000      -0.675937       -18.3932
 125   2.0000      -0.664605       -18.0848
 126   2.0000      -0.660939       -17.9851
 127   2.0000      -0.658778       -17.9263
 128   2.0000      -0.652847       -17.7649
 129   2.0000      -0.646198       -17.5839
 130   2.0000      -0.642866       -17.4933
 131   2.0000      -0.642062       -17.4714
 132   2.0000      -0.634923       -17.2771
 133   2.0000      -0.630375       -17.1534
 134   2.0000      -0.617992       -16.8164
 135   2.0000      -0.611718       -16.6457
 136   2.0000      -0.608843       -16.5675
 137   2.0000      -0.600965       -16.3531
 138   2.0000      -0.597409       -16.2563
 139   2.0000      -0.595645       -16.2083
 140   2.0000      -0.594731       -16.1834
 141   2.0000      -0.589460       -16.0400
 142   2.0000      -0.581278       -15.8174
 143   2.0000      -0.579849       -15.7785
 144   2.0000      -0.577184       -15.7060
 145   2.0000      -0.574210       -15.6251
 146   2.0000      -0.568665       -15.4742
 147   2.0000      -0.567979       -15.4555
 148   2.0000      -0.563463       -15.3326
 149   2.0000      -0.558807       -15.2059
 150   2.0000      -0.555437       -15.1142
 151   2.0000      -0.550510       -14.9801
 152   2.0000      -0.549146       -14.9430
 153   2.0000      -0.542799       -14.7703
 154   2.0000      -0.541107       -14.7243
 155   2.0000      -0.540205       -14.6997
 156   2.0000      -0.539165       -14.6714
 157   2.0000      -0.530335       -14.4311
 158   2.0000      -0.528330       -14.3766
 159   2.0000      -0.525392       -14.2966
 160   2.0000      -0.522381       -14.2147
 161   2.0000      -0.520362       -14.1598
 162   2.0000      -0.519425       -14.1343
 163   2.0000      -0.514478       -13.9997
 164   2.0000      -0.509132       -13.8542
 165   2.0000      -0.506682       -13.7875
 166   2.0000      -0.506061       -13.7706
 167   2.0000      -0.504124       -13.7179
 168   2.0000      -0.494864       -13.4659
 169   2.0000      -0.494383       -13.4528
 170   2.0000      -0.490716       -13.3530
 171   2.0000      -0.488937       -13.3047
 172   2.0000      -0.486887       -13.2489
 173   2.0000      -0.481699       -13.1077
 174   2.0000      -0.479691       -13.0530
 175   2.0000      -0.478221       -13.0131
 176   2.0000      -0.471795       -12.8382
 177   2.0000      -0.468052       -12.7363
 178   2.0000      -0.466908       -12.7052
 179   2.0000      -0.465562       -12.6686
 180   2.0000      -0.460107       -12.5201
 181   2.0000      -0.459062       -12.4917
 182   2.0000      -0.458078       -12.4649
 183   2.0000      -0.456828       -12.4309
 184   2.0000      -0.456308       -12.4168
 185   2.0000      -0.451344       -12.2817
 186   2.0000      -0.451242       -12.2789
 187   2.0000      -0.450043       -12.2463
 188   2.0000      -0.447985       -12.1903
 189   2.0000      -0.444997       -12.1090
 190   2.0000      -0.443430       -12.0664
 191   2.0000      -0.442699       -12.0464
 192   2.0000      -0.440829       -11.9956
 193   2.0000      -0.438207       -11.9242
 194   2.0000      -0.436409       -11.8753
 195   2.0000      -0.435542       -11.8517
 196   2.0000      -0.434009       -11.8100
 197   2.0000      -0.432646       -11.7729
 198   2.0000      -0.431375       -11.7383
 199   2.0000      -0.430668       -11.7191
 200   2.0000      -0.426147       -11.5960
 201   2.0000      -0.425432       -11.5766
 202   2.0000      -0.418657       -11.3922
 203   2.0000      -0.411400       -11.1948
 204   2.0000      -0.410193       -11.1619
 205   2.0000      -0.409173       -11.1342
 206   2.0000      -0.407109       -11.0780
 207   2.0000      -0.405845       -11.0436
 208   2.0000      -0.402021       -10.9396
 209   2.0000      -0.400528       -10.8989
 210   2.0000      -0.398421       -10.8416
 211   2.0000      -0.397075       -10.8049
 212   2.0000      -0.392220       -10.6729
 213   2.0000      -0.382205       -10.4003
 214   2.0000      -0.378801       -10.3077
 215   2.0000      -0.378231       -10.2922
 216   2.0000      -0.374203       -10.1826
 217   2.0000      -0.373019       -10.1504
 218   2.0000      -0.366229        -9.9656
 219   2.0000      -0.351887        -9.5753
 220   2.0000      -0.340398        -9.2627
 221   2.0000      -0.336364        -9.1529
 222   2.0000      -0.335319        -9.1245
 223   2.0000      -0.333832        -9.0840
 224   2.0000      -0.328281        -8.9330
 225   2.0000      -0.323526        -8.8036
 226   2.0000      -0.307539        -8.3686
 227   2.0000      -0.304564        -8.2876
 228   2.0000      -0.295766        -8.0482
 229   2.0000      -0.279665        -7.6101
 230   2.0000      -0.232553        -6.3281
 231   0.0000      -0.078496        -2.1360
 232   0.0000      -0.048545        -1.3210
 233   0.0000      -0.036540        -0.9943
 234   0.0000      -0.031454        -0.8559
 235   0.0000      -0.011566        -0.3147

MULLIKEN ATOMIC CHARGES
-----------------------
   0 C :   -0.112074
   1 S :    0.144658
   2 C :   -0.157196
   3 C :    0.036336
   4 C :   -0.018940
   5 C :    0.040896
   6 C :   -0.287451
   7 N :    0.112241
   8 C :    0.053625
   9 C :    0.071646
  10 C :    0.011485
  11 C :   -0.282634
  12 N :    0.118950
  13 C :    0.103742
  14 C :   -0.086516
  15 C :    0.157586
  16 N :    0.243606
  17 O :   -0.220612
  18 O :   -0.222193
  19 C :    0.037915
  20 C :   -0.024861
  21 C :    0.003713
  22 C :    0.029354
  23 C :   -0.039465
  24 C :    0.126967
  25 N :   -0.265799
  26 C :    0.098182
  27 C :    0.002435
  28 C :    0.147603
  29 O :   -0.203588
  30 C :   -0.051387
  31 C :   -0.055414
  32 C :    0.163558
  33 O :   -0.211046
  34 N :   -0.264267
  35 C :    0.100723
  36 C :    0.015934
  37 C :    0.116389
  38 C :   -0.024466
  39 C :   -0.008781
  40 C :    0.106286
  41 C :   -0.145445
  42 S :    0.160626
  43 C :   -0.081712
  44 C :   -0.028875
  45 C :    0.231053
  46 O :   -0.195038
  47 O :   -0.248625
  48 C :    0.142104
  49 C :    0.005973
  50 C :   -0.122577
  51 S :    0.129336
  52 C :   -0.119714
  53 C :   -0.000049
  54 C :   -0.002576
  55 C :    0.017062
  56 C :   -0.288919
  57 N :    0.118655
  58 C :    0.061856
  59 C :    0.062367
  60 C :    0.025233
  61 C :   -0.276771
  62 N :    0.109277
  63 H :    0.026989
  64 H :    0.047998
  65 H :    0.043914
  66 H :    0.032705
  67 H :    0.033928
  68 H :    0.040799
  69 H :    0.048905
  70 H :    0.003250
  71 H :   -0.007105
  72 H :   -0.002251
  73 H :    0.044098
  74 H :   -0.024819
  75 H :    0.017296
  76 H :    0.042823
  77 H :    0.020020
  78 H :    0.020276
  79 H :    0.030256
  80 H :    0.038773
  81 H :    0.026600
  82 H :    0.022586
  83 H :    0.021594
  84 H :    0.020541
  85 H :   -0.004747
  86 H :    0.010396
  87 H :    0.046732
  88 H :    0.038679
  89 H :    0.036234
  90 H :    0.003731
  91 H :    0.023214
  92 H :    0.048487
  93 H :    0.040992
  94 H :    0.030021
  95 H :    0.031956
  96 H :    0.039832
  97 H :    0.044912
Sum of atomic charges:   -0.0000000

LOEWDIN ATOMIC CHARGES
----------------------
   0 C :   -0.172989
   1 S :    0.468571
   2 C :   -0.161752
   3 C :   -0.047235
   4 C :   -0.055534
   5 C :   -0.040535
   6 C :   -0.036418
   7 N :   -0.066403
   8 C :   -0.009672
   9 C :   -0.006450
  10 C :   -0.043440
  11 C :   -0.040548
  12 N :   -0.055441
  13 C :   -0.038068
  14 C :    0.003973
  15 C :   -0.018519
  16 N :    0.284750
  17 O :   -0.191978
  18 O :   -0.183291
  19 C :   -0.005053
  20 C :   -0.003641
  21 C :   -0.001425
  22 C :    0.037309
  23 C :   -0.047639
  24 C :    0.078962
  25 N :   -0.006043
  26 C :    0.035082
  27 C :   -0.061636
  28 C :    0.078154
  29 O :   -0.206686
  30 C :   -0.119916
  31 C :   -0.124556
  32 C :    0.083351
  33 O :   -0.198813
  34 N :    0.000090
  35 C :    0.036222
  36 C :   -0.060574
  37 C :    0.074366
  38 C :   -0.026489
  39 C :   -0.004861
  40 C :   -0.046371
  41 C :   -0.173329
  42 S :    0.488727
  43 C :   -0.148287
  44 C :   -0.111643
  45 C :    0.114654
  46 O :   -0.162287
  47 O :   -0.043092
  48 C :    0.067146
  49 C :   -0.072621
  50 C :   -0.160693
  51 S :    0.454765
  52 C :   -0.175713
  53 C :   -0.057128
  54 C :   -0.058300
  55 C :   -0.043368
  56 C :   -0.038034
  57 N :   -0.066283
  58 C :   -0.007683
  59 C :   -0.008527
  60 C :   -0.041203
  61 C :   -0.035994
  62 N :   -0.066709
  63 H :    0.029114
  64 H :    0.062143
  65 H :    0.037470
  66 H :    0.038561
  67 H :    0.038734
  68 H :    0.036570
  69 H :    0.058765
  70 H :    0.042551
  71 H :    0.035867
  72 H :    0.027698
  73 H :    0.039465
  74 H :    0.026506
  75 H :    0.019896
  76 H :    0.037215
  77 H :    0.023518
  78 H :    0.029136
  79 H :    0.032555
  80 H :    0.036225
  81 H :    0.024766
  82 H :    0.029520
  83 H :    0.031486
  84 H :    0.022285
  85 H :    0.040710
  86 H :    0.031250
  87 H :    0.030012
  88 H :    0.030222
  89 H :    0.020749
  90 H :    0.038786
  91 H :    0.027379
  92 H :    0.058537
  93 H :    0.036826
  94 H :    0.037508
  95 H :    0.037512
  96 H :    0.036301
  97 H :    0.060910

  Mayer bond orders larger than 0.100000
B(  0-C ,  1-S ) :   1.1698 B(  0-C ,  4-C ) :   1.5735 B(  0-C , 63-H ) :   0.9713
B(  1-S ,  2-C ) :   1.1609 B(  2-C ,  3-C ) :   1.5582 B(  2-C , 13-C ) :   1.0242
B(  3-C ,  4-C ) :   1.3089 B(  3-C , 10-C ) :   1.0161 B(  4-C ,  5-C ) :   0.9778
B(  5-C ,  6-C ) :   1.0349 B(  5-C ,  8-C ) :   1.0824 B(  5-C , 64-H ) :   0.8654
B(  6-C ,  7-N ) :   3.1185 B(  8-C ,  9-C ) :   1.0439 B(  8-C , 65-H ) :   0.9391
B(  8-C , 66-H ) :   0.9357 B(  9-C , 10-C ) :   1.0734 B(  9-C , 67-H ) :   0.9343
B(  9-C , 68-H ) :   0.9465 B( 10-C , 11-C ) :   1.0151 B( 10-C , 69-H ) :   0.8526
B( 11-C , 12-N ) :   3.0722 B( 13-C , 14-C ) :   1.3153 B( 13-C , 21-C ) :   1.3229
B( 14-C , 15-C ) :   1.3803 B( 14-C , 70-H ) :   0.9812 B( 15-C , 16-N ) :   0.8781
B( 15-C , 19-C ) :   1.3549 B( 16-N , 17-O ) :   1.5513 B( 16-N , 18-O ) :   1.5307
B( 17-O , 18-O ) :   0.2694 B( 19-C , 20-C ) :   1.3472 B( 19-C , 22-C ) :   1.0388
B( 20-C , 21-C ) :   1.4033 B( 20-C , 71-H ) :   0.9914 B( 21-C , 72-H ) :   0.9877
B( 22-C , 23-C ) :   1.6978 B( 22-C , 73-H ) :   0.9163 B( 23-C , 24-C ) :   1.1349
B( 23-C , 74-H ) :   0.9631 B( 24-C , 25-N ) :   1.1614 B( 24-C , 31-C ) :   1.3680
B( 25-N , 26-C ) :   0.9507 B( 25-N , 28-C ) :   1.0321 B( 26-C , 27-C ) :   1.1197
B( 26-C , 75-H ) :   0.9502 B( 26-C , 76-H ) :   0.9280 B( 27-C , 77-H ) :   0.9682
B( 27-C , 78-H ) :   0.9675 B( 27-C , 79-H ) :   0.9640 B( 28-C , 29-O ) :   2.1184
B( 28-C , 30-C ) :   0.9869 B( 30-C , 31-C ) :   1.2265 B( 30-C , 37-C ) :   1.3516
B( 31-C , 32-C ) :   0.9840 B( 32-C , 33-O ) :   2.0334 B( 32-C , 34-N ) :   1.0570
B( 34-N , 35-C ) :   0.9393 B( 34-N , 37-C ) :   1.1729 B( 35-C , 36-C ) :   1.1240
B( 35-C , 80-H ) :   0.9259 B( 35-C , 81-H ) :   0.9498 B( 36-C , 82-H ) :   0.9601
B( 36-C , 83-H ) :   0.9673 B( 36-C , 84-H ) :   0.9655 B( 37-C , 38-C ) :   1.1622
B( 38-C , 39-C ) :   1.6162 B( 38-C , 85-H ) :   0.9491 B( 39-C , 40-C ) :   1.0920
B( 39-C , 86-H ) :   0.9643 B( 40-C , 41-C ) :   1.5413 B( 40-C , 44-C ) :   1.2153
B( 41-C , 42-S ) :   1.1743 B( 41-C , 87-H ) :   0.9521 B( 42-S , 43-C ) :   1.2192
B( 43-C , 44-C ) :   1.5197 B( 43-C , 88-H ) :   0.9612 B( 44-C , 45-C ) :   0.9670
B( 45-C , 46-O ) :   2.0600 B( 45-C , 47-O ) :   1.1467 B( 47-O , 48-C ) :   1.0179
B( 48-C , 49-C ) :   1.7354 B( 48-C , 89-H ) :   0.9756 B( 49-C , 50-C ) :   1.1273
B( 49-C , 90-H ) :   0.9559 B( 50-C , 51-S ) :   1.1375 B( 50-C , 54-C ) :   1.5374
B( 51-S , 52-C ) :   1.1633 B( 52-C , 53-C ) :   1.5784 B( 52-C , 91-H ) :   0.9708
B( 53-C , 54-C ) :   1.3196 B( 53-C , 60-C ) :   0.9784 B( 54-C , 55-C ) :   0.9988
B( 55-C , 56-C ) :   1.0307 B( 55-C , 58-C ) :   1.0779 B( 55-C , 92-H ) :   0.8613
B( 56-C , 57-N ) :   3.1152 B( 58-C , 59-C ) :   1.0452 B( 58-C , 93-H ) :   0.9428
B( 58-C , 94-H ) :   0.9346 B( 59-C , 60-C ) :   1.0848 B( 59-C , 95-H ) :   0.9360
B( 59-C , 96-H ) :   0.9436 B( 60-C , 61-C ) :   1.0325 B( 60-C , 97-H ) :   0.8676
B( 61-C , 62-N ) :   3.1139

-----------------------------------------------------------------------------
         ABSORPTION SPECTRUM VIA TRANSITION ELECTRIC DIPOLE MOMENTS
-----------------------------------------------------------------------------
State   Energy  Wavelength   fosc         T2         TX        TY        TZ
        (cm-1)    (nm)                  (au**2)     (au)      (au)      (au)
-----------------------------------------------------------------------------
   0   17426.5    573.8   0.658441876  12.43893  -0.37833   3.24172  -1.33681
   1   23593.5    423.8   0.137780753   1.92252   0.44622  -0.75162   1.07633
   2   27288.4    366.5   0.002618391   0.03159  -0.14161   0.10654  -0.01364
   3   28848.5    346.6   0.024308329   0.27740   0.48677  -0.07758   0.18556
   4   29458.3    339.5   0.024735248   0.27643  -0.24878   0.40570  -0.22349
   5   29793.8    335.6   0.006751445   0.07460  -0.16060  -0.21639  -0.04455
   6   31374.4    318.7   0.630319968   6.61395  -0.58609  -2.49666  -0.19273
   7   32532.7    307.4   0.089688683   0.90760   0.45537  -0.64604   0.53186
   8   33291.3    300.4   0.138924218   1.37380  -0.82403   0.62629  -0.55003
   9   33622.8    297.4   0.020756778   0.20324   0.18238   0.38336   0.15171
  10   34487.1    290.0   0.439421851   4.19470   0.68140   1.91780  -0.22903
  11   35032.5    285.4   0.053636440   0.50404  -0.13475   0.65123   0.24855
  12   35838.2    279.0   0.360925592   3.31549   1.48772  -0.42009   0.96213
  13   35876.9    278.7   0.132649773   1.21721  -0.85539  -0.63371  -0.28971
  14   36448.2    274.4   0.006210947   0.05610  -0.19951  -0.06358  -0.11069
  15   39276.7    254.6   0.021994115   0.18435   0.14066   0.04221  -0.40347
  16   39309.2    254.4   0.016362995   0.13704   0.05197  -0.18020   0.31916
  17   39699.6    251.9   0.021879518   0.18144  -0.04309  -0.09600  -0.41275

FINAL SINGLE POINT ENERGY     -3837.460296597812

DIPOLE MOMENT
-------------
                                X             Y             Z
Electronic contribution:     -3.83728       0.91015      -1.56620
Nuclear contribution   :      3.63430      -0.46294       3.07236
                        -----------------------------------------
Total Dipole Moment    :     -0.20298       0.44721       1.50616
                        -----------------------------------------
Magnitude (a.u.)       :      1.58421
Magnitude (Debye)      :      4.02674

Rotational constants in cm-1:     0.002039     0.000266     0.000244
Rotational constants in MHz :    61.136601     7.982806     7.306667

                             ****ORCA TERMINATED NORMALLY****
TOTAL RUN TIME: 0 days 0 hours 8 minutes 13 seconds 297 msec
