                         Program Version 4.2.0 -  RELEASE  -
|  1> # ORCA input file
|  2> # SCF done       -174.612995658689          0.000687162064
|  3> ! CAM-B3LYP def2-SVP def2/J RIJCOSX Grid4 TightSCF
|  4> %maxcore 5000
|  5> %tddft
|  6>     Mode sTDDFT
|  7>     Ethresh 5.0
|  8>     maxcore 5000
|  9> end
| 10>
| 11> %pal
| 12>   nprocs 6
| 13>   end
| 14> * xyz 0 1
| 15>    C       -3.82775         3.29890         7.13609
| 16>    S       -3.50493         4.89886         6.65036
| 17>    C       -1.78900         4.61712         6.71310
| 18>    C       -1.51265         3.32191         7.15321
| 19>    C       -2.69158         2.57192         7.40383
| 20>    C       -2.69177         1.24126         7.86707
| 21>    N       -2.70168         0.15854         8.23975
| 22>    C       -0.22558         2.82694         7.42959
| 23>    N        0.80825         2.41389         7.70322
| 24>    C       -0.80281         5.60626         6.43290
| 25>    C       -0.80496         6.94472         6.79204
| 26>    N       -1.87590         7.70441         7.27194
| 27>    O       -1.62808         8.73648         7.86372
| 28>    O       -3.01268         7.29334         7.05329
| 29>    C        0.53961         7.46238         6.71395
| 30>    C        1.35372         6.48720         6.25185
| 31>    C        0.55815         5.32714         5.93239
| 32>    C        0.89274         4.28494         5.09948
| 33>    C       -0.00203         3.26571         4.59733
| 34>    C        0.72192         2.26796         4.04219
| 35>    C        2.11487         2.62217         4.13325
| 36>    N        3.15436         1.86761         3.55704
| 37>    O        2.88371         0.75298         3.15428
| 38>    O        4.25722         2.38566         3.47455
| 39>    C        2.25127         3.87895         4.69227
| 40>    C        3.50449         4.54216         4.84279
| 41>    C        3.76253         5.80293         4.40182
| 42>    C        5.04145         6.39351         4.51952
| 43>    N        5.39833         7.59139         3.96048
| 44>    C        4.55650         8.47559         3.18961
| 45>    C        3.64627         9.31746         4.08047
| 46>    C        6.74770         7.92107         4.22754
| 47>    O        7.28962         8.91989         3.81703
| 48>    C        7.22069         6.81352         5.03554
| 49>    C        6.16916         5.89969         5.19405
| 50>    C        6.66108         4.80236         6.00466
| 51>    O        6.11898         3.81350         6.44285
| 52>    N        8.01208         5.12658         6.25750
| 53>    C        8.81774         4.21708         7.03775
| 54>    C        9.59553         3.25062         6.14747
| 55>    C        8.36514         6.32455         5.68914
| 56>    C        9.58065         7.03770         5.72330
| 57>    C       10.81213         6.64243         6.16152
| 58>    C       11.94555         7.48766         6.17329
| 59>    C       12.03404         8.84080         5.89769
| 60>    C       13.38611         9.25690         6.03234
| 61>    C       14.15087         8.05766         6.42907
| 62>    C       13.28200         7.02056         6.52338
| 63>    C       15.51490         7.99649         6.74371
| 64>    N       16.62075         7.90955         7.03835
| 65>    C       13.89627        10.52087         5.83407
| 66>    C       15.26767        10.91148         5.80269
| 67>    C       15.33736        12.26658         5.57499
| 68>    C       13.98013        12.78304         5.48080
| 69>    C       13.11080        11.74821         5.61266
| 70>    C       11.71612        11.86569         5.60678
| 71>    N       10.57566        12.00039         5.61068
| 72>    C       16.49291        13.08654         5.44507
| 73>    S       16.34602        14.82432         5.45435
| 74>    C       18.03274        15.02317         5.28188
| 75>    C       18.69876        13.82826         5.20900
| 76>    C       17.81974        12.70797         5.30142
| 77>    C       18.28014        11.38463         5.19026
| 78>    N       18.68657        10.32023         5.06515
| 79>    C       20.09575        13.72053         5.05599
| 80>    N       21.23134        13.64401         4.93070
| 81>    H       -4.83818         2.95492         7.24533
| 82>    H        0.79737         8.46409         7.00081
| 83>    H        2.41156         6.55728         6.10787
| 84>    H       -1.07165         3.32052         4.63173
| 85>    H        0.36721         1.36826         3.57728
| 86>    H        4.32011         3.94438         5.23739
| 87>    H        2.99390         6.35629         3.87907
| 88>    H        3.97318         7.89165         2.47275
| 89>    H        5.23537         9.13310         2.63951
| 90>    H        2.96696         8.69316         4.65679
| 91>    H        3.05954         9.99387         3.46559
| 92>    H        4.24501         9.90823         4.76905
| 93>    H        8.11760         3.64586         7.65488
| 94>    H        9.47623         4.78883         7.69529
| 95>    H        8.90001         2.63602         5.58173
| 96>    H       10.21205         2.59935         6.76068
| 97>    H       10.23237         3.78215         5.44338
| 98>    H        9.48651         8.03271         5.30679
| 99>    H       10.98409         5.63205         6.50070
|100>    H       11.22835         9.48638         5.60978
|101>    H       13.52175         6.01207         6.80704
|102>    H       16.09635        10.24221         5.92257
|103>    H       13.72829        13.81596         5.32354
|104>    H       18.46167        16.00534         5.23974
|105> *
|106>
|107>                          ****END OF INPUT****

CARTESIAN COORDINATES (ANGSTROEM)
---------------------------------
  C     -3.827750    3.298900    7.136090
  S     -3.504930    4.898860    6.650360
  C     -1.789000    4.617120    6.713100
  C     -1.512650    3.321910    7.153210
  C     -2.691580    2.571920    7.403830
  C     -2.691770    1.241260    7.867070
  N     -2.701680    0.158540    8.239750
  C     -0.225580    2.826940    7.429590
  N      0.808250    2.413890    7.703220
  C     -0.802810    5.606260    6.432900
  C     -0.804960    6.944720    6.792040
  N     -1.875900    7.704410    7.271940
  O     -1.628080    8.736480    7.863720
  O     -3.012680    7.293340    7.053290
  C      0.539610    7.462380    6.713950
  C      1.353720    6.487200    6.251850
  C      0.558150    5.327140    5.932390
  C      0.892740    4.284940    5.099480
  C     -0.002030    3.265710    4.597330
  C      0.721920    2.267960    4.042190
  C      2.114870    2.622170    4.133250
  N      3.154360    1.867610    3.557040
  O      2.883710    0.752980    3.154280
  O      4.257220    2.385660    3.474550
  C      2.251270    3.878950    4.692270
  C      3.504490    4.542160    4.842790
  C      3.762530    5.802930    4.401820
  C      5.041450    6.393510    4.519520
  N      5.398330    7.591390    3.960480
  C      4.556500    8.475590    3.189610
  C      3.646270    9.317460    4.080470
  C      6.747700    7.921070    4.227540
  O      7.289620    8.919890    3.817030
  C      7.220690    6.813520    5.035540
  C      6.169160    5.899690    5.194050
  C      6.661080    4.802360    6.004660
  O      6.118980    3.813500    6.442850
  N      8.012080    5.126580    6.257500
  C      8.817740    4.217080    7.037750
  C      9.595530    3.250620    6.147470
  C      8.365140    6.324550    5.689140
  C      9.580650    7.037700    5.723300
  C     10.812130    6.642430    6.161520
  C     11.945550    7.487660    6.173290
  C     12.034040    8.840800    5.897690
  C     13.386110    9.256900    6.032340
  C     14.150870    8.057660    6.429070
  C     13.282000    7.020560    6.523380
  C     15.514900    7.996490    6.743710
  N     16.620750    7.909550    7.038350
  C     13.896270   10.520870    5.834070
  C     15.267670   10.911480    5.802690
  C     15.337360   12.266580    5.574990
  C     13.980130   12.783040    5.480800
  C     13.110800   11.748210    5.612660
  C     11.716120   11.865690    5.606780
  N     10.575660   12.000390    5.610680
  C     16.492910   13.086540    5.445070
  S     16.346020   14.824320    5.454350
  C     18.032740   15.023170    5.281880
  C     18.698760   13.828260    5.209000
  C     17.819740   12.707970    5.301420
  C     18.280140   11.384630    5.190260
  N     18.686570   10.320230    5.065150
  C     20.095750   13.720530    5.055990
  N     21.231340   13.644010    4.930700
  H     -4.838180    2.954920    7.245330
  H      0.797370    8.464090    7.000810
  H      2.411560    6.557280    6.107870
  H     -1.071650    3.320520    4.631730
  H      0.367210    1.368260    3.577280
  H      4.320110    3.944380    5.237390
  H      2.993900    6.356290    3.879070
  H      3.973180    7.891650    2.472750
  H      5.235370    9.133100    2.639510
  H      2.966960    8.693160    4.656790
  H      3.059540    9.993870    3.465590
  H      4.245010    9.908230    4.769050
  H      8.117600    3.645860    7.654880
  H      9.476230    4.788830    7.695290
  H      8.900010    2.636020    5.581730
  H     10.212050    2.599350    6.760680
  H     10.232370    3.782150    5.443380
  H      9.486510    8.032710    5.306790
  H     10.984090    5.632050    6.500700
  H     11.228350    9.486380    5.609780
  H     13.521750    6.012070    6.807040
  H     16.096350   10.242210    5.922570
  H     13.728290   13.815960    5.323540
  H     18.461670   16.005340    5.239740

 Total Charge           Charge          ....    0
 Multiplicity           Mult            ....    1
 Number of Electrons    NEL             ....  462
 Basis Dimension        Dim             .... 1052

ORBITAL ENERGIES
----------------

  NO   OCC          E(Eh)            E(eV)
   0   2.0000     -89.012226     -2422.1458
   1   2.0000     -89.003648     -2421.9124
   2   2.0000     -19.268206      -524.3145
   3   2.0000     -19.267359      -524.2915
   4   2.0000     -19.249027      -523.7926
   5   2.0000     -19.247645      -523.7551
   6   2.0000     -19.208013      -522.6766
   7   2.0000     -19.205791      -522.6161
   8   2.0000     -14.674049      -399.3012
   9   2.0000     -14.656618      -398.8269
  10   2.0000     -14.470885      -393.7728
  11   2.0000     -14.467674      -393.6854
  12   2.0000     -14.429506      -392.6468
  13   2.0000     -14.424492      -392.5104
  14   2.0000     -14.418663      -392.3518
  15   2.0000     -14.417869      -392.3302
  16   2.0000     -14.414723      -392.2446
  17   2.0000     -14.410833      -392.1387
  18   2.0000     -10.390571      -282.7418
  19   2.0000     -10.388294      -282.6799
  20   2.0000     -10.364222      -282.0248
  21   2.0000     -10.361393      -281.9478
  22   2.0000     -10.360945      -281.9357
  23   2.0000     -10.355798      -281.7956
  24   2.0000     -10.354224      -281.7528
  25   2.0000     -10.353795      -281.7411
  26   2.0000     -10.353389      -281.7300
  27   2.0000     -10.352572      -281.7078
  28   2.0000     -10.352252      -281.6991
  29   2.0000     -10.349242      -281.6172
  30   2.0000     -10.346377      -281.5392
  31   2.0000     -10.345890      -281.5260
  32   2.0000     -10.343220      -281.4533
  33   2.0000     -10.342659      -281.4381
  34   2.0000     -10.341257      -281.3999
  35   2.0000     -10.336615      -281.2736
  36   2.0000     -10.333442      -281.1872
  37   2.0000     -10.329638      -281.0837
  38   2.0000     -10.329547      -281.0813
  39   2.0000     -10.324264      -280.9375
  40   2.0000     -10.323983      -280.9299
  41   2.0000     -10.323955      -280.9291
  42   2.0000     -10.323905      -280.9277
  43   2.0000     -10.319948      -280.8201
  44   2.0000     -10.319869      -280.8179
  45   2.0000     -10.318600      -280.7834
  46   2.0000     -10.318223      -280.7731
  47   2.0000     -10.318152      -280.7712
  48   2.0000     -10.317338      -280.7490
  49   2.0000     -10.317072      -280.7418
  50   2.0000     -10.316440      -280.7246
  51   2.0000     -10.316407      -280.7237
  52   2.0000     -10.316002      -280.7127
  53   2.0000     -10.314251      -280.6650
  54   2.0000     -10.312963      -280.6300
  55   2.0000     -10.311825      -280.5990
  56   2.0000     -10.311401      -280.5875
  57   2.0000     -10.310808      -280.5714
  58   2.0000     -10.309539      -280.5368
  59   2.0000     -10.302862      -280.3551
  60   2.0000     -10.297931      -280.2210
  61   2.0000     -10.290501      -280.0188
  62   2.0000     -10.281716      -279.7797
  63   2.0000     -10.279695      -279.7247
  64   2.0000     -10.279447      -279.7180
  65   2.0000     -10.271920      -279.5132
  66   2.0000      -8.105990      -220.5752
  67   2.0000      -8.099178      -220.3899
  68   2.0000      -6.075257      -165.3162
  69   2.0000      -6.070449      -165.1853
  70   2.0000      -6.068770      -165.1396
  71   2.0000      -6.068365      -165.1286
  72   2.0000      -6.063953      -165.0085
  73   2.0000      -6.061734      -164.9482
  74   2.0000      -1.345284       -36.6070
  75   2.0000      -1.327880       -36.1335
  76   2.0000      -1.163438       -31.6588
  77   2.0000      -1.150429       -31.3048
  78   2.0000      -1.145769       -31.1780
  79   2.0000      -1.143767       -31.1235
  80   2.0000      -1.081092       -29.4180
  81   2.0000      -1.070796       -29.1378
  82   2.0000      -1.054886       -28.7049
  83   2.0000      -1.040851       -28.3230
  84   2.0000      -1.033679       -28.1278
  85   2.0000      -1.022699       -27.8291
  86   2.0000      -1.019486       -27.7416
  87   2.0000      -1.009099       -27.4590
  88   2.0000      -1.006716       -27.3941
  89   2.0000      -1.003295       -27.3011
  90   2.0000      -0.999031       -27.1850
  91   2.0000      -0.997412       -27.1410
  92   2.0000      -0.989944       -26.9377
  93   2.0000      -0.986634       -26.8477
  94   2.0000      -0.945586       -25.7307
  95   2.0000      -0.935045       -25.4439
  96   2.0000      -0.931946       -25.3595
  97   2.0000      -0.924888       -25.1675
  98   2.0000      -0.911744       -24.8098
  99   2.0000      -0.906219       -24.6595
 100   2.0000      -0.904902       -24.6236
 101   2.0000      -0.899652       -24.4808
 102   2.0000      -0.896058       -24.3830
 103   2.0000      -0.888675       -24.1821
 104   2.0000      -0.871161       -23.7055
 105   2.0000      -0.863049       -23.4848
 106   2.0000      -0.856307       -23.3013
 107   2.0000      -0.846579       -23.0366
 108   2.0000      -0.842923       -22.9371
 109   2.0000      -0.835054       -22.7230
 110   2.0000      -0.820981       -22.3400
 111   2.0000      -0.815287       -22.1851
 112   2.0000      -0.789520       -21.4839
 113   2.0000      -0.777014       -21.1436
 114   2.0000      -0.774145       -21.0656
 115   2.0000      -0.750457       -20.4210
 116   2.0000      -0.747605       -20.3434
 117   2.0000      -0.746853       -20.3229
 118   2.0000      -0.737105       -20.0577
 119   2.0000      -0.736042       -20.0287
 120   2.0000      -0.726625       -19.7725
 121   2.0000      -0.723759       -19.6945
 122   2.0000      -0.716565       -19.4987
 123   2.0000      -0.711280       -19.3549
 124   2.0000      -0.710884       -19.3441
 125   2.0000      -0.709456       -19.3053
 126   2.0000      -0.696968       -18.9655
 127   2.0000      -0.690883       -18.7999
 128   2.0000      -0.681579       -18.5467
 129   2.0000      -0.672263       -18.2932
 130   2.0000      -0.666176       -18.1276
 131   2.0000      -0.660158       -17.9638
 132   2.0000      -0.656035       -17.8516
 133   2.0000      -0.654222       -17.8023
 134   2.0000      -0.648160       -17.6373
 135   2.0000      -0.640570       -17.4308
 136   2.0000      -0.638812       -17.3830
 137   2.0000      -0.630929       -17.1685
 138   2.0000      -0.622782       -16.9468
 139   2.0000      -0.619821       -16.8662
 140   2.0000      -0.614839       -16.7306
 141   2.0000      -0.608795       -16.5661
 142   2.0000      -0.603350       -16.4180
 143   2.0000      -0.601790       -16.3755
 144   2.0000      -0.589297       -16.0356
 145   2.0000      -0.587273       -15.9805
 146   2.0000      -0.583899       -15.8887
 147   2.0000      -0.580274       -15.7900
 148   2.0000      -0.578283       -15.7359
 149   2.0000      -0.567973       -15.4553
 150   2.0000      -0.567086       -15.4312
 151   2.0000      -0.561332       -15.2746
 152   2.0000      -0.560158       -15.2427
 153   2.0000      -0.551740       -15.0136
 154   2.0000      -0.549814       -14.9612
 155   2.0000      -0.547583       -14.9005
 156   2.0000      -0.545765       -14.8510
 157   2.0000      -0.544149       -14.8070
 158   2.0000      -0.542245       -14.7552
 159   2.0000      -0.541949       -14.7472
 160   2.0000      -0.538961       -14.6659
 161   2.0000      -0.532430       -14.4882
 162   2.0000      -0.531314       -14.4578
 163   2.0000      -0.527845       -14.3634
 164   2.0000      -0.526607       -14.3297
 165   2.0000      -0.524550       -14.2737
 166   2.0000      -0.521778       -14.1983
 167   2.0000      -0.520698       -14.1689
 168   2.0000      -0.515778       -14.0350
 169   2.0000      -0.513660       -13.9774
 170   2.0000      -0.508821       -13.8457
 171   2.0000      -0.503775       -13.7084
 172   2.0000      -0.502662       -13.6781
 173   2.0000      -0.495658       -13.4875
 174   2.0000      -0.495246       -13.4763
 175   2.0000      -0.492168       -13.3926
 176   2.0000      -0.489915       -13.3313
 177   2.0000      -0.488567       -13.2946
 178   2.0000      -0.483392       -13.1538
 179   2.0000      -0.480534       -13.0760
 180   2.0000      -0.478861       -13.0305
 181   2.0000      -0.475102       -12.9282
 182   2.0000      -0.472105       -12.8466
 183   2.0000      -0.469191       -12.7673
 184   2.0000      -0.468205       -12.7405
 185   2.0000      -0.463614       -12.6156
 186   2.0000      -0.459807       -12.5120
 187   2.0000      -0.456541       -12.4231
 188   2.0000      -0.456265       -12.4156
 189   2.0000      -0.455332       -12.3902
 190   2.0000      -0.453233       -12.3331
 191   2.0000      -0.451677       -12.2908
 192   2.0000      -0.450338       -12.2543
 193   2.0000      -0.448282       -12.1984
 194   2.0000      -0.447827       -12.1860
 195   2.0000      -0.444394       -12.0926
 196   2.0000      -0.443773       -12.0757
 197   2.0000      -0.443313       -12.0632
 198   2.0000      -0.440126       -11.9764
 199   2.0000      -0.437587       -11.9074
 200   2.0000      -0.436551       -11.8792
 201   2.0000      -0.434869       -11.8334
 202   2.0000      -0.433946       -11.8083
 203   2.0000      -0.429370       -11.6838
 204   2.0000      -0.428189       -11.6516
 205   2.0000      -0.424010       -11.5379
 206   2.0000      -0.421135       -11.4597
 207   2.0000      -0.417129       -11.3507
 208   2.0000      -0.414222       -11.2715
 209   2.0000      -0.406517       -11.0619
 210   2.0000      -0.402081       -10.9412
 211   2.0000      -0.399854       -10.8806
 212   2.0000      -0.392979       -10.6935
 213   2.0000      -0.391637       -10.6570
 214   2.0000      -0.386374       -10.5138
 215   2.0000      -0.381747       -10.3879
 216   2.0000      -0.376558       -10.2467
 217   2.0000      -0.366619        -9.9762
 218   2.0000      -0.362670        -9.8687
 219   2.0000      -0.361077        -9.8254
 220   2.0000      -0.358664        -9.7597
 221   2.0000      -0.351787        -9.5726
 222   2.0000      -0.349257        -9.5038
 223   2.0000      -0.347392        -9.4530
 224   2.0000      -0.333870        -9.0851
 225   2.0000      -0.333042        -9.0625
 226   2.0000      -0.324594        -8.8326
 227   2.0000      -0.311995        -8.4898
 228   2.0000      -0.309979        -8.4350
 229   2.0000      -0.295727        -8.0471
 230   2.0000      -0.247837        -6.7440
 231   0.0000      -0.151140        -4.1127
 232   0.0000      -0.136980        -3.7274
 233   0.0000      -0.089902        -2.4464
 234   0.0000      -0.068479        -1.8634
 235   0.0000      -0.044971        -1.2237

MULLIKEN ATOMIC CHARGES
-----------------------
   0 C :   -0.069905
   1 S :    0.269500
   2 C :   -0.195130
   3 C :    0.005064
   4 C :   -0.075476
   5 C :   -0.198604
   6 N :    0.200595
   7 C :   -0.269592
   8 N :    0.252244
   9 C :    0.024158
  10 C :    0.072545
  11 N :    0.285604
  12 O :   -0.224503
  13 O :   -0.268526
  14 C :    0.021840
  15 C :    0.003046
  16 C :    0.027540
  17 C :    0.053818
  18 C :   -0.004504
  19 C :    0.033952
  20 C :    0.104851
  21 N :    0.266301
  22 O :   -0.234566
  23 O :   -0.238175
  24 C :    0.026668
  25 C :   -0.000765
  26 C :   -0.065852
  27 C :    0.149714
  28 N :   -0.262702
  29 C :    0.093671
  30 C :    0.005948
  31 C :    0.150789
  32 O :   -0.169392
  33 C :   -0.040900
  34 C :   -0.056965
  35 C :    0.162246
  36 O :   -0.192151
  37 N :   -0.263831
  38 C :    0.097823
  39 C :    0.000184
  40 C :    0.129027
  41 C :   -0.018107
  42 C :    0.002379
  43 C :    0.109759
  44 C :   -0.117121
  45 C :    0.117756
  46 C :   -0.079964
  47 C :   -0.005637
  48 C :   -0.188064
  49 N :    0.158611
  50 C :    0.105037
  51 C :   -0.132692
  52 C :    0.084790
  53 C :   -0.027104
  54 C :   -0.081927
  55 C :   -0.186436
  56 N :    0.146753
  57 C :   -0.100763
  58 S :    0.175459
  59 C :   -0.068053
  60 C :   -0.063213
  61 C :    0.040545
  62 C :   -0.275554
  63 N :    0.228621
  64 C :   -0.197428
  65 N :    0.193855
  66 H :    0.047880
  67 H :    0.012853
  68 H :    0.021183
  69 H :    0.013993
  70 H :    0.011913
  71 H :    0.067260
  72 H :   -0.002937
  73 H :    0.027807
  74 H :    0.051249
  75 H :   -0.002542
  76 H :    0.029776
  77 H :    0.036013
  78 H :    0.047575
  79 H :    0.025759
  80 H :    0.038413
  81 H :    0.026667
  82 H :    0.020168
  83 H :    0.022214
  84 H :   -0.021746
  85 H :    0.013926
  86 H :    0.001939
  87 H :    0.029112
  88 H :    0.006653
  89 H :    0.047782
Sum of atomic charges:   -0.0000000

LOEWDIN ATOMIC CHARGES
----------------------
   0 C :   -0.143037
   1 S :    0.568338
   2 C :   -0.161380
   3 C :   -0.074718
   4 C :   -0.088690
   5 C :   -0.035069
   6 N :   -0.025540
   7 C :   -0.036316
   8 N :   -0.028433
   9 C :   -0.007443
  10 C :   -0.031613
  11 N :    0.285267
  12 O :   -0.188746
  13 O :   -0.232652
  14 C :    0.007256
  15 C :   -0.022018
  16 C :    0.037710
  17 C :    0.056908
  18 C :   -0.040505
  19 C :    0.027382
  20 C :   -0.020160
  21 N :    0.284425
  22 O :   -0.200099
  23 O :   -0.198224
  24 C :    0.012500
  25 C :    0.044362
  26 C :   -0.040682
  27 C :    0.081245
  28 N :   -0.001483
  29 C :    0.037369
  30 C :   -0.061741
  31 C :    0.081020
  32 O :   -0.172716
  33 C :   -0.097617
  34 C :   -0.116247
  35 C :    0.082984
  36 O :   -0.179900
  37 N :    0.000674
  38 C :    0.035604
  39 C :   -0.062449
  40 C :    0.065671
  41 C :    0.003205
  42 C :   -0.013782
  43 C :   -0.009570
  44 C :   -0.026882
  45 C :    0.049852
  46 C :   -0.073683
  47 C :    0.053805
  48 C :   -0.038598
  49 N :   -0.041587
  50 C :    0.029254
  51 C :   -0.004242
  52 C :   -0.045311
  53 C :    0.034678
  54 C :   -0.076063
  55 C :   -0.032922
  56 N :   -0.054984
  57 C :   -0.131135
  58 S :    0.494909
  59 C :   -0.139450
  60 C :   -0.079907
  61 C :   -0.077320
  62 C :   -0.034235
  63 N :   -0.016897
  64 C :   -0.032587
  65 N :   -0.026180
  66 H :    0.041514
  67 H :    0.041290
  68 H :    0.035039
  69 H :    0.032134
  70 H :    0.043175
  71 H :    0.048792
  72 H :    0.031295
  73 H :    0.024896
  74 H :    0.040910
  75 H :    0.016814
  76 H :    0.033905
  77 H :    0.034884
  78 H :    0.039424
  79 H :    0.023026
  80 H :    0.037048
  81 H :    0.032193
  82 H :    0.020917
  83 H :    0.052305
  84 H :    0.031449
  85 H :    0.035557
  86 H :    0.038176
  87 H :    0.040984
  88 H :    0.031716
  89 H :    0.040953

  Mayer bond orders larger than 0.100000
B(  0-C ,  1-S ) :   1.2012 B(  0-C ,  4-C ) :   1.5037 B(  0-C , 66-H ) :   0.9762
B(  1-S ,  2-C ) :   1.1851 B(  2-C ,  3-C ) :   1.4456 B(  2-C ,  9-C ) :   1.1127
B(  3-C ,  4-C ) :   1.3584 B(  3-C ,  7-C ) :   1.1443 B(  4-C ,  5-C ) :   1.1205
B(  5-C ,  6-N ) :   3.0448 B(  7-C ,  8-N ) :   3.0133 B(  9-C , 10-C ) :   1.5770
B(  9-C , 16-C ) :   1.0398 B( 10-C , 11-N ) :   0.9569 B( 10-C , 14-C ) :   1.1179
B( 11-N , 12-O ) :   1.5526 B( 11-N , 13-O ) :   1.4393 B( 12-O , 13-O ) :   0.2613
B( 14-C , 15-C ) :   1.6008 B( 14-C , 67-H ) :   1.0116 B( 15-C , 16-C ) :   1.0962
B( 15-C , 68-H ) :   0.9993 B( 16-C , 17-C ) :   1.5705 B( 17-C , 18-C ) :   1.0857
B( 17-C , 24-C ) :   1.0300 B( 18-C , 19-C ) :   1.6130 B( 18-C , 69-H ) :   0.9982
B( 19-C , 20-C ) :   1.1011 B( 19-C , 70-H ) :   1.0176 B( 20-C , 21-N ) :   0.9384
B( 20-C , 24-C ) :   1.5905 B( 21-N , 22-O ) :   1.5329 B( 21-N , 23-O ) :   1.5061
B( 22-O , 23-O ) :   0.2694 B( 24-C , 25-C ) :   1.0937 B( 25-C , 26-C ) :   1.6313
B( 25-C , 71-H ) :   0.9002 B( 26-C , 27-C ) :   1.1643 B( 26-C , 72-H ) :   0.9645
B( 27-C , 28-N ) :   1.1833 B( 27-C , 34-C ) :   1.3093 B( 28-N , 29-C ) :   0.9410
B( 28-N , 31-C ) :   1.0208 B( 29-C , 30-C ) :   1.1199 B( 29-C , 73-H ) :   0.9510
B( 29-C , 74-H ) :   0.9283 B( 30-C , 75-H ) :   0.9672 B( 30-C , 76-H ) :   0.9662
B( 30-C , 77-H ) :   0.9633 B( 31-C , 32-O ) :   2.1470 B( 31-C , 33-C ) :   0.9719
B( 33-C , 34-C ) :   1.2824 B( 33-C , 40-C ) :   1.3057 B( 34-C , 35-C ) :   0.9759
B( 35-C , 36-O ) :   2.0515 B( 35-C , 37-N ) :   1.0542 B( 37-N , 38-C ) :   0.9393
B( 37-N , 40-C ) :   1.1710 B( 38-C , 39-C ) :   1.1161 B( 38-C , 78-H ) :   0.9259
B( 38-C , 79-H ) :   0.9507 B( 39-C , 80-H ) :   0.9606 B( 39-C , 81-H ) :   0.9692
B( 39-C , 82-H ) :   0.9669 B( 40-C , 41-C ) :   1.2036 B( 41-C , 42-C ) :   1.5344
B( 41-C , 83-H ) :   0.9500 B( 42-C , 43-C ) :   1.1309 B( 42-C , 84-H ) :   0.9758
B( 43-C , 44-C ) :   1.5208 B( 43-C , 47-C ) :   1.0175 B( 44-C , 45-C ) :   1.1497
B( 44-C , 85-H ) :   0.9941 B( 45-C , 46-C ) :   1.0939 B( 45-C , 50-C ) :   1.3876
B( 46-C , 47-C ) :   1.6878 B( 46-C , 48-C ) :   1.0846 B( 47-C , 86-H ) :   1.0233
B( 48-C , 49-N ) :   2.9839 B( 50-C , 51-C ) :   1.1187 B( 50-C , 54-C ) :   1.1167
B( 51-C , 52-C ) :   1.5652 B( 51-C , 87-H ) :   0.9940 B( 52-C , 53-C ) :   1.0484
B( 52-C , 57-C ) :   1.0954 B( 53-C , 54-C ) :   1.6721 B( 53-C , 88-H ) :   1.0100
B( 54-C , 55-C ) :   1.0828 B( 55-C , 56-N ) :   2.9777 B( 57-C , 58-S ) :   1.1598
B( 57-C , 61-C ) :   1.4964 B( 58-S , 59-C ) :   1.1748 B( 59-C , 60-C ) :   1.5506
B( 59-C , 89-H ) :   0.9764 B( 60-C , 61-C ) :   1.3061 B( 60-C , 64-C ) :   1.1234
B( 61-C , 62-C ) :   1.1565 B( 62-C , 63-N ) :   2.9674 B( 64-C , 65-N ) :   3.0424

-----------------------------------------------------------------------------
         ABSORPTION SPECTRUM VIA TRANSITION ELECTRIC DIPOLE MOMENTS
-----------------------------------------------------------------------------
State   Energy  Wavelength   fosc         T2         TX        TY        TZ
        (cm-1)    (nm)                  (au**2)     (au)      (au)      (au)
-----------------------------------------------------------------------------
   0    6739.8   1483.7   0.336140755  16.41906  -3.74455  -1.53367  -0.21283
   1   10248.5    975.7   0.294704245   9.46673  -2.50876  -1.74500  -0.35751
   2   15543.3    643.4   0.027258440   0.57734  -0.49926  -0.40341   0.40663
   3   16564.3    603.7   0.077222560   1.53478  -0.26502  -1.14184   0.40094
   4   17853.5    560.1   0.069412610   1.27995   1.10315   0.08396   0.23654
   5   17970.5    556.5   0.038386563   0.70322  -0.68364   0.20273  -0.44132
   6   19632.9    509.3   0.120175919   2.01516   1.21113  -0.14858   0.72543
   7   22869.3    437.3   0.129467484   1.86373  -1.18456  -0.67607   0.05891
   8   23288.6    429.4   0.022251011   0.31454   0.52748   0.18573   0.04255
   9   24619.8    406.2   0.018280692   0.24445  -0.43561  -0.23135  -0.03419
  10   24768.6    403.7   0.001774354   0.02358  -0.14590   0.03932   0.02741
  11   25177.0    397.2   0.027686725   0.36203  -0.23983   0.53433  -0.13787
  12   25347.4    394.5   0.249967951   3.24658   1.47175   1.02266  -0.18625
  13   25629.3    390.2   0.383359693   4.92431   0.87164   2.00847  -0.36140
  14   26626.1    375.6   0.011478963   0.14193  -0.30458  -0.21409   0.05769
  15   26668.9    375.0   0.062353231   0.76971  -0.76009  -0.17823   0.40026
  16   27036.7    369.9   0.014452566   0.17598   0.28217  -0.21042  -0.22821
  17   27496.3    363.7   0.087404157   1.04648   0.40076  -0.50402  -0.79489
  18   27725.1    360.7   0.015317193   0.18188   0.16592  -0.23003  -0.31849
  19   28581.8    349.9   0.033985736   0.39146  -0.43775   0.27494   0.35248
  20   29239.3    342.0   0.185358808   2.08699   0.80892   1.18871  -0.14001
  21   29433.9    339.7   0.047257691   0.52857  -0.71357   0.10309   0.09358
  22   29748.0    336.2   0.064064823   0.70899  -0.28146   0.79355   0.00724
  23   30194.7    331.2   0.040095198   0.43716  -0.12090  -0.64858  -0.04347
  24   30540.7    327.4   0.055629718   0.59966  -0.55522   0.06797   0.53551
  25   30936.7    323.2   0.002201346   0.02343  -0.00107   0.10445   0.11187
  26   30969.6    322.9   0.082157684   0.87335   0.82230   0.44266   0.03510
  27   31410.0    318.4   0.122678240   1.28581  -0.91537  -0.65898  -0.11678
  28   31983.5    312.7   0.097777084   1.00644  -0.22519   0.92263   0.32323
  29   32234.6    310.2   0.040402650   0.41263   0.41857  -0.45233  -0.18120
  30   32376.4    308.9   0.025501472   0.25931  -0.18907   0.33276   0.33590
  31   32524.7    307.5   0.079949984   0.80925  -0.65908   0.36487   0.49166
  32   32755.9    305.3   0.009768519   0.09818  -0.09432  -0.29492   0.04800
  33   33085.3    302.2   0.107125330   1.06594  -0.74895  -0.69920  -0.12700
  34   33149.7    301.7   0.034760090   0.34520  -0.53565  -0.04894   0.23641
  35   33373.9    299.6   0.021485059   0.21194   0.29453  -0.28020  -0.21605
  36   33976.7    294.3   0.009825622   0.09520   0.16346  -0.24999  -0.07740
  37   34172.2    292.6   0.037669010   0.36290  -0.22136  -0.55890   0.03915
  38   34561.1    289.3   0.348907938   3.32353   0.41622  -1.66097  -0.62567
  39   34932.1    286.3   0.009079001   0.08556  -0.18262  -0.22570   0.03569
  40   35476.6    281.9   0.001505180   0.01397   0.09992  -0.04971   0.03889
  41   36068.7    277.2   0.015430651   0.14084   0.12722  -0.31942  -0.15041
  42   36651.9    272.8   0.050718173   0.45556  -0.29300   0.48819   0.36246
  43   36737.1    272.2   0.030006305   0.26890  -0.41569  -0.29980  -0.07882
  44   36966.8    270.5   0.033134254   0.29508  -0.44405   0.23391   0.20782
  45   37656.1    265.6   0.014310963   0.12511   0.09709  -0.21862  -0.26056
  46   37682.8    265.4   0.035832156   0.31304  -0.22673  -0.50265   0.09475
  47   37922.4    263.7   0.002792766   0.02424  -0.14160   0.05621   0.03214
  48   38020.1    263.0   0.008622045   0.07466   0.00552  -0.25609  -0.09510
  49   38189.8    261.9   0.028910287   0.24922   0.08003   0.48767  -0.07066
  50   38339.9    260.8   0.074985951   0.64388  -0.72441  -0.32085   0.12713
  51   38583.8    259.2   0.158841664   1.35530   0.87340   0.67784  -0.36471
  52   38772.1    257.9   0.077545734   0.65844  -0.66922  -0.45521  -0.05804
  53   38866.1    257.3   0.110207313   0.93350  -0.80431  -0.52990  -0.07613
  54   39390.9    253.9   0.163928987   1.37005  -1.01177   0.58655  -0.04817
  55   39857.2    250.9   0.083619854   0.69068  -0.40241  -0.72676  -0.02385
  56   39871.2    250.8   0.052542809   0.43384   0.46990   0.41202  -0.20803
  57   40174.0    248.9   0.075964554   0.62250  -0.67606  -0.36934   0.17039
  58   40241.9    248.5   0.021662678   0.17722  -0.33516  -0.16984   0.18984

FINAL SINGLE POINT ENERGY     -3634.568483012547

DIPOLE MOMENT
-------------
                                X             Y             Z
Electronic contribution:     -0.83597      10.04355       6.42074
Nuclear contribution   :     -2.91643      -7.73839      -7.28289
                        -----------------------------------------
Total Dipole Moment    :     -3.75240       2.30516      -0.86216
                        -----------------------------------------
Magnitude (a.u.)       :      4.48749
Magnitude (Debye)      :     11.40628

Rotational constants in cm-1:     0.002802     0.000293     0.000276
Rotational constants in MHz :    84.011446     8.779095     8.275998

                             ****ORCA TERMINATED NORMALLY****
TOTAL RUN TIME: 0 days 0 hours 9 minutes 57 seconds 304 msec
