                         Program Version 4.2.0 -  RELEASE  -
|  1> # ORCA input file
|  2> # SCF done       -166.586872455484          0.000593481131
|  3> ! CAM-B3LYP def2-SVP def2/J RIJCOSX Grid4 TightSCF
|  4> %maxcore 5000
|  5> %tddft
|  6>     Mode sTDDFT
|  7>     Ethresh 5.0
|  8>     maxcore 5000
|  9> end
| 10>
| 11> %pal
| 12>   nprocs 6
| 13>   end
| 14> * xyz 0 1
| 15>    C        1.48547         0.76315        -3.89680
| 16>    C        1.90128         0.41661        -2.62174
| 17>    C        2.75792         1.16475        -1.67137
| 18>    O        3.24945         2.24460        -1.77191
| 19>    O        2.91980         0.36654        -0.56345
| 20>    C        2.24604        -0.82703        -0.69687
| 21>    O        2.26276        -1.66657         0.14958
| 22>    C        1.57366        -0.80434        -2.01633
| 23>    C        0.80045        -1.77686        -2.65692
| 24>    C        0.35791        -1.40591        -3.93078
| 25>    C        0.69643        -0.18658        -4.52620
| 26>    C        0.05585        -0.15874        -5.86448
| 27>    O        0.10272         0.67411        -6.71421
| 28>    O       -0.66271        -1.32180        -5.98913
| 29>    C       -0.56118        -2.10459        -4.85952
| 30>    O       -1.18410        -3.11057        -4.72289
| 31>    C        0.52699        -3.10051        -2.11069
| 32>    C        0.00322        -3.31925        -0.85456
| 33>    C       -0.24625        -4.61066        -0.38436
| 34>    F       -0.77949        -4.70911         0.85841
| 35>    C        0.01494        -5.76678        -1.10218
| 36>    C        0.54849        -5.54781        -2.39401
| 37>    C        0.81118        -4.23508        -2.90415
| 38>    N        1.34723        -4.28039        -4.12737
| 39>    S        1.46192        -5.82087        -4.58327
| 40>    N        0.87173        -6.49123        -3.26853
| 41>    C       -0.15924        -7.12035        -0.65059
| 42>    N       -0.70053        -7.46010         0.56588
| 43>    C       -0.67930        -8.80242         0.73940
| 44>    C       -0.10957        -9.36215        -0.38693
| 45>    C        0.20738        -8.30183        -1.26992
| 46>    S        0.97940        -9.02638        -2.72472
| 47>    O        0.15283        -8.97848        -3.89471
| 48>    O        2.36620        -8.66415        -2.82888
| 49>    C        0.86378       -10.70681        -2.02155
| 50>    C        0.25194       -10.68141        -0.82337
| 51>    C        1.40450       -11.76404        -2.80068
| 52>    C        1.70386       -12.99793        -2.34254
| 53>    C        2.28073       -14.00736        -3.17073
| 54>    N        2.72096       -15.21820        -2.68558
| 55>    C        3.24341       -15.98010        -3.68364
| 56>    C        3.14030       -15.25764        -4.85524
| 57>    C        2.53582       -14.02033        -4.52507
| 58>    S        2.34259       -13.09214        -6.02688
| 59>    O        0.95585       -12.96330        -6.38134
| 60>    O        3.14519       -11.90105        -6.03198
| 61>    C        3.12846       -14.39507        -7.02713
| 62>    C        3.46754       -15.43993        -6.23987
| 63>    C        3.25825       -14.14393        -8.41263
| 64>    C        3.90936       -14.94074        -9.29775
| 65>    C        4.01357       -14.67805       -10.68850
| 66>    N        4.74676       -15.44511       -11.56180
| 67>    C        5.53658       -16.59306       -11.19320
| 68>    C        4.71659       -17.88135       -11.24955
| 69>    C        4.59977       -14.95588       -12.82963
| 70>    C        3.76705       -13.83737       -12.75772
| 71>    C        3.40557       -13.66235       -11.43445
| 72>    C        5.20550       -15.54392       -13.99164
| 73>    C        5.10689       -15.05280       -15.22706
| 74>    H        1.75349         1.69804        -4.36078
| 75>    H       -0.24051        -2.49273        -0.20657
| 76>    H       -1.05440        -6.79363         1.23479
| 77>    H       -1.05634        -9.25981         1.63242
| 78>    H        0.02841       -11.54980        -0.22311
| 79>    H        1.62337       -11.51091        -3.82997
| 80>    H        1.53324       -13.25528        -1.30538
| 81>    H        2.67234       -15.49046        -1.71663
| 82>    H        3.64045       -16.95759        -3.49572
| 83>    H        3.93379       -16.34756        -6.58979
| 84>    H        2.79820       -13.22428        -8.74270
| 85>    H        4.37452       -15.84016        -8.91944
| 86>    H        5.92926       -16.43913       -10.18539
| 87>    H        6.39381       -16.66367       -11.86683
| 88>    H        3.86390       -17.81729       -10.57771
| 89>    H        5.33126       -18.72854       -10.95732
| 90>    H        4.34468       -18.05037       -12.25732
| 91>    H        3.46101       -13.23146       -13.58626
| 92>    H        2.76540       -12.89843       -11.04285
| 93>    H        5.76901       -16.45479       -13.84224
| 94>    H        4.55887       -14.15357       -15.44372
| 95>    H        5.57572       -15.54303       -16.06182
| 96> *
| 97>
| 98>                          ****END OF INPUT****

CARTESIAN COORDINATES (ANGSTROEM)
---------------------------------
  C      1.485470    0.763150   -3.896800
  C      1.901280    0.416610   -2.621740
  C      2.757920    1.164750   -1.671370
  O      3.249450    2.244600   -1.771910
  O      2.919800    0.366540   -0.563450
  C      2.246040   -0.827030   -0.696870
  O      2.262760   -1.666570    0.149580
  C      1.573660   -0.804340   -2.016330
  C      0.800450   -1.776860   -2.656920
  C      0.357910   -1.405910   -3.930780
  C      0.696430   -0.186580   -4.526200
  C      0.055850   -0.158740   -5.864480
  O      0.102720    0.674110   -6.714210
  O     -0.662710   -1.321800   -5.989130
  C     -0.561180   -2.104590   -4.859520
  O     -1.184100   -3.110570   -4.722890
  C      0.526990   -3.100510   -2.110690
  C      0.003220   -3.319250   -0.854560
  C     -0.246250   -4.610660   -0.384360
  F     -0.779490   -4.709110    0.858410
  C      0.014940   -5.766780   -1.102180
  C      0.548490   -5.547810   -2.394010
  C      0.811180   -4.235080   -2.904150
  N      1.347230   -4.280390   -4.127370
  S      1.461920   -5.820870   -4.583270
  N      0.871730   -6.491230   -3.268530
  C     -0.159240   -7.120350   -0.650590
  N     -0.700530   -7.460100    0.565880
  C     -0.679300   -8.802420    0.739400
  C     -0.109570   -9.362150   -0.386930
  C      0.207380   -8.301830   -1.269920
  S      0.979400   -9.026380   -2.724720
  O      0.152830   -8.978480   -3.894710
  O      2.366200   -8.664150   -2.828880
  C      0.863780  -10.706810   -2.021550
  C      0.251940  -10.681410   -0.823370
  C      1.404500  -11.764040   -2.800680
  C      1.703860  -12.997930   -2.342540
  C      2.280730  -14.007360   -3.170730
  N      2.720960  -15.218200   -2.685580
  C      3.243410  -15.980100   -3.683640
  C      3.140300  -15.257640   -4.855240
  C      2.535820  -14.020330   -4.525070
  S      2.342590  -13.092140   -6.026880
  O      0.955850  -12.963300   -6.381340
  O      3.145190  -11.901050   -6.031980
  C      3.128460  -14.395070   -7.027130
  C      3.467540  -15.439930   -6.239870
  C      3.258250  -14.143930   -8.412630
  C      3.909360  -14.940740   -9.297750
  C      4.013570  -14.678050  -10.688500
  N      4.746760  -15.445110  -11.561800
  C      5.536580  -16.593060  -11.193200
  C      4.716590  -17.881350  -11.249550
  C      4.599770  -14.955880  -12.829630
  C      3.767050  -13.837370  -12.757720
  C      3.405570  -13.662350  -11.434450
  C      5.205500  -15.543920  -13.991640
  C      5.106890  -15.052800  -15.227060
  H      1.753490    1.698040   -4.360780
  H     -0.240510   -2.492730   -0.206570
  H     -1.054400   -6.793630    1.234790
  H     -1.056340   -9.259810    1.632420
  H      0.028410  -11.549800   -0.223110
  H      1.623370  -11.510910   -3.829970
  H      1.533240  -13.255280   -1.305380
  H      2.672340  -15.490460   -1.716630
  H      3.640450  -16.957590   -3.495720
  H      3.933790  -16.347560   -6.589790
  H      2.798200  -13.224280   -8.742700
  H      4.374520  -15.840160   -8.919440
  H      5.929260  -16.439130  -10.185390
  H      6.393810  -16.663670  -11.866830
  H      3.863900  -17.817290  -10.577710
  H      5.331260  -18.728540  -10.957320
  H      4.344680  -18.050370  -12.257320
  H      3.461010  -13.231460  -13.586260
  H      2.765400  -12.898430  -11.042850
  H      5.769010  -16.454790  -13.842240
  H      4.558870  -14.153570  -15.443720
  H      5.575720  -15.543030  -16.061820

 Total Charge           Charge          ....    0
 Multiplicity           Mult            ....    1
 Number of Electrons    NEL             ....  434
 Basis Dimension        Dim             ....  948

ORBITAL ENERGIES
----------------

  NO   OCC          E(Eh)            E(eV)
   0   2.0000     -89.126247     -2425.2485
   1   2.0000     -89.122640     -2425.1503
   2   2.0000     -89.027410     -2422.5590
   3   2.0000     -24.810138      -675.1182
   4   2.0000     -19.301802      -525.2287
   5   2.0000     -19.296556      -525.0860
   6   2.0000     -19.249966      -523.8182
   7   2.0000     -19.248531      -523.7792
   8   2.0000     -19.245020      -523.6836
   9   2.0000     -19.242147      -523.6054
  10   2.0000     -19.174330      -521.7600
  11   2.0000     -19.171994      -521.6965
  12   2.0000     -19.171930      -521.6947
  13   2.0000     -19.171415      -521.6807
  14   2.0000     -14.480701      -394.0399
  15   2.0000     -14.474842      -393.8805
  16   2.0000     -14.454832      -393.3360
  17   2.0000     -14.440156      -392.9366
  18   2.0000     -14.436684      -392.8422
  19   2.0000     -10.444818      -284.2179
  20   2.0000     -10.441998      -284.1412
  21   2.0000     -10.438664      -284.0505
  22   2.0000     -10.437381      -284.0156
  23   2.0000     -10.382763      -282.5294
  24   2.0000     -10.352599      -281.7085
  25   2.0000     -10.341426      -281.4045
  26   2.0000     -10.340771      -281.3867
  27   2.0000     -10.339700      -281.3575
  28   2.0000     -10.339260      -281.3456
  29   2.0000     -10.338467      -281.3240
  30   2.0000     -10.332453      -281.1603
  31   2.0000     -10.330596      -281.1098
  32   2.0000     -10.329588      -281.0824
  33   2.0000     -10.319399      -280.8051
  34   2.0000     -10.319335      -280.8034
  35   2.0000     -10.318663      -280.7851
  36   2.0000     -10.317169      -280.7444
  37   2.0000     -10.315051      -280.6868
  38   2.0000     -10.312004      -280.6039
  39   2.0000     -10.307914      -280.4926
  40   2.0000     -10.292309      -280.0680
  41   2.0000     -10.290419      -280.0165
  42   2.0000     -10.287043      -279.9247
  43   2.0000     -10.287020      -279.9241
  44   2.0000     -10.286872      -279.9200
  45   2.0000     -10.285706      -279.8883
  46   2.0000     -10.283366      -279.8246
  47   2.0000     -10.282130      -279.7910
  48   2.0000     -10.280588      -279.7490
  49   2.0000     -10.279173      -279.7105
  50   2.0000     -10.278160      -279.6830
  51   2.0000     -10.273231      -279.5488
  52   2.0000     -10.271435      -279.5000
  53   2.0000     -10.268330      -279.4155
  54   2.0000     -10.267591      -279.3953
  55   2.0000     -10.267341      -279.3885
  56   2.0000     -10.256218      -279.0859
  57   2.0000     -10.244552      -278.7684
  58   2.0000     -10.242767      -278.7199
  59   2.0000      -8.189001      -222.8341
  60   2.0000      -8.187027      -222.7803
  61   2.0000      -8.118396      -220.9128
  62   2.0000      -6.158438      -167.5796
  63   2.0000      -6.157680      -167.5590
  64   2.0000      -6.157310      -167.5489
  65   2.0000      -6.156227      -167.5195
  66   2.0000      -6.155716      -167.5056
  67   2.0000      -6.155196      -167.4914
  68   2.0000      -6.089449      -165.7023
  69   2.0000      -6.081795      -165.4941
  70   2.0000      -6.081053      -165.4739
  71   2.0000      -1.321278       -35.9538
  72   2.0000      -1.250296       -34.0223
  73   2.0000      -1.245178       -33.8830
  74   2.0000      -1.178448       -32.0672
  75   2.0000      -1.177925       -32.0530
  76   2.0000      -1.176424       -32.0121
  77   2.0000      -1.170921       -31.8624
  78   2.0000      -1.138641       -30.9840
  79   2.0000      -1.133771       -30.8515
  80   2.0000      -1.129261       -30.7287
  81   2.0000      -1.096847       -29.8467
  82   2.0000      -1.087577       -29.5945
  83   2.0000      -1.077882       -29.3307
  84   2.0000      -1.057391       -28.7731
  85   2.0000      -1.056286       -28.7430
  86   2.0000      -1.025957       -27.9177
  87   2.0000      -0.985247       -26.8099
  88   2.0000      -0.981566       -26.7098
  89   2.0000      -0.950859       -25.8742
  90   2.0000      -0.945801       -25.7366
  91   2.0000      -0.934418       -25.4268
  92   2.0000      -0.923143       -25.1200
  93   2.0000      -0.905220       -24.6323
  94   2.0000      -0.904190       -24.6043
  95   2.0000      -0.895353       -24.3638
  96   2.0000      -0.885281       -24.0897
  97   2.0000      -0.870514       -23.6879
  98   2.0000      -0.866703       -23.5842
  99   2.0000      -0.859075       -23.3766
 100   2.0000      -0.837501       -22.7896
 101   2.0000      -0.834394       -22.7050
 102   2.0000      -0.817848       -22.2548
 103   2.0000      -0.813003       -22.1229
 104   2.0000      -0.810187       -22.0463
 105   2.0000      -0.808553       -22.0018
 106   2.0000      -0.785460       -21.3734
 107   2.0000      -0.784237       -21.3402
 108   2.0000      -0.772230       -21.0134
 109   2.0000      -0.767523       -20.8854
 110   2.0000      -0.753673       -20.5085
 111   2.0000      -0.748874       -20.3779
 112   2.0000      -0.733918       -19.9709
 113   2.0000      -0.729875       -19.8609
 114   2.0000      -0.725654       -19.7461
 115   2.0000      -0.724516       -19.7151
 116   2.0000      -0.721960       -19.6455
 117   2.0000      -0.681328       -18.5399
 118   2.0000      -0.680837       -18.5265
 119   2.0000      -0.673480       -18.3263
 120   2.0000      -0.670072       -18.2336
 121   2.0000      -0.668374       -18.1874
 122   2.0000      -0.662505       -18.0277
 123   2.0000      -0.657773       -17.8989
 124   2.0000      -0.656361       -17.8605
 125   2.0000      -0.636512       -17.3204
 126   2.0000      -0.634762       -17.2728
 127   2.0000      -0.628938       -17.1143
 128   2.0000      -0.623706       -16.9719
 129   2.0000      -0.617069       -16.7913
 130   2.0000      -0.616456       -16.7746
 131   2.0000      -0.614421       -16.7192
 132   2.0000      -0.607648       -16.5349
 133   2.0000      -0.603085       -16.4108
 134   2.0000      -0.602182       -16.3862
 135   2.0000      -0.597333       -16.2543
 136   2.0000      -0.589333       -16.0366
 137   2.0000      -0.587010       -15.9733
 138   2.0000      -0.582329       -15.8460
 139   2.0000      -0.576423       -15.6853
 140   2.0000      -0.573878       -15.6160
 141   2.0000      -0.568846       -15.4791
 142   2.0000      -0.565412       -15.3856
 143   2.0000      -0.563123       -15.3233
 144   2.0000      -0.560923       -15.2635
 145   2.0000      -0.559701       -15.2302
 146   2.0000      -0.552888       -15.0449
 147   2.0000      -0.549501       -14.9527
 148   2.0000      -0.545455       -14.8426
 149   2.0000      -0.544211       -14.8087
 150   2.0000      -0.537855       -14.6358
 151   2.0000      -0.536548       -14.6002
 152   2.0000      -0.534372       -14.5410
 153   2.0000      -0.532496       -14.4899
 154   2.0000      -0.528141       -14.3714
 155   2.0000      -0.525615       -14.3027
 156   2.0000      -0.524020       -14.2593
 157   2.0000      -0.522478       -14.2174
 158   2.0000      -0.517466       -14.0810
 159   2.0000      -0.516535       -14.0556
 160   2.0000      -0.514650       -14.0044
 161   2.0000      -0.512640       -13.9496
 162   2.0000      -0.510046       -13.8791
 163   2.0000      -0.508319       -13.8321
 164   2.0000      -0.506952       -13.7949
 165   2.0000      -0.501608       -13.6495
 166   2.0000      -0.498244       -13.5579
 167   2.0000      -0.495887       -13.4938
 168   2.0000      -0.495581       -13.4855
 169   2.0000      -0.494417       -13.4538
 170   2.0000      -0.490511       -13.3475
 171   2.0000      -0.488663       -13.2972
 172   2.0000      -0.485705       -13.2167
 173   2.0000      -0.468028       -12.7357
 174   2.0000      -0.467639       -12.7251
 175   2.0000      -0.465599       -12.6696
 176   2.0000      -0.464130       -12.6296
 177   2.0000      -0.463226       -12.6050
 178   2.0000      -0.461067       -12.5463
 179   2.0000      -0.452449       -12.3118
 180   2.0000      -0.449213       -12.2237
 181   2.0000      -0.446385       -12.1468
 182   2.0000      -0.438491       -11.9319
 183   2.0000      -0.433934       -11.8079
 184   2.0000      -0.430396       -11.7117
 185   2.0000      -0.427692       -11.6381
 186   2.0000      -0.426579       -11.6078
 187   2.0000      -0.424146       -11.5416
 188   2.0000      -0.419276       -11.4091
 189   2.0000      -0.417897       -11.3715
 190   2.0000      -0.413220       -11.2443
 191   2.0000      -0.404005       -10.9935
 192   2.0000      -0.400086       -10.8869
 193   2.0000      -0.391031       -10.6405
 194   2.0000      -0.387736       -10.5508
 195   2.0000      -0.386664       -10.5217
 196   2.0000      -0.384491       -10.4625
 197   2.0000      -0.382551       -10.4097
 198   2.0000      -0.380178       -10.3452
 199   2.0000      -0.378413       -10.2971
 200   2.0000      -0.378114       -10.2890
 201   2.0000      -0.374539       -10.1917
 202   2.0000      -0.368203       -10.0193
 203   2.0000      -0.364678        -9.9234
 204   2.0000      -0.355695        -9.6790
 205   2.0000      -0.348882        -9.4936
 206   2.0000      -0.342291        -9.3142
 207   2.0000      -0.339410        -9.2358
 208   2.0000      -0.335724        -9.1355
 209   2.0000      -0.333776        -9.0825
 210   2.0000      -0.331073        -9.0090
 211   2.0000      -0.313128        -8.5206
 212   2.0000      -0.307205        -8.3595
 213   2.0000      -0.292294        -7.9537
 214   2.0000      -0.279572        -7.6075
 215   2.0000      -0.251172        -6.8347
 216   2.0000      -0.221669        -6.0319
 217   0.0000      -0.099158        -2.6982
 218   0.0000      -0.083432        -2.2703
 219   0.0000      -0.050999        -1.3878
 220   0.0000      -0.043971        -1.1965
 221   0.0000      -0.032318        -0.8794

MULLIKEN ATOMIC CHARGES
-----------------------
   0 C :   -0.055257
   1 C :   -0.030677
   2 C :    0.233027
   3 O :   -0.091736
   4 O :   -0.231210
   5 C :    0.234408
   6 O :   -0.094070
   7 C :   -0.069465
   8 C :    0.052508
   9 C :   -0.055353
  10 C :   -0.037568
  11 C :    0.238161
  12 O :   -0.094175
  13 O :   -0.229850
  14 C :    0.242618
  15 O :   -0.093415
  16 C :   -0.018128
  17 C :   -0.039558
  18 C :    0.148477
  19 F :   -0.205321
  20 C :    0.147508
  21 C :   -0.005168
  22 C :    0.068886
  23 N :   -0.292191
  24 S :    0.590530
  25 N :   -0.294730
  26 C :   -0.079598
  27 N :   -0.026412
  28 C :   -0.003867
  29 C :    0.059569
  30 C :   -0.049937
  31 S :    0.812390
  32 O :   -0.450487
  33 O :   -0.464694
  34 C :   -0.042103
  35 C :    0.018832
  36 C :    0.071309
  37 C :    0.012890
  38 C :    0.000439
  39 N :   -0.041436
  40 C :   -0.013697
  41 C :    0.068967
  42 C :   -0.059565
  43 S :    0.798632
  44 O :   -0.457373
  45 O :   -0.450731
  46 C :   -0.056242
  47 C :    0.007010
  48 C :    0.052667
  49 C :    0.004808
  50 C :    0.108052
  51 N :   -0.164199
  52 C :    0.070803
  53 C :    0.019634
  54 C :    0.100092
  55 C :   -0.038920
  56 C :   -0.034952
  57 C :   -0.010018
  58 C :   -0.024025
  59 H :    0.027747
  60 H :   -0.011322
  61 H :    0.136076
  62 H :   -0.000492
  63 H :   -0.021143
  64 H :    0.006828
  65 H :   -0.040877
  66 H :    0.125755
  67 H :   -0.007356
  68 H :   -0.025793
  69 H :   -0.005334
  70 H :   -0.029880
  71 H :    0.028391
  72 H :    0.030766
  73 H :    0.024666
  74 H :    0.020481
  75 H :    0.025351
  76 H :   -0.031794
  77 H :   -0.019473
  78 H :   -0.021977
  79 H :    0.015413
  80 H :    0.017879
Sum of atomic charges:   -0.0000000

LOEWDIN ATOMIC CHARGES
----------------------
   0 C :    0.046880
   1 C :   -0.041180
   2 C :    0.103737
   3 O :   -0.091129
   4 O :   -0.056767
   5 C :    0.107284
   6 O :   -0.093333
   7 C :   -0.045022
   8 C :    0.045566
   9 C :   -0.031616
  10 C :   -0.037677
  11 C :    0.104119
  12 O :   -0.092458
  13 O :   -0.053955
  14 C :    0.109379
  15 O :   -0.090026
  16 C :   -0.036806
  17 C :   -0.000939
  18 C :    0.083137
  19 F :   -0.071422
  20 C :   -0.043422
  21 C :   -0.034994
  22 C :   -0.042044
  23 N :   -0.296682
  24 S :    0.711627
  25 N :   -0.263268
  26 C :   -0.006348
  27 N :    0.107979
  28 C :    0.006272
  29 C :   -0.085221
  30 C :   -0.200046
  31 S :    1.180985
  32 O :   -0.492244
  33 O :   -0.504526
  34 C :   -0.147154
  35 C :   -0.013356
  36 C :   -0.013450
  37 C :   -0.027237
  38 C :   -0.002938
  39 N :    0.097926
  40 C :   -0.009155
  41 C :   -0.078758
  42 C :   -0.220977
  43 S :    1.173573
  44 O :   -0.499295
  45 O :   -0.495514
  46 C :   -0.150339
  47 C :   -0.028392
  48 C :   -0.050496
  49 C :   -0.011397
  50 C :   -0.026552
  51 N :    0.068749
  52 C :    0.038979
  53 C :   -0.059927
  54 C :   -0.017126
  55 C :   -0.058121
  56 C :   -0.045922
  57 C :   -0.038673
  58 C :   -0.044939
  59 H :    0.056093
  60 H :    0.044027
  61 H :    0.088553
  62 H :    0.025694
  63 H :    0.030399
  64 H :    0.032709
  65 H :    0.023954
  66 H :    0.092413
  67 H :    0.022284
  68 H :    0.027961
  69 H :    0.031713
  70 H :    0.023384
  71 H :    0.028903
  72 H :    0.029768
  73 H :    0.028316
  74 H :    0.028936
  75 H :    0.029272
  76 H :    0.023133
  77 H :    0.026591
  78 H :    0.025395
  79 H :    0.021649
  80 H :    0.023504

  Mayer bond orders larger than 0.100000
B(  0-C ,  1-C ) :   1.3437 B(  0-C , 10-C ) :   1.3243 B(  0-C , 59-H ) :   1.0245
B(  1-C ,  2-C ) :   0.8867 B(  1-C ,  7-C ) :   1.3471 B(  2-C ,  3-O ) :   2.3084
B(  2-C ,  4-O ) :   1.0448 B(  4-O ,  5-C ) :   1.0539 B(  5-C ,  6-O ) :   2.2683
B(  5-C ,  7-C ) :   0.9026 B(  7-C ,  8-C ) :   1.4126 B(  8-C ,  9-C ) :   1.4035
B(  8-C , 16-C ) :   0.9669 B(  9-C , 10-C ) :   1.3655 B(  9-C , 14-C ) :   0.9040
B( 10-C , 11-C ) :   0.8853 B( 11-C , 12-O ) :   2.3068 B( 11-C , 13-O ) :   1.0505
B( 13-O , 14-C ) :   1.0504 B( 14-C , 15-O ) :   2.2676 B( 16-C , 17-C ) :   1.4449
B( 16-C , 20-C ) :   0.1206 B( 16-C , 22-C ) :   1.2296 B( 17-C , 18-C ) :   1.2134
B( 17-C , 60-H ) :   1.0028 B( 18-C , 19-F ) :   1.0782 B( 18-C , 20-C ) :   1.3673
B( 20-C , 21-C ) :   1.2101 B( 20-C , 26-C ) :   1.0293 B( 21-C , 22-C ) :   1.1643
B( 21-C , 25-N ) :   1.4955 B( 22-C , 23-N ) :   1.5166 B( 23-N , 24-S ) :   1.2807
B( 23-N , 25-N ) :   0.1397 B( 24-S , 25-N ) :   1.2855 B( 26-C , 27-N ) :   1.2843
B( 26-C , 30-C ) :   1.5482 B( 27-N , 28-C ) :   1.2352 B( 27-N , 61-H ) :   0.9135
B( 28-C , 29-C ) :   1.4152 B( 28-C , 62-H ) :   0.9875 B( 29-C , 30-C ) :   1.3546
B( 29-C , 35-C ) :   1.0423 B( 30-C , 31-S ) :   0.8030 B( 31-S , 32-O ) :   1.7153
B( 31-S , 33-O ) :   1.7127 B( 31-S , 34-C ) :   0.8241 B( 34-C , 35-C ) :   1.7102
B( 34-C , 36-C ) :   1.1147 B( 35-C , 63-H ) :   0.9900 B( 36-C , 37-C ) :   1.7146
B( 36-C , 64-H ) :   0.9391 B( 37-C , 38-C ) :   1.1175 B( 37-C , 65-H ) :   0.9577
B( 38-C , 39-N ) :   1.2245 B( 38-C , 42-C ) :   1.4913 B( 39-N , 40-C ) :   1.2105
B( 39-N , 66-H ) :   0.9336 B( 40-C , 41-C ) :   1.4330 B( 40-C , 67-H ) :   0.9864
B( 41-C , 42-C ) :   1.3509 B( 41-C , 47-C ) :   1.0502 B( 42-C , 43-S ) :   0.8075
B( 43-S , 44-O ) :   1.7185 B( 43-S , 45-O ) :   1.6991 B( 43-S , 46-C ) :   0.8234
B( 46-C , 47-C ) :   1.6823 B( 46-C , 48-C ) :   1.1301 B( 47-C , 68-H ) :   0.9876
B( 48-C , 49-C ) :   1.6844 B( 48-C , 69-H ) :   0.9551 B( 49-C , 50-C ) :   1.1169
B( 49-C , 70-H ) :   0.9591 B( 50-C , 51-N ) :   1.1632 B( 50-C , 56-C ) :   1.3970
B( 51-N , 52-C ) :   0.9707 B( 51-N , 54-C ) :   1.1911 B( 52-C , 53-C ) :   1.1116
B( 52-C , 71-H ) :   0.9453 B( 52-C , 72-H ) :   0.9454 B( 53-C , 73-H ) :   0.9642
B( 53-C , 74-H ) :   0.9668 B( 53-C , 75-H ) :   0.9642 B( 54-C , 55-C ) :   1.4043
B( 54-C , 57-C ) :   1.0814 B( 55-C , 56-C ) :   1.3638 B( 55-C , 76-H ) :   1.0051
B( 56-C , 77-H ) :   1.0051 B( 57-C , 58-C ) :   1.9399 B( 57-C , 78-H ) :   0.9530
B( 58-C , 79-H ) :   0.9558 B( 58-C , 80-H ) :   0.9473

-----------------------------------------------------------------------------
         ABSORPTION SPECTRUM VIA TRANSITION ELECTRIC DIPOLE MOMENTS
-----------------------------------------------------------------------------
State   Energy  Wavelength   fosc         T2         TX        TY        TZ
        (cm-1)    (nm)                  (au**2)     (au)      (au)      (au)
-----------------------------------------------------------------------------
   0   19627.2    509.5   0.001810606   0.03037   0.04936   0.12923   0.10599
   1   20684.8    483.4   0.295960928   4.71041   0.28076  -2.02728  -0.72230
   2   21516.9    464.8   0.005862434   0.08970  -0.22036  -0.06444  -0.19231
   3   22924.0    436.2   0.249756488   3.58675   0.06231  -1.88944  -0.11358
   4   23605.1    423.6   1.085919119  15.14493  -1.03826   0.46939   3.72111
   5   25594.9    390.7   0.006066521   0.07803  -0.15233  -0.21383  -0.09539
   6   26445.6    378.1   0.322756983   4.01789  -0.25534  -1.77033   0.90477
   7   27560.8    362.8   0.464375053   5.54693   0.11011   0.67839  -2.25269
   8   29269.5    341.7   0.003594572   0.04043  -0.03666   0.16411  -0.11025
   9   29759.6    336.0   0.249449456   2.75950  -0.71594   1.20948   0.88549
  10   30568.4    327.1   0.010241924   0.11030   0.01160  -0.30700  -0.12617
  11   32109.7    311.4   0.337821703   3.46359   0.74929  -1.59355  -0.60229
  12   32344.2    309.2   0.000118267   0.00120   0.02855   0.01960  -0.00220
  13   32465.2    308.0   0.003432471   0.03481  -0.15804  -0.07356   0.06649
  14   33892.6    295.0   0.006926196   0.06728  -0.17487   0.05340   0.18397
  15   34145.0    292.9   0.002412052   0.02326   0.14646   0.04166  -0.00844
  16   34183.5    292.5   0.052953336   0.50998   0.21049  -0.62773  -0.26764
  17   34850.3    286.9   0.101323415   0.95715   0.49514  -0.31876  -0.78127
  18   35362.4    282.8   0.007417938   0.06906  -0.03590  -0.24040  -0.09988
  19   35482.2    281.8   0.059377051   0.55091   0.02430  -0.36985  -0.64307
  20   36042.2    277.5   0.003107973   0.02839   0.06713   0.05834  -0.14310
  21   36221.8    276.1   0.080994467   0.73614  -0.32520  -0.29603   0.73672
  22   36616.0    273.1   0.004573667   0.04112   0.02065  -0.10348  -0.17317
  23   36748.9    272.1   0.014265533   0.12780   0.02700  -0.11982  -0.33573
  24   36993.6    270.3   0.009636383   0.08576   0.10117   0.26416   0.07577
  25   37241.3    268.5   0.034629802   0.30613   0.16240  -0.01065  -0.52881
  26   37417.5    267.3   0.000446011   0.00392   0.01869  -0.01129   0.05871
  27   37748.6    264.9   0.001882265   0.01642  -0.08326   0.09641  -0.01371
  28   38547.8    259.4   0.002373875   0.02027   0.06126   0.09992  -0.08085
  29   38744.2    258.1   0.002502336   0.02126  -0.13911  -0.04225  -0.01124
  30   38891.6    257.1   0.000001039   0.00001  -0.00250  -0.00044   0.00153
  31   39343.9    254.2   0.193181969   1.61646  -0.48528   0.53998   1.04374
  32   40000.7    250.0   0.009153293   0.07533   0.09641  -0.18534   0.17801

FINAL SINGLE POINT ENERGY     -3854.144783042573

DIPOLE MOMENT
-------------
                                X             Y             Z
Electronic contribution:    -29.73096     104.23169      65.51170
Nuclear contribution   :     30.05821    -107.34510     -62.88209
                        -----------------------------------------
Total Dipole Moment    :      0.32724      -3.11341       2.62961
                        -----------------------------------------
Magnitude (a.u.)       :      4.08843
Magnitude (Debye)      :     10.39196

Rotational constants in cm-1:     0.001935     0.000463     0.000392
Rotational constants in MHz :    58.019058    13.865522    11.742328

                             ****ORCA TERMINATED NORMALLY****
TOTAL RUN TIME: 0 days 0 hours 5 minutes 50 seconds 870 msec
