                         Program Version 4.2.0 -  RELEASE  -
|  1> # ORCA input file
|  2> # SCF done       -206.552039095204          0.000893050249
|  3> ! CAM-B3LYP def2-SVP def2/J RIJCOSX Grid4 TightSCF
|  4> %maxcore 5000
|  5> %tddft
|  6>     Mode sTDDFT
|  7>     Ethresh 5.0
|  8>     maxcore 5000
|  9> end
| 10>
| 11> %pal
| 12>   nprocs 6
| 13>   end
| 14> * xyz 0 1
| 15>    C       -3.17717        -3.36245         2.91816
| 16>    C       -4.40519        -2.73120         2.83882
| 17>    N       -4.88394        -1.89191         3.80996
| 18>    C       -4.20724        -1.62466         4.87452
| 19>    C       -2.92793        -2.20012         5.07642
| 20>    C       -2.41413        -3.09190         4.06313
| 21>    N       -1.22237        -3.49732         4.47478
| 22>    O       -1.01933        -2.90397         5.64377
| 23>    N       -2.02066        -2.12443         6.02990
| 24>    C       -5.32098        -2.88039         1.73300
| 25>    C       -5.10120        -3.62520         0.62601
| 26>    C       -6.02479        -3.78849        -0.44202
| 27>    C       -6.15025        -4.91033        -1.24743
| 28>    N       -5.33308        -6.05696        -1.28249
| 29>    O       -4.35799        -6.10615        -0.55042
| 30>    O       -5.64945        -6.93986        -2.05821
| 31>    C       -7.32569        -4.78297        -2.06932
| 32>    C       -7.94028        -3.61098        -1.77247
| 33>    C       -7.14081        -2.89587        -0.81426
| 34>    C       -7.27699        -1.56281        -0.50198
| 35>    C       -6.23563        -0.64733        -0.11080
| 36>    C       -6.72728         0.61359        -0.14974
| 37>    C       -8.12223         0.56070        -0.51654
| 38>    N       -8.94831         1.70226        -0.44455
| 39>    O      -10.15810         1.55492        -0.50625
| 40>    O       -8.39771         2.77438        -0.28335
| 41>    C       -8.48663        -0.75528        -0.74433
| 42>    C       -9.77150        -1.29514        -1.03766
| 43>    C      -10.64578        -0.75108        -1.92009
| 44>    C      -11.94573        -1.21954        -2.24070
| 45>    N      -12.83362        -1.88741        -1.43893
| 46>    C      -12.77171        -2.04815        -0.00191
| 47>    C      -12.79839        -0.70074         0.71263
| 48>    C      -14.03106        -2.18670        -2.12665
| 49>    O      -14.96072        -2.78146        -1.62750
| 50>    C      -13.82232        -1.66616        -3.46315
| 51>    C      -12.54488        -1.07736        -3.49667
| 52>    C      -12.29783        -0.59835        -4.84267
| 53>    O      -11.34821        -0.05142        -5.35214
| 54>    N      -13.48592        -0.92105        -5.53891
| 55>    C      -13.62593        -0.63131        -6.94622
| 56>    C      -13.37403        -1.86707        -7.80727
| 57>    C      -14.39905        -1.54869        -4.73441
| 58>    C      -15.68303        -1.96708        -5.16042
| 59>    C      -16.62053        -2.42693        -4.29229
| 60>    C      -17.94997        -2.78400        -4.67756
| 61>    C      -19.08139        -2.26103        -4.08106
| 62>    N      -19.10007        -1.28797        -3.06242
| 63>    O      -20.18137        -0.99505        -2.58887
| 64>    O      -18.03776        -0.78940        -2.72821
| 65>    C      -20.26074        -2.71180        -4.77484
| 66>    C      -19.87285        -3.54899        -5.76173
| 67>    C      -18.43389        -3.71328        -5.71565
| 68>    C      -17.68586        -4.64745        -6.39295
| 69>    C      -16.24872        -4.70498        -6.47494
| 70>    C      -15.89732        -5.47381        -7.53307
| 71>    C      -17.08875        -6.02307        -8.12511
| 72>    N      -17.03764        -6.90347        -9.22025
| 73>    O      -15.93681        -7.15437        -9.67808
| 74>    O      -18.08179        -7.35569        -9.66476
| 75>    C      -18.19527        -5.62892        -7.38296
| 76>    C      -19.49092        -6.18958        -7.49392
| 77>    C      -20.34468        -6.36058        -6.44804
| 78>    C      -21.62199        -6.99020        -6.52160
| 79>    C      -22.44074        -7.12109        -7.65759
| 80>    N      -23.54514        -7.90614        -7.68332
| 81>    C      -24.01553        -8.50273        -6.63894
| 82>    C      -23.39879        -8.30829        -5.37840
| 83>    C      -22.16850        -7.55986        -5.33859
| 84>    N      -21.75735        -7.55384        -4.08496
| 85>    O      -22.66932        -8.23794        -3.39727
| 86>    N      -23.65737        -8.70288        -4.14725
| 87>    C      -22.19525        -6.38378        -8.88397
| 88>    C      -22.70591        -6.74647       -10.05875
| 89>    H       -2.81046        -4.03698         2.16420
| 90>    H       -4.64518        -0.95489         5.60022
| 91>    H       -6.25369        -2.34999         1.86570
| 92>    H       -4.21029        -4.23428         0.55155
| 93>    H       -7.62530        -5.51994        -2.79004
| 94>    H       -8.79806        -3.20537        -2.27197
| 95>    H       -5.21988        -0.92878         0.08154
| 96>    H       -6.20894         1.53020         0.05781
| 97>    H      -10.00294        -2.23413        -0.55351
| 98>    H      -10.32217         0.07310        -2.54216
| 99>    H      -11.88757        -2.62383         0.27879
|100>    H      -13.65843        -2.63090         0.26456
|101>    H      -11.96625        -0.07170         0.40489
|102>    H      -12.74314        -0.85697         1.78611
|103>    H      -13.72483        -0.17876         0.48665
|104>    H      -12.87520         0.13045        -7.17343
|105>    H      -14.61863        -0.21561        -7.13725
|106>    H      -12.37304        -2.24926        -7.62346
|107>    H      -13.45461        -1.60290        -8.85769
|108>    H      -14.09221        -2.65496        -7.59034
|109>    H      -15.93351        -1.85120        -6.20616
|110>    H      -16.40553        -2.41994        -3.22865
|111>    H      -21.25245        -2.37990        -4.53528
|112>    H      -20.51495        -4.00680        -6.48609
|113>    H      -15.57822        -4.19184        -5.81744
|114>    H      -14.90903        -5.68778        -7.89417
|115>    H      -19.72189        -6.65005        -8.44603
|116>    H      -20.02621        -6.10486        -5.44507
|117>    H      -24.87273        -9.14781        -6.76141
|118>    H      -21.58938        -5.49284        -8.79603
|119>    H      -23.29480        -7.64254       -10.14902
|120>    H      -22.53207        -6.17194       -10.95141
|121> *
|122>
|123>                          ****END OF INPUT****

CARTESIAN COORDINATES (ANGSTROEM)
---------------------------------
  C     -3.177170   -3.362450    2.918160
  C     -4.405190   -2.731200    2.838820
  N     -4.883940   -1.891910    3.809960
  C     -4.207240   -1.624660    4.874520
  C     -2.927930   -2.200120    5.076420
  C     -2.414130   -3.091900    4.063130
  N     -1.222370   -3.497320    4.474780
  O     -1.019330   -2.903970    5.643770
  N     -2.020660   -2.124430    6.029900
  C     -5.320980   -2.880390    1.733000
  C     -5.101200   -3.625200    0.626010
  C     -6.024790   -3.788490   -0.442020
  C     -6.150250   -4.910330   -1.247430
  N     -5.333080   -6.056960   -1.282490
  O     -4.357990   -6.106150   -0.550420
  O     -5.649450   -6.939860   -2.058210
  C     -7.325690   -4.782970   -2.069320
  C     -7.940280   -3.610980   -1.772470
  C     -7.140810   -2.895870   -0.814260
  C     -7.276990   -1.562810   -0.501980
  C     -6.235630   -0.647330   -0.110800
  C     -6.727280    0.613590   -0.149740
  C     -8.122230    0.560700   -0.516540
  N     -8.948310    1.702260   -0.444550
  O    -10.158100    1.554920   -0.506250
  O     -8.397710    2.774380   -0.283350
  C     -8.486630   -0.755280   -0.744330
  C     -9.771500   -1.295140   -1.037660
  C    -10.645780   -0.751080   -1.920090
  C    -11.945730   -1.219540   -2.240700
  N    -12.833620   -1.887410   -1.438930
  C    -12.771710   -2.048150   -0.001910
  C    -12.798390   -0.700740    0.712630
  C    -14.031060   -2.186700   -2.126650
  O    -14.960720   -2.781460   -1.627500
  C    -13.822320   -1.666160   -3.463150
  C    -12.544880   -1.077360   -3.496670
  C    -12.297830   -0.598350   -4.842670
  O    -11.348210   -0.051420   -5.352140
  N    -13.485920   -0.921050   -5.538910
  C    -13.625930   -0.631310   -6.946220
  C    -13.374030   -1.867070   -7.807270
  C    -14.399050   -1.548690   -4.734410
  C    -15.683030   -1.967080   -5.160420
  C    -16.620530   -2.426930   -4.292290
  C    -17.949970   -2.784000   -4.677560
  C    -19.081390   -2.261030   -4.081060
  N    -19.100070   -1.287970   -3.062420
  O    -20.181370   -0.995050   -2.588870
  O    -18.037760   -0.789400   -2.728210
  C    -20.260740   -2.711800   -4.774840
  C    -19.872850   -3.548990   -5.761730
  C    -18.433890   -3.713280   -5.715650
  C    -17.685860   -4.647450   -6.392950
  C    -16.248720   -4.704980   -6.474940
  C    -15.897320   -5.473810   -7.533070
  C    -17.088750   -6.023070   -8.125110
  N    -17.037640   -6.903470   -9.220250
  O    -15.936810   -7.154370   -9.678080
  O    -18.081790   -7.355690   -9.664760
  C    -18.195270   -5.628920   -7.382960
  C    -19.490920   -6.189580   -7.493920
  C    -20.344680   -6.360580   -6.448040
  C    -21.621990   -6.990200   -6.521600
  C    -22.440740   -7.121090   -7.657590
  N    -23.545140   -7.906140   -7.683320
  C    -24.015530   -8.502730   -6.638940
  C    -23.398790   -8.308290   -5.378400
  C    -22.168500   -7.559860   -5.338590
  N    -21.757350   -7.553840   -4.084960
  O    -22.669320   -8.237940   -3.397270
  N    -23.657370   -8.702880   -4.147250
  C    -22.195250   -6.383780   -8.883970
  C    -22.705910   -6.746470  -10.058750
  H     -2.810460   -4.036980    2.164200
  H     -4.645180   -0.954890    5.600220
  H     -6.253690   -2.349990    1.865700
  H     -4.210290   -4.234280    0.551550
  H     -7.625300   -5.519940   -2.790040
  H     -8.798060   -3.205370   -2.271970
  H     -5.219880   -0.928780    0.081540
  H     -6.208940    1.530200    0.057810
  H    -10.002940   -2.234130   -0.553510
  H    -10.322170    0.073100   -2.542160
  H    -11.887570   -2.623830    0.278790
  H    -13.658430   -2.630900    0.264560
  H    -11.966250   -0.071700    0.404890
  H    -12.743140   -0.856970    1.786110
  H    -13.724830   -0.178760    0.486650
  H    -12.875200    0.130450   -7.173430
  H    -14.618630   -0.215610   -7.137250
  H    -12.373040   -2.249260   -7.623460
  H    -13.454610   -1.602900   -8.857690
  H    -14.092210   -2.654960   -7.590340
  H    -15.933510   -1.851200   -6.206160
  H    -16.405530   -2.419940   -3.228650
  H    -21.252450   -2.379900   -4.535280
  H    -20.514950   -4.006800   -6.486090
  H    -15.578220   -4.191840   -5.817440
  H    -14.909030   -5.687780   -7.894170
  H    -19.721890   -6.650050   -8.446030
  H    -20.026210   -6.104860   -5.445070
  H    -24.872730   -9.147810   -6.761410
  H    -21.589380   -5.492840   -8.796030
  H    -23.294800   -7.642540  -10.149020
  H    -22.532070   -6.171940  -10.951410

 Total Charge           Charge          ....    0
 Multiplicity           Mult            ....    1
 Number of Electrons    NEL             ....  512
 Basis Dimension        Dim             .... 1196

ORBITAL ENERGIES
----------------

  NO   OCC          E(Eh)            E(eV)
   0   2.0000     -19.374546      -527.2082
   1   2.0000     -19.374468      -527.2061
   2   2.0000     -19.247300      -523.7457
   3   2.0000     -19.246091      -523.7128
   4   2.0000     -19.245601      -523.6994
   5   2.0000     -19.245135      -523.6868
   6   2.0000     -19.244933      -523.6813
   7   2.0000     -19.244590      -523.6719
   8   2.0000     -19.244100      -523.6586
   9   2.0000     -19.242673      -523.6198
  10   2.0000     -19.202494      -522.5264
  11   2.0000     -19.199924      -522.4565
  12   2.0000     -14.654914      -398.7805
  13   2.0000     -14.654463      -398.7682
  14   2.0000     -14.654307      -398.7640
  15   2.0000     -14.652610      -398.7178
  16   2.0000     -14.503052      -394.6481
  17   2.0000     -14.500192      -394.5703
  18   2.0000     -14.494416      -394.4131
  19   2.0000     -14.493116      -394.3777
  20   2.0000     -14.464991      -393.6124
  21   2.0000     -14.461495      -393.5173
  22   2.0000     -14.441303      -392.9678
  23   2.0000     -14.439038      -392.9062
  24   2.0000     -10.385677      -282.6086
  25   2.0000     -10.382552      -282.5236
  26   2.0000     -10.354744      -281.7669
  27   2.0000     -10.354549      -281.7616
  28   2.0000     -10.350551      -281.6528
  29   2.0000     -10.348432      -281.5952
  30   2.0000     -10.346543      -281.5437
  31   2.0000     -10.344886      -281.4987
  32   2.0000     -10.343941      -281.4729
  33   2.0000     -10.343714      -281.4668
  34   2.0000     -10.342212      -281.4259
  35   2.0000     -10.341970      -281.4193
  36   2.0000     -10.341170      -281.3976
  37   2.0000     -10.339888      -281.3627
  38   2.0000     -10.339537      -281.3531
  39   2.0000     -10.338810      -281.3333
  40   2.0000     -10.338450      -281.3235
  41   2.0000     -10.338086      -281.3136
  42   2.0000     -10.338010      -281.3116
  43   2.0000     -10.337937      -281.3096
  44   2.0000     -10.334730      -281.2223
  45   2.0000     -10.331717      -281.1403
  46   2.0000     -10.328795      -281.0608
  47   2.0000     -10.327222      -281.0180
  48   2.0000     -10.322456      -280.8883
  49   2.0000     -10.318911      -280.7918
  50   2.0000     -10.317145      -280.7438
  51   2.0000     -10.316972      -280.7391
  52   2.0000     -10.311760      -280.5973
  53   2.0000     -10.309252      -280.5290
  54   2.0000     -10.308911      -280.5197
  55   2.0000     -10.308774      -280.5160
  56   2.0000     -10.308571      -280.5105
  57   2.0000     -10.307465      -280.4804
  58   2.0000     -10.307341      -280.4770
  59   2.0000     -10.307043      -280.4689
  60   2.0000     -10.306743      -280.4607
  61   2.0000     -10.305881      -280.4373
  62   2.0000     -10.304664      -280.4042
  63   2.0000     -10.303574      -280.3745
  64   2.0000     -10.296294      -280.1764
  65   2.0000     -10.295099      -280.1439
  66   2.0000     -10.294748      -280.1343
  67   2.0000     -10.293065      -280.0885
  68   2.0000     -10.289981      -280.0046
  69   2.0000     -10.285803      -279.8909
  70   2.0000     -10.275328      -279.6059
  71   2.0000     -10.274446      -279.5819
  72   2.0000     -10.272588      -279.5313
  73   2.0000     -10.257983      -279.1339
  74   2.0000      -1.328769       -36.1576
  75   2.0000      -1.328360       -36.1465
  76   2.0000      -1.325466       -36.0678
  77   2.0000      -1.325048       -36.0564
  78   2.0000      -1.324406       -36.0389
  79   2.0000      -1.324048       -36.0292
  80   2.0000      -1.144553       -31.1449
  81   2.0000      -1.142773       -31.0964
  82   2.0000      -1.142304       -31.0837
  83   2.0000      -1.142150       -31.0795
  84   2.0000      -1.141583       -31.0641
  85   2.0000      -1.137455       -30.9517
  86   2.0000      -1.078316       -29.3425
  87   2.0000      -1.075503       -29.2659
  88   2.0000      -1.074449       -29.2372
  89   2.0000      -1.065456       -28.9925
  90   2.0000      -1.030525       -28.0420
  91   2.0000      -1.028055       -27.9748
  92   2.0000      -1.027695       -27.9650
  93   2.0000      -1.026515       -27.9329
  94   2.0000      -1.007859       -27.4252
  95   2.0000      -1.005559       -27.3626
  96   2.0000      -0.985403       -26.8142
  97   2.0000      -0.980871       -26.6908
  98   2.0000      -0.945661       -25.7327
  99   2.0000      -0.938608       -25.5408
 100   2.0000      -0.932739       -25.3811
 101   2.0000      -0.924937       -25.1688
 102   2.0000      -0.920166       -25.0390
 103   2.0000      -0.919419       -25.0187
 104   2.0000      -0.918457       -24.9925
 105   2.0000      -0.902073       -24.5467
 106   2.0000      -0.890549       -24.2331
 107   2.0000      -0.889123       -24.1943
 108   2.0000      -0.883899       -24.0521
 109   2.0000      -0.880336       -23.9552
 110   2.0000      -0.871227       -23.7073
 111   2.0000      -0.855287       -23.2736
 112   2.0000      -0.850272       -23.1371
 113   2.0000      -0.836466       -22.7614
 114   2.0000      -0.829581       -22.5740
 115   2.0000      -0.826901       -22.5011
 116   2.0000      -0.818758       -22.2795
 117   2.0000      -0.812513       -22.1096
 118   2.0000      -0.799223       -21.7480
 119   2.0000      -0.795691       -21.6518
 120   2.0000      -0.783306       -21.3149
 121   2.0000      -0.777228       -21.1494
 122   2.0000      -0.768898       -20.9228
 123   2.0000      -0.767274       -20.8786
 124   2.0000      -0.765772       -20.8377
 125   2.0000      -0.738774       -20.1031
 126   2.0000      -0.736959       -20.0537
 127   2.0000      -0.736372       -20.0377
 128   2.0000      -0.717887       -19.5347
 129   2.0000      -0.717307       -19.5189
 130   2.0000      -0.715867       -19.4797
 131   2.0000      -0.710692       -19.3389
 132   2.0000      -0.707202       -19.2440
 133   2.0000      -0.703203       -19.1351
 134   2.0000      -0.689742       -18.7688
 135   2.0000      -0.682306       -18.5665
 136   2.0000      -0.679904       -18.5011
 137   2.0000      -0.674772       -18.3615
 138   2.0000      -0.664573       -18.0840
 139   2.0000      -0.661303       -17.9950
 140   2.0000      -0.657889       -17.9021
 141   2.0000      -0.655877       -17.8473
 142   2.0000      -0.652559       -17.7570
 143   2.0000      -0.645033       -17.5522
 144   2.0000      -0.642274       -17.4772
 145   2.0000      -0.638159       -17.3652
 146   2.0000      -0.636253       -17.3133
 147   2.0000      -0.636113       -17.3095
 148   2.0000      -0.635507       -17.2930
 149   2.0000      -0.635132       -17.2828
 150   2.0000      -0.632179       -17.2025
 151   2.0000      -0.630825       -17.1656
 152   2.0000      -0.625650       -17.0248
 153   2.0000      -0.625146       -17.0111
 154   2.0000      -0.624187       -16.9850
 155   2.0000      -0.623802       -16.9745
 156   2.0000      -0.616627       -16.7793
 157   2.0000      -0.613188       -16.6857
 158   2.0000      -0.611210       -16.6319
 159   2.0000      -0.604321       -16.4444
 160   2.0000      -0.596188       -16.2231
 161   2.0000      -0.593790       -16.1579
 162   2.0000      -0.593516       -16.1504
 163   2.0000      -0.590820       -16.0770
 164   2.0000      -0.589229       -16.0337
 165   2.0000      -0.586502       -15.9595
 166   2.0000      -0.582467       -15.8497
 167   2.0000      -0.578860       -15.7516
 168   2.0000      -0.575615       -15.6633
 169   2.0000      -0.574317       -15.6280
 170   2.0000      -0.573860       -15.6155
 171   2.0000      -0.565077       -15.3765
 172   2.0000      -0.558542       -15.1987
 173   2.0000      -0.553342       -15.0572
 174   2.0000      -0.551155       -14.9977
 175   2.0000      -0.549372       -14.9492
 176   2.0000      -0.546819       -14.8797
 177   2.0000      -0.543479       -14.7888
 178   2.0000      -0.543053       -14.7772
 179   2.0000      -0.539350       -14.6765
 180   2.0000      -0.537026       -14.6132
 181   2.0000      -0.534460       -14.5434
 182   2.0000      -0.531780       -14.4705
 183   2.0000      -0.530400       -14.4329
 184   2.0000      -0.523112       -14.2346
 185   2.0000      -0.521784       -14.1985
 186   2.0000      -0.521141       -14.1810
 187   2.0000      -0.519188       -14.1278
 188   2.0000      -0.518075       -14.0975
 189   2.0000      -0.515246       -14.0206
 190   2.0000      -0.512287       -13.9400
 191   2.0000      -0.510772       -13.8988
 192   2.0000      -0.509765       -13.8714
 193   2.0000      -0.508427       -13.8350
 194   2.0000      -0.504257       -13.7215
 195   2.0000      -0.499967       -13.6048
 196   2.0000      -0.498122       -13.5546
 197   2.0000      -0.494850       -13.4656
 198   2.0000      -0.489041       -13.3075
 199   2.0000      -0.488070       -13.2811
 200   2.0000      -0.483393       -13.1538
 201   2.0000      -0.481388       -13.0992
 202   2.0000      -0.479893       -13.0585
 203   2.0000      -0.477080       -12.9820
 204   2.0000      -0.475820       -12.9477
 205   2.0000      -0.472797       -12.8655
 206   2.0000      -0.470000       -12.7893
 207   2.0000      -0.465719       -12.6729
 208   2.0000      -0.461026       -12.5451
 209   2.0000      -0.459048       -12.4913
 210   2.0000      -0.456631       -12.4256
 211   2.0000      -0.453612       -12.3434
 212   2.0000      -0.449902       -12.2425
 213   2.0000      -0.444733       -12.1018
 214   2.0000      -0.442906       -12.0521
 215   2.0000      -0.437909       -11.9161
 216   2.0000      -0.436841       -11.8871
 217   2.0000      -0.431484       -11.7413
 218   2.0000      -0.423612       -11.5271
 219   2.0000      -0.419808       -11.4235
 220   2.0000      -0.419200       -11.4070
 221   2.0000      -0.418673       -11.3927
 222   2.0000      -0.415985       -11.3195
 223   2.0000      -0.411493       -11.1973
 224   2.0000      -0.409013       -11.1298
 225   2.0000      -0.401971       -10.9382
 226   2.0000      -0.396728       -10.7955
 227   2.0000      -0.393736       -10.7141
 228   2.0000      -0.393168       -10.6986
 229   2.0000      -0.390991       -10.6394
 230   2.0000      -0.388105       -10.5609
 231   2.0000      -0.384344       -10.4585
 232   2.0000      -0.383961       -10.4481
 233   2.0000      -0.382799       -10.4165
 234   2.0000      -0.382123       -10.3981
 235   2.0000      -0.379600       -10.3294
 236   2.0000      -0.375647       -10.2219
 237   2.0000      -0.372204       -10.1282
 238   2.0000      -0.371541       -10.1102
 239   2.0000      -0.368275       -10.0213
 240   2.0000      -0.364832        -9.9276
 241   2.0000      -0.364471        -9.9178
 242   2.0000      -0.362141        -9.8544
 243   2.0000      -0.359215        -9.7747
 244   2.0000      -0.356602        -9.7036
 245   2.0000      -0.354314        -9.6414
 246   2.0000      -0.351476        -9.5642
 247   2.0000      -0.342491        -9.3197
 248   2.0000      -0.341819        -9.3014
 249   2.0000      -0.334615        -9.1053
 250   2.0000      -0.326988        -8.8978
 251   2.0000      -0.316528        -8.6132
 252   2.0000      -0.311175        -8.4675
 253   2.0000      -0.290865        -7.9148
 254   2.0000      -0.282341        -7.6829
 255   2.0000      -0.247915        -6.7461
 256   0.0000      -0.143284        -3.8990
 257   0.0000      -0.136268        -3.7081
 258   0.0000      -0.095595        -2.6013
 259   0.0000      -0.087347        -2.3768
 260   0.0000      -0.077719        -2.1148

MULLIKEN ATOMIC CHARGES
-----------------------
   0 C :   -0.036262
   1 C :    0.002511
   2 N :   -0.055370
   3 C :    0.016859
   4 C :   -0.053691
   5 C :    0.014118
   6 N :    0.060823
   7 O :   -0.090092
   8 N :    0.076882
   9 C :    0.036037
  10 C :   -0.020594
  11 C :    0.046521
  12 C :    0.084953
  13 N :    0.273342
  14 O :   -0.252086
  15 O :   -0.240040
  16 C :    0.023660
  17 C :   -0.004311
  18 C :    0.017528
  19 C :    0.036718
  20 C :    0.002830
  21 C :    0.023104
  22 C :    0.071078
  23 N :    0.268304
  24 O :   -0.243950
  25 O :   -0.234682
  26 C :    0.050387
  27 C :   -0.078532
  28 C :    0.037149
  29 C :    0.066905
  30 N :   -0.258010
  31 C :    0.103524
  32 C :   -0.013573
  33 C :    0.164669
  34 O :   -0.195343
  35 C :   -0.070815
  36 C :   -0.010249
  37 C :    0.142781
  38 O :   -0.176261
  39 N :   -0.264030
  40 C :    0.100247
  41 C :    0.004435
  42 C :    0.145788
  43 C :   -0.060625
  44 C :   -0.003772
  45 C :    0.012363
  46 C :    0.095890
  47 N :    0.268543
  48 O :   -0.239515
  49 O :   -0.236241
  50 C :    0.027105
  51 C :   -0.016301
  52 C :    0.055346
  53 C :    0.045314
  54 C :   -0.017248
  55 C :    0.027138
  56 C :    0.083204
  57 N :    0.272743
  58 O :   -0.243442
  59 O :   -0.249661
  60 C :    0.016010
  61 C :   -0.065038
  62 C :   -0.023040
  63 C :    0.063960
  64 C :   -0.025804
  65 N :   -0.039631
  66 C :    0.011494
  67 C :   -0.038922
  68 C :   -0.039861
  69 N :    0.044703
  70 O :   -0.090779
  71 N :    0.081293
  72 C :   -0.053839
  73 C :    0.041279
  74 H :    0.012993
  75 H :    0.021744
  76 H :    0.011258
  77 H :    0.027106
  78 H :    0.009321
  79 H :    0.006148
  80 H :    0.004806
  81 H :    0.007276
  82 H :    0.019115
  83 H :    0.027023
  84 H :    0.013862
  85 H :    0.046855
  86 H :    0.041337
  87 H :    0.021297
  88 H :    0.028137
  89 H :    0.047506
  90 H :    0.025850
  91 H :    0.029828
  92 H :    0.028711
  93 H :    0.003792
  94 H :   -0.002804
  95 H :    0.062802
  96 H :    0.004393
  97 H :    0.006051
  98 H :    0.015811
  99 H :    0.010040
 100 H :    0.048005
 101 H :    0.040049
 102 H :    0.022708
 103 H :    0.010597
 104 H :    0.040438
 105 H :    0.032017
Sum of atomic charges:   -0.0000000

LOEWDIN ATOMIC CHARGES
----------------------
   0 C :   -0.009906
   1 C :    0.004187
   2 N :   -0.054738
   3 C :    0.052077
   4 C :   -0.085267
   5 C :   -0.053788
   6 N :   -0.021194
   7 O :    0.091918
   8 N :   -0.005456
   9 C :    0.007793
  10 C :   -0.013185
  11 C :    0.015884
  12 C :   -0.044193
  13 N :    0.285314
  14 O :   -0.216005
  15 O :   -0.204709
  16 C :    0.020528
  17 C :   -0.041373
  18 C :    0.038342
  19 C :    0.042798
  20 C :   -0.038689
  21 C :    0.013886
  22 C :   -0.041996
  23 N :    0.284985
  24 O :   -0.208449
  25 O :   -0.199189
  26 C :    0.007973
  27 C :   -0.025937
  28 C :    0.014907
  29 C :    0.064447
  30 N :    0.000421
  31 C :    0.037098
  32 C :   -0.063412
  33 C :    0.081916
  34 O :   -0.185245
  35 C :   -0.120481
  36 C :   -0.101353
  37 C :    0.081093
  38 O :   -0.180195
  39 N :   -0.002758
  40 C :    0.037741
  41 C :   -0.061992
  42 C :    0.081153
  43 C :   -0.039229
  44 C :    0.040096
  45 C :    0.005047
  46 C :   -0.027112
  47 N :    0.283697
  48 O :   -0.204456
  49 O :   -0.196870
  50 C :    0.005675
  51 C :   -0.036146
  52 C :    0.035398
  53 C :    0.046666
  54 C :   -0.042554
  55 C :    0.017519
  56 C :   -0.046797
  57 N :    0.285007
  58 O :   -0.208523
  59 O :   -0.214519
  60 C :    0.018546
  61 C :   -0.021219
  62 C :    0.019348
  63 C :   -0.057231
  64 C :    0.033479
  65 N :   -0.040393
  66 C :    0.058739
  67 C :   -0.088474
  68 C :   -0.043507
  69 N :   -0.029644
  70 O :    0.087988
  71 N :   -0.000395
  72 C :   -0.046954
  73 C :    0.014935
  74 H :    0.046725
  75 H :    0.035316
  76 H :    0.037354
  77 H :    0.035813
  78 H :    0.040370
  79 H :    0.033719
  80 H :    0.032021
  81 H :    0.039484
  82 H :    0.034252
  83 H :    0.047590
  84 H :    0.017343
  85 H :    0.037519
  86 H :    0.026194
  87 H :    0.030720
  88 H :    0.032214
  89 H :    0.039657
  90 H :    0.024674
  91 H :    0.032734
  92 H :    0.033348
  93 H :    0.018572
  94 H :    0.031421
  95 H :    0.046487
  96 H :    0.039553
  97 H :    0.030950
  98 H :    0.032338
  99 H :    0.039331
 100 H :    0.041318
 101 H :    0.041300
 102 H :    0.035741
 103 H :    0.031048
 104 H :    0.031171
 105 H :    0.030659

  Mayer bond orders larger than 0.100000
B(  0-C ,  1-C ) :   1.5093 B(  0-C ,  5-C ) :   1.1695 B(  0-C , 74-H ) :   0.9920
B(  1-C ,  2-N ) :   1.3027 B(  1-C ,  9-C ) :   1.0816 B(  2-N ,  3-C ) :   1.7856
B(  3-C ,  4-C ) :   1.1088 B(  3-C , 75-H ) :   0.9929 B(  4-C ,  5-C ) :   1.1671
B(  4-C ,  8-N ) :   1.5904 B(  5-C ,  6-N ) :   1.5737 B(  6-N ,  7-O ) :   1.0668
B(  6-N ,  8-N ) :   0.1902 B(  7-O ,  8-N ) :   1.0890 B(  9-C , 10-C ) :   1.6176
B(  9-C , 76-H ) :   0.9753 B( 10-C , 11-C ) :   1.1578 B( 10-C , 77-H ) :   0.9377
B( 11-C , 12-C ) :   1.5358 B( 11-C , 18-C ) :   1.0036 B( 12-C , 13-N ) :   0.9445
B( 12-C , 16-C ) :   1.1251 B( 13-N , 14-O ) :   1.4952 B( 13-N , 15-O ) :   1.5413
B( 14-O , 15-O ) :   0.2621 B( 16-C , 17-C ) :   1.5744 B( 16-C , 78-H ) :   1.0124
B( 17-C , 18-C ) :   1.1305 B( 17-C , 79-H ) :   1.0006 B( 18-C , 19-C ) :   1.5208
B( 19-C , 20-C ) :   1.1075 B( 19-C , 26-C ) :   1.0359 B( 20-C , 21-C ) :   1.6087
B( 20-C , 80-H ) :   1.0010 B( 21-C , 22-C ) :   1.1113 B( 21-C , 81-H ) :   1.0102
B( 22-C , 23-N ) :   0.9417 B( 22-C , 26-C ) :   1.5574 B( 23-N , 24-O ) :   1.5002
B( 23-N , 25-O ) :   1.5356 B( 24-O , 25-O ) :   0.2616 B( 26-C , 27-C ) :   1.1045
B( 27-C , 28-C ) :   1.6350 B( 27-C , 82-H ) :   0.9463 B( 28-C , 29-C ) :   1.1851
B( 28-C , 83-H ) :   0.9429 B( 29-C , 30-N ) :   1.1923 B( 29-C , 36-C ) :   1.3463
B( 30-N , 31-C ) :   0.9384 B( 30-N , 33-C ) :   1.0503 B( 31-C , 32-C ) :   1.1142
B( 31-C , 84-H ) :   0.9505 B( 31-C , 85-H ) :   0.9273 B( 32-C , 86-H ) :   0.9609
B( 32-C , 87-H ) :   0.9653 B( 32-C , 88-H ) :   0.9635 B( 33-C , 34-O ) :   2.0518
B( 33-C , 35-C ) :   0.9854 B( 35-C , 36-C ) :   1.2548 B( 35-C , 42-C ) :   1.3315
B( 36-C , 37-C ) :   0.9638 B( 37-C , 38-O ) :   2.1585 B( 37-C , 39-N ) :   1.0214
B( 39-N , 40-C ) :   0.9414 B( 39-N , 42-C ) :   1.1796 B( 40-C , 41-C ) :   1.1201
B( 40-C , 89-H ) :   0.9284 B( 40-C , 90-H ) :   0.9504 B( 41-C , 91-H ) :   0.9631
B( 41-C , 92-H ) :   0.9665 B( 41-C , 93-H ) :   0.9670 B( 42-C , 43-C ) :   1.1565
B( 43-C , 44-C ) :   1.6499 B( 43-C , 94-H ) :   0.9646 B( 44-C , 45-C ) :   1.0817
B( 44-C , 95-H ) :   0.9038 B( 45-C , 46-C ) :   1.5904 B( 45-C , 52-C ) :   1.0368
B( 46-C , 47-N ) :   0.9375 B( 46-C , 50-C ) :   1.1110 B( 47-N , 48-O ) :   1.5296
B( 47-N , 49-O ) :   1.5087 B( 48-O , 49-O ) :   0.2689 B( 50-C , 51-C ) :   1.6186
B( 50-C , 96-H ) :   1.0166 B( 51-C , 52-C ) :   1.0831 B( 51-C , 97-H ) :   0.9914
B( 52-C , 53-C ) :   1.5694 B( 53-C , 54-C ) :   1.1079 B( 53-C , 60-C ) :   0.9909
B( 54-C , 55-C ) :   1.5823 B( 54-C , 98-H ) :   0.9983 B( 55-C , 56-C ) :   1.1198
B( 55-C , 99-H ) :   1.0108 B( 56-C , 57-N ) :   0.9525 B( 56-C , 60-C ) :   1.5360
B( 57-N , 58-O ) :   1.5351 B( 57-N , 59-O ) :   1.4926 B( 58-O , 59-O ) :   0.2608
B( 60-C , 61-C ) :   1.1771 B( 61-C , 62-C ) :   1.5608 B( 61-C ,100-H ) :   0.9443
B( 62-C , 63-C ) :   1.1504 B( 62-C ,101-H ) :   0.9625 B( 63-C , 64-C ) :   1.3983
B( 63-C , 68-C ) :   1.1252 B( 64-C , 65-N ) :   1.3533 B( 64-C , 72-C ) :   1.0959
B( 65-N , 66-C ) :   1.7678 B( 66-C , 67-C ) :   1.0994 B( 66-C ,102-H ) :   0.9957
B( 67-C , 68-C ) :   1.1676 B( 67-C , 71-N ) :   1.5968 B( 68-C , 69-N ) :   1.6172
B( 69-N , 70-O ) :   1.0517 B( 69-N , 71-N ) :   0.1837 B( 70-O , 71-N ) :   1.0950
B( 72-C , 73-C ) :   1.9337 B( 72-C ,103-H ) :   0.9578 B( 73-C ,104-H ) :   0.9457
B( 73-C ,105-H ) :   0.9463

-----------------------------------------------------------------------------
         ABSORPTION SPECTRUM VIA TRANSITION ELECTRIC DIPOLE MOMENTS
-----------------------------------------------------------------------------
State   Energy  Wavelength   fosc         T2         TX        TY        TZ
        (cm-1)    (nm)                  (au**2)     (au)      (au)      (au)
-----------------------------------------------------------------------------
   0    7560.6   1322.6   0.342623022  14.91882   3.35999   0.43095   1.85568
   1    9511.4   1051.4   0.017043916   0.58993   0.23823   0.72974  -0.02565
   2   13172.9    759.1   0.088983037   2.22384  -1.18983  -0.89118  -0.11812
   3   14129.9    707.7   0.061742347   1.43853   0.74912  -0.29971   0.88742
   4   17575.4    569.0   0.048158784   0.90208  -0.56210  -0.05274  -0.76377
   5   18733.8    533.8   0.131575483   2.31219  -1.09494  -0.12787  -1.04735
   6   19240.9    519.7   0.061842424   1.05812   0.65003  -0.13145   0.78632
   7   22246.6    449.5   0.021264035   0.31467  -0.53810  -0.13715  -0.07946
   8   22773.6    439.1   0.045581686   0.65892   0.62946   0.38927   0.33341
   9   23583.5    424.0   0.004097991   0.05721  -0.21811  -0.06485  -0.07366
  10   23917.4    418.1   0.158350230   2.17962   1.42765   0.26929   0.26255
  11   24134.8    414.3   0.140044934   1.91029  -1.15301  -0.04481  -0.76082
  12   24434.2    409.3   0.007276164   0.09803  -0.04090   0.18400   0.25001
  13   24974.6    400.4   0.101840231   1.34244   0.89197   0.56781  -0.47374
  14   25345.0    394.6   0.025625975   0.33286  -0.55325   0.15916  -0.03792
  15   25642.8    390.0   0.003442797   0.04420   0.04926   0.20383  -0.01502
  16   26293.6    380.3   0.027649518   0.34619   0.33062   0.23181   0.42795
  17   26500.0    377.4   0.011599015   0.14410  -0.13326  -0.13405   0.32919
  18   26632.1    375.5   0.036785244   0.45472   0.54072  -0.02447   0.40218
  19   27032.6    369.9   0.213784268   2.60354   1.31246  -0.16018   0.92484
  20   27341.6    365.7   0.033480404   0.40313  -0.40974  -0.39627   0.27967
  21   27495.0    363.7   0.012816016   0.15345  -0.09963  -0.22562  -0.30434
  22   27539.2    363.1   0.091423197   1.09290   0.89498   0.34616   0.41483
  23   27816.7    359.5   0.030423564   0.36006   0.13094  -0.14787   0.56662
  24   28027.3    356.8   0.001388881   0.01631  -0.07811  -0.09592   0.03184
  25   28199.4    354.6   0.011180748   0.13053  -0.30117  -0.15458  -0.12621
  26   29042.6    344.3   0.029644917   0.33604  -0.00997   0.55983   0.15011
  27   29330.9    340.9   0.044319424   0.49744  -0.47213  -0.49439  -0.17354
  28   29508.0    338.9   0.295752128   3.29962  -0.75035   1.52885   0.63185
  29   29847.1    335.0   0.014796190   0.16320  -0.26361  -0.30381   0.03756
  30   29986.4    333.5   0.039591934   0.43467  -0.03545   0.39592  -0.52599
  31   30259.5    330.5   0.023908712   0.26012  -0.05374  -0.49850   0.09343
  32   30390.5    329.1   0.004630205   0.05016  -0.05682   0.21658   0.00476
  33   30559.4    327.2   0.003470908   0.03739  -0.13625   0.11768  -0.07056
  34   30652.7    326.2   0.120843276   1.29787  -1.00315  -0.14042  -0.52139
  35   30936.3    323.2   0.009443570   0.10049  -0.12727  -0.26514  -0.11831
  36   31338.0    319.1   0.011274202   0.11844   0.30965  -0.14125  -0.05105
  37   31810.0    314.4   0.026531694   0.27459  -0.02313   0.52188   0.04119
  38   31886.7    313.6   0.172732511   1.78336   0.05315   1.20174   0.57996
  39   32113.6    311.4   0.073823710   0.75680   0.82242   0.27449   0.07134
  40   32232.0    310.3   0.043717543   0.44652   0.15815  -0.32118  -0.56423
  41   32305.8    309.5   0.023097543   0.23538  -0.46876  -0.09694  -0.07900
  42   32328.8    309.3   0.227132238   2.31294  -0.12005   1.41238   0.55110
  43   32826.2    304.6   0.120637995   1.20987  -0.25114   0.93381   0.52421
  44   33285.7    300.4   0.174543439   1.72632   0.54052  -0.70224  -0.97006
  45   33369.8    299.7   0.238254241   2.35051  -1.12672   0.27032   1.00396
  46   33422.6    299.2   0.056224660   0.55381  -0.73750  -0.05263   0.08451
  47   33512.7    298.4   0.144479148   1.41929   0.70502  -0.36648  -0.88766
  48   33878.0    295.2   0.012982470   0.12616   0.30826   0.08447  -0.15491
  49   34067.1    293.5   0.242155749   2.34010   0.22698  -1.44654  -0.44285
  50   34174.4    292.6   0.067829253   0.65342   0.30480   0.73850   0.12304
  51   34442.4    290.3   0.019612286   0.18746   0.24111   0.32636   0.15105
  52   34605.6    289.0   0.012874366   0.12248  -0.16987   0.20877  -0.22369
  53   34678.6    288.4   0.011963140   0.11357  -0.18703   0.22975  -0.16064
  54   34790.1    287.4   0.177404016   1.67874   0.24858   1.13618   0.57101
  55   35124.8    284.7   0.091065434   0.85352  -0.46200   0.55017   0.58085
  56   35248.2    283.7   0.037385615   0.34917   0.37155  -0.30682  -0.34203
  57   35339.3    283.0   0.007164683   0.06674   0.04460   0.05475   0.24851
  58   35877.6    278.7   0.056236658   0.51603  -0.29264   0.39631   0.52281
  59   36125.1    276.8   0.028640596   0.26100  -0.13414  -0.39480  -0.29520
  60   36365.1    275.0   0.021199684   0.19192  -0.27762  -0.17407   0.29077
  61   36534.3    273.7   0.013724557   0.12367  -0.16872  -0.18163  -0.24943
  62   36565.5    273.5   0.075563700   0.68033   0.26543  -0.48980  -0.60826
  63   36908.6    270.9   0.008283913   0.07389   0.26872   0.03105  -0.02677
  64   37105.1    269.5   0.037422845   0.33203  -0.43902   0.15493   0.33954
  65   37322.5    267.9   0.112106431   0.98886  -0.21518   0.87115   0.42856
  66   37655.8    265.6   0.012994934   0.11361   0.19493   0.14223   0.23534
  67   37829.7    264.3   0.054172539   0.47143   0.27040  -0.58154  -0.24520
  68   37933.2    263.6   0.016063582   0.13941  -0.30405   0.09745   0.19356
  69   38052.1    262.8   0.010070500   0.08713   0.11186   0.21568  -0.16761
  70   38416.2    260.3   0.049612588   0.42516   0.59847  -0.15849   0.20464
  71   38577.0    259.2   0.214058799   1.82675  -0.45446   1.10686   0.62856
  72   38935.0    256.8   0.115818792   0.97930   0.09102   0.57036   0.80356
  73   39092.4    255.8   0.065287170   0.54981  -0.18276   0.46506   0.54784
  74   39326.9    254.3   0.062604358   0.52407  -0.09358   0.60968   0.37895
  75   39511.7    253.1   0.021956493   0.18294  -0.05354  -0.40451   0.12824
  76   39611.1    252.5   0.018876988   0.15689   0.25005  -0.08793   0.29433
  77   39706.2    251.8   0.002542147   0.02108  -0.07354   0.00029  -0.12518
  78   39794.2    251.3   0.002081749   0.01722   0.08063  -0.02528   0.10040
  79   40149.9    249.1   0.011079624   0.09085   0.14804   0.16943   0.20057
  80   40168.2    249.0   0.007447049   0.06103   0.20888  -0.11991   0.05500

FINAL SINGLE POINT ENERGY     -3479.239668749188

DIPOLE MOMENT
-------------
                                X             Y             Z
Electronic contribution:     13.87587     -11.74440      22.27901
Nuclear contribution   :    -15.27588      11.75243     -23.60305
                        -----------------------------------------
Total Dipole Moment    :     -1.40002       0.00802      -1.32404
                        -----------------------------------------
Magnitude (a.u.)       :      1.92696
Magnitude (Debye)      :      4.89795

Rotational constants in cm-1:     0.001679     0.000273     0.000266
Rotational constants in MHz :    50.321190     8.184712     7.972456

                             ****ORCA TERMINATED NORMALLY****
TOTAL RUN TIME: 0 days 0 hours 10 minutes 45 seconds 129 msec
