                         Program Version 4.2.0 -  RELEASE  -
|  1> # ORCA input file
|  2> # SCF done       -183.989191218453          0.000391855828
|  3> ! CAM-B3LYP def2-SVP def2/J RIJCOSX Grid4 TightSCF
|  4> %maxcore 5000
|  5> %tddft
|  6>     Mode sTDDFT
|  7>     Ethresh 5.0
|  8>     maxcore 5000
|  9> end
| 10>
| 11> %pal
| 12>   nprocs 6
| 13>   end
| 14> * xyz 0 1
| 15>    C        4.57152        -2.63329         7.21887
| 16>    S        3.93282        -4.10484         6.59693
| 17>    C        5.26928        -4.29866         5.51104
| 18>    C        6.14145        -3.22640         5.64318
| 19>    C        5.73976        -2.28904         6.62640
| 20>    N        7.25146        -2.95468         4.79547
| 21>    O        8.04018        -2.11468         5.17063
| 22>    O        7.32104        -3.54154         3.73173
| 23>    C        5.35859        -5.47619         4.70478
| 24>    C        6.51406        -6.12602         4.43967
| 25>    C        6.59994        -7.28943         3.62764
| 26>    C        7.43389        -8.37952         3.80270
| 27>    N        8.42772        -8.54600         4.78485
| 28>    O        8.56459        -7.67244         5.62557
| 29>    O        9.09974        -9.56034         4.73387
| 30>    C        7.10203        -9.39794         2.83927
| 31>    C        6.05071        -8.96814         2.09951
| 32>    C        5.71720        -7.62599         2.50169
| 33>    C        4.90999        -6.74107         1.81831
| 34>    C        5.13949        -5.33068         1.68233
| 35>    C        4.36658        -4.86049         0.66522
| 36>    C        3.54537        -5.92453         0.16762
| 37>    N        2.57972        -5.73655        -0.83361
| 38>    O        1.90093        -6.69383        -1.18274
| 39>    O        2.47307        -4.61994        -1.30889
| 40>    C        3.82819        -7.09351         0.87754
| 41>    C        3.10115        -8.29692         0.83091
| 42>    C        3.06443        -9.20416         1.85519
| 43>    C        2.36818       -10.42241         1.94553
| 44>    N        1.60800       -11.10905         1.02700
| 45>    C        1.36465       -10.78853        -0.36219
| 46>    C        2.59773       -11.02878        -1.22792
| 47>    C        1.08592       -12.29758         1.56929
| 48>    O        0.38724       -13.07234         0.94779
| 49>    C        1.56593       -12.32426         2.93692
| 50>    C        2.34906       -11.17466         3.12909
| 51>    C        2.83789       -11.17175         4.49066
| 52>    O        3.54613       -10.39902         5.09875
| 53>    N        2.29723       -12.35155         5.04602
| 54>    C        2.52841       -12.70025         6.42740
| 55>    C        1.35045       -12.31042         7.31709
| 56>    C        1.53172       -13.04276         4.14051
| 57>    C        0.84247       -14.24230         4.43024
| 58>    C        0.11775       -14.90832         3.49121
| 59>    C       -0.61482       -16.09043         3.76005
| 60>    O       -0.70062       -16.58815         5.02723
| 61>    C       -1.46098       -17.69450         5.00534
| 62>    C       -1.87213       -17.92782         3.68393
| 63>    C       -1.33182       -16.89608         2.89626
| 64>    N       -2.67973       -18.98564         3.20212
| 65>    O       -3.08299       -19.80709         4.00426
| 66>    O       -2.91532       -19.00293         2.01329
| 67>    C       -1.75456       -18.40859         6.19464
| 68>    C       -1.32523       -18.02083         7.41946
| 69>    C       -1.63222       -18.69991         8.62723
| 70>    S       -2.60107       -20.15380         8.66470
| 71>    C       -2.49213       -20.26962        10.38673
| 72>    C       -1.73121       -19.21401        10.88821
| 73>    C       -1.25230       -18.33926         9.89633
| 74>    N       -1.42665       -18.97257        12.25963
| 75>    O       -1.84367       -19.74130        13.10182
| 76>    O       -0.75511       -17.98989        12.50158
| 77>    C       -3.13155       -21.33626        11.10244
| 78>    C       -3.84486       -22.29803        10.51593
| 79>    H        4.03821        -2.10945         7.98632
| 80>    H        6.30671        -1.40241         6.84393
| 81>    H        4.41645        -5.89650         4.37817
| 82>    H        7.43272        -5.82271         4.92445
| 83>    H        7.62888       -10.32947         2.75829
| 84>    H        5.61062        -9.47682         1.26448
| 85>    H        5.90112        -4.78383         2.20372
| 86>    H        4.34813        -3.86305         0.26858
| 87>    H        2.47549        -8.41972        -0.04012
| 88>    H        3.59778        -8.97148         2.76890
| 89>    H        1.01064        -9.75922        -0.45183
| 90>    H        0.56057       -11.45801        -0.68149
| 91>    H        3.44053       -10.43024        -0.89070
| 92>    H        2.37458       -10.76280        -2.25682
| 93>    H        2.88061       -12.07821        -1.19242
| 94>    H        3.41797       -12.14396         6.73551
| 95>    H        2.73866       -13.77047         6.50241
| 96>    H        1.18675       -11.23698         7.26604
| 97>    H        1.56472       -12.57913         8.34757
| 98>    H        0.43841       -12.81422         7.00445
| 99>    H        0.89530       -14.63614         5.43481
|100>    H        0.06736       -14.54269         2.47459
|101>    H       -1.45457       -16.76835         1.84072
|102>    H       -2.36740       -19.29027         6.07335
|103>    H       -0.71595       -17.13239         7.51898
|104>    H       -0.65203       -17.47807        10.12856
|105>    H       -3.00237       -21.31906        12.17538
|106>    H       -3.98649       -22.33255         9.44720
|107>    H       -4.30742       -23.07847        11.09276
|108> *
|109>
|110>                          ****END OF INPUT****

CARTESIAN COORDINATES (ANGSTROEM)
---------------------------------
  C      4.571520   -2.633290    7.218870
  S      3.932820   -4.104840    6.596930
  C      5.269280   -4.298660    5.511040
  C      6.141450   -3.226400    5.643180
  C      5.739760   -2.289040    6.626400
  N      7.251460   -2.954680    4.795470
  O      8.040180   -2.114680    5.170630
  O      7.321040   -3.541540    3.731730
  C      5.358590   -5.476190    4.704780
  C      6.514060   -6.126020    4.439670
  C      6.599940   -7.289430    3.627640
  C      7.433890   -8.379520    3.802700
  N      8.427720   -8.546000    4.784850
  O      8.564590   -7.672440    5.625570
  O      9.099740   -9.560340    4.733870
  C      7.102030   -9.397940    2.839270
  C      6.050710   -8.968140    2.099510
  C      5.717200   -7.625990    2.501690
  C      4.909990   -6.741070    1.818310
  C      5.139490   -5.330680    1.682330
  C      4.366580   -4.860490    0.665220
  C      3.545370   -5.924530    0.167620
  N      2.579720   -5.736550   -0.833610
  O      1.900930   -6.693830   -1.182740
  O      2.473070   -4.619940   -1.308890
  C      3.828190   -7.093510    0.877540
  C      3.101150   -8.296920    0.830910
  C      3.064430   -9.204160    1.855190
  C      2.368180  -10.422410    1.945530
  N      1.608000  -11.109050    1.027000
  C      1.364650  -10.788530   -0.362190
  C      2.597730  -11.028780   -1.227920
  C      1.085920  -12.297580    1.569290
  O      0.387240  -13.072340    0.947790
  C      1.565930  -12.324260    2.936920
  C      2.349060  -11.174660    3.129090
  C      2.837890  -11.171750    4.490660
  O      3.546130  -10.399020    5.098750
  N      2.297230  -12.351550    5.046020
  C      2.528410  -12.700250    6.427400
  C      1.350450  -12.310420    7.317090
  C      1.531720  -13.042760    4.140510
  C      0.842470  -14.242300    4.430240
  C      0.117750  -14.908320    3.491210
  C     -0.614820  -16.090430    3.760050
  O     -0.700620  -16.588150    5.027230
  C     -1.460980  -17.694500    5.005340
  C     -1.872130  -17.927820    3.683930
  C     -1.331820  -16.896080    2.896260
  N     -2.679730  -18.985640    3.202120
  O     -3.082990  -19.807090    4.004260
  O     -2.915320  -19.002930    2.013290
  C     -1.754560  -18.408590    6.194640
  C     -1.325230  -18.020830    7.419460
  C     -1.632220  -18.699910    8.627230
  S     -2.601070  -20.153800    8.664700
  C     -2.492130  -20.269620   10.386730
  C     -1.731210  -19.214010   10.888210
  C     -1.252300  -18.339260    9.896330
  N     -1.426650  -18.972570   12.259630
  O     -1.843670  -19.741300   13.101820
  O     -0.755110  -17.989890   12.501580
  C     -3.131550  -21.336260   11.102440
  C     -3.844860  -22.298030   10.515930
  H      4.038210   -2.109450    7.986320
  H      6.306710   -1.402410    6.843930
  H      4.416450   -5.896500    4.378170
  H      7.432720   -5.822710    4.924450
  H      7.628880  -10.329470    2.758290
  H      5.610620   -9.476820    1.264480
  H      5.901120   -4.783830    2.203720
  H      4.348130   -3.863050    0.268580
  H      2.475490   -8.419720   -0.040120
  H      3.597780   -8.971480    2.768900
  H      1.010640   -9.759220   -0.451830
  H      0.560570  -11.458010   -0.681490
  H      3.440530  -10.430240   -0.890700
  H      2.374580  -10.762800   -2.256820
  H      2.880610  -12.078210   -1.192420
  H      3.417970  -12.143960    6.735510
  H      2.738660  -13.770470    6.502410
  H      1.186750  -11.236980    7.266040
  H      1.564720  -12.579130    8.347570
  H      0.438410  -12.814220    7.004450
  H      0.895300  -14.636140    5.434810
  H      0.067360  -14.542690    2.474590
  H     -1.454570  -16.768350    1.840720
  H     -2.367400  -19.290270    6.073350
  H     -0.715950  -17.132390    7.518980
  H     -0.652030  -17.478070   10.128560
  H     -3.002370  -21.319060   12.175380
  H     -3.986490  -22.332550    9.447200
  H     -4.307420  -23.078470   11.092760

 Total Charge           Charge          ....    0
 Multiplicity           Mult            ....    1
 Number of Electrons    NEL             ....  466
 Basis Dimension        Dim             .... 1049

ORBITAL ENERGIES
----------------

  NO   OCC          E(Eh)            E(eV)
   0   2.0000     -88.990691     -2421.5598
   1   2.0000     -88.984907     -2421.4024
   2   2.0000     -19.332167      -526.0550
   3   2.0000     -19.252740      -523.8937
   4   2.0000     -19.251932      -523.8717
   5   2.0000     -19.250381      -523.8295
   6   2.0000     -19.249854      -523.8151
   7   2.0000     -19.248084      -523.7670
   8   2.0000     -19.244773      -523.6769
   9   2.0000     -19.235423      -523.4225
  10   2.0000     -19.235224      -523.4170
  11   2.0000     -19.234452      -523.3960
  12   2.0000     -19.234085      -523.3861
  13   2.0000     -19.209970      -522.7299
  14   2.0000     -19.201259      -522.4928
  15   2.0000     -14.663821      -399.0228
  16   2.0000     -14.660153      -398.9231
  17   2.0000     -14.655718      -398.8024
  18   2.0000     -14.644007      -398.4837
  19   2.0000     -14.643631      -398.4735
  20   2.0000     -14.469987      -393.7484
  21   2.0000     -14.463754      -393.5788
  22   2.0000     -10.391490      -282.7668
  23   2.0000     -10.387802      -282.6665
  24   2.0000     -10.385031      -282.5911
  25   2.0000     -10.365507      -282.0598
  26   2.0000     -10.360226      -281.9161
  27   2.0000     -10.350953      -281.6637
  28   2.0000     -10.346557      -281.5441
  29   2.0000     -10.344549      -281.4895
  30   2.0000     -10.343703      -281.4665
  31   2.0000     -10.338938      -281.3368
  32   2.0000     -10.334938      -281.2280
  33   2.0000     -10.334860      -281.2258
  34   2.0000     -10.330724      -281.1133
  35   2.0000     -10.328257      -281.0462
  36   2.0000     -10.327541      -281.0267
  37   2.0000     -10.326267      -280.9920
  38   2.0000     -10.324075      -280.9324
  39   2.0000     -10.322772      -280.8969
  40   2.0000     -10.320355      -280.8311
  41   2.0000     -10.317599      -280.7561
  42   2.0000     -10.316966      -280.7389
  43   2.0000     -10.316184      -280.7176
  44   2.0000     -10.315229      -280.6916
  45   2.0000     -10.312294      -280.6118
  46   2.0000     -10.311027      -280.5773
  47   2.0000     -10.310302      -280.5576
  48   2.0000     -10.308820      -280.5173
  49   2.0000     -10.307880      -280.4917
  50   2.0000     -10.305416      -280.4246
  51   2.0000     -10.302484      -280.3449
  52   2.0000     -10.300111      -280.2803
  53   2.0000     -10.299943      -280.2757
  54   2.0000     -10.299518      -280.2641
  55   2.0000     -10.296564      -280.1838
  56   2.0000     -10.294768      -280.1349
  57   2.0000     -10.294698      -280.1330
  58   2.0000     -10.286378      -279.9066
  59   2.0000     -10.281443      -279.7723
  60   2.0000     -10.280525      -279.7473
  61   2.0000     -10.277103      -279.6542
  62   2.0000     -10.274951      -279.5956
  63   2.0000     -10.266888      -279.3762
  64   2.0000      -8.086233      -220.0376
  65   2.0000      -8.080923      -219.8931
  66   2.0000      -6.055388      -164.7755
  67   2.0000      -6.051370      -164.6661
  68   2.0000      -6.050148      -164.6329
  69   2.0000      -6.048401      -164.5854
  70   2.0000      -6.045734      -164.5128
  71   2.0000      -6.043347      -164.4478
  72   2.0000      -1.334584       -36.3159
  73   2.0000      -1.332367       -36.2556
  74   2.0000      -1.328165       -36.1412
  75   2.0000      -1.314187       -35.7608
  76   2.0000      -1.313290       -35.7364
  77   2.0000      -1.251310       -34.0499
  78   2.0000      -1.152828       -31.3701
  79   2.0000      -1.150138       -31.2968
  80   2.0000      -1.148927       -31.2639
  81   2.0000      -1.146173       -31.1890
  82   2.0000      -1.139695       -31.0127
  83   2.0000      -1.131680       -30.7946
  84   2.0000      -1.130384       -30.7593
  85   2.0000      -1.079278       -29.3686
  86   2.0000      -1.066562       -29.0226
  87   2.0000      -1.027030       -27.9469
  88   2.0000      -1.018576       -27.7169
  89   2.0000      -1.015381       -27.6299
  90   2.0000      -0.995734       -27.0953
  91   2.0000      -0.966226       -26.2923
  92   2.0000      -0.955094       -25.9894
  93   2.0000      -0.942354       -25.6428
  94   2.0000      -0.933705       -25.4074
  95   2.0000      -0.920302       -25.0427
  96   2.0000      -0.916830       -24.9482
  97   2.0000      -0.914042       -24.8723
  98   2.0000      -0.908366       -24.7179
  99   2.0000      -0.906754       -24.6740
 100   2.0000      -0.904640       -24.6165
 101   2.0000      -0.884701       -24.0739
 102   2.0000      -0.878951       -23.9175
 103   2.0000      -0.871765       -23.7219
 104   2.0000      -0.856167       -23.2975
 105   2.0000      -0.847761       -23.0688
 106   2.0000      -0.843377       -22.9494
 107   2.0000      -0.831696       -22.6316
 108   2.0000      -0.831455       -22.6250
 109   2.0000      -0.818632       -22.2761
 110   2.0000      -0.807422       -21.9711
 111   2.0000      -0.797736       -21.7075
 112   2.0000      -0.778925       -21.1956
 113   2.0000      -0.771564       -20.9953
 114   2.0000      -0.770611       -20.9694
 115   2.0000      -0.766555       -20.8590
 116   2.0000      -0.749977       -20.4079
 117   2.0000      -0.727556       -19.7978
 118   2.0000      -0.724632       -19.7183
 119   2.0000      -0.721706       -19.6386
 120   2.0000      -0.718303       -19.5460
 121   2.0000      -0.715888       -19.4803
 122   2.0000      -0.703869       -19.1532
 123   2.0000      -0.695402       -18.9229
 124   2.0000      -0.681326       -18.5398
 125   2.0000      -0.680497       -18.5173
 126   2.0000      -0.670749       -18.2520
 127   2.0000      -0.665210       -18.1013
 128   2.0000      -0.663330       -18.0501
 129   2.0000      -0.658408       -17.9162
 130   2.0000      -0.654550       -17.8112
 131   2.0000      -0.652150       -17.7459
 132   2.0000      -0.646876       -17.6024
 133   2.0000      -0.645681       -17.5699
 134   2.0000      -0.641262       -17.4496
 135   2.0000      -0.637550       -17.3486
 136   2.0000      -0.634921       -17.2771
 137   2.0000      -0.634309       -17.2604
 138   2.0000      -0.627481       -17.0746
 139   2.0000      -0.625205       -17.0127
 140   2.0000      -0.625015       -17.0075
 141   2.0000      -0.622193       -16.9307
 142   2.0000      -0.617238       -16.7959
 143   2.0000      -0.614541       -16.7225
 144   2.0000      -0.612309       -16.6618
 145   2.0000      -0.606329       -16.4990
 146   2.0000      -0.598662       -16.2904
 147   2.0000      -0.597284       -16.2529
 148   2.0000      -0.594227       -16.1697
 149   2.0000      -0.592173       -16.1139
 150   2.0000      -0.591895       -16.1063
 151   2.0000      -0.591298       -16.0900
 152   2.0000      -0.587503       -15.9868
 153   2.0000      -0.581655       -15.8276
 154   2.0000      -0.580362       -15.7924
 155   2.0000      -0.576490       -15.6871
 156   2.0000      -0.572080       -15.5671
 157   2.0000      -0.568035       -15.4570
 158   2.0000      -0.560655       -15.2562
 159   2.0000      -0.555604       -15.1188
 160   2.0000      -0.549121       -14.9423
 161   2.0000      -0.546912       -14.8822
 162   2.0000      -0.543537       -14.7904
 163   2.0000      -0.542215       -14.7544
 164   2.0000      -0.538044       -14.6409
 165   2.0000      -0.537052       -14.6139
 166   2.0000      -0.531508       -14.4631
 167   2.0000      -0.530295       -14.4301
 168   2.0000      -0.527344       -14.3498
 169   2.0000      -0.526014       -14.3136
 170   2.0000      -0.522261       -14.2114
 171   2.0000      -0.520747       -14.1703
 172   2.0000      -0.516639       -14.0584
 173   2.0000      -0.514363       -13.9965
 174   2.0000      -0.514260       -13.9937
 175   2.0000      -0.509287       -13.8584
 176   2.0000      -0.503886       -13.7114
 177   2.0000      -0.500994       -13.6327
 178   2.0000      -0.494926       -13.4676
 179   2.0000      -0.492592       -13.4041
 180   2.0000      -0.489377       -13.3166
 181   2.0000      -0.487512       -13.2659
 182   2.0000      -0.484215       -13.1762
 183   2.0000      -0.480744       -13.0817
 184   2.0000      -0.480161       -13.0658
 185   2.0000      -0.477778       -13.0010
 186   2.0000      -0.476705       -12.9718
 187   2.0000      -0.473105       -12.8738
 188   2.0000      -0.469453       -12.7745
 189   2.0000      -0.465068       -12.6552
 190   2.0000      -0.464036       -12.6271
 191   2.0000      -0.458980       -12.4895
 192   2.0000      -0.458472       -12.4757
 193   2.0000      -0.454858       -12.3773
 194   2.0000      -0.453605       -12.3432
 195   2.0000      -0.447253       -12.1704
 196   2.0000      -0.446434       -12.1481
 197   2.0000      -0.445508       -12.1229
 198   2.0000      -0.440311       -11.9815
 199   2.0000      -0.436733       -11.8841
 200   2.0000      -0.426859       -11.6154
 201   2.0000      -0.410696       -11.1756
 202   2.0000      -0.405321       -11.0294
 203   2.0000      -0.403964       -10.9924
 204   2.0000      -0.398651       -10.8479
 205   2.0000      -0.392385       -10.6773
 206   2.0000      -0.391659       -10.6576
 207   2.0000      -0.389913       -10.6101
 208   2.0000      -0.388147       -10.5620
 209   2.0000      -0.385848       -10.4995
 210   2.0000      -0.384321       -10.4579
 211   2.0000      -0.379987       -10.3400
 212   2.0000      -0.379928       -10.3384
 213   2.0000      -0.379361       -10.3229
 214   2.0000      -0.376091       -10.2340
 215   2.0000      -0.374953       -10.2030
 216   2.0000      -0.374459       -10.1896
 217   2.0000      -0.371935       -10.1209
 218   2.0000      -0.368987       -10.0407
 219   2.0000      -0.363509        -9.8916
 220   2.0000      -0.361505        -9.8370
 221   2.0000      -0.361017        -9.8238
 222   2.0000      -0.358229        -9.7479
 223   2.0000      -0.348670        -9.4878
 224   2.0000      -0.345980        -9.4146
 225   2.0000      -0.339221        -9.2307
 226   2.0000      -0.333477        -9.0744
 227   2.0000      -0.330695        -8.9987
 228   2.0000      -0.328097        -8.9280
 229   2.0000      -0.307581        -8.3697
 230   2.0000      -0.285857        -7.7786
 231   2.0000      -0.279537        -7.6066
 232   2.0000      -0.242230        -6.5914
 233   0.0000      -0.135647        -3.6911
 234   0.0000      -0.101922        -2.7734
 235   0.0000      -0.085576        -2.3286
 236   0.0000      -0.067588        -1.8392
 237   0.0000      -0.064053        -1.7430

MULLIKEN ATOMIC CHARGES
-----------------------
   0 C :   -0.061215
   1 S :    0.169830
   2 C :   -0.166146
   3 C :    0.137546
   4 C :    0.036371
   5 N :    0.262343
   6 O :   -0.229215
   7 O :   -0.242875
   8 C :    0.019449
   9 C :    0.037250
  10 C :    0.008259
  11 C :    0.091502
  12 N :    0.273518
  13 O :   -0.253463
  14 O :   -0.246039
  15 C :    0.026903
  16 C :    0.009598
  17 C :    0.018997
  18 C :    0.003540
  19 C :    0.014583
  20 C :    0.014758
  21 C :    0.083713
  22 N :    0.278491
  23 O :   -0.266545
  24 O :   -0.246003
  25 C :    0.035439
  26 C :   -0.038493
  27 C :   -0.048220
  28 C :    0.107498
  29 N :   -0.259784
  30 C :    0.095344
  31 C :    0.002335
  32 C :    0.164606
  33 O :   -0.215088
  34 C :   -0.069225
  35 C :   -0.027523
  36 C :    0.152370
  37 O :   -0.182355
  38 N :   -0.262373
  39 C :    0.097347
  40 C :    0.002742
  41 C :    0.156221
  42 C :   -0.037826
  43 C :    0.012856
  44 C :    0.182196
  45 O :   -0.202955
  46 C :    0.127028
  47 C :    0.142932
  48 C :   -0.054981
  49 N :    0.267202
  50 O :   -0.248229
  51 O :   -0.232876
  52 C :   -0.079645
  53 C :    0.058796
  54 C :   -0.036926
  55 S :    0.150032
  56 C :   -0.129887
  57 C :    0.168819
  58 C :   -0.013604
  59 N :    0.265362
  60 O :   -0.239411
  61 O :   -0.240574
  62 C :   -0.017190
  63 C :    0.002993
  64 H :    0.045080
  65 H :    0.014398
  66 H :    0.018462
  67 H :    0.026901
  68 H :    0.001044
  69 H :   -0.002686
  70 H :    0.007490
  71 H :    0.004676
  72 H :    0.015139
  73 H :    0.025767
  74 H :    0.045462
  75 H :    0.044534
  76 H :    0.017634
  77 H :    0.030948
  78 H :    0.023633
  79 H :    0.048213
  80 H :    0.025989
  81 H :    0.032554
  82 H :    0.027741
  83 H :    0.013823
  84 H :   -0.015666
  85 H :    0.028960
  86 H :    0.019317
  87 H :    0.036578
  88 H :    0.007774
  89 H :    0.008193
  90 H :    0.037693
  91 H :    0.035698
  92 H :    0.044549
Sum of atomic charges:   -0.0000000

LOEWDIN ATOMIC CHARGES
----------------------
   0 C :   -0.172183
   1 S :    0.482255
   2 C :   -0.147364
   3 C :   -0.075579
   4 C :   -0.040447
   5 N :    0.289320
   6 O :   -0.192803
   7 O :   -0.209333
   8 C :   -0.031529
   9 C :    0.017302
  10 C :    0.007478
  11 C :   -0.035213
  12 N :    0.285160
  13 O :   -0.213158
  14 O :   -0.210490
  15 C :    0.011198
  16 C :   -0.036267
  17 C :    0.037905
  18 C :    0.045193
  19 C :   -0.034493
  20 C :    0.013330
  21 C :   -0.051775
  22 N :    0.286056
  23 O :   -0.230508
  24 O :   -0.211255
  25 C :    0.005431
  26 C :   -0.013691
  27 C :   -0.007486
  28 C :    0.054988
  29 N :    0.000776
  30 C :    0.036971
  31 C :   -0.060879
  32 C :    0.080107
  33 O :   -0.202634
  34 C :   -0.127598
  35 C :   -0.091127
  36 C :    0.083017
  37 O :   -0.182388
  38 N :   -0.001821
  39 C :    0.037243
  40 C :   -0.060624
  41 C :    0.090637
  42 C :   -0.051754
  43 C :    0.027345
  44 C :    0.028914
  45 O :    0.022104
  46 C :    0.078010
  47 C :   -0.078274
  48 C :   -0.008410
  49 N :    0.286873
  50 O :   -0.213535
  51 O :   -0.197550
  52 C :   -0.058578
  53 C :    0.005104
  54 C :   -0.169102
  55 S :    0.480024
  56 C :   -0.125276
  57 C :   -0.076026
  58 C :   -0.024550
  59 N :    0.287659
  60 O :   -0.201350
  61 O :   -0.204668
  62 C :   -0.048199
  63 C :   -0.005396
  64 H :    0.031317
  65 H :    0.043982
  66 H :    0.033872
  67 H :    0.038914
  68 H :    0.037957
  69 H :    0.030385
  70 H :    0.033189
  71 H :    0.039274
  72 H :    0.034616
  73 H :    0.045253
  74 H :    0.028845
  75 H :    0.038165
  76 H :    0.020557
  77 H :    0.035339
  78 H :    0.030178
  79 H :    0.039918
  80 H :    0.024549
  81 H :    0.033412
  82 H :    0.032499
  83 H :    0.021305
  84 H :    0.030365
  85 H :    0.048570
  86 H :    0.051867
  87 H :    0.036157
  88 H :    0.040546
  89 H :    0.042967
  90 H :    0.042165
  91 H :    0.021083
  92 H :    0.035667

  Mayer bond orders larger than 0.100000
B(  0-C ,  1-S ) :   1.1525 B(  0-C ,  4-C ) :   1.5641 B(  0-C , 64-H ) :   0.9680
B(  1-S ,  2-C ) :   1.1861 B(  2-C ,  3-C ) :   1.4674 B(  2-C ,  8-C ) :   1.0971
B(  3-C ,  4-C ) :   1.2706 B(  3-C ,  5-N ) :   0.9265 B(  4-C , 65-H ) :   0.9924
B(  5-N ,  6-O ) :   1.5519 B(  5-N ,  7-O ) :   1.5037 B(  6-O ,  7-O ) :   0.2618
B(  8-C ,  9-C ) :   1.6809 B(  8-C , 66-H ) :   0.9444 B(  9-C , 10-C ) :   1.1911
B(  9-C , 67-H ) :   0.9369 B( 10-C , 11-C ) :   1.5279 B( 10-C , 17-C ) :   1.0308
B( 11-C , 12-N ) :   0.9441 B( 11-C , 15-C ) :   1.1310 B( 12-N , 13-O ) :   1.4973
B( 12-N , 14-O ) :   1.5328 B( 13-O , 14-O ) :   0.2636 B( 15-C , 16-C ) :   1.5814
B( 15-C , 68-H ) :   1.0109 B( 16-C , 17-C ) :   1.1383 B( 16-C , 69-H ) :   0.9984
B( 17-C , 18-C ) :   1.4738 B( 18-C , 19-C ) :   1.1541 B( 18-C , 25-C ) :   0.9993
B( 19-C , 20-C ) :   1.5560 B( 19-C , 70-H ) :   0.9931 B( 20-C , 21-C ) :   1.1399
B( 20-C , 71-H ) :   1.0126 B( 21-C , 22-N ) :   0.9627 B( 21-C , 25-C ) :   1.4639
B( 22-N , 23-O ) :   1.4792 B( 22-N , 24-O ) :   1.5342 B( 23-O , 24-O ) :   0.2537
B( 25-C , 26-C ) :   1.2194 B( 26-C , 27-C ) :   1.4509 B( 26-C , 72-H ) :   0.9532
B( 27-C , 28-C ) :   1.2436 B( 27-C , 73-H ) :   0.9349 B( 28-C , 29-N ) :   1.1617
B( 28-C , 35-C ) :   1.3144 B( 29-N , 30-C ) :   0.9322 B( 29-N , 32-C ) :   1.0724
B( 30-C , 31-C ) :   1.1187 B( 30-C , 74-H ) :   0.9508 B( 30-C , 75-H ) :   0.9235
B( 31-C , 76-H ) :   0.9684 B( 31-C , 77-H ) :   0.9670 B( 31-C , 78-H ) :   0.9622
B( 32-C , 33-O ) :   2.0129 B( 32-C , 34-C ) :   0.9891 B( 33-O , 85-H ) :   0.1190
B( 34-C , 35-C ) :   1.2786 B( 34-C , 41-C ) :   1.2922 B( 35-C , 36-C ) :   0.9701
B( 36-C , 37-O ) :   2.1282 B( 36-C , 38-N ) :   1.0314 B( 38-N , 39-C ) :   0.9406
B( 38-N , 41-C ) :   1.1785 B( 39-C , 40-C ) :   1.1196 B( 39-C , 79-H ) :   0.9294
B( 39-C , 80-H ) :   0.9507 B( 40-C , 81-H ) :   0.9637 B( 40-C , 82-H ) :   0.9682
B( 40-C , 83-H ) :   0.9690 B( 41-C , 42-C ) :   1.1664 B( 42-C , 43-C ) :   1.5565
B( 42-C , 84-H ) :   0.9735 B( 43-C , 44-C ) :   1.1640 B( 43-C , 85-H ) :   0.9342
B( 44-C , 45-O ) :   1.0912 B( 44-C , 48-C ) :   1.3883 B( 45-O , 46-C ) :   1.1948
B( 46-C , 47-C ) :   1.3417 B( 46-C , 52-C ) :   1.2016 B( 47-C , 48-C ) :   1.2314
B( 47-C , 49-N ) :   0.9369 B( 48-C , 86-H ) :   1.0293 B( 49-N , 50-O ) :   1.5101
B( 49-N , 51-O ) :   1.5551 B( 50-O , 51-O ) :   0.2656 B( 52-C , 53-C ) :   1.5831
B( 52-C , 87-H ) :   0.9493 B( 53-C , 54-C ) :   1.1483 B( 53-C , 88-H ) :   0.9851
B( 54-C , 55-S ) :   1.0933 B( 54-C , 58-C ) :   1.4517 B( 55-S , 56-C ) :   1.1619
B( 56-C , 57-C ) :   1.4614 B( 56-C , 62-C ) :   1.1372 B( 57-C , 58-C ) :   1.2438
B( 57-C , 59-N ) :   0.9260 B( 58-C , 89-H ) :   1.0065 B( 59-N , 60-O ) :   1.5216
B( 59-N , 61-O ) :   1.5536 B( 60-O , 61-O ) :   0.2648 B( 62-C , 63-C ) :   1.8792
B( 62-C , 90-H ) :   0.9583 B( 63-C , 91-H ) :   0.9539 B( 63-C , 92-H ) :   0.9510

-----------------------------------------------------------------------------
         ABSORPTION SPECTRUM VIA TRANSITION ELECTRIC DIPOLE MOMENTS
-----------------------------------------------------------------------------
State   Energy  Wavelength   fosc         T2         TX        TY        TZ
        (cm-1)    (nm)                  (au**2)     (au)      (au)      (au)
-----------------------------------------------------------------------------
   0    7312.0   1367.6   0.293992999  13.23658  -1.73998  -3.08854   0.81852
   1   13177.6    758.9   0.069287801   1.73100  -0.50095  -0.18390   1.20259
   2   15747.1    635.0   0.750111616  15.68197   1.02164   2.88735  -2.51027
   3   18607.6    537.4   0.010120423   0.17905  -0.17453   0.31220   0.22611
   4   20933.4    477.7   0.012201788   0.19189   0.17998   0.08541   0.39013
   5   21496.1    465.2   0.317896986   4.86858  -0.94555  -1.71523   1.01612
   6   23403.4    427.3   0.103719358   1.45900  -0.05066   0.71053   0.97549
   7   24092.1    415.1   0.061795510   0.84442  -0.64619   0.65093  -0.05615
   8   24244.0    412.5   0.006878751   0.09341  -0.17868   0.23997   0.06241
   9   24713.9    404.6   0.053438738   0.71185  -0.06332   0.61372   0.57550
  10   25648.2    389.9   0.041123531   0.52785   0.48029   0.39225   0.37857
  11   26122.7    382.8   0.319223419   4.02302   0.27703   0.72189  -1.85072
  12   26185.3    381.9   0.013074192   0.16437   0.03991   0.13565   0.37997
  13   27051.9    369.7   0.004229828   0.05148  -0.10012  -0.14995  -0.13772
  14   27497.7    363.7   0.036319333   0.43483  -0.05594   0.64182   0.14061
  15   27643.5    361.7   0.068442720   0.81510   0.44627   0.57995   0.52878
  16   28116.6    355.7   0.146913937   1.72019  -0.82310  -0.73294  -0.71098
  17   28485.7    351.1   0.075852356   0.87663   0.65219  -0.66993   0.04969
  18   29524.0    338.7   0.232296159   2.59026  -0.86938  -0.12793  -1.34836
  19   29774.2    335.9   0.390757083   4.32058  -0.37868   1.94555  -0.62611
  20   30042.7    332.9   0.005080674   0.05567   0.07744  -0.11777   0.18923
  21   30541.1    327.4   0.085087574   0.91718  -0.02933  -0.83485   0.46835
  22   30948.0    323.1   0.072944671   0.77596   0.52208   0.56041   0.43512
  23   31265.1    319.8   0.001672397   0.01761  -0.10821   0.06982  -0.03204
  24   31422.2    318.2   0.033167267   0.34749  -0.06108   0.14317  -0.56857
  25   31688.0    315.6   0.011982106   0.12448   0.26214  -0.17138   0.16246
  26   32263.1    310.0   0.242060195   2.46998  -1.03021  -0.08554  -1.18378
  27   32289.6    309.7   0.128409706   1.30921   0.72701  -0.84891   0.24500
  28   32747.9    305.4   0.031755655   0.31924  -0.09024   0.49679  -0.25356
  29   32978.2    303.2   0.124261702   1.24047   0.29134  -0.99598   0.40450
  30   33372.0    299.7   0.015652540   0.15441   0.23824   0.23811   0.20238
  31   33466.0    298.8   0.059978853   0.59002  -0.31969  -0.66887   0.20110
  32   34010.6    294.0   0.005651450   0.05470  -0.02048  -0.16352   0.16597
  33   34043.5    293.7   0.008178175   0.07909  -0.08025  -0.25698  -0.08128
  34   34644.6    288.6   0.012457270   0.11838  -0.11448   0.30206  -0.11845
  35   35048.8    285.3   0.003858872   0.03625  -0.14837   0.11359  -0.03648
  36   35207.0    284.0   0.003596936   0.03363  -0.17896  -0.03031   0.02622
  37   35690.4    280.2   0.187100521   1.72583   0.90839  -0.90007   0.30091
  38   35769.2    279.6   0.033762049   0.31074  -0.54812   0.06337  -0.07930
  39   35888.7    278.6   0.012429333   0.11402  -0.26768   0.08654  -0.18674
  40   36675.9    272.7   0.110083174   0.98813  -0.74108  -0.49927   0.43549
  41   36920.1    270.9   0.045275586   0.40372   0.13138  -0.43032   0.44864
  42   37431.1    267.2   0.097377117   0.85645  -0.58256   0.34923  -0.62857
  43   37503.9    266.6   0.002563103   0.02250  -0.12236   0.02725  -0.08237
  44   37731.5    265.0   0.011919866   0.10400   0.10643  -0.10692   0.28503
  45   37804.1    264.5   0.005755724   0.05012  -0.15239  -0.04212  -0.15851
  46   38187.2    261.9   0.014507804   0.12507  -0.28581  -0.17042  -0.11977
  47   38318.2    261.0   0.031954577   0.27454  -0.38744   0.15643  -0.31615
  48   38483.6    259.9   0.014932893   0.12774  -0.02904   0.23829  -0.26481
  49   38637.1    258.8   0.018381080   0.15662   0.17275  -0.30590   0.18220
  50   38785.5    257.8   0.002431151   0.02064   0.10335   0.09240  -0.03763
  51   39120.6    255.6   0.098320175   0.82739   0.42269   0.77568   0.21690
  52   39355.6    254.1   0.083628510   0.69956   0.80589   0.13626   0.17759
  53   39521.7    253.0   0.009708556   0.08087   0.04549   0.25684  -0.11329
  54   39736.2    251.7   0.007057901   0.05847   0.22825  -0.03864   0.06988
  55   40123.7    249.2   0.020635517   0.16931   0.18316   0.27684   0.24316

FINAL SINGLE POINT ENERGY     -3771.027206716347

DIPOLE MOMENT
-------------
                                X             Y             Z
Electronic contribution:      4.99974       7.12314       6.88109
Nuclear contribution   :     -6.93246      -8.41071      -5.48097
                        -----------------------------------------
Total Dipole Moment    :     -1.93272      -1.28757       1.40012
                        -----------------------------------------
Magnitude (a.u.)       :      2.71175
Magnitude (Debye)      :      6.89272

Rotational constants in cm-1:     0.001662     0.000368     0.000322
Rotational constants in MHz :    49.831161    11.019550     9.662800

                             ****ORCA TERMINATED NORMALLY****
TOTAL RUN TIME: 0 days 0 hours 9 minutes 37 seconds 84 msec
