                         Program Version 4.2.0 -  RELEASE  -
|  1> # ORCA input file
|  2> # SCF done       -119.334818612333          0.000744310682
|  3> ! CAM-B3LYP def2-SVP def2/J RIJCOSX Grid4 TightSCF
|  4> %maxcore 5000
|  5> %tddft
|  6>     Mode sTDDFT
|  7>     Ethresh 5.0
|  8>     maxcore 5000
|  9> end
| 10>
| 11> %pal
| 12>   nprocs 6
| 13>   end
| 14> * xyz 0 1
| 15>    C       -0.22597        -1.14968        -4.70160
| 16>    S        0.47549        -2.73194        -4.56997
| 17>    C       -0.04471        -2.65547        -2.88730
| 18>    N       -0.64616        -1.54247        -2.60057
| 19>    N       -0.74346        -0.71028        -3.61288
| 20>    C        0.18131        -3.70132        -1.94708
| 21>    S        1.00511        -5.16802        -2.36815
| 22>    C        0.85303        -5.78322        -0.75276
| 23>    C        0.17877        -4.86214         0.05787
| 24>    C       -0.19590        -3.69233        -0.62447
| 25>    C       -0.11092        -5.04584         1.41991
| 26>    N       -0.35909        -5.16003         2.53483
| 27>    C        1.40612        -7.05337        -0.45800
| 28>    C        1.38869        -7.65402         0.76126
| 29>    C        1.98775        -8.91644         0.99140
| 30>    N        2.00757        -9.53432         2.22019
| 31>    C        1.47609        -9.01323         3.45760
| 32>    C        2.40325        -7.97590         4.08504
| 33>    C        2.67697       -10.76790         2.17896
| 34>    O        2.81980       -11.48976         3.14587
| 35>    C        3.08469       -10.90894         0.79801
| 36>    C        2.64541        -9.75800         0.09511
| 37>    C        3.04865        -9.89957        -1.28424
| 38>    O        2.90819        -9.18008        -2.25561
| 39>    N        3.71448       -11.13542        -1.32720
| 40>    C        4.22981       -11.65943        -2.56811
| 41>    C        3.29986       -12.70967        -3.17138
| 42>    C        3.74356       -11.75001        -0.09436
| 43>    C        4.37048       -13.00008         0.14555
| 44>    C        4.40876       -13.57340         1.37381
| 45>    C        5.03511       -14.81859         1.66595
| 46>    S        5.10381       -15.38219         3.30941
| 47>    C        5.94468       -16.80627         2.84691
| 48>    C        6.25237       -17.66124         4.02333
| 49>    O        5.89285       -17.26803         5.10799
| 50>    O        6.89848       -18.79767         3.86598
| 51>    C        6.16186       -16.85293         1.46901
| 52>    C        5.64131       -15.71736         0.81641
| 53>    C        6.82038       -17.89797         0.73908
| 54>    S        7.01692       -17.85741        -1.00512
| 55>    C        7.81675       -19.38764        -0.81892
| 56>    N        7.88710       -19.79754         0.39201
| 57>    N        7.33428       -18.97182         1.25930
| 58>    H       -0.21613        -0.60133        -5.62120
| 59>    H       -0.71925        -2.86791        -0.17567
| 60>    H        1.88512        -7.55982        -1.28671
| 61>    H        0.91341        -7.16580         1.59765
| 62>    H        1.37976        -9.87154         4.12837
| 63>    H        0.48462        -8.58804         3.28128
| 64>    H        3.37604        -8.41849         4.28541
| 65>    H        1.97845        -7.62743         5.02177
| 66>    H        2.53666        -7.12103         3.42600
| 67>    H        5.23095       -12.06920        -2.40656
| 68>    H        4.30539       -10.80540        -3.24721
| 69>    H        3.16952       -13.55193        -2.49525
| 70>    H        3.71146       -13.07171        -4.10951
| 71>    H        2.32461       -12.27079        -3.36642
| 72>    H        4.83994       -13.49014        -0.69463
| 73>    H        3.94437       -13.06688         2.20944
| 74>    H        7.13956       -19.01043         2.92387
| 75>    H        5.71221       -15.58186        -0.24846
| 76>    H        8.21134       -19.92794        -1.65439
| 77> *
| 78>
| 79>                          ****END OF INPUT****

CARTESIAN COORDINATES (ANGSTROEM)
---------------------------------
  C     -0.225970   -1.149680   -4.701600
  S      0.475490   -2.731940   -4.569970
  C     -0.044710   -2.655470   -2.887300
  N     -0.646160   -1.542470   -2.600570
  N     -0.743460   -0.710280   -3.612880
  C      0.181310   -3.701320   -1.947080
  S      1.005110   -5.168020   -2.368150
  C      0.853030   -5.783220   -0.752760
  C      0.178770   -4.862140    0.057870
  C     -0.195900   -3.692330   -0.624470
  C     -0.110920   -5.045840    1.419910
  N     -0.359090   -5.160030    2.534830
  C      1.406120   -7.053370   -0.458000
  C      1.388690   -7.654020    0.761260
  C      1.987750   -8.916440    0.991400
  N      2.007570   -9.534320    2.220190
  C      1.476090   -9.013230    3.457600
  C      2.403250   -7.975900    4.085040
  C      2.676970  -10.767900    2.178960
  O      2.819800  -11.489760    3.145870
  C      3.084690  -10.908940    0.798010
  C      2.645410   -9.758000    0.095110
  C      3.048650   -9.899570   -1.284240
  O      2.908190   -9.180080   -2.255610
  N      3.714480  -11.135420   -1.327200
  C      4.229810  -11.659430   -2.568110
  C      3.299860  -12.709670   -3.171380
  C      3.743560  -11.750010   -0.094360
  C      4.370480  -13.000080    0.145550
  C      4.408760  -13.573400    1.373810
  C      5.035110  -14.818590    1.665950
  S      5.103810  -15.382190    3.309410
  C      5.944680  -16.806270    2.846910
  C      6.252370  -17.661240    4.023330
  O      5.892850  -17.268030    5.107990
  O      6.898480  -18.797670    3.865980
  C      6.161860  -16.852930    1.469010
  C      5.641310  -15.717360    0.816410
  C      6.820380  -17.897970    0.739080
  S      7.016920  -17.857410   -1.005120
  C      7.816750  -19.387640   -0.818920
  N      7.887100  -19.797540    0.392010
  N      7.334280  -18.971820    1.259300
  H     -0.216130   -0.601330   -5.621200
  H     -0.719250   -2.867910   -0.175670
  H      1.885120   -7.559820   -1.286710
  H      0.913410   -7.165800    1.597650
  H      1.379760   -9.871540    4.128370
  H      0.484620   -8.588040    3.281280
  H      3.376040   -8.418490    4.285410
  H      1.978450   -7.627430    5.021770
  H      2.536660   -7.121030    3.426000
  H      5.230950  -12.069200   -2.406560
  H      4.305390  -10.805400   -3.247210
  H      3.169520  -13.551930   -2.495250
  H      3.711460  -13.071710   -4.109510
  H      2.324610  -12.270790   -3.366420
  H      4.839940  -13.490140   -0.694630
  H      3.944370  -13.066880    2.209440
  H      7.139560  -19.010430    2.923870
  H      5.712210  -15.581860   -0.248460
  H      8.211340  -19.927940   -1.654390

 Total Charge           Charge          ....    0
 Multiplicity           Mult            ....    1
 Number of Electrons    NEL             ....  332
 Basis Dimension        Dim             ....  713

ORBITAL ENERGIES
----------------

  NO   OCC          E(Eh)            E(eV)
   0   2.0000     -89.002981     -2421.8942
   1   2.0000     -88.989019     -2421.5143
   2   2.0000     -88.984033     -2421.3786
   3   2.0000     -88.977589     -2421.2033
   4   2.0000     -19.227634      -523.2105
   5   2.0000     -19.199052      -522.4328
   6   2.0000     -19.194899      -522.3198
   7   2.0000     -19.181665      -521.9596
   8   2.0000     -14.472270      -393.8105
   9   2.0000     -14.464692      -393.6043
  10   2.0000     -14.460567      -393.4920
  11   2.0000     -14.456719      -393.3873
  12   2.0000     -14.444387      -393.0518
  13   2.0000     -14.443525      -393.0283
  14   2.0000     -14.418838      -392.3565
  15   2.0000     -10.396275      -282.8970
  16   2.0000     -10.381001      -282.4814
  17   2.0000     -10.379169      -282.4315
  18   2.0000     -10.377514      -282.3865
  19   2.0000     -10.360428      -281.9216
  20   2.0000     -10.358613      -281.8722
  21   2.0000     -10.345547      -281.5166
  22   2.0000     -10.343539      -281.4620
  23   2.0000     -10.342273      -281.4276
  24   2.0000     -10.340978      -281.3923
  25   2.0000     -10.332248      -281.1548
  26   2.0000     -10.327244      -281.0186
  27   2.0000     -10.326268      -280.9920
  28   2.0000     -10.322321      -280.8846
  29   2.0000     -10.322125      -280.8793
  30   2.0000     -10.319867      -280.8179
  31   2.0000     -10.317421      -280.7513
  32   2.0000     -10.307800      -280.4895
  33   2.0000     -10.306282      -280.4482
  34   2.0000     -10.305101      -280.4161
  35   2.0000     -10.304114      -280.3892
  36   2.0000     -10.303399      -280.3697
  37   2.0000     -10.301228      -280.3107
  38   2.0000     -10.300581      -280.2931
  39   2.0000     -10.273550      -279.5575
  40   2.0000     -10.267391      -279.3899
  41   2.0000     -10.266347      -279.3615
  42   2.0000     -10.259593      -279.1777
  43   2.0000      -8.099494      -220.3984
  44   2.0000      -8.084657      -219.9947
  45   2.0000      -8.080857      -219.8913
  46   2.0000      -8.072450      -219.6625
  47   2.0000      -6.068338      -165.1279
  48   2.0000      -6.064553      -165.0249
  49   2.0000      -6.061856      -164.9515
  50   2.0000      -6.053793      -164.7321
  51   2.0000      -6.049693      -164.6205
  52   2.0000      -6.049636      -164.6190
  53   2.0000      -6.046927      -164.5453
  54   2.0000      -6.045970      -164.5192
  55   2.0000      -6.043201      -164.4439
  56   2.0000      -6.041556      -164.3991
  57   2.0000      -6.037030      -164.2759
  58   2.0000      -6.035216      -164.2266
  59   2.0000      -1.172769       -31.9127
  60   2.0000      -1.162499       -31.6332
  61   2.0000      -1.149369       -31.2759
  62   2.0000      -1.139702       -31.0129
  63   2.0000      -1.132202       -30.8088
  64   2.0000      -1.078655       -29.3517
  65   2.0000      -1.069601       -29.1053
  66   2.0000      -1.060734       -28.8640
  67   2.0000      -1.024463       -27.8770
  68   2.0000      -1.011796       -27.5324
  69   2.0000      -0.998549       -27.1719
  70   2.0000      -0.956888       -26.0383
  71   2.0000      -0.943453       -25.6727
  72   2.0000      -0.937979       -25.5237
  73   2.0000      -0.933823       -25.4106
  74   2.0000      -0.918747       -25.0004
  75   2.0000      -0.917608       -24.9694
  76   2.0000      -0.911748       -24.8099
  77   2.0000      -0.878220       -23.8976
  78   2.0000      -0.877109       -23.8674
  79   2.0000      -0.860534       -23.4163
  80   2.0000      -0.855840       -23.2886
  81   2.0000      -0.851271       -23.1643
  82   2.0000      -0.824344       -22.4315
  83   2.0000      -0.801072       -21.7983
  84   2.0000      -0.786893       -21.4125
  85   2.0000      -0.764754       -20.8100
  86   2.0000      -0.754359       -20.5272
  87   2.0000      -0.742069       -20.1927
  88   2.0000      -0.736385       -20.0380
  89   2.0000      -0.725750       -19.7487
  90   2.0000      -0.719564       -19.5803
  91   2.0000      -0.713011       -19.4020
  92   2.0000      -0.703482       -19.1427
  93   2.0000      -0.695514       -18.9259
  94   2.0000      -0.688907       -18.7461
  95   2.0000      -0.676669       -18.4131
  96   2.0000      -0.675151       -18.3718
  97   2.0000      -0.655358       -17.8332
  98   2.0000      -0.645702       -17.5704
  99   2.0000      -0.645161       -17.5557
 100   2.0000      -0.629510       -17.1298
 101   2.0000      -0.613964       -16.7068
 102   2.0000      -0.606237       -16.4965
 103   2.0000      -0.597719       -16.2648
 104   2.0000      -0.593037       -16.1374
 105   2.0000      -0.579327       -15.7643
 106   2.0000      -0.578534       -15.7427
 107   2.0000      -0.570493       -15.5239
 108   2.0000      -0.569718       -15.5028
 109   2.0000      -0.562226       -15.2989
 110   2.0000      -0.553489       -15.0612
 111   2.0000      -0.549907       -14.9637
 112   2.0000      -0.542288       -14.7564
 113   2.0000      -0.540107       -14.6971
 114   2.0000      -0.538053       -14.6412
 115   2.0000      -0.535997       -14.5852
 116   2.0000      -0.532284       -14.4842
 117   2.0000      -0.529557       -14.4100
 118   2.0000      -0.529159       -14.3991
 119   2.0000      -0.520707       -14.1692
 120   2.0000      -0.518236       -14.1019
 121   2.0000      -0.516716       -14.0606
 122   2.0000      -0.514835       -14.0094
 123   2.0000      -0.513053       -13.9609
 124   2.0000      -0.508677       -13.8418
 125   2.0000      -0.503129       -13.6908
 126   2.0000      -0.493673       -13.4335
 127   2.0000      -0.490235       -13.3400
 128   2.0000      -0.484587       -13.1863
 129   2.0000      -0.483604       -13.1595
 130   2.0000      -0.474975       -12.9247
 131   2.0000      -0.470966       -12.8156
 132   2.0000      -0.469266       -12.7694
 133   2.0000      -0.463561       -12.6141
 134   2.0000      -0.458310       -12.4712
 135   2.0000      -0.453809       -12.3488
 136   2.0000      -0.449957       -12.2440
 137   2.0000      -0.449530       -12.2323
 138   2.0000      -0.449292       -12.2258
 139   2.0000      -0.445717       -12.1286
 140   2.0000      -0.445097       -12.1117
 141   2.0000      -0.442609       -12.0440
 142   2.0000      -0.434709       -11.8290
 143   2.0000      -0.433679       -11.8010
 144   2.0000      -0.425181       -11.5698
 145   2.0000      -0.413904       -11.2629
 146   2.0000      -0.413776       -11.2594
 147   2.0000      -0.405631       -11.0378
 148   2.0000      -0.405531       -11.0350
 149   2.0000      -0.399713       -10.8767
 150   2.0000      -0.395578       -10.7642
 151   2.0000      -0.383303       -10.4302
 152   2.0000      -0.379680       -10.3316
 153   2.0000      -0.364533        -9.9194
 154   2.0000      -0.363284        -9.8855
 155   2.0000      -0.359055        -9.7704
 156   2.0000      -0.354337        -9.6420
 157   2.0000      -0.345766        -9.4088
 158   2.0000      -0.338433        -9.2092
 159   2.0000      -0.337698        -9.1892
 160   2.0000      -0.333747        -9.0817
 161   2.0000      -0.331438        -9.0189
 162   2.0000      -0.320759        -8.7283
 163   2.0000      -0.308639        -8.3985
 164   2.0000      -0.298858        -8.1323
 165   2.0000      -0.241072        -6.5599
 166   0.0000      -0.100782        -2.7424
 167   0.0000      -0.063924        -1.7395
 168   0.0000      -0.052437        -1.4269
 169   0.0000      -0.025613        -0.6970
 170   0.0000       0.000615         0.0167

MULLIKEN ATOMIC CHARGES
-----------------------
   0 C :    0.010632
   1 S :    0.091414
   2 C :   -0.122534
   3 N :   -0.051255
   4 N :   -0.047034
   5 C :   -0.008552
   6 S :    0.188154
   7 C :   -0.059517
   8 C :   -0.078664
   9 C :    0.007550
  10 C :   -0.157832
  11 N :    0.118162
  12 C :    0.056378
  13 C :   -0.034353
  14 C :    0.136276
  15 N :   -0.257412
  16 C :    0.093428
  17 C :    0.010845
  18 C :    0.168786
  19 O :   -0.207692
  20 C :   -0.067563
  21 C :   -0.065040
  22 C :    0.168238
  23 O :   -0.216943
  24 N :   -0.261496
  25 C :    0.100118
  26 C :    0.006293
  27 C :    0.135481
  28 C :   -0.021992
  29 C :    0.077939
  30 C :   -0.078127
  31 S :    0.257451
  32 C :   -0.279925
  33 C :    0.214720
  34 O :   -0.207324
  35 O :   -0.160004
  36 C :    0.195173
  37 C :   -0.067569
  38 C :   -0.103185
  39 S :    0.101901
  40 C :    0.017494
  41 N :   -0.022275
  42 N :   -0.134816
  43 H :    0.048270
  44 H :    0.019687
  45 H :    0.003066
  46 H :   -0.012160
  47 H :    0.043973
  48 H :    0.035757
  49 H :    0.024813
  50 H :    0.029972
  51 H :    0.016889
  52 H :    0.020409
  53 H :    0.044488
  54 H :    0.013592
  55 H :    0.022301
  56 H :    0.031080
  57 H :   -0.034410
  58 H :    0.010945
  59 H :    0.188682
  60 H :   -0.009069
  61 H :    0.056385
Sum of atomic charges:   -0.0000000

LOEWDIN ATOMIC CHARGES
----------------------
   0 C :   -0.140357
   1 S :    0.383524
   2 C :   -0.160938
   3 N :   -0.080670
   4 N :   -0.063686
   5 C :   -0.202523
   6 S :    0.484414
   7 C :   -0.135228
   8 C :   -0.103835
   9 C :    0.008837
  10 C :   -0.024067
  11 N :   -0.056922
  12 C :   -0.006235
  13 C :   -0.027074
  14 C :    0.073977
  15 N :    0.003983
  16 C :    0.036938
  17 C :   -0.058460
  18 C :    0.080406
  19 O :   -0.197601
  20 C :   -0.119992
  21 C :   -0.118795
  22 C :    0.080733
  23 O :   -0.205215
  24 N :   -0.000882
  25 C :    0.035905
  26 C :   -0.061015
  27 C :    0.075458
  28 C :   -0.044240
  29 C :    0.012545
  30 C :   -0.168244
  31 S :    0.556808
  32 C :   -0.202164
  33 C :    0.046428
  34 O :   -0.189006
  35 O :   -0.026794
  36 C :   -0.090885
  37 C :   -0.053255
  38 C :   -0.111369
  39 S :    0.415503
  40 C :   -0.132102
  41 N :   -0.056093
  42 N :   -0.057663
  43 H :    0.026941
  44 H :    0.050066
  45 H :    0.036215
  46 H :    0.036477
  47 H :    0.038365
  48 H :    0.027932
  49 H :    0.030107
  50 H :    0.034383
  51 H :    0.022955
  52 H :    0.021690
  53 H :    0.038142
  54 H :    0.021133
  55 H :    0.030088
  56 H :    0.033239
  57 H :    0.025967
  58 H :    0.038003
  59 H :    0.037410
  60 H :    0.019817
  61 H :    0.030921

  Mayer bond orders larger than 0.100000
B(  0-C ,  1-S ) :   1.1250 B(  0-C ,  4-N ) :   1.7372 B(  0-C , 43-H ) :   0.9706
B(  1-S ,  2-C ) :   1.1200 B(  1-S ,  4-N ) :   0.1026 B(  2-C ,  3-N ) :   1.7686
B(  2-C ,  5-C ) :   1.0663 B(  3-N ,  4-N ) :   1.1982 B(  5-C ,  6-S ) :   1.1255
B(  5-C ,  9-C ) :   1.5064 B(  6-S ,  7-C ) :   1.1576 B(  7-C ,  8-C ) :   1.4267
B(  7-C , 12-C ) :   1.1573 B(  8-C ,  9-C ) :   1.2692 B(  8-C , 10-C ) :   1.1219
B(  9-C , 44-H ) :   1.0174 B( 10-C , 11-N ) :   2.9657 B( 12-C , 13-C ) :   1.6155
B( 12-C , 45-H ) :   0.9198 B( 13-C , 14-C ) :   1.1702 B( 13-C , 46-H ) :   0.9487
B( 14-C , 15-N ) :   1.1657 B( 14-C , 21-C ) :   1.3290 B( 15-N , 16-C ) :   0.9394
B( 15-N , 18-C ) :   1.0626 B( 16-C , 17-C ) :   1.1229 B( 16-C , 47-H ) :   0.9273
B( 16-C , 48-H ) :   0.9481 B( 17-C , 49-H ) :   0.9634 B( 17-C , 50-H ) :   0.9675
B( 17-C , 51-H ) :   0.9678 B( 18-C , 19-O ) :   2.0273 B( 18-C , 20-C ) :   0.9826
B( 19-O , 58-H ) :   0.1150 B( 20-C , 21-C ) :   1.2549 B( 20-C , 27-C ) :   1.3459
B( 21-C , 22-C ) :   0.9892 B( 22-C , 23-O ) :   2.0130 B( 22-C , 24-N ) :   1.0624
B( 23-O , 45-H ) :   0.1182 B( 24-N , 25-C ) :   0.9495 B( 24-N , 27-C ) :   1.1531
B( 25-C , 26-C ) :   1.1193 B( 25-C , 52-H ) :   0.9495 B( 25-C , 53-H ) :   0.9272
B( 26-C , 54-H ) :   0.9685 B( 26-C , 55-H ) :   0.9681 B( 26-C , 56-H ) :   0.9635
B( 27-C , 28-C ) :   1.1601 B( 28-C , 29-C ) :   1.6356 B( 28-C , 57-H ) :   0.9596
B( 29-C , 30-C ) :   1.1053 B( 29-C , 58-H ) :   0.9407 B( 30-C , 31-S ) :   1.1457
B( 30-C , 37-C ) :   1.5031 B( 31-S , 32-C ) :   1.2103 B( 32-C , 33-C ) :   0.9058
B( 32-C , 36-C ) :   1.4288 B( 33-C , 34-O ) :   2.1287 B( 33-C , 35-O ) :   1.3564
B( 35-O , 59-H ) :   0.8651 B( 36-C , 37-C ) :   1.2585 B( 36-C , 38-C ) :   1.0769
B( 37-C , 60-H ) :   0.9826 B( 38-C , 39-S ) :   1.1515 B( 38-C , 42-N ) :   1.6353
B( 39-S , 40-C ) :   1.1194 B( 40-C , 41-N ) :   1.7581 B( 40-C , 61-H ) :   0.9695
B( 41-N , 42-N ) :   1.1961 B( 42-N , 59-H ) :   0.1753

-----------------------------------------------------------------------------
         ABSORPTION SPECTRUM VIA TRANSITION ELECTRIC DIPOLE MOMENTS
-----------------------------------------------------------------------------
State   Energy  Wavelength   fosc         T2         TX        TY        TZ
        (cm-1)    (nm)                  (au**2)     (au)      (au)      (au)
-----------------------------------------------------------------------------
   0   14935.1    669.6   0.887846081  19.57069   1.98443  -3.94430   0.27428
   1   23486.0    425.8   0.005686577   0.07971  -0.19156   0.20657   0.01857
   2   26364.3    379.3   0.050070995   0.62524   0.35195  -0.62902  -0.32511
   3   26783.1    373.4   0.106618093   1.31052   0.46529  -1.02671   0.19971
   4   27574.3    362.7   0.559870922   6.68435   0.53440  -1.96355   1.59475
   5   28712.7    348.3   0.000774802   0.00888   0.00628   0.08299   0.04423
   6   29595.3    337.9   0.227141005   2.52667   0.62830  -1.28800   0.68772
   7   31998.6    312.5   0.000123612   0.00127  -0.01823   0.00022  -0.03065
   8   32251.2    310.1   0.178413172   1.82120  -0.18141   0.95330  -0.93782
   9   32257.0    310.0   0.196550384   2.00598   0.29340  -0.95897   1.00013
  10   32326.9    309.3   0.000102125   0.00104   0.01233   0.01586  -0.02523
  11   35627.8    280.7   0.037679240   0.34817  -0.03363  -0.17934   0.56114
  12   36227.0    276.0   0.311249512   2.82847   0.42296  -1.30639   0.97104
  13   37261.6    268.4   0.104102111   0.91976   0.46079  -0.52449  -0.65753
  14   38176.8    261.9   0.001012394   0.00873   0.06358   0.04455  -0.05199
  15   38350.9    260.8   0.232424589   1.99518   0.27303  -0.15540  -1.37713
  16   38822.9    257.6   0.119301119   1.01165  -0.01930  -0.48856   0.87897
  17   40020.9    249.9   0.016298326   0.13407   0.00716  -0.06227   0.36075

FINAL SINGLE POINT ENERGY     -3352.661154216853

DIPOLE MOMENT
-------------
                                X             Y             Z
Electronic contribution:      1.63219       1.01274      -3.98689
Nuclear contribution   :     -0.79243      -1.01972      -0.63897
                        -----------------------------------------
Total Dipole Moment    :      0.83976      -0.00699      -4.62586
                        -----------------------------------------
Magnitude (a.u.)       :      4.70147
Magnitude (Debye)      :     11.95018

Rotational constants in cm-1:     0.005530     0.000629     0.000567
Rotational constants in MHz :   165.772527    18.849637    17.007646

                             ****ORCA TERMINATED NORMALLY****
TOTAL RUN TIME: 0 days 0 hours 3 minutes 29 seconds 554 msec
