                         Program Version 4.2.0 -  RELEASE  -
|  1> # ORCA input file
|  2> # SCF done       -124.195604073062          0.000773403238
|  3> ! CAM-B3LYP def2-SVP def2/J RIJCOSX Grid4 TightSCF
|  4> %maxcore 5000
|  5> %tddft
|  6>     Mode sTDDFT
|  7>     Ethresh 5.0
|  8>     maxcore 5000
|  9> end
| 10>
| 11> %pal
| 12>   nprocs 6
| 13>   end
| 14> * xyz 0 1
| 15>    C        1.60244        -0.66170        -4.38511
| 16>    S        2.24577        -2.25619        -4.14909
| 17>    C        1.19151        -2.30639        -2.73694
| 18>    N        0.50800        -1.21449        -2.58443
| 19>    N        0.74079        -0.30495        -3.50370
| 20>    C        1.10483        -3.42614        -1.86033
| 21>    S        2.03285        -4.87005        -2.10297
| 22>    C        1.35611        -5.60922        -0.68607
| 23>    C        0.44268        -4.74284        -0.07307
| 24>    C        0.30779        -3.51510        -0.74238
| 25>    C       -0.29243        -5.03595         1.08777
| 26>    N       -0.91053        -5.24486         2.03232
| 27>    C        1.78113        -6.91387        -0.33561
| 28>    C        1.38193        -7.60115         0.76755
| 29>    C        1.85696        -8.90266         1.05863
| 30>    N        1.47765        -9.61860         2.16902
| 31>    C        0.52110        -9.21554         3.17338
| 32>    C       -0.91738        -9.38342         2.69227
| 33>    C        2.10492       -10.87433         2.22512
| 34>    O        1.92752       -11.67919         3.11650
| 35>    C        2.94118       -10.90985         1.04378
| 36>    C        2.76660        -9.68860         0.34876
| 37>    C        3.60813        -9.72235        -0.82600
| 38>    O        3.79117        -8.91957        -1.72169
| 39>    N        4.24173       -10.97337        -0.76503
| 40>    C        5.20732       -11.37073        -1.76084
| 41>    C        6.64113       -11.16687        -1.27742
| 42>    C        3.86035       -11.69127         0.34726
| 43>    C        4.35189       -12.98043         0.66266
| 44>    C        3.94393       -13.67674         1.75682
| 45>    C        4.45355       -14.95807         2.07929
| 46>    O        5.41808       -15.54250         1.33240
| 47>    C        5.72163       -16.74370         1.86966
| 48>    C        4.93135       -16.95871         2.99926
| 49>    C        4.11202       -15.80394         3.13547
| 50>    C        3.15180       -15.58086         4.13268
| 51>    N        2.37193       -15.42887         4.95835
| 52>    C        4.92461       -18.07543         3.84563
| 53>    N        4.90646       -18.98432         4.54471
| 54>    C        6.72934       -17.52776         1.24501
| 55>    C        7.14649       -18.73803         1.67392
| 56>    C        8.17204       -19.46000         0.99535
| 57>    S        8.72559       -21.04059         1.55037
| 58>    C        9.80952       -20.97434         0.20073
| 59>    N        9.70931       -19.90432        -0.50513
| 60>    N        8.80272       -19.06190        -0.06773
| 61>    H        1.90918        -0.04297        -5.20341
| 62>    H       -0.34302        -2.71936        -0.42850
| 63>    H        2.48574        -7.37575        -1.01629
| 64>    H        0.68640        -7.15501         1.46109
| 65>    H        0.71139        -8.17983         3.46688
| 66>    H        0.69801        -9.86647         4.03411
| 67>    H       -1.11466        -8.76175         1.82193
| 68>    H       -1.60124        -9.09495         3.48498
| 69>    H       -1.10418       -10.42217         2.43077
| 70>    H        5.02183       -10.73521        -2.63140
| 71>    H        5.03439       -12.41303        -2.04274
| 72>    H        6.80739       -10.11817        -1.04363
| 73>    H        7.33746       -11.46364        -2.05677
| 74>    H        6.84149       -11.75581        -0.38510
| 75>    H        5.08225       -13.42405         0.00069
| 76>    H        3.20676       -13.26855         2.43536
| 77>    H        7.18358       -17.09724         0.36357
| 78>    H        6.72029       -19.20452         2.54952
| 79>    H       10.49855       -21.76527        -0.01546
| 80> *
| 81>
| 82>                          ****END OF INPUT****

CARTESIAN COORDINATES (ANGSTROEM)
---------------------------------
  C      1.602440   -0.661700   -4.385110
  S      2.245770   -2.256190   -4.149090
  C      1.191510   -2.306390   -2.736940
  N      0.508000   -1.214490   -2.584430
  N      0.740790   -0.304950   -3.503700
  C      1.104830   -3.426140   -1.860330
  S      2.032850   -4.870050   -2.102970
  C      1.356110   -5.609220   -0.686070
  C      0.442680   -4.742840   -0.073070
  C      0.307790   -3.515100   -0.742380
  C     -0.292430   -5.035950    1.087770
  N     -0.910530   -5.244860    2.032320
  C      1.781130   -6.913870   -0.335610
  C      1.381930   -7.601150    0.767550
  C      1.856960   -8.902660    1.058630
  N      1.477650   -9.618600    2.169020
  C      0.521100   -9.215540    3.173380
  C     -0.917380   -9.383420    2.692270
  C      2.104920  -10.874330    2.225120
  O      1.927520  -11.679190    3.116500
  C      2.941180  -10.909850    1.043780
  C      2.766600   -9.688600    0.348760
  C      3.608130   -9.722350   -0.826000
  O      3.791170   -8.919570   -1.721690
  N      4.241730  -10.973370   -0.765030
  C      5.207320  -11.370730   -1.760840
  C      6.641130  -11.166870   -1.277420
  C      3.860350  -11.691270    0.347260
  C      4.351890  -12.980430    0.662660
  C      3.943930  -13.676740    1.756820
  C      4.453550  -14.958070    2.079290
  O      5.418080  -15.542500    1.332400
  C      5.721630  -16.743700    1.869660
  C      4.931350  -16.958710    2.999260
  C      4.112020  -15.803940    3.135470
  C      3.151800  -15.580860    4.132680
  N      2.371930  -15.428870    4.958350
  C      4.924610  -18.075430    3.845630
  N      4.906460  -18.984320    4.544710
  C      6.729340  -17.527760    1.245010
  C      7.146490  -18.738030    1.673920
  C      8.172040  -19.460000    0.995350
  S      8.725590  -21.040590    1.550370
  C      9.809520  -20.974340    0.200730
  N      9.709310  -19.904320   -0.505130
  N      8.802720  -19.061900   -0.067730
  H      1.909180   -0.042970   -5.203410
  H     -0.343020   -2.719360   -0.428500
  H      2.485740   -7.375750   -1.016290
  H      0.686400   -7.155010    1.461090
  H      0.711390   -8.179830    3.466880
  H      0.698010   -9.866470    4.034110
  H     -1.114660   -8.761750    1.821930
  H     -1.601240   -9.094950    3.484980
  H     -1.104180  -10.422170    2.430770
  H      5.021830  -10.735210   -2.631400
  H      5.034390  -12.413030   -2.042740
  H      6.807390  -10.118170   -1.043630
  H      7.337460  -11.463640   -2.056770
  H      6.841490  -11.755810   -0.385100
  H      5.082250  -13.424050    0.000690
  H      3.206760  -13.268550    2.435360
  H      7.183580  -17.097240    0.363570
  H      6.720290  -19.204520    2.549520
  H     10.498550  -21.765270   -0.015460

 Total Charge           Charge          ....    0
 Multiplicity           Mult            ....    1
 Number of Electrons    NEL             ....  340
 Basis Dimension        Dim             ....  751

ORBITAL ENERGIES
----------------

  NO   OCC          E(Eh)            E(eV)
   0   2.0000     -88.991711     -2421.5876
   1   2.0000     -88.986016     -2421.4326
   2   2.0000     -88.983980     -2421.3772
   3   2.0000     -19.334683      -526.1235
   4   2.0000     -19.200558      -522.4738
   5   2.0000     -19.199638      -522.4487
   6   2.0000     -14.461875      -393.5276
   7   2.0000     -14.460584      -393.4925
   8   2.0000     -14.445817      -393.0907
   9   2.0000     -14.445468      -393.0812
  10   2.0000     -14.445279      -393.0760
  11   2.0000     -14.444944      -393.0669
  12   2.0000     -14.426326      -392.5603
  13   2.0000     -14.421369      -392.4254
  14   2.0000     -14.416648      -392.2969
  15   2.0000     -10.383311      -282.5443
  16   2.0000     -10.382406      -282.5196
  17   2.0000     -10.382199      -282.5140
  18   2.0000     -10.377219      -282.3785
  19   2.0000     -10.360438      -281.9218
  20   2.0000     -10.353307      -281.7278
  21   2.0000     -10.348781      -281.6046
  22   2.0000     -10.346754      -281.5495
  23   2.0000     -10.344046      -281.4758
  24   2.0000     -10.343320      -281.4561
  25   2.0000     -10.343086      -281.4497
  26   2.0000     -10.340166      -281.3702
  27   2.0000     -10.339351      -281.3480
  28   2.0000     -10.335121      -281.2329
  29   2.0000     -10.330361      -281.1034
  30   2.0000     -10.327061      -281.0136
  31   2.0000     -10.322279      -280.8835
  32   2.0000     -10.316437      -280.7245
  33   2.0000     -10.316238      -280.7191
  34   2.0000     -10.316206      -280.7182
  35   2.0000     -10.314940      -280.6838
  36   2.0000     -10.310068      -280.5512
  37   2.0000     -10.309484      -280.5353
  38   2.0000     -10.309225      -280.5283
  39   2.0000     -10.308512      -280.5089
  40   2.0000     -10.308282      -280.5026
  41   2.0000     -10.303253      -280.3658
  42   2.0000     -10.272056      -279.5168
  43   2.0000     -10.271124      -279.4915
  44   2.0000     -10.270477      -279.4739
  45   2.0000     -10.260850      -279.2119
  46   2.0000      -8.087326      -220.0673
  47   2.0000      -8.082732      -219.9423
  48   2.0000      -8.080593      -219.8841
  49   2.0000      -6.056461      -164.8047
  50   2.0000      -6.052348      -164.6928
  51   2.0000      -6.051520      -164.6702
  52   2.0000      -6.049609      -164.6182
  53   2.0000      -6.049250      -164.6085
  54   2.0000      -6.047835      -164.5700
  55   2.0000      -6.045644      -164.5103
  56   2.0000      -6.045109      -164.4958
  57   2.0000      -6.043191      -164.4436
  58   2.0000      -1.253685       -34.1145
  59   2.0000      -1.151065       -31.3221
  60   2.0000      -1.149755       -31.2864
  61   2.0000      -1.142354       -31.0850
  62   2.0000      -1.135710       -30.9042
  63   2.0000      -1.072430       -29.1823
  64   2.0000      -1.063924       -28.9509
  65   2.0000      -1.027038       -27.9471
  66   2.0000      -1.013974       -27.5916
  67   2.0000      -1.000946       -27.2371
  68   2.0000      -1.000415       -27.2227
  69   2.0000      -0.962545       -26.1922
  70   2.0000      -0.951893       -25.9023
  71   2.0000      -0.945740       -25.7349
  72   2.0000      -0.941516       -25.6199
  73   2.0000      -0.934130       -25.4190
  74   2.0000      -0.920311       -25.0429
  75   2.0000      -0.917297       -24.9609
  76   2.0000      -0.916347       -24.9351
  77   2.0000      -0.904073       -24.6011
  78   2.0000      -0.880268       -23.9533
  79   2.0000      -0.878429       -23.9033
  80   2.0000      -0.860794       -23.4234
  81   2.0000      -0.855416       -23.2771
  82   2.0000      -0.825472       -22.4622
  83   2.0000      -0.811444       -22.0805
  84   2.0000      -0.796041       -21.6614
  85   2.0000      -0.794326       -21.6147
  86   2.0000      -0.765534       -20.8312
  87   2.0000      -0.753456       -20.5026
  88   2.0000      -0.744499       -20.2588
  89   2.0000      -0.743813       -20.2402
  90   2.0000      -0.735660       -20.0183
  91   2.0000      -0.720686       -19.6109
  92   2.0000      -0.717172       -19.5153
  93   2.0000      -0.714015       -19.4293
  94   2.0000      -0.700710       -19.0673
  95   2.0000      -0.693337       -18.8667
  96   2.0000      -0.679742       -18.4967
  97   2.0000      -0.657054       -17.8793
  98   2.0000      -0.650031       -17.6882
  99   2.0000      -0.647072       -17.6077
 100   2.0000      -0.641107       -17.4454
 101   2.0000      -0.627057       -17.0631
 102   2.0000      -0.620923       -16.8962
 103   2.0000      -0.606838       -16.5129
 104   2.0000      -0.603606       -16.4249
 105   2.0000      -0.601345       -16.3634
 106   2.0000      -0.595486       -16.2040
 107   2.0000      -0.588581       -16.0161
 108   2.0000      -0.581369       -15.8199
 109   2.0000      -0.578462       -15.7408
 110   2.0000      -0.574096       -15.6220
 111   2.0000      -0.572001       -15.5650
 112   2.0000      -0.552793       -15.0423
 113   2.0000      -0.551755       -15.0140
 114   2.0000      -0.545856       -14.8535
 115   2.0000      -0.542306       -14.7569
 116   2.0000      -0.537555       -14.6276
 117   2.0000      -0.535588       -14.5741
 118   2.0000      -0.534332       -14.5399
 119   2.0000      -0.530505       -14.4358
 120   2.0000      -0.522819       -14.2266
 121   2.0000      -0.521535       -14.1917
 122   2.0000      -0.519232       -14.1290
 123   2.0000      -0.516763       -14.0618
 124   2.0000      -0.515413       -14.0251
 125   2.0000      -0.507715       -13.8156
 126   2.0000      -0.505256       -13.7487
 127   2.0000      -0.499847       -13.6015
 128   2.0000      -0.496996       -13.5239
 129   2.0000      -0.495955       -13.4956
 130   2.0000      -0.488030       -13.2800
 131   2.0000      -0.484319       -13.1790
 132   2.0000      -0.479500       -13.0478
 133   2.0000      -0.474827       -12.9207
 134   2.0000      -0.472407       -12.8549
 135   2.0000      -0.466267       -12.6878
 136   2.0000      -0.465409       -12.6644
 137   2.0000      -0.459616       -12.5068
 138   2.0000      -0.456378       -12.4187
 139   2.0000      -0.453788       -12.3482
 140   2.0000      -0.451680       -12.2908
 141   2.0000      -0.450972       -12.2716
 142   2.0000      -0.447974       -12.1900
 143   2.0000      -0.446414       -12.1476
 144   2.0000      -0.444057       -12.0834
 145   2.0000      -0.442798       -12.0491
 146   2.0000      -0.435418       -11.8483
 147   2.0000      -0.431089       -11.7305
 148   2.0000      -0.429588       -11.6897
 149   2.0000      -0.427046       -11.6205
 150   2.0000      -0.416224       -11.3260
 151   2.0000      -0.414889       -11.2897
 152   2.0000      -0.408830       -11.1248
 153   2.0000      -0.397305       -10.8112
 154   2.0000      -0.396601       -10.7921
 155   2.0000      -0.393608       -10.7106
 156   2.0000      -0.381359       -10.3773
 157   2.0000      -0.379404       -10.3241
 158   2.0000      -0.373175       -10.1546
 159   2.0000      -0.363059        -9.8793
 160   2.0000      -0.357181        -9.7194
 161   2.0000      -0.348264        -9.4767
 162   2.0000      -0.346443        -9.4272
 163   2.0000      -0.340916        -9.2768
 164   2.0000      -0.335384        -9.1263
 165   2.0000      -0.333959        -9.0875
 166   2.0000      -0.323602        -8.8057
 167   2.0000      -0.303322        -8.2538
 168   2.0000      -0.293505        -7.9867
 169   2.0000      -0.243295        -6.6204
 170   0.0000      -0.108619        -2.9557
 171   0.0000      -0.077241        -2.1018
 172   0.0000      -0.056474        -1.5367
 173   0.0000      -0.027906        -0.7594
 174   0.0000      -0.000312        -0.0085

MULLIKEN ATOMIC CHARGES
-----------------------
   0 C :    0.011035
   1 S :    0.093608
   2 C :   -0.123669
   3 N :   -0.050575
   4 N :   -0.046274
   5 C :   -0.008265
   6 S :    0.191981
   7 C :   -0.062301
   8 C :   -0.072382
   9 C :    0.009735
  10 C :   -0.162054
  11 N :    0.120161
  12 C :    0.059993
  13 C :   -0.037081
  14 C :    0.139188
  15 N :   -0.257317
  16 C :    0.093566
  17 C :    0.008732
  18 C :    0.169071
  19 O :   -0.194645
  20 C :   -0.058132
  21 C :   -0.067422
  22 C :    0.169097
  23 O :   -0.215802
  24 N :   -0.257812
  25 C :    0.098604
  26 C :    0.004958
  27 C :    0.138440
  28 C :   -0.024374
  29 C :   -0.056139
  30 C :    0.137911
  31 O :   -0.182080
  32 C :    0.165324
  33 C :   -0.044591
  34 C :    0.001271
  35 C :   -0.287633
  36 N :    0.242049
  37 C :   -0.270108
  38 N :    0.215832
  39 C :   -0.008217
  40 C :    0.070017
  41 C :   -0.148958
  42 S :    0.110798
  43 C :   -0.000269
  44 N :   -0.048342
  45 N :   -0.058471
  46 H :    0.049116
  47 H :    0.020684
  48 H :    0.005540
  49 H :   -0.010332
  50 H :    0.035836
  51 H :    0.046952
  52 H :    0.017711
  53 H :    0.032277
  54 H :    0.025989
  55 H :    0.043988
  56 H :    0.024457
  57 H :    0.029926
  58 H :    0.027069
  59 H :    0.015111
  60 H :   -0.009071
  61 H :    0.043322
  62 H :    0.026939
  63 H :    0.014082
  64 H :    0.051943
Sum of atomic charges:   -0.0000000

LOEWDIN ATOMIC CHARGES
----------------------
   0 C :   -0.139283
   1 S :    0.385320
   2 C :   -0.161654
   3 N :   -0.079505
   4 N :   -0.063412
   5 C :   -0.200536
   6 S :    0.487522
   7 C :   -0.136987
   8 C :   -0.101142
   9 C :    0.008648
  10 C :   -0.024137
  11 N :   -0.054911
  12 C :   -0.000686
  13 C :   -0.029524
  14 C :    0.080065
  15 N :    0.004304
  16 C :    0.037330
  17 C :   -0.058317
  18 C :    0.081987
  19 O :   -0.184765
  20 C :   -0.110188
  21 C :   -0.120355
  22 C :    0.079554
  23 O :   -0.205522
  24 N :    0.000920
  25 C :    0.036698
  26 C :   -0.060503
  27 C :    0.066423
  28 C :   -0.023318
  29 C :   -0.000714
  30 C :    0.065290
  31 O :    0.034613
  32 C :    0.070886
  33 C :   -0.085482
  34 C :   -0.073940
  35 C :   -0.035495
  36 N :   -0.017549
  37 C :   -0.029538
  38 N :   -0.033211
  39 C :   -0.007354
  40 C :   -0.024126
  41 C :   -0.150573
  42 S :    0.403819
  43 C :   -0.141667
  44 N :   -0.066834
  45 N :   -0.080032
  46 H :    0.027429
  47 H :    0.050518
  48 H :    0.036955
  49 H :    0.036854
  50 H :    0.027911
  51 H :    0.039570
  52 H :    0.023156
  53 H :    0.035406
  54 H :    0.030556
  55 H :    0.038190
  56 H :    0.023729
  57 H :    0.032509
  58 H :    0.032211
  59 H :    0.021926
  60 H :    0.033102
  61 H :    0.049486
  62 H :    0.050663
  63 H :    0.040751
  64 H :    0.026959

  Mayer bond orders larger than 0.100000
B(  0-C ,  1-S ) :   1.1260 B(  0-C ,  4-N ) :   1.7368 B(  0-C , 46-H ) :   0.9704
B(  1-S ,  2-C ) :   1.1201 B(  1-S ,  4-N ) :   0.1024 B(  2-C ,  3-N ) :   1.7687
B(  2-C ,  5-C ) :   1.0660 B(  3-N ,  4-N ) :   1.1984 B(  5-C ,  6-S ) :   1.1283
B(  5-C ,  9-C ) :   1.5041 B(  6-S ,  7-C ) :   1.1572 B(  7-C ,  8-C ) :   1.4264
B(  7-C , 12-C ) :   1.1590 B(  8-C ,  9-C ) :   1.2703 B(  8-C , 10-C ) :   1.1208
B(  9-C , 47-H ) :   1.0173 B( 10-C , 11-N ) :   2.9661 B( 12-C , 13-C ) :   1.6103
B( 12-C , 48-H ) :   0.9186 B( 13-C , 14-C ) :   1.1752 B( 13-C , 49-H ) :   0.9493
B( 14-C , 15-N ) :   1.1711 B( 14-C , 21-C ) :   1.3175 B( 15-N , 16-C ) :   0.9362
B( 15-N , 18-C ) :   1.0588 B( 16-C , 17-C ) :   1.1234 B( 16-C , 50-H ) :   0.9482
B( 16-C , 51-H ) :   0.9273 B( 17-C , 52-H ) :   0.9678 B( 17-C , 53-H ) :   0.9674
B( 17-C , 54-H ) :   0.9634 B( 18-C , 19-O ) :   2.0406 B( 18-C , 20-C ) :   0.9747
B( 19-O , 61-H ) :   0.1110 B( 20-C , 21-C ) :   1.2622 B( 20-C , 27-C ) :   1.3493
B( 21-C , 22-C ) :   0.9892 B( 22-C , 23-O ) :   2.0125 B( 22-C , 24-N ) :   1.0672
B( 23-O , 48-H ) :   0.1208 B( 24-N , 25-C ) :   0.9459 B( 24-N , 27-C ) :   1.1534
B( 25-C , 26-C ) :   1.1201 B( 25-C , 55-H ) :   0.9282 B( 25-C , 56-H ) :   0.9501
B( 26-C , 57-H ) :   0.9637 B( 26-C , 58-H ) :   0.9680 B( 26-C , 59-H ) :   0.9688
B( 27-C , 28-C ) :   1.1368 B( 28-C , 29-C ) :   1.5722 B( 28-C , 60-H ) :   0.9758
B( 29-C , 30-C ) :   1.1995 B( 29-C , 61-H ) :   0.9299 B( 30-C , 31-O ) :   1.1469
B( 30-C , 34-C ) :   1.3659 B( 31-O , 32-C ) :   1.1450 B( 32-C , 33-C ) :   1.3982
B( 32-C , 39-C ) :   1.1466 B( 33-C , 34-C ) :   1.3318 B( 33-C , 37-C ) :   1.1591
B( 34-C , 35-C ) :   1.1540 B( 35-C , 36-N ) :   3.0141 B( 37-C , 38-N ) :   2.9656
B( 39-C , 40-C ) :   1.7037 B( 39-C , 62-H ) :   0.9575 B( 40-C , 41-C ) :   1.1063
B( 40-C , 63-H ) :   0.9418 B( 41-C , 42-S ) :   1.1178 B( 41-C , 45-N ) :   1.7139
B( 42-S , 43-C ) :   1.1469 B( 43-C , 44-N ) :   1.7153 B( 43-C , 64-H ) :   0.9711
B( 44-N , 45-N ) :   1.2071

-----------------------------------------------------------------------------
         ABSORPTION SPECTRUM VIA TRANSITION ELECTRIC DIPOLE MOMENTS
-----------------------------------------------------------------------------
State   Energy  Wavelength   fosc         T2         TX        TY        TZ
        (cm-1)    (nm)                  (au**2)     (au)      (au)      (au)
-----------------------------------------------------------------------------
   0   13961.2    716.3   1.043321523  24.60202   2.05860  -4.48025   0.53995
   1   21951.3    455.6   0.037663850   0.56486   0.56259  -0.37142  -0.33226
   2   25347.9    394.5   0.200717785   2.60687   0.94212  -1.30862  -0.08242
   3   25901.9    386.1   0.490916255   6.23953  -0.67489   2.24450  -0.86388
   4   26309.7    380.1   0.026357457   0.32981  -0.43482   0.15630   0.34105
   5   27000.0    370.4   0.351088507   4.28084   0.20761  -1.79526   1.00737
   6   27994.5    357.2   0.012871845   0.15137   0.03947  -0.37601   0.09181
   7   29815.5    335.4   0.001446196   0.01597   0.08669   0.05602   0.07290
   8   31293.2    319.6   0.000025915   0.00027   0.00596  -0.01316  -0.00799
   9   31887.5    313.6   0.000768745   0.00794   0.06408   0.06100   0.01046
  10   32246.2    310.1   0.307549213   3.13987  -0.01957  -1.38334   1.10719
  11   32949.2    303.5   0.410751037   4.10402  -1.45071   0.61550   1.27303
  12   35537.1    281.4   0.079354289   0.73513  -0.04574  -0.62333   0.58694
  13   36667.1    272.7   0.247632796   2.22334  -0.69695  -0.45953   1.23549
  14   37153.9    269.2   0.095418109   0.84548  -0.00611  -0.74901   0.53332
  15   37193.6    268.9   0.030689631   0.27164  -0.13764  -0.33037   0.37889
  16   38225.5    261.6   0.024422547   0.21034   0.22750   0.16688  -0.36157
  17   38604.7    259.0   0.370790209   3.16201   0.66769   0.78779  -1.44762

FINAL SINGLE POINT ENERGY     -3102.906660677915

DIPOLE MOMENT
-------------
                                X             Y             Z
Electronic contribution:      3.87421      -2.50339      -2.43210
Nuclear contribution   :     -1.86944       2.44701      -0.02352
                        -----------------------------------------
Total Dipole Moment    :      2.00477      -0.05637      -2.45563
                        -----------------------------------------
Magnitude (a.u.)       :      3.17055
Magnitude (Debye)      :      8.05889

Rotational constants in cm-1:     0.004598     0.000551     0.000494
Rotational constants in MHz :   137.831968    16.528322    14.802580

                             ****ORCA TERMINATED NORMALLY****
TOTAL RUN TIME: 0 days 0 hours 4 minutes 11 seconds 280 msec
