                         Program Version 4.2.0 -  RELEASE  -
|  1> # ORCA input file
|  2> # SCF done       -146.252417490334          0.000373416153
|  3> ! CAM-B3LYP def2-SVP def2/J RIJCOSX Grid4 TightSCF
|  4> %maxcore 5000
|  5> %tddft
|  6>     Mode sTDDFT
|  7>     Ethresh 5.0
|  8>     maxcore 5000
|  9> end
| 10>
| 11> %pal
| 12>   nprocs 6
| 13>   end
| 14> * xyz 0 1
| 15>    C        6.84368        -1.18573         7.92356
| 16>    S        6.57875        -2.72115         8.61611
| 17>    C        6.29366        -3.38942         7.05504
| 18>    C        6.40978        -2.48456         6.05095
| 19>    C        6.16750        -2.85430         4.62503
| 20>    C        6.74123        -1.17653         6.55104
| 21>    C        6.93806         0.05123         5.83125
| 22>    C        7.11076         0.21809         4.50151
| 23>    C        7.28373         1.47215         3.83951
| 24>    C        7.08043         2.69698         4.38713
| 25>    C        7.18263         3.94950         3.73048
| 26>    S        6.30852         5.27709         4.41602
| 27>    C        6.69880         6.33084         3.10060
| 28>    C        7.55933         5.68856         2.18651
| 29>    C        7.85367         4.33508         2.55510
| 30>    C        8.77630         3.59680         1.79802
| 31>    C        9.34310         4.14787         0.67008
| 32>    C       10.26524         3.40080        -0.09560
| 33>    N       11.00614         2.77511        -0.70696
| 34>    C        9.01487         5.47904         0.27939
| 35>    C        9.59281         6.04442        -0.87916
| 36>    N       10.03561         6.53528        -1.81575
| 37>    C        8.15188         6.23645         1.03820
| 38>    C        6.13011         7.61806         2.95387
| 39>    O        6.26723         8.24441         1.76527
| 40>    C        5.60764         9.43151         1.81714
| 41>    C        5.04980         9.58937         3.06523
| 42>    C        5.37452         8.43247         3.81391
| 43>    C        5.02638         8.14614         5.19964
| 44>    O        5.27331         7.09814         5.75117
| 45>    O        4.40262         9.12260         5.87745
| 46>    C        5.54645        10.27049         0.67036
| 47>    C        6.21014        10.00382        -0.48079
| 48>    C        6.15860        10.74655        -1.68768
| 49>    S        7.49656        10.61652        -2.78604
| 50>    C        6.82282        11.74702        -3.90693
| 51>    C        5.55199        12.15715        -3.48399
| 52>    C        5.17946        11.60062        -2.21195
| 53>    C        3.90103        11.87291        -1.69205
| 54>    C        3.03361        12.68404        -2.38374
| 55>    C        1.75747        12.96295        -1.84604
| 56>    N        0.73344        13.18029        -1.37899
| 57>    C        3.40045        13.22283        -3.65673
| 58>    C        2.48441        14.03148        -4.36562
| 59>    N        1.75692        14.69768        -4.94923
| 60>    C        4.62826        12.93941        -4.20152
| 61>    C        7.56695        12.13081        -5.06073
| 62>    S        8.59018        10.95603        -5.83910
| 63>    C        9.06964        12.11523        -7.00576
| 64>    C        8.49537        13.33690        -6.83071
| 65>    C        8.81587        14.50256        -7.70631
| 66>    C        7.62438        13.36513        -5.69982
| 67>    C        6.95731        14.52987        -5.16103
| 68>    C        6.45265        15.55922        -5.85782
| 69>    C        5.74859        16.68468        -5.27956
| 70>    C        5.26400        16.75947        -4.04270
| 71>    H        7.07970        -0.35379         8.55791
| 72>    H        6.04788        -4.42974         6.97042
| 73>    H        5.74958        -3.85697         4.57088
| 74>    H        7.09858        -2.84543         4.05904
| 75>    H        5.46869        -2.15919         4.16319
| 76>    H        6.97530         0.92455         6.46987
| 77>    H        7.15054        -0.64428         3.85603
| 78>    H        7.53539         1.40496         2.79066
| 79>    H        6.70611         2.76131         5.40011
| 80>    H        9.07468         2.60853         2.10856
| 81>    H        7.95142         7.25479         0.75130
| 82>    H        4.46938        10.43822         3.37101
| 83>    H        4.26369         9.91534         5.34352
| 84>    H        4.94412        11.15751         0.78426
| 85>    H        6.88918         9.16064        -0.49198
| 86>    H        3.57837        11.42214        -0.76772
| 87>    H        4.87626        13.30548        -5.18458
| 88>    H        9.76763        11.82945        -7.76818
| 89>    H        9.74988        14.32507        -8.23415
| 90>    H        8.90907        15.40978        -7.11296
| 91>    H        8.03293        14.65366        -8.44925
| 92>    H        6.84780        14.52405        -4.08364
| 93>    H        6.52626        15.56698        -6.93506
| 94>    H        5.58896        17.51732        -5.95259
| 95>    H        5.35722        15.95417        -3.33337
| 96>    H        4.73889        17.63255        -3.69782
| 97> *
| 98>
| 99>                          ****END OF INPUT****

CARTESIAN COORDINATES (ANGSTROEM)
---------------------------------
  C      6.843680   -1.185730    7.923560
  S      6.578750   -2.721150    8.616110
  C      6.293660   -3.389420    7.055040
  C      6.409780   -2.484560    6.050950
  C      6.167500   -2.854300    4.625030
  C      6.741230   -1.176530    6.551040
  C      6.938060    0.051230    5.831250
  C      7.110760    0.218090    4.501510
  C      7.283730    1.472150    3.839510
  C      7.080430    2.696980    4.387130
  C      7.182630    3.949500    3.730480
  S      6.308520    5.277090    4.416020
  C      6.698800    6.330840    3.100600
  C      7.559330    5.688560    2.186510
  C      7.853670    4.335080    2.555100
  C      8.776300    3.596800    1.798020
  C      9.343100    4.147870    0.670080
  C     10.265240    3.400800   -0.095600
  N     11.006140    2.775110   -0.706960
  C      9.014870    5.479040    0.279390
  C      9.592810    6.044420   -0.879160
  N     10.035610    6.535280   -1.815750
  C      8.151880    6.236450    1.038200
  C      6.130110    7.618060    2.953870
  O      6.267230    8.244410    1.765270
  C      5.607640    9.431510    1.817140
  C      5.049800    9.589370    3.065230
  C      5.374520    8.432470    3.813910
  C      5.026380    8.146140    5.199640
  O      5.273310    7.098140    5.751170
  O      4.402620    9.122600    5.877450
  C      5.546450   10.270490    0.670360
  C      6.210140   10.003820   -0.480790
  C      6.158600   10.746550   -1.687680
  S      7.496560   10.616520   -2.786040
  C      6.822820   11.747020   -3.906930
  C      5.551990   12.157150   -3.483990
  C      5.179460   11.600620   -2.211950
  C      3.901030   11.872910   -1.692050
  C      3.033610   12.684040   -2.383740
  C      1.757470   12.962950   -1.846040
  N      0.733440   13.180290   -1.378990
  C      3.400450   13.222830   -3.656730
  C      2.484410   14.031480   -4.365620
  N      1.756920   14.697680   -4.949230
  C      4.628260   12.939410   -4.201520
  C      7.566950   12.130810   -5.060730
  S      8.590180   10.956030   -5.839100
  C      9.069640   12.115230   -7.005760
  C      8.495370   13.336900   -6.830710
  C      8.815870   14.502560   -7.706310
  C      7.624380   13.365130   -5.699820
  C      6.957310   14.529870   -5.161030
  C      6.452650   15.559220   -5.857820
  C      5.748590   16.684680   -5.279560
  C      5.264000   16.759470   -4.042700
  H      7.079700   -0.353790    8.557910
  H      6.047880   -4.429740    6.970420
  H      5.749580   -3.856970    4.570880
  H      7.098580   -2.845430    4.059040
  H      5.468690   -2.159190    4.163190
  H      6.975300    0.924550    6.469870
  H      7.150540   -0.644280    3.856030
  H      7.535390    1.404960    2.790660
  H      6.706110    2.761310    5.400110
  H      9.074680    2.608530    2.108560
  H      7.951420    7.254790    0.751300
  H      4.469380   10.438220    3.371010
  H      4.263690    9.915340    5.343520
  H      4.944120   11.157510    0.784260
  H      6.889180    9.160640   -0.491980
  H      3.578370   11.422140   -0.767720
  H      4.876260   13.305480   -5.184580
  H      9.767630   11.829450   -7.768180
  H      9.749880   14.325070   -8.234150
  H      8.909070   15.409780   -7.112960
  H      8.032930   14.653660   -8.449250
  H      6.847800   14.524050   -4.083640
  H      6.526260   15.566980   -6.935060
  H      5.588960   17.517320   -5.952590
  H      5.357220   15.954170   -3.333370
  H      4.738890   17.632550   -3.697820

 Total Charge           Charge          ....    0
 Multiplicity           Mult            ....    1
 Number of Electrons    NEL             ....  412
 Basis Dimension        Dim             ....  930

ORBITAL ENERGIES
----------------

  NO   OCC          E(Eh)            E(eV)
   0   2.0000     -88.988618     -2421.5034
   1   2.0000     -88.984687     -2421.3964
   2   2.0000     -88.962829     -2420.8016
   3   2.0000     -88.956086     -2420.6181
   4   2.0000     -19.321179      -525.7560
   5   2.0000     -19.273294      -524.4530
   6   2.0000     -19.213407      -522.8234
   7   2.0000     -14.411486      -392.1565
   8   2.0000     -14.410572      -392.1316
   9   2.0000     -14.407761      -392.0551
  10   2.0000     -14.406518      -392.0213
  11   2.0000     -10.420567      -283.5580
  12   2.0000     -10.378029      -282.4005
  13   2.0000     -10.358621      -281.8724
  14   2.0000     -10.334229      -281.2087
  15   2.0000     -10.332184      -281.1530
  16   2.0000     -10.331238      -281.1273
  17   2.0000     -10.329021      -281.0669
  18   2.0000     -10.328885      -281.0632
  19   2.0000     -10.327712      -281.0313
  20   2.0000     -10.327037      -281.0130
  21   2.0000     -10.323207      -280.9087
  22   2.0000     -10.315444      -280.6975
  23   2.0000     -10.315143      -280.6893
  24   2.0000     -10.313561      -280.6463
  25   2.0000     -10.312299      -280.6119
  26   2.0000     -10.311514      -280.5906
  27   2.0000     -10.310957      -280.5754
  28   2.0000     -10.310332      -280.5584
  29   2.0000     -10.310206      -280.5550
  30   2.0000     -10.309745      -280.5424
  31   2.0000     -10.309626      -280.5392
  32   2.0000     -10.309180      -280.5270
  33   2.0000     -10.307182      -280.4727
  34   2.0000     -10.307173      -280.4724
  35   2.0000     -10.306879      -280.4644
  36   2.0000     -10.306650      -280.4582
  37   2.0000     -10.305876      -280.4371
  38   2.0000     -10.305234      -280.4197
  39   2.0000     -10.296916      -280.1933
  40   2.0000     -10.295326      -280.1501
  41   2.0000     -10.293125      -280.0902
  42   2.0000     -10.292833      -280.0822
  43   2.0000     -10.292448      -280.0718
  44   2.0000     -10.288503      -279.9644
  45   2.0000     -10.287752      -279.9440
  46   2.0000     -10.287096      -279.9261
  47   2.0000     -10.282322      -279.7962
  48   2.0000     -10.281829      -279.7828
  49   2.0000     -10.281382      -279.7706
  50   2.0000     -10.279023      -279.7064
  51   2.0000     -10.278207      -279.6842
  52   2.0000     -10.273800      -279.5643
  53   2.0000     -10.272612      -279.5320
  54   2.0000     -10.271192      -279.4933
  55   2.0000     -10.266607      -279.3686
  56   2.0000      -8.083863      -219.9731
  57   2.0000      -8.077816      -219.8085
  58   2.0000      -8.058902      -219.2939
  59   2.0000      -8.052483      -219.1192
  60   2.0000      -6.052751      -164.7037
  61   2.0000      -6.048543      -164.5892
  62   2.0000      -6.046936      -164.5455
  63   2.0000      -6.046840      -164.5429
  64   2.0000      -6.042292      -164.4191
  65   2.0000      -6.040804      -164.3786
  66   2.0000      -6.028202      -164.0357
  67   2.0000      -6.023892      -163.9184
  68   2.0000      -6.021635      -163.8570
  69   2.0000      -6.021083      -163.8420
  70   2.0000      -6.017278      -163.7385
  71   2.0000      -6.015036      -163.6775
  72   2.0000      -1.240958       -33.7682
  73   2.0000      -1.197338       -32.5812
  74   2.0000      -1.111482       -30.2450
  75   2.0000      -1.027362       -27.9560
  76   2.0000      -1.022582       -27.8259
  77   2.0000      -1.004047       -27.3215
  78   2.0000      -1.001312       -27.2471
  79   2.0000      -0.990377       -26.9495
  80   2.0000      -0.990168       -26.9438
  81   2.0000      -0.988827       -26.9073
  82   2.0000      -0.983907       -26.7735
  83   2.0000      -0.962143       -26.1812
  84   2.0000      -0.961345       -26.1595
  85   2.0000      -0.940858       -25.6021
  86   2.0000      -0.933682       -25.4068
  87   2.0000      -0.924217       -25.1492
  88   2.0000      -0.911345       -24.7989
  89   2.0000      -0.907876       -24.7046
  90   2.0000      -0.894750       -24.3474
  91   2.0000      -0.878211       -23.8973
  92   2.0000      -0.875503       -23.8236
  93   2.0000      -0.875074       -23.8120
  94   2.0000      -0.869809       -23.6687
  95   2.0000      -0.863829       -23.5060
  96   2.0000      -0.860131       -23.4053
  97   2.0000      -0.855550       -23.2807
  98   2.0000      -0.835564       -22.7368
  99   2.0000      -0.818516       -22.2730
 100   2.0000      -0.797784       -21.7088
 101   2.0000      -0.790119       -21.5002
 102   2.0000      -0.771756       -21.0005
 103   2.0000      -0.765731       -20.8366
 104   2.0000      -0.762295       -20.7431
 105   2.0000      -0.760420       -20.6921
 106   2.0000      -0.758719       -20.6458
 107   2.0000      -0.757919       -20.6240
 108   2.0000      -0.746603       -20.3161
 109   2.0000      -0.726785       -19.7768
 110   2.0000      -0.716190       -19.4885
 111   2.0000      -0.713194       -19.4070
 112   2.0000      -0.707933       -19.2638
 113   2.0000      -0.700619       -19.0648
 114   2.0000      -0.687588       -18.7102
 115   2.0000      -0.685107       -18.6427
 116   2.0000      -0.668798       -18.1989
 117   2.0000      -0.662502       -18.0276
 118   2.0000      -0.654314       -17.8048
 119   2.0000      -0.647112       -17.6088
 120   2.0000      -0.644910       -17.5489
 121   2.0000      -0.626193       -17.0396
 122   2.0000      -0.623153       -16.9568
 123   2.0000      -0.618586       -16.8326
 124   2.0000      -0.611924       -16.6513
 125   2.0000      -0.611112       -16.6292
 126   2.0000      -0.603229       -16.4147
 127   2.0000      -0.601182       -16.3590
 128   2.0000      -0.593375       -16.1466
 129   2.0000      -0.591424       -16.0935
 130   2.0000      -0.581470       -15.8226
 131   2.0000      -0.576713       -15.6932
 132   2.0000      -0.570890       -15.5347
 133   2.0000      -0.565310       -15.3829
 134   2.0000      -0.557439       -15.1687
 135   2.0000      -0.551651       -15.0112
 136   2.0000      -0.550006       -14.9664
 137   2.0000      -0.547365       -14.8946
 138   2.0000      -0.545763       -14.8510
 139   2.0000      -0.543756       -14.7964
 140   2.0000      -0.538834       -14.6624
 141   2.0000      -0.537792       -14.6341
 142   2.0000      -0.534359       -14.5406
 143   2.0000      -0.528084       -14.3699
 144   2.0000      -0.525935       -14.3114
 145   2.0000      -0.519838       -14.1455
 146   2.0000      -0.516489       -14.0544
 147   2.0000      -0.512942       -13.9579
 148   2.0000      -0.510963       -13.9040
 149   2.0000      -0.509620       -13.8675
 150   2.0000      -0.502548       -13.6750
 151   2.0000      -0.501565       -13.6483
 152   2.0000      -0.497536       -13.5386
 153   2.0000      -0.495358       -13.4794
 154   2.0000      -0.493339       -13.4244
 155   2.0000      -0.491543       -13.3756
 156   2.0000      -0.488648       -13.2968
 157   2.0000      -0.486328       -13.2336
 158   2.0000      -0.481599       -13.1050
 159   2.0000      -0.472635       -12.8611
 160   2.0000      -0.470132       -12.7929
 161   2.0000      -0.468830       -12.7575
 162   2.0000      -0.463574       -12.6145
 163   2.0000      -0.459235       -12.4964
 164   2.0000      -0.456229       -12.4146
 165   2.0000      -0.454879       -12.3779
 166   2.0000      -0.452723       -12.3192
 167   2.0000      -0.448405       -12.2017
 168   2.0000      -0.446109       -12.1392
 169   2.0000      -0.445349       -12.1186
 170   2.0000      -0.441915       -12.0251
 171   2.0000      -0.440178       -11.9779
 172   2.0000      -0.437963       -11.9176
 173   2.0000      -0.436287       -11.8720
 174   2.0000      -0.434886       -11.8338
 175   2.0000      -0.433879       -11.8064
 176   2.0000      -0.433291       -11.7905
 177   2.0000      -0.431415       -11.7394
 178   2.0000      -0.427995       -11.6463
 179   2.0000      -0.425466       -11.5775
 180   2.0000      -0.422273       -11.4906
 181   2.0000      -0.420429       -11.4404
 182   2.0000      -0.416761       -11.3407
 183   2.0000      -0.416151       -11.3241
 184   2.0000      -0.415259       -11.2998
 185   2.0000      -0.414148       -11.2695
 186   2.0000      -0.411375       -11.1941
 187   2.0000      -0.410821       -11.1790
 188   2.0000      -0.405902       -11.0451
 189   2.0000      -0.402648       -10.9566
 190   2.0000      -0.399857       -10.8807
 191   2.0000      -0.393594       -10.7102
 192   2.0000      -0.390660       -10.6304
 193   2.0000      -0.371564       -10.1108
 194   2.0000      -0.361031        -9.8242
 195   2.0000      -0.349640        -9.5142
 196   2.0000      -0.346524        -9.4294
 197   2.0000      -0.333682        -9.0799
 198   2.0000      -0.332104        -9.0370
 199   2.0000      -0.330363        -8.9896
 200   2.0000      -0.318554        -8.6683
 201   2.0000      -0.307398        -8.3647
 202   2.0000      -0.294092        -8.0026
 203   2.0000      -0.284698        -7.7470
 204   2.0000      -0.258929        -7.0458
 205   2.0000      -0.234749        -6.3878
 206   0.0000      -0.093691        -2.5495
 207   0.0000      -0.076783        -2.0894
 208   0.0000      -0.042410        -1.1540
 209   0.0000      -0.033465        -0.9106
 210   0.0000      -0.029006        -0.7893

MULLIKEN ATOMIC CHARGES
-----------------------
   0 C :   -0.136318
   1 S :    0.122778
   2 C :   -0.140742
   3 C :   -0.072758
   4 C :    0.120069
   5 C :    0.095909
   6 C :    0.029404
   7 C :   -0.017991
   8 C :    0.000510
   9 C :    0.054025
  10 C :   -0.108239
  11 S :    0.254036
  12 C :   -0.175331
  13 C :    0.130805
  14 C :    0.109434
  15 C :   -0.051487
  16 C :   -0.077044
  17 C :   -0.180944
  18 N :    0.170722
  19 C :   -0.054429
  20 C :   -0.180022
  21 N :    0.168158
  22 C :   -0.062398
  23 C :    0.162940
  24 O :   -0.222766
  25 C :    0.192698
  26 C :   -0.092258
  27 C :   -0.078878
  28 C :    0.180987
  29 O :   -0.203192
  30 O :   -0.145487
  31 C :   -0.033869
  32 C :    0.047030
  33 C :   -0.134278
  34 S :    0.219982
  35 C :   -0.142510
  36 C :    0.107366
  37 C :    0.117418
  38 C :   -0.064392
  39 C :   -0.065337
  40 C :   -0.181262
  41 N :    0.171631
  42 C :   -0.082680
  43 C :   -0.175420
  44 N :    0.178513
  45 C :   -0.038286
  46 C :   -0.174462
  47 S :    0.142802
  48 C :   -0.111694
  49 C :   -0.098417
  50 C :    0.110581
  51 C :    0.148213
  52 C :   -0.073733
  53 C :    0.002669
  54 C :   -0.003411
  55 C :   -0.010312
  56 H :    0.022051
  57 H :    0.014802
  58 H :    0.006130
  59 H :    0.039245
  60 H :    0.030515
  61 H :   -0.015988
  62 H :   -0.027639
  63 H :   -0.006133
  64 H :   -0.010498
  65 H :   -0.004452
  66 H :   -0.014262
  67 H :   -0.013767
  68 H :    0.179216
  69 H :    0.003404
  70 H :    0.001486
  71 H :   -0.014524
  72 H :    0.011841
  73 H :    0.021325
  74 H :    0.011171
  75 H :    0.031527
  76 H :    0.038772
  77 H :    0.010344
  78 H :   -0.009974
  79 H :   -0.000973
  80 H :    0.016978
  81 H :    0.031071
Sum of atomic charges:   -0.0000000

LOEWDIN ATOMIC CHARGES
----------------------
   0 C :   -0.179845
   1 S :    0.445153
   2 C :   -0.196057
   3 C :   -0.053073
   4 C :   -0.044927
   5 C :   -0.071961
   6 C :    0.012342
   7 C :   -0.052396
   8 C :   -0.009140
   9 C :   -0.052543
  10 C :   -0.156131
  11 S :    0.577332
  12 C :   -0.214927
  13 C :   -0.028197
  14 C :   -0.051020
  15 C :    0.034871
  16 C :   -0.061900
  17 C :   -0.033289
  18 N :   -0.041933
  19 C :   -0.052900
  20 C :   -0.030641
  21 N :   -0.043739
  22 C :    0.024216
  23 C :    0.067561
  24 O :    0.019791
  25 C :    0.037504
  26 C :   -0.063526
  27 C :   -0.138267
  28 C :    0.086020
  29 O :   -0.184327
  30 O :   -0.022084
  31 C :   -0.045803
  32 C :   -0.035358
  33 C :   -0.177066
  34 S :    0.515689
  35 C :   -0.180075
  36 C :   -0.051144
  37 C :   -0.043289
  38 C :    0.025648
  39 C :   -0.054692
  40 C :   -0.032477
  41 N :   -0.040180
  42 C :   -0.061598
  43 C :   -0.031506
  44 N :   -0.039177
  45 C :    0.042492
  46 C :   -0.203795
  47 S :    0.441137
  48 C :   -0.183883
  49 C :   -0.053303
  50 C :   -0.044358
  51 C :   -0.051975
  52 C :   -0.020116
  53 C :   -0.028297
  54 C :   -0.032552
  55 C :   -0.027523
  56 H :    0.022190
  57 H :    0.020921
  58 H :    0.033420
  59 H :    0.034879
  60 H :    0.035100
  61 H :    0.029339
  62 H :    0.028556
  63 H :    0.029569
  64 H :    0.028210
  65 H :    0.042187
  66 H :    0.035013
  67 H :    0.029039
  68 H :    0.093510
  69 H :    0.037588
  70 H :    0.034090
  71 H :    0.039222
  72 H :    0.050020
  73 H :    0.024856
  74 H :    0.033677
  75 H :    0.036296
  76 H :    0.036073
  77 H :    0.030964
  78 H :    0.028143
  79 H :    0.030895
  80 H :    0.018148
  81 H :    0.029328

  Mayer bond orders larger than 0.100000
B(  0-C ,  1-S ) :   1.1973 B(  0-C ,  5-C ) :   1.4834 B(  0-C , 56-H ) :   0.9694
B(  1-S ,  2-C ) :   1.1492 B(  2-C ,  3-C ) :   1.6156 B(  2-C , 57-H ) :   0.9643
B(  3-C ,  4-C ) :   1.0995 B(  3-C ,  5-C ) :   1.2121 B(  4-C , 58-H ) :   0.9442
B(  4-C , 59-H ) :   0.9386 B(  4-C , 60-H ) :   0.9446 B(  5-C ,  6-C ) :   1.1262
B(  6-C ,  7-C ) :   1.6820 B(  6-C , 61-H ) :   0.9608 B(  7-C ,  8-C ) :   1.1455
B(  7-C , 62-H ) :   0.9730 B(  8-C ,  9-C ) :   1.6674 B(  8-C , 63-H ) :   0.9717
B(  9-C , 10-C ) :   1.1612 B(  9-C , 64-H ) :   0.9374 B( 10-C , 11-S ) :   1.1733
B( 10-C , 12-C ) :   0.1060 B( 10-C , 14-C ) :   1.2742 B( 11-S , 12-C ) :   1.1645
B( 12-C , 13-C ) :   1.2845 B( 12-C , 23-C ) :   1.1909 B( 13-C , 14-C ) :   1.2055
B( 13-C , 22-C ) :   1.2180 B( 14-C , 15-C ) :   1.2139 B( 15-C , 16-C ) :   1.5373
B( 15-C , 65-H ) :   0.9945 B( 16-C , 17-C ) :   1.0797 B( 16-C , 19-C ) :   1.2561
B( 17-C , 18-N ) :   3.0436 B( 19-C , 20-C ) :   1.0783 B( 19-C , 22-C ) :   1.5349
B( 20-C , 21-N ) :   3.0436 B( 22-C , 66-H ) :   1.0003 B( 23-C , 24-O ) :   1.1677
B( 23-C , 27-C ) :   1.4144 B( 24-O , 25-C ) :   1.1016 B( 25-C , 26-C ) :   1.4969
B( 25-C , 31-C ) :   1.1623 B( 26-C , 27-C ) :   1.1560 B( 26-C , 67-H ) :   0.9859
B( 27-C , 28-C ) :   0.9563 B( 28-C , 29-O ) :   2.0648 B( 28-C , 30-O ) :   1.2711
B( 30-O , 68-H ) :   0.9575 B( 31-C , 32-C ) :   1.6461 B( 31-C , 69-H ) :   0.9569
B( 32-C , 33-C ) :   1.1361 B( 32-C , 70-H ) :   0.9546 B( 33-C , 34-S ) :   1.1521
B( 33-C , 35-C ) :   0.1139 B( 33-C , 37-C ) :   1.3388 B( 34-S , 35-C ) :   1.1983
B( 35-C , 36-C ) :   1.3494 B( 35-C , 46-C ) :   1.1110 B( 36-C , 37-C ) :   1.1924
B( 36-C , 45-C ) :   1.2007 B( 37-C , 38-C ) :   1.1874 B( 38-C , 39-C ) :   1.5670
B( 38-C , 71-H ) :   0.9939 B( 39-C , 40-C ) :   1.0780 B( 39-C , 42-C ) :   1.2357
B( 40-C , 41-N ) :   3.0444 B( 42-C , 43-C ) :   1.0868 B( 42-C , 45-C ) :   1.5594
B( 43-C , 44-N ) :   3.0430 B( 45-C , 72-H ) :   0.9842 B( 46-C , 47-S ) :   1.1462
B( 46-C , 51-C ) :   1.4551 B( 47-S , 48-C ) :   1.1420 B( 48-C , 49-C ) :   1.5919
B( 48-C , 73-H ) :   0.9690 B( 49-C , 50-C ) :   1.0906 B( 49-C , 51-C ) :   1.2466
B( 50-C , 74-H ) :   0.9478 B( 50-C , 75-H ) :   0.9446 B( 50-C , 76-H ) :   0.9427
B( 51-C , 52-C ) :   1.0847 B( 52-C , 53-C ) :   1.7745 B( 52-C , 77-H ) :   0.9425
B( 53-C , 54-C ) :   1.0866 B( 53-C , 78-H ) :   0.9733 B( 54-C , 55-C ) :   1.9544
B( 54-C , 79-H ) :   0.9628 B( 55-C , 80-H ) :   0.9512 B( 55-C , 81-H ) :   0.9514

-----------------------------------------------------------------------------
         ABSORPTION SPECTRUM VIA TRANSITION ELECTRIC DIPOLE MOMENTS
-----------------------------------------------------------------------------
State   Energy  Wavelength   fosc         T2         TX        TY        TZ
        (cm-1)    (nm)                  (au**2)     (au)      (au)      (au)
-----------------------------------------------------------------------------
   0   15641.2    639.3   1.331682571  28.02898  -0.50639   4.32248  -3.01475
   1   19689.1    507.9   0.129611164   2.16717  -0.56112   0.85716   1.05717
   2   22198.1    450.5   0.018370287   0.27244   0.25027  -0.35270  -0.29225
   3   24595.1    406.6   0.082017198   1.09782  -0.90896  -0.44676   0.26836
   4   26331.3    379.8   0.201769398   2.52266   1.08424  -0.17746  -1.14699
   5   27186.8    367.8   0.048250548   0.58428   0.45868  -0.33679  -0.51035
   6   28238.6    354.1   0.611626002   7.13048   0.00662   1.92066  -1.85513
   7   28826.9    346.9   0.180137769   2.05723   0.75439   1.01778  -0.67249
   8   29161.6    342.9   0.240095056   2.71049   0.84155  -0.26304  -1.39035
   9   29942.5    334.0   0.014856249   0.16334   0.25656   0.18719   0.24996
  10   32589.9    306.8   0.138227935   1.39633   0.71886  -0.72010   0.60086
  11   33493.8    298.6   0.019715379   0.19378   0.39042  -0.17650  -0.10102
  12   33958.1    294.5   0.021812357   0.21146  -0.09879  -0.39616   0.21157
  13   34188.6    292.5   0.005927529   0.05708  -0.10202  -0.19114   0.10066
  14   34588.7    289.1   0.041094653   0.39113  -0.29584   0.30818  -0.45677
  15   34987.5    285.8   0.282159002   2.65495   0.67079   0.08709  -1.48237
  16   35328.4    283.1   0.065321347   0.60870  -0.32405  -0.35316   0.61561
  17   36009.2    277.7   0.037611700   0.34386   0.46131   0.12502   0.33975
  18   36171.4    276.5   0.176009435   1.60194   0.03396   0.55117  -1.13886
  19   37008.0    270.2   0.158959158   1.41405  -0.89676  -0.09823   0.77474
  20   37123.5    269.4   0.013727376   0.12173   0.03275   0.29697  -0.18020
  21   37323.2    267.9   0.046390890   0.40919  -0.41023  -0.31088   0.37982
  22   37971.5    263.4   0.041045267   0.35586  -0.07689   0.52982  -0.26314
  23   38480.7    259.9   0.018011515   0.15409   0.27847   0.26384  -0.08326
  24   38813.4    257.6   0.101793934   0.86341   0.88775  -0.25985   0.08825
  25   38919.0    256.9   0.074487231   0.63008   0.66366  -0.43232  -0.05226
  26   39561.9    252.8   0.068908841   0.57342  -0.28848  -0.59939   0.36184
  27   40269.4    248.3   0.013349825   0.10914  -0.01775   0.23854   0.22786

FINAL SINGLE POINT ENERGY     -3764.506750328386

DIPOLE MOMENT
-------------
                                X             Y             Z
Electronic contribution:     -0.74774      -2.25211      10.89374
Nuclear contribution   :      1.64372       1.77367      -9.62811
                        -----------------------------------------
Total Dipole Moment    :      0.89597      -0.47844       1.26563
                        -----------------------------------------
Magnitude (a.u.)       :      1.62280
Magnitude (Debye)      :      4.12484

Rotational constants in cm-1:     0.002635     0.000434     0.000391
Rotational constants in MHz :    78.985684    13.003172    11.711655

                             ****ORCA TERMINATED NORMALLY****
TOTAL RUN TIME: 0 days 0 hours 6 minutes 18 seconds 212 msec
