                         Program Version 4.2.0 -  RELEASE  -
|  1> # ORCA input file
|  2> # SCF done       -174.644221709781          0.000477276463
|  3> ! CAM-B3LYP def2-SVP def2/J RIJCOSX Grid4 TightSCF
|  4> %maxcore 5000
|  5> %tddft
|  6>     Mode sTDDFT
|  7>     Ethresh 5.0
|  8>     maxcore 5000
|  9> end
| 10>
| 11> %pal
| 12>   nprocs 6
| 13>   end
| 14> * xyz 0 1
| 15>    C        3.29471        -2.43070        -9.11600
| 16>    S        1.74450        -1.97670        -9.64629
| 17>    C        1.92422        -0.44359        -8.85905
| 18>    N        0.88000         0.49965        -8.94165
| 19>    O        1.04199         1.56131        -8.37528
| 20>    O       -0.10641         0.17553        -9.57153
| 21>    C        3.12101        -0.31118        -8.21046
| 22>    C        3.92799        -1.46535        -8.35965
| 23>    C        5.25014        -1.55894        -7.78110
| 24>    C        6.43795        -1.94619        -8.35951
| 25>    N        6.67060        -2.44517        -9.65614
| 26>    O        5.72216        -2.84217       -10.31241
| 27>    O        7.82203        -2.44425       -10.05074
| 28>    C        7.53069        -1.65518        -7.45327
| 29>    C        7.02966        -1.06551        -6.34640
| 30>    C        5.59337        -1.00049        -6.46700
| 31>    C        4.69842        -0.65570        -5.47769
| 32>    C        3.37004        -1.16122        -5.31506
| 33>    C        2.92106        -0.80503        -4.08256
| 34>    C        3.91249        -0.00256        -3.42327
| 35>    N        3.64963         0.51819        -2.14408
| 36>    O        4.56985         0.97084        -1.47753
| 37>    O        2.49808         0.46776        -1.75175
| 38>    C        5.01343         0.14996        -4.27305
| 39>    C        6.11595         1.02395        -4.28933
| 40>    C        6.65077         1.74318        -3.25220
| 41>    C        7.75425         2.59365        -3.44207
| 42>    N        8.36289         3.28781        -2.42533
| 43>    C        8.00376         3.24630        -1.02544
| 44>    C        8.53796         1.99149        -0.34130
| 45>    C        9.45582         4.03849        -2.87505
| 46>    O       10.14794         4.72965        -2.15649
| 47>    C        9.50448         3.78325        -4.30429
| 48>    C        8.45191         2.90348        -4.62351
| 49>    C        8.49846         2.65359        -6.04942
| 50>    O        7.81009         1.97062        -6.78137
| 51>    N        9.60039         3.40380        -6.49930
| 52>    C        9.94366         3.45073        -7.90090
| 53>    C        9.43846         4.72894        -8.56533
| 54>    C       10.21005         4.08473        -5.47659
| 55>    C       11.35942         4.89836        -5.64236
| 56>    C       11.95023         5.53042        -4.59834
| 57>    C       13.13339         6.34435        -4.65633
| 58>    C       13.68955         6.79491        -3.45521
| 59>    C       14.83550         7.56836        -3.43883
| 60>    N       15.30012         8.00236        -2.14180
| 61>    O       14.99641         7.31731        -1.19108
| 62>    O       15.95430         9.02229        -2.07592
| 63>    C       15.49779         7.93638        -4.62857
| 64>    C       14.92258         7.48066        -5.82551
| 65>    C       13.78096         6.71724        -5.84588
| 66>    C       16.73513         8.67825        -4.63243
| 67>    C       17.17034         9.43600        -5.65905
| 68>    C       18.40237        10.15901        -5.65835
| 69>    S       18.88546        11.00256        -7.09537
| 70>    C       20.32694        11.52777        -6.31035
| 71>    N       21.23303        12.32255        -7.03247
| 72>    O       22.24366        12.68332        -6.46345
| 73>    O       20.93348        12.58669        -8.18245
| 74>    C       20.42731        11.08498        -5.01009
| 75>    C       19.33293        10.30786        -4.64211
| 76>    H        3.67943        -3.39717        -9.37349
| 77>    H        3.41282         0.57901        -7.68420
| 78>    H        8.55338        -1.89433        -7.67244
| 79>    H        7.58076        -0.79806        -5.46718
| 80>    H        2.87306        -1.81742        -6.00133
| 81>    H        1.98402        -1.06693        -3.62794
| 82>    H        6.58228         1.13421        -5.25950
| 83>    H        6.24325         1.64678        -2.25815
| 84>    H        6.91757         3.30488        -0.92661
| 85>    H        8.45268         4.13337        -0.57081
| 86>    H        8.10878         1.09499        -0.78190
| 87>    H        8.27875         2.01602         0.71284
| 88>    H        9.62066         1.94559        -0.43265
| 89>    H        9.46032         2.58399        -8.36002
| 90>    H       11.02630         3.34982        -8.01570
| 91>    H        8.35602         4.78729        -8.48347
| 92>    H        9.70549         4.72476        -9.61822
| 93>    H        9.86768         5.61216        -8.09701
| 94>    H       11.76480         4.97939        -6.64006
| 95>    H       11.51924         5.41088        -3.61263
| 96>    H       13.22089         6.54125        -2.51498
| 97>    H       15.41323         7.71674        -6.75650
| 98>    H       13.38262         6.40206        -6.79741
| 99>    H       17.33387         8.63507        -3.73538
|100>    H       16.56879         9.55126        -6.55028
|101>    H       21.26172        11.32678        -4.37705
|102>    H       19.21223         9.88169        -3.66358
|103> *
|104>
|105>                          ****END OF INPUT****

CARTESIAN COORDINATES (ANGSTROEM)
---------------------------------
  C      3.294710   -2.430700   -9.116000
  S      1.744500   -1.976700   -9.646290
  C      1.924220   -0.443590   -8.859050
  N      0.880000    0.499650   -8.941650
  O      1.041990    1.561310   -8.375280
  O     -0.106410    0.175530   -9.571530
  C      3.121010   -0.311180   -8.210460
  C      3.927990   -1.465350   -8.359650
  C      5.250140   -1.558940   -7.781100
  C      6.437950   -1.946190   -8.359510
  N      6.670600   -2.445170   -9.656140
  O      5.722160   -2.842170  -10.312410
  O      7.822030   -2.444250  -10.050740
  C      7.530690   -1.655180   -7.453270
  C      7.029660   -1.065510   -6.346400
  C      5.593370   -1.000490   -6.467000
  C      4.698420   -0.655700   -5.477690
  C      3.370040   -1.161220   -5.315060
  C      2.921060   -0.805030   -4.082560
  C      3.912490   -0.002560   -3.423270
  N      3.649630    0.518190   -2.144080
  O      4.569850    0.970840   -1.477530
  O      2.498080    0.467760   -1.751750
  C      5.013430    0.149960   -4.273050
  C      6.115950    1.023950   -4.289330
  C      6.650770    1.743180   -3.252200
  C      7.754250    2.593650   -3.442070
  N      8.362890    3.287810   -2.425330
  C      8.003760    3.246300   -1.025440
  C      8.537960    1.991490   -0.341300
  C      9.455820    4.038490   -2.875050
  O     10.147940    4.729650   -2.156490
  C      9.504480    3.783250   -4.304290
  C      8.451910    2.903480   -4.623510
  C      8.498460    2.653590   -6.049420
  O      7.810090    1.970620   -6.781370
  N      9.600390    3.403800   -6.499300
  C      9.943660    3.450730   -7.900900
  C      9.438460    4.728940   -8.565330
  C     10.210050    4.084730   -5.476590
  C     11.359420    4.898360   -5.642360
  C     11.950230    5.530420   -4.598340
  C     13.133390    6.344350   -4.656330
  C     13.689550    6.794910   -3.455210
  C     14.835500    7.568360   -3.438830
  N     15.300120    8.002360   -2.141800
  O     14.996410    7.317310   -1.191080
  O     15.954300    9.022290   -2.075920
  C     15.497790    7.936380   -4.628570
  C     14.922580    7.480660   -5.825510
  C     13.780960    6.717240   -5.845880
  C     16.735130    8.678250   -4.632430
  C     17.170340    9.436000   -5.659050
  C     18.402370   10.159010   -5.658350
  S     18.885460   11.002560   -7.095370
  C     20.326940   11.527770   -6.310350
  N     21.233030   12.322550   -7.032470
  O     22.243660   12.683320   -6.463450
  O     20.933480   12.586690   -8.182450
  C     20.427310   11.084980   -5.010090
  C     19.332930   10.307860   -4.642110
  H      3.679430   -3.397170   -9.373490
  H      3.412820    0.579010   -7.684200
  H      8.553380   -1.894330   -7.672440
  H      7.580760   -0.798060   -5.467180
  H      2.873060   -1.817420   -6.001330
  H      1.984020   -1.066930   -3.627940
  H      6.582280    1.134210   -5.259500
  H      6.243250    1.646780   -2.258150
  H      6.917570    3.304880   -0.926610
  H      8.452680    4.133370   -0.570810
  H      8.108780    1.094990   -0.781900
  H      8.278750    2.016020    0.712840
  H      9.620660    1.945590   -0.432650
  H      9.460320    2.583990   -8.360020
  H     11.026300    3.349820   -8.015700
  H      8.356020    4.787290   -8.483470
  H      9.705490    4.724760   -9.618220
  H      9.867680    5.612160   -8.097010
  H     11.764800    4.979390   -6.640060
  H     11.519240    5.410880   -3.612630
  H     13.220890    6.541250   -2.514980
  H     15.413230    7.716740   -6.756500
  H     13.382620    6.402060   -6.797410
  H     17.333870    8.635070   -3.735380
  H     16.568790    9.551260   -6.550280
  H     21.261720   11.326780   -4.377050
  H     19.212230    9.881690   -3.663580

 Total Charge           Charge          ....    0
 Multiplicity           Mult            ....    1
 Number of Electrons    NEL             ....  444
 Basis Dimension        Dim             ....  997

ORBITAL ENERGIES
----------------

  NO   OCC          E(Eh)            E(eV)
   0   2.0000     -88.990231     -2421.5473
   1   2.0000     -88.987399     -2421.4702
   2   2.0000     -19.257824      -524.0320
   3   2.0000     -19.256695      -524.0013
   4   2.0000     -19.245784      -523.7044
   5   2.0000     -19.244984      -523.6826
   6   2.0000     -19.244696      -523.6748
   7   2.0000     -19.244373      -523.6660
   8   2.0000     -19.243465      -523.6413
   9   2.0000     -19.242749      -523.6218
  10   2.0000     -19.241175      -523.5790
  11   2.0000     -19.241135      -523.5779
  12   2.0000     -19.217019      -522.9217
  13   2.0000     -19.204881      -522.5914
  14   2.0000     -14.663073      -399.0025
  15   2.0000     -14.655669      -398.8010
  16   2.0000     -14.653972      -398.7548
  17   2.0000     -14.652889      -398.7254
  18   2.0000     -14.652733      -398.7211
  19   2.0000     -14.475247      -393.8915
  20   2.0000     -14.467092      -393.6696
  21   2.0000     -10.397024      -282.9174
  22   2.0000     -10.388658      -282.6898
  23   2.0000     -10.361936      -281.9626
  24   2.0000     -10.352014      -281.6926
  25   2.0000     -10.349314      -281.6192
  26   2.0000     -10.348651      -281.6011
  27   2.0000     -10.348405      -281.5944
  28   2.0000     -10.337571      -281.2996
  29   2.0000     -10.336570      -281.2724
  30   2.0000     -10.334467      -281.2152
  31   2.0000     -10.333557      -281.1904
  32   2.0000     -10.332349      -281.1575
  33   2.0000     -10.331365      -281.1307
  34   2.0000     -10.329743      -281.0866
  35   2.0000     -10.327697      -281.0309
  36   2.0000     -10.327077      -281.0141
  37   2.0000     -10.326921      -281.0098
  38   2.0000     -10.317125      -280.7433
  39   2.0000     -10.315615      -280.7021
  40   2.0000     -10.315086      -280.6878
  41   2.0000     -10.314921      -280.6833
  42   2.0000     -10.313943      -280.6566
  43   2.0000     -10.313379      -280.6413
  44   2.0000     -10.313108      -280.6339
  45   2.0000     -10.312124      -280.6072
  46   2.0000     -10.311756      -280.5971
  47   2.0000     -10.310586      -280.5653
  48   2.0000     -10.309923      -280.5473
  49   2.0000     -10.307531      -280.4822
  50   2.0000     -10.306007      -280.4407
  51   2.0000     -10.305424      -280.4248
  52   2.0000     -10.304999      -280.4133
  53   2.0000     -10.299606      -280.2665
  54   2.0000     -10.297555      -280.2107
  55   2.0000     -10.291743      -280.0526
  56   2.0000     -10.289978      -280.0045
  57   2.0000     -10.285529      -279.8835
  58   2.0000     -10.280553      -279.7481
  59   2.0000     -10.280297      -279.7411
  60   2.0000     -10.268402      -279.4174
  61   2.0000      -8.085933      -220.0294
  62   2.0000      -8.083000      -219.9496
  63   2.0000      -6.055191      -164.7701
  64   2.0000      -6.052255      -164.6902
  65   2.0000      -6.050596      -164.6451
  66   2.0000      -6.048404      -164.5854
  67   2.0000      -6.047956      -164.5732
  68   2.0000      -6.045216      -164.4987
  69   2.0000      -1.339187       -36.4411
  70   2.0000      -1.326890       -36.1065
  71   2.0000      -1.325131       -36.0587
  72   2.0000      -1.323351       -36.0102
  73   2.0000      -1.323020       -36.0012
  74   2.0000      -1.157774       -31.5046
  75   2.0000      -1.155551       -31.4441
  76   2.0000      -1.145979       -31.1837
  77   2.0000      -1.144428       -31.1415
  78   2.0000      -1.142440       -31.0874
  79   2.0000      -1.142417       -31.0868
  80   2.0000      -1.139542       -31.0085
  81   2.0000      -1.084602       -29.5135
  82   2.0000      -1.072883       -29.1946
  83   2.0000      -1.028746       -27.9936
  84   2.0000      -1.018058       -27.7028
  85   2.0000      -1.015798       -27.6413
  86   2.0000      -1.008269       -27.4364
  87   2.0000      -1.000305       -27.2197
  88   2.0000      -0.949687       -25.8423
  89   2.0000      -0.943550       -25.6753
  90   2.0000      -0.929393       -25.2901
  91   2.0000      -0.922943       -25.1146
  92   2.0000      -0.917529       -24.9672
  93   2.0000      -0.909656       -24.7530
  94   2.0000      -0.908247       -24.7146
  95   2.0000      -0.898014       -24.4362
  96   2.0000      -0.887373       -24.1466
  97   2.0000      -0.884856       -24.0782
  98   2.0000      -0.878662       -23.9096
  99   2.0000      -0.868951       -23.6453
 100   2.0000      -0.857633       -23.3374
 101   2.0000      -0.854009       -23.2388
 102   2.0000      -0.834823       -22.7167
 103   2.0000      -0.830116       -22.5886
 104   2.0000      -0.814340       -22.1593
 105   2.0000      -0.810863       -22.0647
 106   2.0000      -0.806007       -21.9326
 107   2.0000      -0.777411       -21.1544
 108   2.0000      -0.774233       -21.0680
 109   2.0000      -0.768356       -20.9080
 110   2.0000      -0.765099       -20.8194
 111   2.0000      -0.744620       -20.2621
 112   2.0000      -0.734547       -19.9880
 113   2.0000      -0.732396       -19.9295
 114   2.0000      -0.723289       -19.6817
 115   2.0000      -0.713886       -19.4258
 116   2.0000      -0.707713       -19.2579
 117   2.0000      -0.694043       -18.8859
 118   2.0000      -0.692164       -18.8347
 119   2.0000      -0.677316       -18.4307
 120   2.0000      -0.667974       -18.1765
 121   2.0000      -0.663526       -18.0555
 122   2.0000      -0.661426       -17.9983
 123   2.0000      -0.652722       -17.7615
 124   2.0000      -0.651416       -17.7259
 125   2.0000      -0.649180       -17.6651
 126   2.0000      -0.647828       -17.6283
 127   2.0000      -0.644959       -17.5502
 128   2.0000      -0.639833       -17.4107
 129   2.0000      -0.636776       -17.3276
 130   2.0000      -0.635451       -17.2915
 131   2.0000      -0.634151       -17.2561
 132   2.0000      -0.634077       -17.2541
 133   2.0000      -0.632726       -17.2174
 134   2.0000      -0.629598       -17.1322
 135   2.0000      -0.626474       -17.0472
 136   2.0000      -0.623058       -16.9543
 137   2.0000      -0.614458       -16.7203
 138   2.0000      -0.608807       -16.5665
 139   2.0000      -0.606354       -16.4997
 140   2.0000      -0.602895       -16.4056
 141   2.0000      -0.600412       -16.3380
 142   2.0000      -0.597296       -16.2532
 143   2.0000      -0.590284       -16.0624
 144   2.0000      -0.588967       -16.0266
 145   2.0000      -0.585297       -15.9267
 146   2.0000      -0.585027       -15.9194
 147   2.0000      -0.581938       -15.8353
 148   2.0000      -0.580887       -15.8067
 149   2.0000      -0.575897       -15.6710
 150   2.0000      -0.564453       -15.3596
 151   2.0000      -0.557781       -15.1780
 152   2.0000      -0.552053       -15.0221
 153   2.0000      -0.548201       -14.9173
 154   2.0000      -0.547550       -14.8996
 155   2.0000      -0.543043       -14.7769
 156   2.0000      -0.542316       -14.7572
 157   2.0000      -0.541063       -14.7231
 158   2.0000      -0.536809       -14.6073
 159   2.0000      -0.533814       -14.5258
 160   2.0000      -0.526852       -14.3364
 161   2.0000      -0.521687       -14.1958
 162   2.0000      -0.519578       -14.1384
 163   2.0000      -0.515634       -14.0311
 164   2.0000      -0.512530       -13.9467
 165   2.0000      -0.510085       -13.8801
 166   2.0000      -0.507892       -13.8204
 167   2.0000      -0.504068       -13.7164
 168   2.0000      -0.499670       -13.5967
 169   2.0000      -0.498965       -13.5775
 170   2.0000      -0.498513       -13.5652
 171   2.0000      -0.493519       -13.4293
 172   2.0000      -0.491348       -13.3702
 173   2.0000      -0.487855       -13.2752
 174   2.0000      -0.486179       -13.2296
 175   2.0000      -0.484784       -13.1916
 176   2.0000      -0.480458       -13.0739
 177   2.0000      -0.478283       -13.0147
 178   2.0000      -0.472623       -12.8607
 179   2.0000      -0.469878       -12.7860
 180   2.0000      -0.469250       -12.7690
 181   2.0000      -0.466967       -12.7068
 182   2.0000      -0.459244       -12.4967
 183   2.0000      -0.457158       -12.4399
 184   2.0000      -0.455525       -12.3955
 185   2.0000      -0.453449       -12.3390
 186   2.0000      -0.451032       -12.2732
 187   2.0000      -0.449562       -12.2332
 188   2.0000      -0.446270       -12.1436
 189   2.0000      -0.443694       -12.0735
 190   2.0000      -0.432215       -11.7612
 191   2.0000      -0.428507       -11.6603
 192   2.0000      -0.400499       -10.8981
 193   2.0000      -0.394817       -10.7435
 194   2.0000      -0.394150       -10.7254
 195   2.0000      -0.393395       -10.7048
 196   2.0000      -0.392510       -10.6807
 197   2.0000      -0.390474       -10.6253
 198   2.0000      -0.389180       -10.5901
 199   2.0000      -0.388018       -10.5585
 200   2.0000      -0.386296       -10.5116
 201   2.0000      -0.385463       -10.4890
 202   2.0000      -0.383938       -10.4475
 203   2.0000      -0.381422       -10.3790
 204   2.0000      -0.380070       -10.3422
 205   2.0000      -0.374962       -10.2032
 206   2.0000      -0.371449       -10.1076
 207   2.0000      -0.370513       -10.0822
 208   2.0000      -0.368894       -10.0381
 209   2.0000      -0.367300        -9.9947
 210   2.0000      -0.362804        -9.8724
 211   2.0000      -0.360597        -9.8123
 212   2.0000      -0.350827        -9.5465
 213   2.0000      -0.349754        -9.5173
 214   2.0000      -0.343788        -9.3549
 215   2.0000      -0.342648        -9.3239
 216   2.0000      -0.341315        -9.2876
 217   2.0000      -0.334020        -9.0892
 218   2.0000      -0.310981        -8.4622
 219   2.0000      -0.301276        -8.1981
 220   2.0000      -0.293962        -7.9991
 221   2.0000      -0.248598        -6.7647
 222   0.0000      -0.143709        -3.9105
 223   0.0000      -0.100572        -2.7367
 224   0.0000      -0.078314        -2.1310
 225   0.0000      -0.059167        -1.6100
 226   0.0000      -0.055922        -1.5217

MULLIKEN ATOMIC CHARGES
-----------------------
   0 C :   -0.033883
   1 S :    0.207308
   2 C :   -0.057925
   3 N :    0.276628
   4 O :   -0.242666
   5 O :   -0.252495
   6 C :    0.055589
   7 C :   -0.063542
   8 C :    0.080154
   9 C :    0.076995
  10 N :    0.269118
  11 O :   -0.252794
  12 O :   -0.241491
  13 C :    0.008636
  14 C :    0.034371
  15 C :    0.028166
  16 C :   -0.012144
  17 C :    0.019508
  18 C :    0.031819
  19 C :    0.062242
  20 N :    0.279160
  21 O :   -0.260729
  22 O :   -0.243734
  23 C :    0.094709
  24 C :   -0.092117
  25 C :   -0.003810
  26 C :    0.130674
  27 N :   -0.250171
  28 C :    0.093582
  29 C :    0.003881
  30 C :    0.170749
  31 O :   -0.207666
  32 C :   -0.076346
  33 C :   -0.057648
  34 C :    0.166268
  35 O :   -0.196380
  36 N :   -0.252724
  37 C :    0.094231
  38 C :    0.000924
  39 C :    0.137193
  40 C :    0.000646
  41 C :    0.012561
  42 C :    0.101178
  43 C :   -0.061191
  44 C :    0.142389
  45 N :    0.245218
  46 O :   -0.222184
  47 O :   -0.235160
  48 C :    0.072098
  49 C :   -0.032608
  50 C :    0.022593
  51 C :    0.004116
  52 C :    0.059980
  53 C :   -0.089432
  54 S :    0.197146
  55 C :   -0.025167
  56 N :    0.275703
  57 O :   -0.243668
  58 O :   -0.259337
  59 C :    0.053008
  60 C :    0.010942
  61 H :    0.044833
  62 H :    0.024212
  63 H :   -0.001003
  64 H :   -0.004168
  65 H :    0.003486
  66 H :    0.008461
  67 H :    0.031490
  68 H :    0.005544
  69 H :    0.041575
  70 H :    0.043902
  71 H :    0.020121
  72 H :    0.031127
  73 H :    0.026994
  74 H :    0.049501
  75 H :    0.027016
  76 H :    0.035303
  77 H :    0.030514
  78 H :    0.014924
  79 H :   -0.030541
  80 H :    0.015471
  81 H :    0.024397
  82 H :   -0.010854
  83 H :   -0.014375
  84 H :    0.013687
  85 H :   -0.006636
  86 H :    0.016551
  87 H :    0.006002
Sum of atomic charges:   -0.0000000

LOEWDIN ATOMIC CHARGES
----------------------
   0 C :   -0.131076
   1 S :    0.510546
   2 C :   -0.207105
   3 N :    0.273490
   4 O :   -0.207808
   5 O :   -0.217468
   6 C :   -0.003853
   7 C :   -0.082389
   8 C :    0.010605
   9 C :   -0.033660
  10 N :    0.284577
  11 O :   -0.209165
  12 O :   -0.205339
  13 C :    0.006554
  14 C :   -0.025389
  15 C :    0.037062
  16 C :    0.045447
  17 C :   -0.042589
  18 C :    0.025397
  19 C :   -0.048938
  20 N :    0.287015
  21 O :   -0.221593
  22 O :   -0.207134
  23 C :    0.009268
  24 C :    0.001237
  25 C :   -0.003989
  26 C :    0.063882
  27 N :    0.007493
  28 C :    0.038865
  29 C :   -0.059170
  30 C :    0.078320
  31 O :   -0.198301
  32 C :   -0.120598
  33 C :   -0.103085
  34 C :    0.082796
  35 O :   -0.183461
  36 N :    0.003677
  37 C :    0.036652
  38 C :   -0.060450
  39 C :    0.086927
  40 C :   -0.050839
  41 C :    0.046465
  42 C :   -0.032078
  43 C :    0.025527
  44 C :   -0.025992
  45 N :    0.283948
  46 O :   -0.189811
  47 O :   -0.195101
  48 C :    0.002945
  49 C :   -0.005687
  50 C :    0.016149
  51 C :   -0.002032
  52 C :   -0.029413
  53 C :   -0.151383
  54 S :    0.489338
  55 C :   -0.204085
  56 N :    0.272343
  57 O :   -0.209154
  58 O :   -0.224891
  59 C :   -0.011745
  60 C :   -0.048027
  61 H :    0.031431
  62 H :    0.045981
  63 H :    0.036357
  64 H :    0.030989
  65 H :    0.033254
  66 H :    0.040162
  67 H :    0.039180
  68 H :    0.029842
  69 H :    0.030720
  70 H :    0.038200
  71 H :    0.024116
  72 H :    0.034608
  73 H :    0.030522
  74 H :    0.039957
  75 H :    0.024077
  76 H :    0.034516
  77 H :    0.033503
  78 H :    0.021649
  79 H :    0.026526
  80 H :    0.040125
  81 H :    0.049547
  82 H :    0.034755
  83 H :    0.032533
  84 H :    0.030950
  85 H :    0.028356
  86 H :    0.047029
  87 H :    0.037388

  Mayer bond orders larger than 0.100000
B(  0-C ,  1-S ) :   1.2108 B(  0-C ,  7-C ) :   1.5227 B(  0-C , 61-H ) :   0.9578
B(  1-S ,  2-C ) :   1.1415 B(  2-C ,  3-N ) :   0.9459 B(  2-C ,  6-C ) :   1.4920
B(  3-N ,  4-O ) :   1.5478 B(  3-N ,  5-O ) :   1.5238 B(  4-O ,  5-O ) :   0.2687
B(  6-C ,  7-C ) :   1.2417 B(  6-C , 62-H ) :   0.9945 B(  7-C ,  8-C ) :   0.9908
B(  8-C ,  9-C ) :   1.6181 B(  8-C , 15-C ) :   1.0650 B(  9-C , 10-N ) :   0.9373
B(  9-C , 13-C ) :   1.1044 B( 10-N , 11-O ) :   1.4986 B( 10-N , 12-O ) :   1.5412
B( 11-O , 12-O ) :   0.2638 B( 13-C , 14-C ) :   1.6142 B( 13-C , 63-H ) :   1.0127
B( 14-C , 15-C ) :   1.1072 B( 14-C , 64-H ) :   1.0022 B( 15-C , 16-C ) :   1.5057
B( 16-C , 17-C ) :   1.1459 B( 16-C , 23-C ) :   1.0072 B( 17-C , 18-C ) :   1.5585
B( 17-C , 65-H ) :   0.9982 B( 18-C , 19-C ) :   1.1495 B( 18-C , 66-H ) :   1.0079
B( 19-C , 20-N ) :   0.9628 B( 19-C , 23-C ) :   1.4437 B( 20-N , 21-O ) :   1.4581
B( 20-N , 22-O ) :   1.5401 B( 21-O , 22-O ) :   0.2499 B( 21-O , 68-H ) :   0.1038
B( 23-C , 24-C ) :   1.1956 B( 24-C , 25-C ) :   1.5220 B( 24-C , 67-H ) :   0.9386
B( 25-C , 26-C ) :   1.1795 B( 25-C , 68-H ) :   0.9469 B( 26-C , 27-N ) :   1.1618
B( 26-C , 33-C ) :   1.2860 B( 27-N , 28-C ) :   0.9355 B( 27-N , 30-C ) :   1.0769
B( 28-C , 29-C ) :   1.1234 B( 28-C , 69-H ) :   0.9486 B( 28-C , 70-H ) :   0.9286
B( 29-C , 71-H ) :   0.9681 B( 29-C , 72-H ) :   0.9678 B( 29-C , 73-H ) :   0.9637
B( 30-C , 31-O ) :   2.0219 B( 30-C , 32-C ) :   0.9802 B( 31-O , 80-H ) :   0.1214
B( 32-C , 33-C ) :   1.2915 B( 32-C , 39-C ) :   1.3104 B( 33-C , 34-C ) :   0.9806
B( 34-C , 35-O ) :   2.0211 B( 34-C , 36-N ) :   1.0583 B( 35-O , 67-H ) :   0.1084
B( 36-N , 37-C ) :   0.9414 B( 36-N , 39-C ) :   1.1733 B( 37-C , 38-C ) :   1.1198
B( 37-C , 74-H ) :   0.9278 B( 37-C , 75-H ) :   0.9496 B( 38-C , 76-H ) :   0.9636
B( 38-C , 77-H ) :   0.9682 B( 38-C , 78-H ) :   0.9687 B( 39-C , 40-C ) :   1.1661
B( 40-C , 41-C ) :   1.5890 B( 40-C , 79-H ) :   0.9571 B( 41-C , 42-C ) :   1.0865
B( 41-C , 80-H ) :   0.9621 B( 42-C , 43-C ) :   1.2865 B( 42-C , 50-C ) :   1.2969
B( 43-C , 44-C ) :   1.3627 B( 43-C , 81-H ) :   1.0048 B( 44-C , 45-N ) :   0.8763
B( 44-C , 48-C ) :   1.3428 B( 45-N , 46-O ) :   1.5637 B( 45-N , 47-O ) :   1.5141
B( 46-O , 47-O ) :   0.2666 B( 48-C , 49-C ) :   1.3206 B( 48-C , 51-C ) :   1.0836
B( 49-C , 50-C ) :   1.4357 B( 49-C , 82-H ) :   0.9863 B( 50-C , 83-H ) :   0.9906
B( 51-C , 52-C ) :   1.7523 B( 51-C , 84-H ) :   0.9447 B( 52-C , 53-C ) :   1.1046
B( 52-C , 85-H ) :   0.9588 B( 53-C , 54-S ) :   1.1469 B( 53-C , 60-C ) :   1.4754
B( 54-S , 55-C ) :   1.1348 B( 55-C , 56-N ) :   0.9558 B( 55-C , 59-C ) :   1.4706
B( 56-N , 57-O ) :   1.5440 B( 56-N , 58-O ) :   1.5198 B( 57-O , 58-O ) :   0.2652
B( 59-C , 60-C ) :   1.2819 B( 59-C , 86-H ) :   0.9978 B( 60-C , 87-H ) :   0.9932

-----------------------------------------------------------------------------
         ABSORPTION SPECTRUM VIA TRANSITION ELECTRIC DIPOLE MOMENTS
-----------------------------------------------------------------------------
State   Energy  Wavelength   fosc         T2         TX        TY        TZ
        (cm-1)    (nm)                  (au**2)     (au)      (au)      (au)
-----------------------------------------------------------------------------
   0    7074.0   1413.6   0.285444782  13.28419  -2.70293  -2.43109  -0.26108
   1   14773.0    676.9   0.014589343   0.32512   0.08252  -0.21943   0.51977
   2   16994.6    588.4   0.536301514  10.38897  -2.45772  -1.49959   1.44907
   3   17930.4    557.7   0.040733326   0.74788  -0.64953  -0.57057   0.02119
   4   22745.8    439.6   0.134390419   1.94510  -1.09739  -0.85910  -0.05271
   5   23191.5    431.2   0.405405489   5.75489  -2.00164  -1.32031   0.07160
   6   23623.0    423.3   0.049133212   0.68473  -0.71517  -0.37920   0.17166
   7   24427.6    409.4   0.003127693   0.04215   0.06020  -0.19514  -0.02114
   8   24729.0    404.4   0.033295603   0.44326   0.18575  -0.26821  -0.58036
   9   25933.0    385.6   0.170472262   2.16410   0.35676  -0.62198  -1.28451
  10   26953.5    371.0   0.032012911   0.39101  -0.07358  -0.59232  -0.18640
  11   27191.9    367.8   0.185573060   2.24673   0.83408  -0.08143  -1.24275
  12   27959.9    357.7   0.018718334   0.22040  -0.26988   0.29373   0.24755
  13   28304.8    353.3   0.295624166   3.43839  -1.49437  -1.09454   0.08488
  14   28664.6    348.9   0.120548127   1.38449   0.48001   0.57707  -0.90613
  15   28865.2    346.4   0.038679862   0.44115  -0.21761  -0.52552  -0.34297
  16   28958.8    345.3   0.155141030   1.76369   0.99437   0.77261   0.42188
  17   29139.0    343.2   0.005112774   0.05776   0.23107   0.00704   0.06573
  18   29590.3    337.9   0.192387265   2.14044  -1.13647  -0.91780  -0.08079
  19   30622.3    326.6   0.366314912   3.93815   1.78880   0.75180  -0.41610
  20   31010.4    322.5   0.039799784   0.42252   0.17278  -0.26322  -0.56867
  21   31507.0    317.4   0.008094924   0.08458   0.20797   0.19278  -0.06455
  22   31753.4    314.9   0.002430212   0.02520   0.04420   0.10763   0.10797
  23   32420.4    308.4   0.150019970   1.52337   0.50158  -0.33760  -1.07602
  24   32724.0    305.6   0.069961652   0.70383  -0.02086   0.39691   0.73882
  25   32811.5    304.8   0.031362092   0.31467   0.49902   0.16169   0.19875
  26   32848.9    304.4   0.022393251   0.22443  -0.13048   0.02771   0.45457
  27   33262.2    300.6   0.025289464   0.25030   0.13538   0.23742   0.41905
  28   33928.8    294.7   0.062891924   0.61024   0.56654  -0.45790  -0.28214
  29   33978.9    294.3   0.011908706   0.11538   0.11195  -0.23047  -0.22301
  30   34120.3    293.1   0.113956841   1.09952  -0.68188   0.70472   0.37138
  31   34790.1    287.4   0.114218936   1.08083   0.58294   0.51492  -0.68983
  32   34917.2    286.4   0.024088010   0.22711  -0.33158  -0.07475   0.33403
  33   35182.7    284.2   0.003176690   0.02972   0.02303   0.15152   0.07897
  34   35260.5    283.6   0.005086098   0.04749   0.12299  -0.16285  -0.07641
  35   35708.1    280.0   0.098286191   0.90615  -0.58209   0.19681   0.72704
  36   35806.3    279.3   0.054098566   0.49740   0.69275   0.06307   0.11626
  37   37029.5    270.1   0.001863768   0.01657  -0.04398   0.01143   0.12044
  38   37209.3    268.7   0.026460647   0.23411   0.33386  -0.02595  -0.34925
  39   37390.9    267.4   0.005485224   0.04830  -0.15772  -0.06101  -0.14035
  40   37475.5    266.8   0.071190962   0.62539  -0.24606   0.22314   0.71767
  41   37700.6    265.2   0.012081814   0.10550  -0.14438  -0.28079   0.07624
  42   37755.2    264.9   0.014656315   0.12780  -0.05638  -0.21459   0.28030
  43   38243.0    261.5   0.002249402   0.01936  -0.09441  -0.01167   0.10156
  44   38345.1    260.8   0.001536009   0.01319   0.05769  -0.05920  -0.07972
  45   38707.4    258.3   0.177086767   1.50615   0.54200   0.46948   0.99598
  46   39014.9    256.3   0.164295878   1.38635   0.95536   0.64124   0.24989
  47   39191.6    255.2   0.072885234   0.61224   0.70703  -0.25827  -0.21366
  48   39558.1    252.8   0.117752769   0.97997   0.45951  -0.31821  -0.81705
  49   40106.0    249.3   0.012825928   0.10528  -0.12991  -0.19359  -0.22568
  50   40204.9    248.7   0.002558408   0.02095   0.09109  -0.09571  -0.05908

FINAL SINGLE POINT ENERGY     -3618.607134767122

DIPOLE MOMENT
-------------
                                X             Y             Z
Electronic contribution:     -7.73794      -1.92589     -16.12412
Nuclear contribution   :      8.61529       0.47357      16.14893
                        -----------------------------------------
Total Dipole Moment    :      0.87736      -1.45232       0.02481
                        -----------------------------------------
Magnitude (a.u.)       :      1.69694
Magnitude (Debye)      :      4.31328

Rotational constants in cm-1:     0.002337     0.000330     0.000303
Rotational constants in MHz :    70.064852     9.894237     9.097121

                             ****ORCA TERMINATED NORMALLY****
TOTAL RUN TIME: 0 days 0 hours 8 minutes 2 seconds 256 msec
