                         Program Version 4.2.0 -  RELEASE  -
|  1> # ORCA input file
|  2> # SCF done       -213.925441795933          0.000625969155
|  3> ! CAM-B3LYP def2-SVP def2/J RIJCOSX Grid4 TightSCF
|  4> %maxcore 5000
|  5> %tddft
|  6>     Mode sTDDFT
|  7>     Ethresh 5.0
|  8>     maxcore 5000
|  9> end
| 10>
| 11> %pal
| 12>   nprocs 6
| 13>   end
| 14> * xyz 0 1
| 15>    C        0.68902         2.01890        -0.95033
| 16>    S        1.09321         3.42771        -0.06733
| 17>    C        2.15059         2.51397         0.97546
| 18>    C        2.14419         1.18519         0.64446
| 19>    C        1.31099         0.90690        -0.47074
| 20>    C        1.19903        -0.46006        -1.07852
| 21>    F       -0.12183        -0.72561        -1.39909
| 22>    C        1.71977        -1.54529        -0.13883
| 23>    C        3.04441        -1.11819         0.48220
| 24>    C        2.80683         0.07414         1.40280
| 25>    F        3.99590         0.47528         1.97526
| 26>    C        2.93077         3.19317         1.98119
| 27>    C        4.29678         3.32205         2.02119
| 28>    N        5.23213         2.84774         1.07362
| 29>    O        4.81148         2.36554         0.03894
| 30>    O        6.40945         2.99647         1.33653
| 31>    C        4.67280         4.11531         3.17443
| 32>    C        3.54576         4.52817         3.79402
| 33>    C        2.40132         3.97676         3.09940
| 34>    C        1.07600         4.04856         3.46541
| 35>    C        0.06497         3.08036         3.16056
| 36>    C       -1.03541         3.33302         3.92239
| 37>    C       -0.80420         4.51803         4.68816
| 38>    N       -1.79665         5.11839         5.48812
| 39>    O       -2.78561         4.45221         5.73561
| 40>    O       -1.61813         6.25971         5.87783
| 41>    C        0.47446         5.00563         4.41783
| 42>    C        1.01851         6.21552         4.87964
| 43>    C        1.92301         6.97825         4.18469
| 44>    C        2.45881         8.16492         4.70669
| 45>    N        3.21018         9.06556         3.99280
| 46>    C        3.61642         8.94308         2.61205
| 47>    C        4.81099         8.00576         2.45371
| 48>    C        3.58695        10.17765         4.77053
| 49>    O        4.23665        11.11195         4.35787
| 50>    C        3.01842         9.89607         6.07590
| 51>    C        2.34608         8.67519         6.01701
| 52>    C        1.82295         8.39946         7.34572
| 53>    O        1.23113         7.44569         7.79466
| 54>    N        2.19493         9.52373         8.11593
| 55>    C        1.77222         9.60763         9.49665
| 56>    C        0.55354        10.51137         9.65975
| 57>    C        2.90784        10.43132         7.37685
| 58>    C        3.45532        11.68056         7.70399
| 59>    C        3.42103        12.35834         8.89561
| 60>    C        3.97963        13.63042         9.10048
| 61>    C        4.40482        14.14728        10.33560
| 62>    N        4.24959        13.57987        11.61090
| 63>    O        4.69333        14.20373        12.55832
| 64>    O        3.67606        12.50369        11.71254
| 65>    C        5.10794        15.36461        10.11614
| 66>    C        5.14702        15.61582         8.77251
| 67>    C        4.40928        14.60390         8.08602
| 68>    C        3.98909        14.66457         6.76546
| 69>    C        2.74049        14.21164         6.25739
| 70>    C        2.58780        14.69112         4.99095
| 71>    C        3.76330        15.41510         4.60650
| 72>    N        3.82137        16.02419         3.34159
| 73>    O        2.97475        15.69484         2.52968
| 74>    O        4.67209        16.87388         3.12081
| 75>    C        4.67610        15.39078         5.66524
| 76>    C        6.04519        15.69641         5.77257
| 77>    C        6.85888        16.26916         4.83478
| 78>    C        8.21867        16.55436         5.06680
| 79>    S        8.97969        16.32102         6.62888
| 80>    C       10.45205        16.95900         6.05450
| 81>    C       10.39303        17.32486         4.73574
| 82>    C        9.12720        17.09805         4.16511
| 83>    C        8.81412        17.41378         2.73208
| 84>    F        8.22400        16.31514         2.13264
| 85>    C       10.07432        17.77658         1.94521
| 86>    C       10.98449        18.69219         2.75466
| 87>    C       11.52486        17.92998         3.96126
| 88>    F       12.24669        18.78128         4.77587
| 89>    H        0.01410         2.08210        -1.78039
| 90>    H        1.74141        -0.47964        -2.03531
| 91>    H        1.83886        -2.47677        -0.69262
| 92>    H        0.97528        -1.71080         0.64406
| 93>    H        3.75575        -0.82261        -0.29154
| 94>    H        3.47986        -1.93596         1.05729
| 95>    H        2.17051        -0.21943         2.25470
| 96>    H        5.69255         4.30915         3.44633
| 97>    H        3.48518         5.08340         4.70912
| 98>    H        0.20569         2.23312         2.51952
| 99>    H       -1.94831         2.76908         3.96145
|100>    H        0.61851         6.59633         5.81338
|101>    H        2.19473         6.69284         3.17833
|102>    H        3.89480         9.94956         2.28801
|103>    H        2.76888         8.60106         2.01244
|104>    H        5.65613         8.38140         3.02499
|105>    H        5.09782         7.95390         1.40746
|106>    H        4.57534         7.00203         2.80108
|107>    H        2.60394         9.93944        10.12121
|108>    H        1.50542         8.58766         9.78810
|109>    H        0.75375        11.51657         9.29600
|110>    H        0.28505        10.56987        10.71023
|111>    H       -0.28854        10.10273         9.10634
|112>    H        3.98182        12.13018         6.87124
|113>    H        3.02019        11.89087         9.78255
|114>    H        5.52405        15.96479        10.90297
|115>    H        5.53905        16.50530         8.31872
|116>    H        1.99902        13.68801         6.82832
|117>    H        1.73186        14.58121         4.35188
|118>    H        6.50873        15.40746         6.70823
|119>    H        6.46337        16.55008         3.86902
|120>    H       11.29459        17.04876         6.71176
|121>    H        8.06303        18.21581         2.67929
|122>    H        9.78788        18.25371         1.00810
|123>    H       10.60062        16.84976         1.70403
|124>    H       10.43044        19.56400         3.10955
|125>    H       11.81589        19.04230         2.14261
|126>    H       12.23550        17.15080         3.64717
|127> *
|128>
|129>                          ****END OF INPUT****

CARTESIAN COORDINATES (ANGSTROEM)
---------------------------------
  C      0.689020    2.018900   -0.950330
  S      1.093210    3.427710   -0.067330
  C      2.150590    2.513970    0.975460
  C      2.144190    1.185190    0.644460
  C      1.310990    0.906900   -0.470740
  C      1.199030   -0.460060   -1.078520
  F     -0.121830   -0.725610   -1.399090
  C      1.719770   -1.545290   -0.138830
  C      3.044410   -1.118190    0.482200
  C      2.806830    0.074140    1.402800
  F      3.995900    0.475280    1.975260
  C      2.930770    3.193170    1.981190
  C      4.296780    3.322050    2.021190
  N      5.232130    2.847740    1.073620
  O      4.811480    2.365540    0.038940
  O      6.409450    2.996470    1.336530
  C      4.672800    4.115310    3.174430
  C      3.545760    4.528170    3.794020
  C      2.401320    3.976760    3.099400
  C      1.076000    4.048560    3.465410
  C      0.064970    3.080360    3.160560
  C     -1.035410    3.333020    3.922390
  C     -0.804200    4.518030    4.688160
  N     -1.796650    5.118390    5.488120
  O     -2.785610    4.452210    5.735610
  O     -1.618130    6.259710    5.877830
  C      0.474460    5.005630    4.417830
  C      1.018510    6.215520    4.879640
  C      1.923010    6.978250    4.184690
  C      2.458810    8.164920    4.706690
  N      3.210180    9.065560    3.992800
  C      3.616420    8.943080    2.612050
  C      4.810990    8.005760    2.453710
  C      3.586950   10.177650    4.770530
  O      4.236650   11.111950    4.357870
  C      3.018420    9.896070    6.075900
  C      2.346080    8.675190    6.017010
  C      1.822950    8.399460    7.345720
  O      1.231130    7.445690    7.794660
  N      2.194930    9.523730    8.115930
  C      1.772220    9.607630    9.496650
  C      0.553540   10.511370    9.659750
  C      2.907840   10.431320    7.376850
  C      3.455320   11.680560    7.703990
  C      3.421030   12.358340    8.895610
  C      3.979630   13.630420    9.100480
  C      4.404820   14.147280   10.335600
  N      4.249590   13.579870   11.610900
  O      4.693330   14.203730   12.558320
  O      3.676060   12.503690   11.712540
  C      5.107940   15.364610   10.116140
  C      5.147020   15.615820    8.772510
  C      4.409280   14.603900    8.086020
  C      3.989090   14.664570    6.765460
  C      2.740490   14.211640    6.257390
  C      2.587800   14.691120    4.990950
  C      3.763300   15.415100    4.606500
  N      3.821370   16.024190    3.341590
  O      2.974750   15.694840    2.529680
  O      4.672090   16.873880    3.120810
  C      4.676100   15.390780    5.665240
  C      6.045190   15.696410    5.772570
  C      6.858880   16.269160    4.834780
  C      8.218670   16.554360    5.066800
  S      8.979690   16.321020    6.628880
  C     10.452050   16.959000    6.054500
  C     10.393030   17.324860    4.735740
  C      9.127200   17.098050    4.165110
  C      8.814120   17.413780    2.732080
  F      8.224000   16.315140    2.132640
  C     10.074320   17.776580    1.945210
  C     10.984490   18.692190    2.754660
  C     11.524860   17.929980    3.961260
  F     12.246690   18.781280    4.775870
  H      0.014100    2.082100   -1.780390
  H      1.741410   -0.479640   -2.035310
  H      1.838860   -2.476770   -0.692620
  H      0.975280   -1.710800    0.644060
  H      3.755750   -0.822610   -0.291540
  H      3.479860   -1.935960    1.057290
  H      2.170510   -0.219430    2.254700
  H      5.692550    4.309150    3.446330
  H      3.485180    5.083400    4.709120
  H      0.205690    2.233120    2.519520
  H     -1.948310    2.769080    3.961450
  H      0.618510    6.596330    5.813380
  H      2.194730    6.692840    3.178330
  H      3.894800    9.949560    2.288010
  H      2.768880    8.601060    2.012440
  H      5.656130    8.381400    3.024990
  H      5.097820    7.953900    1.407460
  H      4.575340    7.002030    2.801080
  H      2.603940    9.939440   10.121210
  H      1.505420    8.587660    9.788100
  H      0.753750   11.516570    9.296000
  H      0.285050   10.569870   10.710230
  H     -0.288540   10.102730    9.106340
  H      3.981820   12.130180    6.871240
  H      3.020190   11.890870    9.782550
  H      5.524050   15.964790   10.902970
  H      5.539050   16.505300    8.318720
  H      1.999020   13.688010    6.828320
  H      1.731860   14.581210    4.351880
  H      6.508730   15.407460    6.708230
  H      6.463370   16.550080    3.869020
  H     11.294590   17.048760    6.711760
  H      8.063030   18.215810    2.679290
  H      9.787880   18.253710    1.008100
  H     10.600620   16.849760    1.704030
  H     10.430440   19.564000    3.109550
  H     11.815890   19.042300    2.142610
  H     12.235500   17.150800    3.647170

 Total Charge           Charge          ....    0
 Multiplicity           Mult            ....    1
 Number of Electrons    NEL             ....  540
 Basis Dimension        Dim             .... 1234

ORBITAL ENERGIES
----------------

  NO   OCC          E(Eh)            E(eV)
   0   2.0000     -88.975051     -2421.1342
   1   2.0000     -88.970821     -2421.0191
   2   2.0000     -24.759023      -673.7273
   3   2.0000     -24.754667      -673.6087
   4   2.0000     -24.752749      -673.5565
   5   2.0000     -24.749204      -673.4601
   6   2.0000     -19.241913      -523.5991
   7   2.0000     -19.238518      -523.5067
   8   2.0000     -19.237908      -523.4901
   9   2.0000     -19.237465      -523.4780
  10   2.0000     -19.235531      -523.4254
  11   2.0000     -19.234689      -523.4025
  12   2.0000     -19.229968      -523.2740
  13   2.0000     -19.229178      -523.2525
  14   2.0000     -19.204427      -522.5790
  15   2.0000     -19.203602      -522.5566
  16   2.0000     -14.648661      -398.6103
  17   2.0000     -14.646775      -398.5590
  18   2.0000     -14.644475      -398.4964
  19   2.0000     -14.639270      -398.3548
  20   2.0000     -14.466013      -393.6402
  21   2.0000     -14.464235      -393.5918
  22   2.0000     -10.386908      -282.6421
  23   2.0000     -10.386757      -282.6380
  24   2.0000     -10.359703      -281.9018
  25   2.0000     -10.359104      -281.8856
  26   2.0000     -10.358963      -281.8817
  27   2.0000     -10.355214      -281.7797
  28   2.0000     -10.354666      -281.7648
  29   2.0000     -10.350805      -281.6597
  30   2.0000     -10.337119      -281.2873
  31   2.0000     -10.336905      -281.2815
  32   2.0000     -10.334817      -281.2247
  33   2.0000     -10.334288      -281.2103
  34   2.0000     -10.329401      -281.0773
  35   2.0000     -10.325064      -280.9593
  36   2.0000     -10.324293      -280.9383
  37   2.0000     -10.322847      -280.8989
  38   2.0000     -10.322406      -280.8870
  39   2.0000     -10.321647      -280.8663
  40   2.0000     -10.319153      -280.7984
  41   2.0000     -10.318329      -280.7760
  42   2.0000     -10.317206      -280.7454
  43   2.0000     -10.316555      -280.7277
  44   2.0000     -10.316526      -280.7270
  45   2.0000     -10.315105      -280.6883
  46   2.0000     -10.311613      -280.5933
  47   2.0000     -10.309694      -280.5410
  48   2.0000     -10.309258      -280.5292
  49   2.0000     -10.305211      -280.4190
  50   2.0000     -10.304796      -280.4078
  51   2.0000     -10.304751      -280.4065
  52   2.0000     -10.304214      -280.3919
  53   2.0000     -10.302101      -280.3344
  54   2.0000     -10.300790      -280.2987
  55   2.0000     -10.298693      -280.2417
  56   2.0000     -10.296241      -280.1750
  57   2.0000     -10.295310      -280.1496
  58   2.0000     -10.294356      -280.1237
  59   2.0000     -10.293406      -280.0978
  60   2.0000     -10.292957      -280.0856
  61   2.0000     -10.292033      -280.0605
  62   2.0000     -10.291732      -280.0523
  63   2.0000     -10.287137      -279.9272
  64   2.0000     -10.286637      -279.9136
  65   2.0000     -10.284197      -279.8472
  66   2.0000     -10.283895      -279.8390
  67   2.0000     -10.281903      -279.7848
  68   2.0000     -10.281084      -279.7625
  69   2.0000     -10.279793      -279.7274
  70   2.0000     -10.279335      -279.7149
  71   2.0000     -10.278165      -279.6831
  72   2.0000     -10.269780      -279.4549
  73   2.0000     -10.263550      -279.2854
  74   2.0000      -8.070548      -219.6108
  75   2.0000      -8.066291      -219.4949
  76   2.0000      -6.039579      -164.3453
  77   2.0000      -6.035517      -164.2348
  78   2.0000      -6.035476      -164.2337
  79   2.0000      -6.033180      -164.1712
  80   2.0000      -6.031237      -164.1183
  81   2.0000      -6.028701      -164.0493
  82   2.0000      -1.320752       -35.9395
  83   2.0000      -1.317453       -35.8497
  84   2.0000      -1.313882       -35.7526
  85   2.0000      -1.309195       -35.6250
  86   2.0000      -1.271351       -34.5952
  87   2.0000      -1.266615       -34.4664
  88   2.0000      -1.264646       -34.4128
  89   2.0000      -1.260576       -34.3020
  90   2.0000      -1.146799       -31.2060
  91   2.0000      -1.140191       -31.0262
  92   2.0000      -1.138210       -30.9723
  93   2.0000      -1.135173       -30.8896
  94   2.0000      -1.130992       -30.7759
  95   2.0000      -1.125713       -30.6322
  96   2.0000      -1.076993       -29.3065
  97   2.0000      -1.067220       -29.0405
  98   2.0000      -1.025533       -27.9062
  99   2.0000      -1.015093       -27.6221
 100   2.0000      -1.006502       -27.3883
 101   2.0000      -1.005929       -27.3727
 102   2.0000      -0.993269       -27.0282
 103   2.0000      -0.993249       -27.0277
 104   2.0000      -0.941013       -25.6063
 105   2.0000      -0.932024       -25.3617
 106   2.0000      -0.927265       -25.2322
 107   2.0000      -0.925692       -25.1894
 108   2.0000      -0.918154       -24.9842
 109   2.0000      -0.913738       -24.8641
 110   2.0000      -0.910223       -24.7684
 111   2.0000      -0.906406       -24.6646
 112   2.0000      -0.885583       -24.0979
 113   2.0000      -0.881079       -23.9754
 114   2.0000      -0.876824       -23.8596
 115   2.0000      -0.873065       -23.7573
 116   2.0000      -0.862324       -23.4650
 117   2.0000      -0.854143       -23.2424
 118   2.0000      -0.846050       -23.0222
 119   2.0000      -0.845287       -23.0014
 120   2.0000      -0.843119       -22.9424
 121   2.0000      -0.834370       -22.7044
 122   2.0000      -0.828622       -22.5480
 123   2.0000      -0.828060       -22.5327
 124   2.0000      -0.812349       -22.1051
 125   2.0000      -0.807005       -21.9597
 126   2.0000      -0.781271       -21.2595
 127   2.0000      -0.777396       -21.1540
 128   2.0000      -0.773494       -21.0478
 129   2.0000      -0.767397       -20.8819
 130   2.0000      -0.762034       -20.7360
 131   2.0000      -0.734297       -19.9812
 132   2.0000      -0.730762       -19.8850
 133   2.0000      -0.729049       -19.8384
 134   2.0000      -0.727381       -19.7930
 135   2.0000      -0.719534       -19.5795
 136   2.0000      -0.718738       -19.5579
 137   2.0000      -0.714555       -19.4440
 138   2.0000      -0.704375       -19.1670
 139   2.0000      -0.702351       -19.1120
 140   2.0000      -0.700521       -19.0622
 141   2.0000      -0.689235       -18.7551
 142   2.0000      -0.686405       -18.6780
 143   2.0000      -0.674374       -18.3506
 144   2.0000      -0.670459       -18.2441
 145   2.0000      -0.662503       -18.0276
 146   2.0000      -0.659568       -17.9478
 147   2.0000      -0.656572       -17.8662
 148   2.0000      -0.650097       -17.6901
 149   2.0000      -0.644249       -17.5309
 150   2.0000      -0.640385       -17.4258
 151   2.0000      -0.637930       -17.3589
 152   2.0000      -0.634711       -17.2714
 153   2.0000      -0.631309       -17.1788
 154   2.0000      -0.630564       -17.1585
 155   2.0000      -0.628044       -17.0900
 156   2.0000      -0.625470       -17.0199
 157   2.0000      -0.621441       -16.9103
 158   2.0000      -0.620738       -16.8911
 159   2.0000      -0.619030       -16.8447
 160   2.0000      -0.617457       -16.8019
 161   2.0000      -0.611935       -16.6516
 162   2.0000      -0.610225       -16.6051
 163   2.0000      -0.602890       -16.4055
 164   2.0000      -0.598922       -16.2975
 165   2.0000      -0.595309       -16.1992
 166   2.0000      -0.593837       -16.1591
 167   2.0000      -0.591537       -16.0965
 168   2.0000      -0.589161       -16.0319
 169   2.0000      -0.587942       -15.9987
 170   2.0000      -0.585927       -15.9439
 171   2.0000      -0.585442       -15.9307
 172   2.0000      -0.581547       -15.8247
 173   2.0000      -0.580512       -15.7965
 174   2.0000      -0.577743       -15.7212
 175   2.0000      -0.575052       -15.6480
 176   2.0000      -0.571670       -15.5559
 177   2.0000      -0.571103       -15.5405
 178   2.0000      -0.559688       -15.2299
 179   2.0000      -0.557823       -15.1791
 180   2.0000      -0.552884       -15.0447
 181   2.0000      -0.550480       -14.9793
 182   2.0000      -0.546704       -14.8766
 183   2.0000      -0.543407       -14.7869
 184   2.0000      -0.540800       -14.7159
 185   2.0000      -0.540115       -14.6973
 186   2.0000      -0.539230       -14.6732
 187   2.0000      -0.538318       -14.6484
 188   2.0000      -0.535604       -14.5745
 189   2.0000      -0.531281       -14.4569
 190   2.0000      -0.529455       -14.4072
 191   2.0000      -0.528710       -14.3869
 192   2.0000      -0.521526       -14.1914
 193   2.0000      -0.519909       -14.1474
 194   2.0000      -0.519160       -14.1271
 195   2.0000      -0.516714       -14.0605
 196   2.0000      -0.515523       -14.0281
 197   2.0000      -0.514442       -13.9987
 198   2.0000      -0.511643       -13.9225
 199   2.0000      -0.509750       -13.8710
 200   2.0000      -0.503744       -13.7076
 201   2.0000      -0.500844       -13.6287
 202   2.0000      -0.497783       -13.5454
 203   2.0000      -0.495739       -13.4898
 204   2.0000      -0.492772       -13.4090
 205   2.0000      -0.491236       -13.3672
 206   2.0000      -0.488155       -13.2834
 207   2.0000      -0.486481       -13.2378
 208   2.0000      -0.485975       -13.2240
 209   2.0000      -0.485402       -13.2085
 210   2.0000      -0.484202       -13.1758
 211   2.0000      -0.482786       -13.1373
 212   2.0000      -0.480732       -13.0814
 213   2.0000      -0.477742       -13.0000
 214   2.0000      -0.476927       -12.9778
 215   2.0000      -0.474913       -12.9230
 216   2.0000      -0.474220       -12.9042
 217   2.0000      -0.471281       -12.8242
 218   2.0000      -0.468549       -12.7499
 219   2.0000      -0.466103       -12.6833
 220   2.0000      -0.463670       -12.6171
 221   2.0000      -0.460109       -12.5202
 222   2.0000      -0.456313       -12.4169
 223   2.0000      -0.454223       -12.3600
 224   2.0000      -0.451763       -12.2931
 225   2.0000      -0.446911       -12.1611
 226   2.0000      -0.445239       -12.1156
 227   2.0000      -0.444017       -12.0823
 228   2.0000      -0.440702       -11.9921
 229   2.0000      -0.440157       -11.9773
 230   2.0000      -0.439819       -11.9681
 231   2.0000      -0.433274       -11.7900
 232   2.0000      -0.425939       -11.5904
 233   2.0000      -0.424243       -11.5442
 234   2.0000      -0.420630       -11.4459
 235   2.0000      -0.415435       -11.3046
 236   2.0000      -0.414935       -11.2909
 237   2.0000      -0.409617       -11.1462
 238   2.0000      -0.406199       -11.0532
 239   2.0000      -0.402802       -10.9608
 240   2.0000      -0.402173       -10.9437
 241   2.0000      -0.398553       -10.8452
 242   2.0000      -0.390690       -10.6312
 243   2.0000      -0.387754       -10.5513
 244   2.0000      -0.385383       -10.4868
 245   2.0000      -0.380330       -10.3493
 246   2.0000      -0.378863       -10.3094
 247   2.0000      -0.377911       -10.2835
 248   2.0000      -0.377828       -10.2812
 249   2.0000      -0.374536       -10.1917
 250   2.0000      -0.371230       -10.1017
 251   2.0000      -0.369511       -10.0549
 252   2.0000      -0.368956       -10.0398
 253   2.0000      -0.363676        -9.8961
 254   2.0000      -0.361549        -9.8382
 255   2.0000      -0.360161        -9.8005
 256   2.0000      -0.355484        -9.6732
 257   2.0000      -0.346365        -9.4251
 258   2.0000      -0.343565        -9.3489
 259   2.0000      -0.336828        -9.1656
 260   2.0000      -0.335103        -9.1186
 261   2.0000      -0.332582        -9.0500
 262   2.0000      -0.330445        -8.9919
 263   2.0000      -0.329338        -8.9618
 264   2.0000      -0.325982        -8.8704
 265   2.0000      -0.310364        -8.4454
 266   2.0000      -0.302349        -8.2273
 267   2.0000      -0.293715        -7.9924
 268   2.0000      -0.263962        -7.1828
 269   2.0000      -0.238850        -6.4994
 270   0.0000      -0.147060        -4.0017
 271   0.0000      -0.129603        -3.5267
 272   0.0000      -0.090210        -2.4547
 273   0.0000      -0.058701        -1.5973
 274   0.0000      -0.041058        -1.1172

MULLIKEN ATOMIC CHARGES
-----------------------
   0 C :   -0.105054
   1 S :    0.164773
   2 C :   -0.305241
   3 C :    0.060042
   4 C :   -0.085983
   5 C :    0.317687
   6 F :   -0.256657
   7 C :   -0.001620
   8 C :   -0.005976
   9 C :    0.311776
  10 F :   -0.244971
  11 C :    0.021166
  12 C :    0.103749
  13 N :    0.262326
  14 O :   -0.232645
  15 O :   -0.240404
  16 C :    0.025083
  17 C :   -0.005704
  18 C :    0.032941
  19 C :    0.022983
  20 C :    0.012304
  21 C :    0.023544
  22 C :    0.097052
  23 N :    0.270029
  24 O :   -0.246447
  25 O :   -0.240615
  26 C :    0.040507
  27 C :   -0.014468
  28 C :   -0.060414
  29 C :    0.142375
  30 N :   -0.258746
  31 C :    0.098161
  32 C :    0.005325
  33 C :    0.151853
  34 O :   -0.181044
  35 C :   -0.040127
  36 C :   -0.049513
  37 C :    0.156725
  38 O :   -0.182346
  39 N :   -0.258560
  40 C :    0.094218
  41 C :    0.002584
  42 C :    0.122152
  43 C :   -0.056869
  44 C :   -0.036072
  45 C :    0.047906
  46 C :    0.081447
  47 N :    0.277647
  48 O :   -0.247466
  49 O :   -0.264557
  50 C :    0.008081
  51 C :   -0.008946
  52 C :    0.024733
  53 C :    0.017184
  54 C :   -0.008641
  55 C :    0.047755
  56 C :    0.052028
  57 N :    0.277059
  58 O :   -0.252173
  59 O :   -0.263504
  60 C :    0.101035
  61 C :   -0.083494
  62 C :    0.037978
  63 C :   -0.128130
  64 S :    0.133894
  65 C :   -0.092251
  66 C :   -0.068281
  67 C :   -0.040840
  68 C :    0.304368
  69 F :   -0.249605
  70 C :    0.010199
  71 C :   -0.000949
  72 C :    0.315399
  73 F :   -0.252287
  74 H :    0.028656
  75 H :    0.019085
  76 H :    0.019267
  77 H :    0.017605
  78 H :    0.032985
  79 H :    0.020647
  80 H :    0.013665
  81 H :    0.004863
  82 H :    0.014117
  83 H :    0.000831
  84 H :    0.008564
  85 H :    0.051831
  86 H :    0.002418
  87 H :    0.047595
  88 H :    0.026201
  89 H :    0.028452
  90 H :    0.029281
  91 H :    0.006912
  92 H :    0.044382
  93 H :    0.045257
  94 H :    0.015843
  95 H :    0.032586
  96 H :    0.029917
  97 H :    0.032503
  98 H :    0.018907
  99 H :    0.003398
 100 H :   -0.004318
 101 H :   -0.003737
 102 H :    0.004641
 103 H :   -0.000894
 104 H :    0.032635
 105 H :    0.035032
 106 H :    0.028269
 107 H :    0.022523
 108 H :    0.022838
 109 H :    0.023882
 110 H :    0.021196
 111 H :    0.016697
Sum of atomic charges:   -0.0000000

LOEWDIN ATOMIC CHARGES
----------------------
   0 C :   -0.168344
   1 S :    0.463148
   2 C :   -0.182252
   3 C :   -0.064937
   4 C :   -0.085278
   5 C :    0.116499
   6 F :   -0.135203
   7 C :   -0.039070
   8 C :   -0.036776
   9 C :    0.113489
  10 F :   -0.123050
  11 C :   -0.021912
  12 C :   -0.017805
  13 N :    0.284547
  14 O :   -0.201837
  15 O :   -0.203449
  16 C :    0.003968
  17 C :   -0.037247
  18 C :    0.033951
  19 C :    0.044322
  20 C :   -0.038750
  21 C :    0.021656
  22 C :   -0.035900
  23 N :    0.283089
  24 O :   -0.211077
  25 O :   -0.203886
  26 C :    0.000401
  27 C :    0.037034
  28 C :   -0.027165
  29 C :    0.074659
  30 N :   -0.000226
  31 C :    0.038533
  32 C :   -0.063183
  33 C :    0.078919
  34 O :   -0.183316
  35 C :   -0.095644
  36 C :   -0.106901
  37 C :    0.082690
  38 O :   -0.173045
  39 N :    0.000953
  40 C :    0.037235
  41 C :   -0.060459
  42 C :    0.068917
  43 C :   -0.013704
  44 C :   -0.000351
  45 C :    0.004232
  46 C :   -0.053762
  47 N :    0.287120
  48 O :   -0.211706
  49 O :   -0.229129
  50 C :    0.012443
  51 C :   -0.045320
  52 C :    0.019361
  53 C :    0.060042
  54 C :   -0.058823
  55 C :    0.037348
  56 C :   -0.064241
  57 N :    0.288112
  58 O :   -0.214959
  59 O :   -0.223141
  60 C :    0.023209
  61 C :   -0.048979
  62 C :    0.032363
  63 C :   -0.168885
  64 S :    0.463681
  65 C :   -0.154797
  66 C :   -0.086239
  67 C :   -0.055259
  68 C :    0.114236
  69 F :   -0.125520
  70 C :   -0.036587
  71 C :   -0.038336
  72 C :    0.114430
  73 F :   -0.130366
  74 H :    0.029593
  75 H :    0.025634
  76 H :    0.033594
  77 H :    0.029579
  78 H :    0.034840
  79 H :    0.033405
  80 H :    0.023091
  81 H :    0.038327
  82 H :    0.033722
  83 H :    0.032226
  84 H :    0.040922
  85 H :    0.046397
  86 H :    0.033288
  87 H :    0.039760
  88 H :    0.024817
  89 H :    0.032444
  90 H :    0.033677
  91 H :    0.019644
  92 H :    0.029142
  93 H :    0.038812
  94 H :    0.020340
  95 H :    0.035913
  96 H :    0.032720
  97 H :    0.047579
  98 H :    0.034974
  99 H :    0.038378
 100 H :    0.029898
 101 H :    0.029552
 102 H :    0.038508
 103 H :    0.024336
 104 H :    0.034574
 105 H :    0.031754
 106 H :    0.029042
 107 H :    0.035244
 108 H :    0.031977
 109 H :    0.030952
 110 H :    0.033603
 111 H :    0.023972

  Mayer bond orders larger than 0.100000
B(  0-C ,  1-S ) :   1.1726 B(  0-C ,  2-C ) :   0.1071 B(  0-C ,  4-C ) :   1.5800
B(  0-C , 74-H ) :   0.9688 B(  1-S ,  2-C ) :   1.1608 B(  2-C ,  3-C ) :   1.5854
B(  2-C , 11-C ) :   0.9952 B(  3-C ,  4-C ) :   1.2728 B(  3-C ,  9-C ) :   0.9737
B(  4-C ,  5-C ) :   0.9691 B(  5-C ,  6-F ) :   1.0412 B(  5-C ,  7-C ) :   1.0730
B(  5-C , 75-H ) :   0.9319 B(  7-C ,  8-C ) :   1.0372 B(  7-C , 76-H ) :   0.9264
B(  7-C , 77-H ) :   0.9353 B(  8-C ,  9-C ) :   1.0582 B(  8-C , 78-H ) :   0.9434
B(  8-C , 79-H ) :   0.9275 B(  9-C , 10-F ) :   1.0240 B(  9-C , 80-H ) :   0.9357
B( 11-C , 12-C ) :   1.6498 B( 11-C , 18-C ) :   1.0861 B( 12-C , 13-N ) :   0.9183
B( 12-C , 16-C ) :   1.1125 B( 13-N , 14-O ) :   1.5386 B( 13-N , 15-O ) :   1.5336
B( 14-O , 15-O ) :   0.2733 B( 16-C , 17-C ) :   1.6006 B( 16-C , 81-H ) :   1.0118
B( 17-C , 18-C ) :   1.0958 B( 17-C , 82-H ) :   0.9944 B( 18-C , 19-C ) :   1.4969
B( 19-C , 20-C ) :   1.1432 B( 19-C , 26-C ) :   0.9949 B( 20-C , 21-C ) :   1.5461
B( 20-C , 83-H ) :   1.0076 B( 21-C , 22-C ) :   1.1413 B( 21-C , 84-H ) :   1.0147
B( 22-C , 23-N ) :   0.9421 B( 22-C , 26-C ) :   1.4904 B( 23-N , 24-O ) :   1.5248
B( 23-N , 25-O ) :   1.5024 B( 24-O , 25-O ) :   0.2650 B( 26-C , 27-C ) :   1.2041
B( 27-C , 28-C ) :   1.5024 B( 27-C , 85-H ) :   0.9244 B( 28-C , 29-C ) :   1.2084
B( 28-C , 86-H ) :   0.9551 B( 29-C , 30-N ) :   1.1726 B( 29-C , 36-C ) :   1.2800
B( 30-N , 31-C ) :   0.9384 B( 30-N , 33-C ) :   1.0390 B( 31-C , 32-C ) :   1.1209
B( 31-C , 87-H ) :   0.9287 B( 31-C , 88-H ) :   0.9497 B( 32-C , 89-H ) :   0.9604
B( 32-C , 90-H ) :   0.9653 B( 32-C , 91-H ) :   0.9667 B( 33-C , 34-O ) :   2.1283
B( 33-C , 35-C ) :   0.9702 B( 35-C , 36-C ) :   1.3060 B( 35-C , 42-C ) :   1.2779
B( 36-C , 37-C ) :   0.9680 B( 37-C , 38-O ) :   2.0760 B( 37-C , 39-N ) :   1.0505
B( 39-N , 40-C ) :   0.9304 B( 39-N , 42-C ) :   1.1796 B( 40-C , 41-C ) :   1.1189
B( 40-C , 92-H ) :   0.9510 B( 40-C , 93-H ) :   0.9238 B( 41-C , 94-H ) :   0.9683
B( 41-C , 95-H ) :   0.9676 B( 41-C , 96-H ) :   0.9620 B( 42-C , 43-C ) :   1.2539
B( 43-C , 44-C ) :   1.4471 B( 43-C , 97-H ) :   0.9355 B( 44-C , 45-C ) :   1.2223
B( 44-C , 98-H ) :   0.9490 B( 45-C , 46-C ) :   1.4296 B( 45-C , 52-C ) :   1.0343
B( 46-C , 47-N ) :   0.9588 B( 46-C , 50-C ) :   1.1762 B( 47-N , 48-O ) :   1.5369
B( 47-N , 49-O ) :   1.4791 B( 48-O , 49-O ) :   0.2531 B( 50-C , 51-C ) :   1.5234
B( 50-C , 99-H ) :   1.0114 B( 51-C , 52-C ) :   1.1668 B( 51-C ,100-H ) :   1.0036
B( 52-C , 53-C ) :   1.4388 B( 53-C , 54-C ) :   1.1792 B( 53-C , 60-C ) :   1.0067
B( 54-C , 55-C ) :   1.5423 B( 54-C ,101-H ) :   0.9981 B( 55-C , 56-C ) :   1.1534
B( 55-C ,102-H ) :   1.0024 B( 56-C , 57-N ) :   0.9663 B( 56-C , 60-C ) :   1.4371
B( 57-N , 58-O ) :   1.5344 B( 57-N , 59-O ) :   1.4658 B( 58-O , 59-O ) :   0.2429
B( 60-C , 61-C ) :   1.2205 B( 61-C , 62-C ) :   1.5493 B( 61-C ,103-H ) :   0.9561
B( 62-C , 63-C ) :   1.1991 B( 62-C ,104-H ) :   0.9369 B( 63-C , 64-S ) :   1.1159
B( 63-C , 67-C ) :   1.4566 B( 64-S , 65-C ) :   1.1958 B( 65-C , 66-C ) :   1.5372
B( 65-C ,105-H ) :   0.9685 B( 66-C , 67-C ) :   1.3348 B( 66-C , 72-C ) :   0.9603
B( 67-C , 68-C ) :   0.9892 B( 68-C , 69-F ) :   1.0153 B( 68-C , 70-C ) :   1.0698
B( 68-C ,106-H ) :   0.9222 B( 70-C , 71-C ) :   1.0407 B( 70-C ,107-H ) :   0.9259
B( 70-C ,108-H ) :   0.9346 B( 71-C , 72-C ) :   1.0712 B( 71-C ,109-H ) :   0.9418
B( 71-C ,110-H ) :   0.9285 B( 72-C , 73-F ) :   1.0479 B( 72-C ,111-H ) :   0.9299

-----------------------------------------------------------------------------
         ABSORPTION SPECTRUM VIA TRANSITION ELECTRIC DIPOLE MOMENTS
-----------------------------------------------------------------------------
State   Energy  Wavelength   fosc         T2         TX        TY        TZ
        (cm-1)    (nm)                  (au**2)     (au)      (au)      (au)
-----------------------------------------------------------------------------
   0    5029.9   1988.1   0.282073034  18.46205  -1.50650  -3.78935  -1.35402
   1    8532.1   1172.0   0.068350409   2.63730   0.72263  -0.43640  -1.38732
   2    9469.5   1056.0   0.031969844   1.11145   0.84352  -0.04093  -0.63107
   3   13957.6    716.5   0.003592923   0.08474  -0.22081  -0.09620  -0.16350
   4   16593.5    602.6   0.086168182   1.70956  -0.16235   0.83846   0.99004
   5   16765.3    596.5   0.126205814   2.47824  -0.35355  -0.71514  -1.35713
   6   17602.9    568.1   0.010343620   0.19345  -0.35198   0.20111  -0.17062
   7   17792.2    562.0   0.033767408   0.62480  -0.15030  -0.60709  -0.48338
   8   21206.7    471.5   0.011601805   0.18011  -0.05652   0.31784   0.27548
   9   22026.4    454.0   0.012412755   0.18552   0.32679  -0.17117   0.22234
  10   22213.1    450.2   0.011593648   0.17182   0.37438  -0.01626  -0.17721
  11   22984.0    435.1   0.280793748   4.02195  -1.65589  -1.13134   0.00734
  12   23498.1    425.6   0.024823752   0.34778   0.05613  -0.30615   0.50091
  13   23697.4    422.0   0.083484864   1.15980   0.38657  -0.99924   0.10897
  14   23848.8    419.3   0.010124095   0.13975   0.29619  -0.22779  -0.01173
  15   24020.9    416.3   0.060882300   0.83441   0.83204   0.37539   0.03458
  16   24353.8    410.6   0.086125679   1.16424  -0.68035  -0.26832   0.79332
  17   24863.6    402.2   0.116120548   1.53752  -0.44163  -0.46533  -1.06111
  18   25664.1    389.6   0.033026639   0.42366  -0.36140   0.42987   0.32902
  19   26061.4    383.7   0.056045308   0.70797  -0.10440  -0.74029  -0.38606
  20   26146.0    382.5   0.072141054   0.90835   0.74941   0.27953  -0.51827
  21   26486.4    377.6   0.003934964   0.04891  -0.11345   0.11221   0.15313
  22   26941.1    371.2   0.011922734   0.14569  -0.21767  -0.06591   0.30654
  23   26953.1    371.0   0.014492868   0.17702   0.17070   0.14915  -0.35445
  24   27201.9    367.6   0.016300511   0.19728  -0.32165  -0.20632  -0.22639
  25   27513.5    363.5   0.015792282   0.18896   0.42402   0.09210   0.02624
  26   28444.3    351.6   0.163338427   1.89046   1.07919  -0.34477   0.77907
  27   28891.4    346.1   0.236433275   2.69411  -0.76155   0.03493   1.45359
  28   29451.6    339.5   0.269051017   3.00747  -1.31823  -0.28701  -1.08967
  29   29741.7    336.2   0.028537011   0.31588  -0.36092   0.38052  -0.20204
  30   30179.9    331.3   0.161070851   1.75701  -0.54074   0.04018   1.20955
  31   30359.0    329.4   0.103155396   1.11861   1.00043   0.25245  -0.23242
  32   30561.5    327.2   0.007517121   0.08098  -0.22465   0.05744  -0.16495
  33   30768.2    325.0   0.111171431   1.18951  -0.16735  -0.74733  -0.77653
  34   30814.6    324.5   0.049953460   0.53369  -0.46727   0.24992  -0.50288
  35   31275.4    319.7   0.055919042   0.58862   0.11135   0.44233   0.61690
  36   31351.5    319.0   0.007043391   0.07396   0.20094   0.13819   0.12036
  37   31717.8    315.3   0.056608921   0.58757   0.50264  -0.13140  -0.56360
  38   31881.7    313.7   0.151203892   1.56134   0.25540   0.22645   1.20201
  39   31946.6    313.0   0.116718362   1.20279   0.57613  -0.26909   0.89356
  40   32178.8    310.8   0.133611326   1.36694   1.08539   0.40867   0.14782
  41   32306.9    309.5   0.051710940   0.52694   0.11463   0.71339   0.06979
  42   32507.9    307.6   0.015940086   0.16143   0.33536   0.20074   0.09309
  43   32578.1    307.0   0.180245931   1.82144  -1.19659  -0.61587  -0.10157
  44   32766.8    305.2   0.072857040   0.73200  -0.48970   0.07578   0.69746
  45   32930.0    303.7   0.086950531   0.86927   0.89630   0.03628  -0.25417
  46   33059.0    302.5   0.098014873   0.97606  -0.05153  -0.04822  -0.98543
  47   33358.3    299.8   0.022912506   0.22612   0.35149   0.32017  -0.00830
  48   33586.3    297.7   0.038129593   0.37375   0.44649  -0.16384   0.38412
  49   33784.8    296.0   0.002809098   0.02737   0.01543  -0.16361  -0.01917
  50   33960.6    294.5   0.095786407   0.92855  -0.08344  -0.30250   0.91109
  51   34375.0    290.9   0.145058251   1.38923   1.07726   0.47694  -0.03564
  52   34547.8    289.5   0.011475163   0.10935  -0.25959   0.19461   0.06395
  53   34872.4    286.8   0.010974273   0.10360   0.23155   0.14015  -0.17420
  54   35018.0    285.6   0.037818512   0.35554   0.52277   0.05662  -0.28115
  55   35240.8    283.8   0.003068170   0.02866  -0.16324  -0.04426   0.00739
  56   35508.5    281.6   0.008689234   0.08056  -0.26629   0.09730   0.01349
  57   35648.7    280.5   0.248491688   2.29480   1.46808   0.05296  -0.36979
  58   35942.9    278.2   0.036558330   0.33485  -0.31027  -0.24260  -0.42394
  59   36887.1    271.1   0.001438822   0.01284  -0.04302  -0.10296   0.01973
  60   37137.2    269.3   0.054514552   0.48326   0.27654   0.60155  -0.21194
  61   37211.3    268.7   0.073560675   0.65080   0.52856   0.40986  -0.45104
  62   37475.5    266.8   0.061166751   0.53733   0.69306   0.04173  -0.23508
  63   37903.8    263.8   0.037662933   0.32712   0.42337   0.37195   0.09762
  64   38060.9    262.7   0.018193208   0.15736  -0.07474   0.38144  -0.07926
  65   38206.7    261.7   0.048433671   0.41733   0.55033   0.24442  -0.23394
  66   38470.4    259.9   0.012364786   0.10581   0.28068  -0.16066   0.03494
  67   38573.5    259.2   0.008293150   0.07078  -0.03005  -0.21670  -0.15138
  68   38664.7    258.6   0.078625102   0.66946   0.77152  -0.13063  -0.23905
  69   38881.7    257.2   0.005814065   0.04923  -0.06358   0.16661  -0.13200
  70   39138.4    255.5   0.012421349   0.10448  -0.10490   0.29934   0.06224
  71   39229.3    254.9   0.011637009   0.09766   0.20747  -0.05167  -0.22791
  72   39268.2    254.7   0.011512562   0.09652  -0.23224  -0.18040   0.10018
  73   39453.8    253.5   0.005307581   0.04429   0.09759  -0.15474  -0.10401
  74   39529.2    253.0   0.045513458   0.37905  -0.44765   0.21789   0.36219
  75   39938.6    250.4   0.014706317   0.12122   0.28105   0.00959  -0.20529
  76   40165.7    249.0   0.009512459   0.07797   0.27674  -0.01459   0.03422

FINAL SINGLE POINT ENERGY     -4275.929875333488

DIPOLE MOMENT
-------------
                                X             Y             Z
Electronic contribution:     -1.73216      -2.54255      -2.57352
Nuclear contribution   :      3.15349       2.42705       1.26809
                        -----------------------------------------
Total Dipole Moment    :      1.42133      -0.11551      -1.30543
                        -----------------------------------------
Magnitude (a.u.)       :      1.93330
Magnitude (Debye)      :      4.91407

Rotational constants in cm-1:     0.001260     0.000330     0.000286
Rotational constants in MHz :    37.779131     9.882816     8.577185

                             ****ORCA TERMINATED NORMALLY****
TOTAL RUN TIME: 0 days 0 hours 12 minutes 36 seconds 713 msec
