                         Program Version 4.2.0 -  RELEASE  -
|  1> # ORCA input file
|  2> # SCF done       -176.713335302093          0.000992615882
|  3> ! CAM-B3LYP def2-SVP def2/J RIJCOSX Grid4 TightSCF
|  4> %maxcore 5000
|  5> %tddft
|  6>     Mode sTDDFT
|  7>     Ethresh 5.0
|  8>     maxcore 5000
|  9> end
| 10>
| 11> %pal
| 12>   nprocs 6
| 13>   end
| 14> * xyz 0 1
| 15>    C        1.28132        -1.81490        -6.76653
| 16>    S        0.06922        -2.88635        -6.17352
| 17>    C       -1.12240        -2.31991        -7.32918
| 18>    C       -0.55467        -1.35022        -8.10989
| 19>    C        0.79635        -1.06430        -7.79114
| 20>    C        1.24265        -0.00536        -8.71337
| 21>    O        2.29475         0.54287        -8.81629
| 22>    O        0.15796         0.30128        -9.50823
| 23>    C       -0.95756        -0.45649        -9.19981
| 24>    O       -2.00857        -0.31182        -9.74163
| 25>    C       -2.43955        -2.87939        -7.41193
| 26>    C       -3.07026        -3.36007        -8.53844
| 27>    N       -2.55267        -3.45815        -9.85248
| 28>    O       -1.37082        -3.22442       -10.02558
| 29>    O       -3.32063        -3.81563       -10.72166
| 30>    C       -4.35754        -3.90363        -8.16978
| 31>    C       -4.48877        -3.82417        -6.82604
| 32>    C       -3.32627        -3.16366        -6.28347
| 33>    C       -3.13713        -2.73807        -4.98524
| 34>    C       -2.40504        -1.58545        -4.57089
| 35>    C       -2.65914        -1.36369        -3.25237
| 36>    C       -3.50838        -2.40146        -2.74523
| 37>    N       -3.86050        -2.40472        -1.38555
| 38>    O       -3.25287        -1.64212        -0.65464
| 39>    O       -4.75200        -3.14414        -0.99145
| 40>    C       -3.80026        -3.29846        -3.78348
| 41>    C       -4.32916        -4.59862        -3.82928
| 42>    C       -5.02814        -5.26950        -2.85570
| 43>    C       -5.45210        -6.59539        -3.03143
| 44>    N       -6.15576        -7.29908        -2.08364
| 45>    C       -6.51695        -6.83278        -0.76331
| 46>    C       -5.33474        -6.87987         0.19952
| 47>    C       -6.46256        -8.59714        -2.50503
| 48>    O       -7.07231        -9.40515        -1.83457
| 49>    C       -5.90432        -8.68260        -3.84351
| 50>    C       -5.29035        -7.45328        -4.13771
| 51>    C       -4.74644        -7.53744        -5.47935
| 52>    O       -4.12522        -6.74488        -6.15793
| 53>    N       -5.09545        -8.82689        -5.91772
| 54>    C       -4.69227        -9.30442        -7.21956
| 55>    C       -3.45337       -10.19267        -7.14245
| 56>    C       -5.77129        -9.53247        -4.95437
| 57>    C       -6.22311       -10.85936        -5.11419
| 58>    C       -6.85435       -11.53334        -4.11100
| 59>    C       -7.31840       -12.86643        -4.19347
| 60>    S       -8.06067       -13.59766        -2.79676
| 61>    C       -8.31192       -15.09305        -3.62881
| 62>    C       -7.83527       -15.00726        -4.94614
| 63>    C       -7.28023       -13.76011        -5.25161
| 64>    C       -7.88141       -16.04015        -5.89948
| 65>    N       -7.89385       -16.84790        -6.71429
| 66>    C       -8.91989       -16.16778        -2.93116
| 67>    C       -9.19230       -17.39162        -3.44871
| 68>    C       -9.78935       -18.44242        -2.70282
| 69>    S      -10.11020       -19.97473        -3.49362
| 70>    C      -10.76808       -20.68225        -2.07276
| 71>    C      -10.74379       -19.79192        -1.04380
| 72>    C      -10.19687       -18.52804        -1.38518
| 73>    C      -10.24074       -17.70202        -0.17737
| 74>    O       -9.89457       -16.57349         0.01481
| 75>    O      -10.79372       -18.47806         0.81872
| 76>    C      -11.12331       -19.74537         0.37631
| 77>    O      -11.61335       -20.56769         1.08323
| 78>    H        2.25906        -1.81298        -6.32819
| 79>    H       -5.05373        -4.30087        -8.88264
| 80>    H       -5.35635        -4.09066        -6.25619
| 81>    H       -1.86291        -0.93209        -5.22572
| 82>    H       -2.30891        -0.54687        -2.64933
| 83>    H       -4.13080        -5.13094        -4.74995
| 84>    H       -5.27676        -4.77271        -1.93099
| 85>    H       -7.30636        -7.50287        -0.41253
| 86>    H       -6.91460        -5.81769        -0.83205
| 87>    H       -4.94615        -7.89314         0.26953
| 88>    H       -5.65933        -6.56237         1.18584
| 89>    H       -4.53788        -6.21803        -0.12974
| 90>    H       -4.46684        -8.41401        -7.81278
| 91>    H       -5.52666        -9.83503        -7.68585
| 92>    H       -2.61910        -9.63133        -6.72954
| 93>    H       -3.18324       -10.53071        -8.13870
| 94>    H       -3.63113       -11.06173        -6.51272
| 95>    H       -6.04775       -11.34087        -6.06466
| 96>    H       -7.01837       -11.03144        -3.16569
| 97>    H       -6.86870       -13.52998        -6.21801
| 98>    H       -9.17338       -15.96486        -1.89875
| 99>    H       -8.95784       -17.62117        -4.47831
|100>    H      -11.12577       -21.69239        -2.08070
|101> *
|102>
|103>                          ****END OF INPUT****

CARTESIAN COORDINATES (ANGSTROEM)
---------------------------------
  C      1.281320   -1.814900   -6.766530
  S      0.069220   -2.886350   -6.173520
  C     -1.122400   -2.319910   -7.329180
  C     -0.554670   -1.350220   -8.109890
  C      0.796350   -1.064300   -7.791140
  C      1.242650   -0.005360   -8.713370
  O      2.294750    0.542870   -8.816290
  O      0.157960    0.301280   -9.508230
  C     -0.957560   -0.456490   -9.199810
  O     -2.008570   -0.311820   -9.741630
  C     -2.439550   -2.879390   -7.411930
  C     -3.070260   -3.360070   -8.538440
  N     -2.552670   -3.458150   -9.852480
  O     -1.370820   -3.224420  -10.025580
  O     -3.320630   -3.815630  -10.721660
  C     -4.357540   -3.903630   -8.169780
  C     -4.488770   -3.824170   -6.826040
  C     -3.326270   -3.163660   -6.283470
  C     -3.137130   -2.738070   -4.985240
  C     -2.405040   -1.585450   -4.570890
  C     -2.659140   -1.363690   -3.252370
  C     -3.508380   -2.401460   -2.745230
  N     -3.860500   -2.404720   -1.385550
  O     -3.252870   -1.642120   -0.654640
  O     -4.752000   -3.144140   -0.991450
  C     -3.800260   -3.298460   -3.783480
  C     -4.329160   -4.598620   -3.829280
  C     -5.028140   -5.269500   -2.855700
  C     -5.452100   -6.595390   -3.031430
  N     -6.155760   -7.299080   -2.083640
  C     -6.516950   -6.832780   -0.763310
  C     -5.334740   -6.879870    0.199520
  C     -6.462560   -8.597140   -2.505030
  O     -7.072310   -9.405150   -1.834570
  C     -5.904320   -8.682600   -3.843510
  C     -5.290350   -7.453280   -4.137710
  C     -4.746440   -7.537440   -5.479350
  O     -4.125220   -6.744880   -6.157930
  N     -5.095450   -8.826890   -5.917720
  C     -4.692270   -9.304420   -7.219560
  C     -3.453370  -10.192670   -7.142450
  C     -5.771290   -9.532470   -4.954370
  C     -6.223110  -10.859360   -5.114190
  C     -6.854350  -11.533340   -4.111000
  C     -7.318400  -12.866430   -4.193470
  S     -8.060670  -13.597660   -2.796760
  C     -8.311920  -15.093050   -3.628810
  C     -7.835270  -15.007260   -4.946140
  C     -7.280230  -13.760110   -5.251610
  C     -7.881410  -16.040150   -5.899480
  N     -7.893850  -16.847900   -6.714290
  C     -8.919890  -16.167780   -2.931160
  C     -9.192300  -17.391620   -3.448710
  C     -9.789350  -18.442420   -2.702820
  S    -10.110200  -19.974730   -3.493620
  C    -10.768080  -20.682250   -2.072760
  C    -10.743790  -19.791920   -1.043800
  C    -10.196870  -18.528040   -1.385180
  C    -10.240740  -17.702020   -0.177370
  O     -9.894570  -16.573490    0.014810
  O    -10.793720  -18.478060    0.818720
  C    -11.123310  -19.745370    0.376310
  O    -11.613350  -20.567690    1.083230
  H      2.259060   -1.812980   -6.328190
  H     -5.053730   -4.300870   -8.882640
  H     -5.356350   -4.090660   -6.256190
  H     -1.862910   -0.932090   -5.225720
  H     -2.308910   -0.546870   -2.649330
  H     -4.130800   -5.130940   -4.749950
  H     -5.276760   -4.772710   -1.930990
  H     -7.306360   -7.502870   -0.412530
  H     -6.914600   -5.817690   -0.832050
  H     -4.946150   -7.893140    0.269530
  H     -5.659330   -6.562370    1.185840
  H     -4.537880   -6.218030   -0.129740
  H     -4.466840   -8.414010   -7.812780
  H     -5.526660   -9.835030   -7.685850
  H     -2.619100   -9.631330   -6.729540
  H     -3.183240  -10.530710   -8.138700
  H     -3.631130  -11.061730   -6.512720
  H     -6.047750  -11.340870   -6.064660
  H     -7.018370  -11.031440   -3.165690
  H     -6.868700  -13.529980   -6.218010
  H     -9.173380  -15.964860   -1.898750
  H     -8.957840  -17.621170   -4.478310
  H    -11.125770  -21.692390   -2.080700

 Total Charge           Charge          ....    0
 Multiplicity           Mult            ....    1
 Number of Electrons    NEL             ....  460
 Basis Dimension        Dim             .... 1009

ORBITAL ENERGIES
----------------

  NO   OCC          E(Eh)            E(eV)
   0   2.0000     -89.001705     -2421.8595
   1   2.0000     -88.995964     -2421.7033
   2   2.0000     -88.993868     -2421.6463
   3   2.0000     -19.291162      -524.9392
   4   2.0000     -19.277254      -524.5607
   5   2.0000     -19.244206      -523.6615
   6   2.0000     -19.244102      -523.6586
   7   2.0000     -19.241957      -523.6003
   8   2.0000     -19.241357      -523.5839
   9   2.0000     -19.240604      -523.5635
  10   2.0000     -19.235665      -523.4291
  11   2.0000     -19.224292      -523.1196
  12   2.0000     -19.223437      -523.0963
  13   2.0000     -19.221043      -523.0312
  14   2.0000     -19.206743      -522.6420
  15   2.0000     -14.652514      -398.7152
  16   2.0000     -14.650991      -398.6737
  17   2.0000     -14.478403      -393.9774
  18   2.0000     -14.468975      -393.7208
  19   2.0000     -14.429623      -392.6500
  20   2.0000     -10.437594      -284.0214
  21   2.0000     -10.432635      -283.8864
  22   2.0000     -10.421373      -283.5800
  23   2.0000     -10.420309      -283.5510
  24   2.0000     -10.400880      -283.0223
  25   2.0000     -10.390610      -282.7429
  26   2.0000     -10.365812      -282.0681
  27   2.0000     -10.354437      -281.7586
  28   2.0000     -10.353383      -281.7299
  29   2.0000     -10.351695      -281.6839
  30   2.0000     -10.343889      -281.4715
  31   2.0000     -10.343360      -281.4571
  32   2.0000     -10.339670      -281.3567
  33   2.0000     -10.339465      -281.3512
  34   2.0000     -10.339088      -281.3409
  35   2.0000     -10.335702      -281.2488
  36   2.0000     -10.335558      -281.2448
  37   2.0000     -10.334694      -281.2213
  38   2.0000     -10.331531      -281.1353
  39   2.0000     -10.330821      -281.1159
  40   2.0000     -10.330289      -281.1014
  41   2.0000     -10.328805      -281.0611
  42   2.0000     -10.325249      -280.9643
  43   2.0000     -10.322680      -280.8944
  44   2.0000     -10.322444      -280.8880
  45   2.0000     -10.318872      -280.7908
  46   2.0000     -10.317420      -280.7513
  47   2.0000     -10.316571      -280.7282
  48   2.0000     -10.316439      -280.7246
  49   2.0000     -10.315950      -280.7113
  50   2.0000     -10.314783      -280.6795
  51   2.0000     -10.307584      -280.4836
  52   2.0000     -10.307043      -280.4689
  53   2.0000     -10.306172      -280.4452
  54   2.0000     -10.305619      -280.4301
  55   2.0000     -10.304702      -280.4052
  56   2.0000     -10.295441      -280.1532
  57   2.0000     -10.291672      -280.0506
  58   2.0000     -10.290934      -280.0306
  59   2.0000     -10.290101      -280.0079
  60   2.0000     -10.283900      -279.8392
  61   2.0000     -10.281545      -279.7751
  62   2.0000     -10.267717      -279.3988
  63   2.0000      -8.097160      -220.3349
  64   2.0000      -8.091481      -220.1804
  65   2.0000      -8.088770      -220.1066
  66   2.0000      -6.066392      -165.0749
  67   2.0000      -6.061839      -164.9510
  68   2.0000      -6.060494      -164.9144
  69   2.0000      -6.059741      -164.8939
  70   2.0000      -6.058112      -164.8496
  71   2.0000      -6.056381      -164.8025
  72   2.0000      -6.053996      -164.7376
  73   2.0000      -6.053467      -164.7232
  74   2.0000      -6.051296      -164.6641
  75   2.0000      -1.323047       -36.0019
  76   2.0000      -1.322318       -35.9821
  77   2.0000      -1.238051       -33.6891
  78   2.0000      -1.223288       -33.2874
  79   2.0000      -1.166156       -31.7327
  80   2.0000      -1.159354       -31.5476
  81   2.0000      -1.151684       -31.3389
  82   2.0000      -1.146521       -31.1984
  83   2.0000      -1.141032       -31.0491
  84   2.0000      -1.138579       -30.9823
  85   2.0000      -1.127823       -30.6896
  86   2.0000      -1.113686       -30.3049
  87   2.0000      -1.087848       -29.6018
  88   2.0000      -1.074874       -29.2488
  89   2.0000      -1.034241       -28.1431
  90   2.0000      -1.028817       -27.9955
  91   2.0000      -1.026601       -27.9352
  92   2.0000      -1.013357       -27.5748
  93   2.0000      -1.008503       -27.4428
  94   2.0000      -0.998353       -27.1666
  95   2.0000      -0.950541       -25.8655
  96   2.0000      -0.944308       -25.6959
  97   2.0000      -0.927178       -25.2298
  98   2.0000      -0.922488       -25.1022
  99   2.0000      -0.916449       -24.9378
 100   2.0000      -0.898962       -24.4620
 101   2.0000      -0.892316       -24.2812
 102   2.0000      -0.890251       -24.2250
 103   2.0000      -0.887440       -24.1485
 104   2.0000      -0.885758       -24.1027
 105   2.0000      -0.878564       -23.9069
 106   2.0000      -0.877878       -23.8883
 107   2.0000      -0.855962       -23.2919
 108   2.0000      -0.839912       -22.8552
 109   2.0000      -0.836239       -22.7552
 110   2.0000      -0.826362       -22.4865
 111   2.0000      -0.805076       -21.9072
 112   2.0000      -0.797461       -21.7000
 113   2.0000      -0.781884       -21.2761
 114   2.0000      -0.775807       -21.1108
 115   2.0000      -0.773544       -21.0492
 116   2.0000      -0.764700       -20.8086
 117   2.0000      -0.757291       -20.6069
 118   2.0000      -0.743956       -20.2441
 119   2.0000      -0.738219       -20.0880
 120   2.0000      -0.734274       -19.9806
 121   2.0000      -0.730321       -19.8730
 122   2.0000      -0.725200       -19.7337
 123   2.0000      -0.720408       -19.6033
 124   2.0000      -0.706612       -19.2279
 125   2.0000      -0.696891       -18.9634
 126   2.0000      -0.695132       -18.9155
 127   2.0000      -0.692084       -18.8326
 128   2.0000      -0.683490       -18.5987
 129   2.0000      -0.675608       -18.3842
 130   2.0000      -0.668391       -18.1878
 131   2.0000      -0.660197       -17.9649
 132   2.0000      -0.658991       -17.9321
 133   2.0000      -0.646393       -17.5892
 134   2.0000      -0.641034       -17.4434
 135   2.0000      -0.633690       -17.2436
 136   2.0000      -0.633078       -17.2269
 137   2.0000      -0.631227       -17.1766
 138   2.0000      -0.626899       -17.0588
 139   2.0000      -0.619337       -16.8530
 140   2.0000      -0.612236       -16.6598
 141   2.0000      -0.604754       -16.4562
 142   2.0000      -0.599737       -16.3197
 143   2.0000      -0.599695       -16.3185
 144   2.0000      -0.599191       -16.3048
 145   2.0000      -0.596333       -16.2271
 146   2.0000      -0.589927       -16.0527
 147   2.0000      -0.589096       -16.0301
 148   2.0000      -0.585985       -15.9455
 149   2.0000      -0.579176       -15.7602
 150   2.0000      -0.577702       -15.7201
 151   2.0000      -0.571674       -15.5560
 152   2.0000      -0.568648       -15.4737
 153   2.0000      -0.567124       -15.4322
 154   2.0000      -0.561377       -15.2759
 155   2.0000      -0.559233       -15.2175
 156   2.0000      -0.554458       -15.0876
 157   2.0000      -0.548296       -14.9199
 158   2.0000      -0.547436       -14.8965
 159   2.0000      -0.543568       -14.7912
 160   2.0000      -0.541844       -14.7443
 161   2.0000      -0.538412       -14.6509
 162   2.0000      -0.534168       -14.5355
 163   2.0000      -0.533234       -14.5100
 164   2.0000      -0.530791       -14.4436
 165   2.0000      -0.527672       -14.3587
 166   2.0000      -0.525749       -14.3064
 167   2.0000      -0.521752       -14.1976
 168   2.0000      -0.517496       -14.0818
 169   2.0000      -0.516765       -14.0619
 170   2.0000      -0.511549       -13.9200
 171   2.0000      -0.509807       -13.8726
 172   2.0000      -0.508775       -13.8445
 173   2.0000      -0.507736       -13.8162
 174   2.0000      -0.506972       -13.7954
 175   2.0000      -0.503061       -13.6890
 176   2.0000      -0.499791       -13.6000
 177   2.0000      -0.496066       -13.4986
 178   2.0000      -0.494825       -13.4649
 179   2.0000      -0.494134       -13.4461
 180   2.0000      -0.493259       -13.4223
 181   2.0000      -0.492319       -13.3967
 182   2.0000      -0.491191       -13.3660
 183   2.0000      -0.485646       -13.2151
 184   2.0000      -0.483016       -13.1435
 185   2.0000      -0.481768       -13.1096
 186   2.0000      -0.480594       -13.0776
 187   2.0000      -0.473483       -12.8841
 188   2.0000      -0.470169       -12.7939
 189   2.0000      -0.467720       -12.7273
 190   2.0000      -0.463952       -12.6248
 191   2.0000      -0.461633       -12.5617
 192   2.0000      -0.458028       -12.4636
 193   2.0000      -0.456408       -12.4195
 194   2.0000      -0.455015       -12.3816
 195   2.0000      -0.453645       -12.3443
 196   2.0000      -0.453029       -12.3276
 197   2.0000      -0.451599       -12.2886
 198   2.0000      -0.445625       -12.1261
 199   2.0000      -0.444913       -12.1067
 200   2.0000      -0.433802       -11.8043
 201   2.0000      -0.432613       -11.7720
 202   2.0000      -0.425460       -11.5774
 203   2.0000      -0.414710       -11.2848
 204   2.0000      -0.401502       -10.9254
 205   2.0000      -0.396475       -10.7886
 206   2.0000      -0.393122       -10.6974
 207   2.0000      -0.391652       -10.6574
 208   2.0000      -0.390946       -10.6382
 209   2.0000      -0.388806       -10.5799
 210   2.0000      -0.380578       -10.3560
 211   2.0000      -0.379932       -10.3385
 212   2.0000      -0.378106       -10.2888
 213   2.0000      -0.374784       -10.1984
 214   2.0000      -0.373668       -10.1680
 215   2.0000      -0.372818       -10.1449
 216   2.0000      -0.367272        -9.9940
 217   2.0000      -0.365174        -9.9369
 218   2.0000      -0.361515        -9.8373
 219   2.0000      -0.357766        -9.7353
 220   2.0000      -0.354242        -9.6394
 221   2.0000      -0.352380        -9.5888
 222   2.0000      -0.348373        -9.4797
 223   2.0000      -0.345937        -9.4134
 224   2.0000      -0.341788        -9.3005
 225   2.0000      -0.337045        -9.1715
 226   2.0000      -0.311235        -8.4691
 227   2.0000      -0.301525        -8.2049
 228   2.0000      -0.292681        -7.9642
 229   2.0000      -0.247238        -6.7277
 230   0.0000      -0.147634        -4.0173
 231   0.0000      -0.107240        -2.9181
 232   0.0000      -0.082571        -2.2469
 233   0.0000      -0.057825        -1.5735
 234   0.0000      -0.043173        -1.1748

MULLIKEN ATOMIC CHARGES
-----------------------
   0 C :   -0.123769
   1 S :    0.200509
   2 C :   -0.293806
   3 C :    0.069097
   4 C :   -0.022292
   5 C :    0.245161
   6 O :   -0.108327
   7 O :   -0.249481
   8 C :    0.238111
   9 O :   -0.111261
  10 C :    0.050694
  11 C :    0.105004
  12 N :    0.271370
  13 O :   -0.241339
  14 O :   -0.231921
  15 C :    0.008601
  16 C :    0.047645
  17 C :    0.037184
  18 C :   -0.010120
  19 C :    0.013716
  20 C :    0.023773
  21 C :    0.061760
  22 N :    0.279493
  23 O :   -0.247068
  24 O :   -0.263438
  25 C :    0.098901
  26 C :   -0.093387
  27 C :   -0.002289
  28 C :    0.129706
  29 N :   -0.249055
  30 C :    0.095199
  31 C :    0.010769
  32 C :    0.168875
  33 O :   -0.210285
  34 C :   -0.075958
  35 C :   -0.048695
  36 C :    0.162702
  37 O :   -0.192485
  38 N :   -0.251096
  39 C :    0.095094
  40 C :    0.003667
  41 C :    0.147955
  42 C :   -0.035743
  43 C :    0.093009
  44 C :   -0.087202
  45 S :    0.216120
  46 C :   -0.069101
  47 C :   -0.075034
  48 C :    0.022744
  49 C :   -0.167938
  50 N :    0.122423
  51 C :    0.051200
  52 C :    0.044037
  53 C :   -0.148570
  54 S :    0.187690
  55 C :   -0.112702
  56 C :   -0.017852
  57 C :   -0.042072
  58 C :    0.264520
  59 O :   -0.128069
  60 O :   -0.243355
  61 C :    0.240625
  62 O :   -0.100710
  63 H :    0.049144
  64 H :    0.001229
  65 H :   -0.003448
  66 H :    0.005790
  67 H :    0.009249
  68 H :    0.025910
  69 H :    0.003700
  70 H :    0.043648
  71 H :    0.038529
  72 H :    0.023414
  73 H :    0.029954
  74 H :    0.019818
  75 H :    0.048418
  76 H :    0.028432
  77 H :    0.031947
  78 H :    0.031286
  79 H :    0.016730
  80 H :   -0.025531
  81 H :    0.013760
  82 H :   -0.000328
  83 H :    0.005929
  84 H :   -0.003532
  85 H :    0.053017
Sum of atomic charges:   -0.0000000

LOEWDIN ATOMIC CHARGES
----------------------
   0 C :   -0.137443
   1 S :    0.500931
   2 C :   -0.142168
   3 C :   -0.093992
   4 C :   -0.105295
   5 C :    0.105261
   6 O :   -0.107252
   7 O :   -0.066747
   8 C :    0.105428
   9 O :   -0.109157
  10 C :   -0.030980
  11 C :   -0.008469
  12 N :    0.286829
  13 O :   -0.201948
  14 O :   -0.193124
  15 C :    0.005979
  16 C :   -0.016432
  17 C :    0.033665
  18 C :    0.045734
  19 C :   -0.053872
  20 C :    0.026463
  21 C :   -0.055047
  22 N :    0.287095
  23 O :   -0.211080
  24 O :   -0.224196
  25 C :    0.010094
  26 C :   -0.000064
  27 C :   -0.000550
  28 C :    0.060137
  29 N :    0.008034
  30 C :    0.039011
  31 C :   -0.057795
  32 C :    0.077217
  33 O :   -0.199762
  34 C :   -0.119579
  35 C :   -0.097192
  36 C :    0.083878
  37 O :   -0.178161
  38 N :    0.003731
  39 C :    0.037323
  40 C :   -0.059713
  41 C :    0.087513
  42 C :   -0.050372
  43 C :    0.024989
  44 C :   -0.175135
  45 S :    0.513146
  46 C :   -0.136562
  47 C :   -0.101963
  48 C :   -0.006403
  49 C :   -0.027892
  50 N :   -0.051975
  51 C :   -0.019039
  52 C :   -0.031087
  53 C :   -0.129456
  54 S :    0.498908
  55 C :   -0.136264
  56 C :   -0.104769
  57 C :   -0.112354
  58 C :    0.111266
  59 O :   -0.117236
  60 O :   -0.064108
  61 C :    0.105308
  62 O :   -0.101300
  63 H :    0.038856
  64 H :    0.037908
  65 H :    0.030885
  66 H :    0.029646
  67 H :    0.040054
  68 H :    0.038910
  69 H :    0.029965
  70 H :    0.037994
  71 H :    0.029814
  72 H :    0.029588
  73 H :    0.034785
  74 H :    0.024086
  75 H :    0.039782
  76 H :    0.025071
  77 H :    0.033526
  78 H :    0.034202
  79 H :    0.022264
  80 H :    0.029120
  81 H :    0.038849
  82 H :    0.039758
  83 H :    0.035161
  84 H :    0.037090
  85 H :    0.040677

  Mayer bond orders larger than 0.100000
B(  0-C ,  1-S ) :   1.1918 B(  0-C ,  4-C ) :   1.5450 B(  0-C , 63-H ) :   0.9687
B(  1-S ,  2-C ) :   1.1800 B(  2-C ,  3-C ) :   1.5469 B(  2-C , 10-C ) :   1.0299
B(  3-C ,  4-C ) :   1.2381 B(  3-C ,  8-C ) :   0.9054 B(  4-C ,  5-C ) :   0.8953
B(  5-C ,  6-O ) :   2.2962 B(  5-C ,  7-O ) :   1.0425 B(  7-O ,  8-C ) :   1.0399
B(  8-C ,  9-O ) :   2.2796 B( 10-C , 11-C ) :   1.6085 B( 10-C , 17-C ) :   1.0845
B( 11-C , 12-N ) :   0.9196 B( 11-C , 15-C ) :   1.1225 B( 12-N , 13-O ) :   1.5203
B( 12-N , 14-O ) :   1.5436 B( 13-O , 14-O ) :   0.2722 B( 15-C , 16-C ) :   1.6014
B( 15-C , 64-H ) :   1.0121 B( 16-C , 17-C ) :   1.1112 B( 16-C , 65-H ) :   1.0011
B( 17-C , 18-C ) :   1.4882 B( 18-C , 19-C ) :   1.1485 B( 18-C , 25-C ) :   1.0038
B( 19-C , 20-C ) :   1.5438 B( 19-C , 66-H ) :   1.0028 B( 20-C , 21-C ) :   1.1560
B( 20-C , 67-H ) :   1.0066 B( 21-C , 22-N ) :   0.9698 B( 21-C , 25-C ) :   1.4170
B( 22-N , 23-O ) :   1.5372 B( 22-N , 24-O ) :   1.4537 B( 23-O , 24-O ) :   0.2452
B( 24-O , 69-H ) :   0.1066 B( 25-C , 26-C ) :   1.2166 B( 26-C , 27-C ) :   1.4977
B( 26-C , 68-H ) :   0.9434 B( 27-C , 28-C ) :   1.1941 B( 27-C , 69-H ) :   0.9449
B( 28-C , 29-N ) :   1.1605 B( 28-C , 35-C ) :   1.2715 B( 29-N , 30-C ) :   0.9336
B( 29-N , 32-C ) :   1.0795 B( 30-C , 31-C ) :   1.1257 B( 30-C , 70-H ) :   0.9282
B( 30-C , 71-H ) :   0.9482 B( 31-C , 72-H ) :   0.9632 B( 31-C , 73-H ) :   0.9674
B( 31-C , 74-H ) :   0.9664 B( 32-C , 33-O ) :   2.0158 B( 32-C , 34-C ) :   0.9835
B( 33-O , 81-H ) :   0.1251 B( 34-C , 35-C ) :   1.3087 B( 34-C , 41-C ) :   1.2794
B( 35-C , 36-C ) :   0.9773 B( 36-C , 37-O ) :   2.0250 B( 36-C , 38-N ) :   1.0583
B( 37-O , 68-H ) :   0.1012 B( 38-N , 39-C ) :   0.9392 B( 38-N , 41-C ) :   1.1729
B( 39-C , 40-C ) :   1.1212 B( 39-C , 75-H ) :   0.9282 B( 39-C , 76-H ) :   0.9500
B( 40-C , 77-H ) :   0.9637 B( 40-C , 78-H ) :   0.9677 B( 40-C , 79-H ) :   0.9684
B( 41-C , 42-C ) :   1.1965 B( 42-C , 43-C ) :   1.5897 B( 42-C , 80-H ) :   0.9612
B( 43-C , 44-C ) :   1.1404 B( 43-C , 81-H ) :   0.9292 B( 44-C , 45-S ) :   1.1307
B( 44-C , 48-C ) :   1.4304 B( 45-S , 46-C ) :   1.1734 B( 46-C , 47-C ) :   1.4033
B( 46-C , 51-C ) :   1.1632 B( 47-C , 48-C ) :   1.3400 B( 47-C , 49-C ) :   1.1123
B( 48-C , 82-H ) :   0.9997 B( 49-C , 50-N ) :   2.9705 B( 51-C , 52-C ) :   1.6775
B( 51-C , 83-H ) :   0.9206 B( 52-C , 53-C ) :   1.1529 B( 52-C , 84-H ) :   0.9445
B( 53-C , 54-S ) :   1.1707 B( 53-C , 57-C ) :   1.4685 B( 54-S , 55-C ) :   1.1849
B( 55-C , 56-C ) :   1.5519 B( 55-C , 85-H ) :   0.9687 B( 56-C , 57-C ) :   1.2529
B( 56-C , 61-C ) :   0.9007 B( 57-C , 58-C ) :   0.9377 B( 58-C , 59-O ) :   2.1616
B( 58-C , 60-O ) :   1.0638 B( 59-O , 83-H ) :   0.1010 B( 60-O , 61-C ) :   1.0304
B( 61-C , 62-O ) :   2.3034

-----------------------------------------------------------------------------
         ABSORPTION SPECTRUM VIA TRANSITION ELECTRIC DIPOLE MOMENTS
-----------------------------------------------------------------------------
State   Energy  Wavelength   fosc         T2         TX        TY        TZ
        (cm-1)    (nm)                  (au**2)     (au)      (au)      (au)
-----------------------------------------------------------------------------
   0    6160.8   1623.2   0.303488655  16.21734   1.53733   3.68388  -0.53197
   1   14035.7    712.5   0.019492130   0.45720  -0.24388   0.57037   0.26907
   2   15790.4    633.3   0.543083963  11.32270  -0.82328  -3.16127  -0.80701
   3   17246.9    579.8   0.005811552   0.11093  -0.15607  -0.15820   0.24809
   4   20653.6    484.2   0.316899191   5.05128   0.95606   1.98905  -0.42536
   5   21798.2    458.8   0.348456441   5.26265  -1.13834  -1.51116   1.29739
   6   23175.9    431.5   0.010780427   0.15313   0.15587   0.35232  -0.06860
   7   23514.5    425.3   0.045482504   0.63677   0.33788   0.13780  -0.70966
   8   24624.9    406.1   0.033204175   0.44391   0.10293  -0.08009  -0.65337
   9   25517.7    391.9   0.220778358   2.84833  -0.16817   0.17645   1.67000
  10   26070.4    383.6   0.021294118   0.26890   0.26933   0.29547   0.33024
  11   26348.8    379.5   0.277299254   3.46469  -0.64662  -1.18418   1.28229
  12   26656.4    375.1   0.096103595   1.18690   0.60144   0.85604  -0.30392
  13   27486.4    363.8   0.131024127   1.56931  -0.82711  -0.40331   0.85002
  14   27758.6    360.2   0.132603228   1.57265   0.31534   0.76926  -0.93885
  15   28242.1    354.1   0.003411384   0.03977  -0.05137   0.18755   0.04418
  16   28724.7    348.1   0.002703544   0.03099   0.10975   0.11746   0.07172
  17   29548.3    338.4   0.255511665   2.84678  -0.70836  -1.50942  -0.25819
  18   29826.3    335.3   0.021892058   0.24164   0.01430   0.07043  -0.48628
  19   30316.5    329.9   0.263369976   2.85998   0.17540   0.87087   1.43903
  20   31146.2    321.1   0.056471378   0.59690  -0.32696  -0.36022   0.60020
  21   31387.9    318.6   0.012939183   0.13571  -0.09268  -0.30158  -0.19020
  22   31468.8    317.8   0.076853941   0.80401   0.15878  -0.19187  -0.86139
  23   31799.0    314.5   0.001123160   0.01163   0.06655   0.02746   0.08028
  24   32194.2    310.6   0.053934198   0.55152  -0.25107  -0.46969  -0.51757
  25   32362.6    309.0   0.010129598   0.10304  -0.19123  -0.05154   0.25263
  26   32622.2    306.5   0.024899491   0.25128  -0.16810  -0.41950   0.21689
  27   33029.0    302.8   0.032645698   0.32539  -0.28997  -0.35233  -0.34231
  28   33385.1    299.5   0.134096090   1.32233   0.65640   0.69075   0.64369
  29   33683.7    296.9   0.009375189   0.09163   0.04905   0.22274   0.19902
  30   33982.5    294.3   0.006676825   0.06468   0.11801  -0.18007  -0.13540
  31   34548.2    289.5   0.069817986   0.66530   0.18074   0.61073   0.50954
  32   34675.4    288.4   0.008301303   0.07881   0.08932   0.22893   0.13575
  33   34877.4    286.7   0.020344917   0.19204   0.03020   0.04160  -0.43520
  34   35110.0    284.8   0.001887736   0.01770   0.02373   0.12980  -0.01701
  35   36178.3    276.4   0.006443182   0.05863   0.03693   0.02503   0.23799
  36   36595.7    273.3   0.058169466   0.52329  -0.35771  -0.49665  -0.38558
  37   36712.1    272.4   0.089233357   0.80019  -0.05779   0.12855   0.88336
  38   36854.1    271.3   0.038553323   0.34439  -0.12192  -0.30931  -0.48358
  39   37339.5    267.8   0.009380966   0.08271   0.00590  -0.16442  -0.23588
  40   37423.8    267.2   0.028513625   0.25083  -0.06889  -0.19551   0.45592
  41   37705.5    265.2   0.010853612   0.09476  -0.18622  -0.16192  -0.18403
  42   38697.5    258.4   0.014707716   0.12512  -0.09897  -0.32302  -0.10482
  43   38838.9    257.5   0.004966398   0.04210   0.07451   0.12102  -0.14799
  44   39364.1    254.0   0.005546600   0.04639   0.11282   0.11441  -0.14342
  45   39794.5    251.3   0.024352087   0.20146  -0.20885  -0.26914   0.29224
  46   40247.5    248.5   0.054407000   0.44503   0.27199  -0.01375  -0.60899

FINAL SINGLE POINT ENERGY     -4019.402831110901

DIPOLE MOMENT
-------------
                                X             Y             Z
Electronic contribution:     -1.40379      -4.69195      -7.62508
Nuclear contribution   :      0.61321       1.35995       8.33938
                        -----------------------------------------
Total Dipole Moment    :     -0.79058      -3.33200       0.71431
                        -----------------------------------------
Magnitude (a.u.)       :      3.49821
Magnitude (Debye)      :      8.89174

Rotational constants in cm-1:     0.002717     0.000311     0.000286
Rotational constants in MHz :    81.464557     9.323017     8.568087

                             ****ORCA TERMINATED NORMALLY****
TOTAL RUN TIME: 0 days 0 hours 9 minutes 25 seconds 300 msec
