                         Program Version 4.2.0 -  RELEASE  -
|  1> # ORCA input file
|  2> # SCF done       -179.222708018609          0.000826685109
|  3> ! CAM-B3LYP def2-SVP def2/J RIJCOSX Grid4 TightSCF
|  4> %maxcore 5000
|  5> %tddft
|  6>     Mode sTDDFT
|  7>     Ethresh 5.0
|  8>     maxcore 5000
|  9> end
| 10>
| 11> %pal
| 12>   nprocs 6
| 13>   end
| 14> * xyz 0 1
| 15>    C        0.47816         2.07563        -2.90568
| 16>    S        0.68142         3.02734        -4.31721
| 17>    C        2.15772         2.20079        -4.71434
| 18>    C        2.92285         2.55794        -5.91628
| 19>    O        3.95099         2.01639        -6.23299
| 20>    O        2.42184         3.54596        -6.67696
| 21>    C        2.46173         1.22505        -3.76615
| 22>    C        1.47583         1.17787        -2.73827
| 23>    C        3.62299         0.39088        -3.83620
| 24>    C        3.97036        -0.53405        -2.90926
| 25>    C        5.13772        -1.33777        -2.98532
| 26>    C        5.54001        -2.25739        -2.03995
| 27>    C        6.75294        -2.86524        -2.45956
| 28>    C        7.09740        -2.23952        -3.75397
| 29>    C        6.13439        -1.33140        -4.05317
| 30>    C        8.25769        -2.45467        -4.50930
| 31>    N        9.21257        -2.56679        -5.13738
| 32>    C        7.48674        -3.82728        -1.79837
| 33>    C        8.64864        -4.49701        -2.26043
| 34>    C        9.13800        -5.31363        -1.25323
| 35>    C        8.24727        -5.18750        -0.11248
| 36>    C        7.24427        -4.32635        -0.43580
| 37>    C        6.18946        -3.98024         0.41484
| 38>    N        5.33501        -3.72257         1.13860
| 39>    C       10.30557        -6.10413        -1.39841
| 40>    N       11.10726        -6.60346        -0.40654
| 41>    C       10.96461        -6.45784         1.02314
| 42>    C       10.20379        -7.63358         1.63165
| 43>    C       12.22023        -7.29622        -0.92685
| 44>    O       13.07067        -7.80388        -0.22779
| 45>    C       12.05463        -7.21694        -2.36321
| 46>    C       10.88245        -6.48284        -2.62081
| 47>    C       10.66064        -6.47480        -4.05597
| 48>    O        9.77500        -6.01969        -4.74340
| 49>    N       11.75186        -7.20019        -4.57301
| 50>    C       11.93478        -7.35245        -5.99646
| 51>    C       12.96095        -6.36358        -6.54279
| 52>    C       12.59918        -7.64119        -3.58762
| 53>    C       13.76793        -8.38618        -3.82989
| 54>    C       14.62620        -8.73718        -2.82615
| 55>    C       15.80994        -9.49289        -2.98661
| 56>    C       16.64061        -9.71897        -1.85471
| 57>    C       17.83215       -10.51740        -1.92937
| 58>    N       18.57557       -10.70659        -0.82953
| 59>    C       18.21611       -10.15698         0.30339
| 60>    C       17.03576        -9.34649         0.37034
| 61>    N       16.29445        -9.15455        -0.69173
| 62>    C       16.66606        -8.73485         1.59533
| 63>    N       16.40945        -8.26039         2.60555
| 64>    C       19.01674       -10.37059         1.45312
| 65>    N       19.65013       -10.53146         2.39356
| 66>    C       18.26773       -11.12858        -3.12769
| 67>    C       17.46286       -10.88462        -4.26263
| 68>    C       16.26108       -10.07967        -4.19466
| 69>    N       15.66783        -9.99005        -5.38532
| 70>    S       16.51644       -10.81608        -6.46973
| 71>    N       17.67983       -11.33747        -5.49919
| 72>    C       19.44097       -11.93521        -3.15560
| 73>    S       20.39240       -12.18511        -1.72439
| 74>    C       21.50758       -13.19601        -2.59620
| 75>    C       22.66248       -13.79199        -1.90795
| 76>    O       23.45867       -14.51935        -2.44422
| 77>    O       22.80856       -13.48147        -0.60803
| 78>    C       21.14869       -13.33384        -3.93617
| 79>    C       19.97895       -12.61002        -4.23009
| 80>    C       21.89140       -14.12171        -4.90127
| 81>    C       21.50593       -14.34143        -6.15421
| 82>    H       -0.37813         2.24577        -2.28321
| 83>    H        1.59625         3.91917        -6.34116
| 84>    H        1.51142         0.49694        -1.90824
| 85>    H        4.24854         0.54795        -4.70128
| 86>    H        3.35668        -0.69524        -2.03273
| 87>    H        5.01654        -2.49675        -1.13485
| 88>    H        6.10733        -0.70246        -4.92294
| 89>    H        9.07495        -4.38365        -3.23694
| 90>    H        8.32320        -5.71914         0.81610
| 91>    H       10.47924        -5.50436         1.23998
| 92>    H       11.97771        -6.44098         1.43641
| 93>    H        9.22758        -7.75763         1.16696
| 94>    H       10.07027        -7.47473         2.69807
| 95>    H       10.77113        -8.54930         1.48603
| 96>    H       10.95866        -7.15498        -6.44810
| 97>    H       12.22850        -8.38209        -6.21809
| 98>    H       12.63507        -5.34541        -6.34535
| 99>    H       13.06007        -6.49350        -7.61671
|100>    H       13.93313        -6.51597        -6.07920
|101>    H       13.99410        -8.68103        -4.84367
|102>    H       14.41983        -8.42634        -1.81019
|103>    H       22.12302       -12.89258        -0.26475
|104>    H       19.52399       -12.56463        -5.20130
|105>    H       22.81040       -14.54968        -4.53026
|106>    H       20.59094       -13.94808        -6.56464
|107>    H       22.10468       -14.93957        -6.81868
|108> *
|109>
|110>                          ****END OF INPUT****

CARTESIAN COORDINATES (ANGSTROEM)
---------------------------------
  C      0.478160    2.075630   -2.905680
  S      0.681420    3.027340   -4.317210
  C      2.157720    2.200790   -4.714340
  C      2.922850    2.557940   -5.916280
  O      3.950990    2.016390   -6.232990
  O      2.421840    3.545960   -6.676960
  C      2.461730    1.225050   -3.766150
  C      1.475830    1.177870   -2.738270
  C      3.622990    0.390880   -3.836200
  C      3.970360   -0.534050   -2.909260
  C      5.137720   -1.337770   -2.985320
  C      5.540010   -2.257390   -2.039950
  C      6.752940   -2.865240   -2.459560
  C      7.097400   -2.239520   -3.753970
  C      6.134390   -1.331400   -4.053170
  C      8.257690   -2.454670   -4.509300
  N      9.212570   -2.566790   -5.137380
  C      7.486740   -3.827280   -1.798370
  C      8.648640   -4.497010   -2.260430
  C      9.138000   -5.313630   -1.253230
  C      8.247270   -5.187500   -0.112480
  C      7.244270   -4.326350   -0.435800
  C      6.189460   -3.980240    0.414840
  N      5.335010   -3.722570    1.138600
  C     10.305570   -6.104130   -1.398410
  N     11.107260   -6.603460   -0.406540
  C     10.964610   -6.457840    1.023140
  C     10.203790   -7.633580    1.631650
  C     12.220230   -7.296220   -0.926850
  O     13.070670   -7.803880   -0.227790
  C     12.054630   -7.216940   -2.363210
  C     10.882450   -6.482840   -2.620810
  C     10.660640   -6.474800   -4.055970
  O      9.775000   -6.019690   -4.743400
  N     11.751860   -7.200190   -4.573010
  C     11.934780   -7.352450   -5.996460
  C     12.960950   -6.363580   -6.542790
  C     12.599180   -7.641190   -3.587620
  C     13.767930   -8.386180   -3.829890
  C     14.626200   -8.737180   -2.826150
  C     15.809940   -9.492890   -2.986610
  C     16.640610   -9.718970   -1.854710
  C     17.832150  -10.517400   -1.929370
  N     18.575570  -10.706590   -0.829530
  C     18.216110  -10.156980    0.303390
  C     17.035760   -9.346490    0.370340
  N     16.294450   -9.154550   -0.691730
  C     16.666060   -8.734850    1.595330
  N     16.409450   -8.260390    2.605550
  C     19.016740  -10.370590    1.453120
  N     19.650130  -10.531460    2.393560
  C     18.267730  -11.128580   -3.127690
  C     17.462860  -10.884620   -4.262630
  C     16.261080  -10.079670   -4.194660
  N     15.667830   -9.990050   -5.385320
  S     16.516440  -10.816080   -6.469730
  N     17.679830  -11.337470   -5.499190
  C     19.440970  -11.935210   -3.155600
  S     20.392400  -12.185110   -1.724390
  C     21.507580  -13.196010   -2.596200
  C     22.662480  -13.791990   -1.907950
  O     23.458670  -14.519350   -2.444220
  O     22.808560  -13.481470   -0.608030
  C     21.148690  -13.333840   -3.936170
  C     19.978950  -12.610020   -4.230090
  C     21.891400  -14.121710   -4.901270
  C     21.505930  -14.341430   -6.154210
  H     -0.378130    2.245770   -2.283210
  H      1.596250    3.919170   -6.341160
  H      1.511420    0.496940   -1.908240
  H      4.248540    0.547950   -4.701280
  H      3.356680   -0.695240   -2.032730
  H      5.016540   -2.496750   -1.134850
  H      6.107330   -0.702460   -4.922940
  H      9.074950   -4.383650   -3.236940
  H      8.323200   -5.719140    0.816100
  H     10.479240   -5.504360    1.239980
  H     11.977710   -6.440980    1.436410
  H      9.227580   -7.757630    1.166960
  H     10.070270   -7.474730    2.698070
  H     10.771130   -8.549300    1.486030
  H     10.958660   -7.154980   -6.448100
  H     12.228500   -8.382090   -6.218090
  H     12.635070   -5.345410   -6.345350
  H     13.060070   -6.493500   -7.616710
  H     13.933130   -6.515970   -6.079200
  H     13.994100   -8.681030   -4.843670
  H     14.419830   -8.426340   -1.810190
  H     22.123020  -12.892580   -0.264750
  H     19.523990  -12.564630   -5.201300
  H     22.810400  -14.549680   -4.530260
  H     20.590940  -13.948080   -6.564640
  H     22.104680  -14.939570   -6.818680

 Total Charge           Charge          ....    0
 Multiplicity           Mult            ....    1
 Number of Electrons    NEL             ....  480
 Basis Dimension        Dim             .... 1080

ORBITAL ENERGIES
----------------

  NO   OCC          E(Eh)            E(eV)
   0   2.0000     -89.059716     -2423.4381
   1   2.0000     -88.988689     -2421.5053
   2   2.0000     -88.970383     -2421.0072
   3   2.0000     -19.270459      -524.3759
   4   2.0000     -19.251630      -523.8635
   5   2.0000     -19.209094      -522.7060
   6   2.0000     -19.202437      -522.5249
   7   2.0000     -19.195484      -522.3357
   8   2.0000     -19.191259      -522.2207
   9   2.0000     -14.474998      -393.8847
  10   2.0000     -14.468946      -393.7200
  11   2.0000     -14.468707      -393.7135
  12   2.0000     -14.468329      -393.7032
  13   2.0000     -14.464793      -393.6070
  14   2.0000     -14.458375      -393.4324
  15   2.0000     -14.440055      -392.9339
  16   2.0000     -14.431640      -392.7049
  17   2.0000     -14.410933      -392.1414
  18   2.0000     -14.405134      -391.9836
  19   2.0000     -10.420090      -283.5451
  20   2.0000     -10.401135      -283.0293
  21   2.0000     -10.394886      -282.8592
  22   2.0000     -10.388765      -282.6927
  23   2.0000     -10.383387      -282.5463
  24   2.0000     -10.379494      -282.4404
  25   2.0000     -10.358796      -281.8772
  26   2.0000     -10.358495      -281.8690
  27   2.0000     -10.358111      -281.8585
  28   2.0000     -10.357086      -281.8306
  29   2.0000     -10.352012      -281.6926
  30   2.0000     -10.346258      -281.5360
  31   2.0000     -10.333566      -281.1906
  32   2.0000     -10.333103      -281.1780
  33   2.0000     -10.328581      -281.0550
  34   2.0000     -10.327569      -281.0274
  35   2.0000     -10.325610      -280.9741
  36   2.0000     -10.325167      -280.9621
  37   2.0000     -10.324979      -280.9570
  38   2.0000     -10.324962      -280.9565
  39   2.0000     -10.320204      -280.8270
  40   2.0000     -10.318085      -280.7694
  41   2.0000     -10.316993      -280.7397
  42   2.0000     -10.315755      -280.7060
  43   2.0000     -10.315055      -280.6869
  44   2.0000     -10.313309      -280.6394
  45   2.0000     -10.312902      -280.6283
  46   2.0000     -10.310989      -280.5763
  47   2.0000     -10.310065      -280.5511
  48   2.0000     -10.308311      -280.5034
  49   2.0000     -10.307573      -280.4833
  50   2.0000     -10.306027      -280.4413
  51   2.0000     -10.303082      -280.3611
  52   2.0000     -10.301294      -280.3124
  53   2.0000     -10.298986      -280.2496
  54   2.0000     -10.298408      -280.2339
  55   2.0000     -10.297371      -280.2057
  56   2.0000     -10.296938      -280.1939
  57   2.0000     -10.292994      -280.0866
  58   2.0000     -10.289307      -279.9863
  59   2.0000     -10.284920      -279.8669
  60   2.0000     -10.284080      -279.8440
  61   2.0000     -10.274033      -279.5706
  62   2.0000     -10.272651      -279.5331
  63   2.0000     -10.269036      -279.4347
  64   2.0000     -10.265688      -279.3436
  65   2.0000     -10.265075      -279.3269
  66   2.0000     -10.263865      -279.2940
  67   2.0000      -8.150967      -221.7991
  68   2.0000      -8.084865      -220.0004
  69   2.0000      -8.064129      -219.4361
  70   2.0000      -6.122092      -166.5906
  71   2.0000      -6.114125      -166.3738
  72   2.0000      -6.113827      -166.3657
  73   2.0000      -6.054084      -164.7400
  74   2.0000      -6.049803      -164.6235
  75   2.0000      -6.047246      -164.5539
  76   2.0000      -6.033657      -164.1841
  77   2.0000      -6.029110      -164.0604
  78   2.0000      -6.026344      -163.9852
  79   2.0000      -1.194925       -32.5156
  80   2.0000      -1.176049       -32.0019
  81   2.0000      -1.156475       -31.4693
  82   2.0000      -1.143596       -31.1188
  83   2.0000      -1.134978       -30.8843
  84   2.0000      -1.132718       -30.8228
  85   2.0000      -1.107879       -30.1469
  86   2.0000      -1.088951       -29.6319
  87   2.0000      -1.073273       -29.2052
  88   2.0000      -1.063651       -28.9434
  89   2.0000      -1.059161       -28.8212
  90   2.0000      -1.022771       -27.8310
  91   2.0000      -1.017291       -27.6819
  92   2.0000      -1.012836       -27.5607
  93   2.0000      -1.010464       -27.4961
  94   2.0000      -1.008476       -27.4420
  95   2.0000      -1.000775       -27.2325
  96   2.0000      -0.999421       -27.1956
  97   2.0000      -0.985598       -26.8195
  98   2.0000      -0.980798       -26.6889
  99   2.0000      -0.980701       -26.6862
 100   2.0000      -0.936732       -25.4898
 101   2.0000      -0.926222       -25.2038
 102   2.0000      -0.919643       -25.0248
 103   2.0000      -0.918253       -24.9869
 104   2.0000      -0.897290       -24.4165
 105   2.0000      -0.886667       -24.1274
 106   2.0000      -0.878233       -23.8979
 107   2.0000      -0.873835       -23.7783
 108   2.0000      -0.867190       -23.5974
 109   2.0000      -0.859103       -23.3774
 110   2.0000      -0.853410       -23.2225
 111   2.0000      -0.851168       -23.1615
 112   2.0000      -0.839487       -22.8436
 113   2.0000      -0.831210       -22.6184
 114   2.0000      -0.826790       -22.4981
 115   2.0000      -0.818958       -22.2850
 116   2.0000      -0.810654       -22.0590
 117   2.0000      -0.804010       -21.8782
 118   2.0000      -0.788460       -21.4551
 119   2.0000      -0.769754       -20.9461
 120   2.0000      -0.765971       -20.8431
 121   2.0000      -0.751880       -20.4597
 122   2.0000      -0.747933       -20.3523
 123   2.0000      -0.736335       -20.0367
 124   2.0000      -0.727329       -19.7916
 125   2.0000      -0.724360       -19.7108
 126   2.0000      -0.720739       -19.6123
 127   2.0000      -0.719032       -19.5659
 128   2.0000      -0.714332       -19.4380
 129   2.0000      -0.700642       -19.0654
 130   2.0000      -0.700449       -19.0602
 131   2.0000      -0.697360       -18.9761
 132   2.0000      -0.687520       -18.7084
 133   2.0000      -0.680848       -18.5268
 134   2.0000      -0.674374       -18.3506
 135   2.0000      -0.673696       -18.3322
 136   2.0000      -0.669826       -18.2269
 137   2.0000      -0.667006       -18.1502
 138   2.0000      -0.656461       -17.8632
 139   2.0000      -0.644105       -17.5270
 140   2.0000      -0.643501       -17.5106
 141   2.0000      -0.640517       -17.4294
 142   2.0000      -0.635582       -17.2951
 143   2.0000      -0.623143       -16.9566
 144   2.0000      -0.621795       -16.9199
 145   2.0000      -0.618949       -16.8425
 146   2.0000      -0.604168       -16.4402
 147   2.0000      -0.593806       -16.1583
 148   2.0000      -0.591265       -16.0891
 149   2.0000      -0.584740       -15.9116
 150   2.0000      -0.577999       -15.7281
 151   2.0000      -0.575033       -15.6474
 152   2.0000      -0.569737       -15.5033
 153   2.0000      -0.569485       -15.4965
 154   2.0000      -0.565066       -15.3762
 155   2.0000      -0.563456       -15.3324
 156   2.0000      -0.551469       -15.0062
 157   2.0000      -0.549027       -14.9398
 158   2.0000      -0.548011       -14.9121
 159   2.0000      -0.543796       -14.7974
 160   2.0000      -0.541828       -14.7439
 161   2.0000      -0.541213       -14.7272
 162   2.0000      -0.537743       -14.6327
 163   2.0000      -0.536409       -14.5964
 164   2.0000      -0.533455       -14.5160
 165   2.0000      -0.530783       -14.4433
 166   2.0000      -0.527021       -14.3410
 167   2.0000      -0.525069       -14.2878
 168   2.0000      -0.524407       -14.2698
 169   2.0000      -0.521516       -14.1912
 170   2.0000      -0.521042       -14.1783
 171   2.0000      -0.514420       -13.9981
 172   2.0000      -0.509432       -13.8624
 173   2.0000      -0.508666       -13.8415
 174   2.0000      -0.507556       -13.8113
 175   2.0000      -0.504620       -13.7314
 176   2.0000      -0.502648       -13.6777
 177   2.0000      -0.501423       -13.6444
 178   2.0000      -0.497704       -13.5432
 179   2.0000      -0.494950       -13.4683
 180   2.0000      -0.494614       -13.4591
 181   2.0000      -0.492199       -13.3934
 182   2.0000      -0.488273       -13.2866
 183   2.0000      -0.485696       -13.2165
 184   2.0000      -0.482342       -13.1252
 185   2.0000      -0.476675       -12.9710
 186   2.0000      -0.475520       -12.9396
 187   2.0000      -0.474923       -12.9233
 188   2.0000      -0.474038       -12.8992
 189   2.0000      -0.470908       -12.8141
 190   2.0000      -0.467506       -12.7215
 191   2.0000      -0.465965       -12.6795
 192   2.0000      -0.464536       -12.6407
 193   2.0000      -0.462487       -12.5849
 194   2.0000      -0.461542       -12.5592
 195   2.0000      -0.456290       -12.4163
 196   2.0000      -0.455615       -12.3979
 197   2.0000      -0.454065       -12.3557
 198   2.0000      -0.452185       -12.3046
 199   2.0000      -0.450889       -12.2693
 200   2.0000      -0.448005       -12.1908
 201   2.0000      -0.446963       -12.1625
 202   2.0000      -0.442856       -12.0507
 203   2.0000      -0.440462       -11.9856
 204   2.0000      -0.439429       -11.9575
 205   2.0000      -0.438928       -11.9438
 206   2.0000      -0.434097       -11.8124
 207   2.0000      -0.433695       -11.8014
 208   2.0000      -0.432852       -11.7785
 209   2.0000      -0.430317       -11.7095
 210   2.0000      -0.430005       -11.7010
 211   2.0000      -0.426534       -11.6066
 212   2.0000      -0.422161       -11.4876
 213   2.0000      -0.420943       -11.4544
 214   2.0000      -0.417628       -11.3642
 215   2.0000      -0.415022       -11.2933
 216   2.0000      -0.406340       -11.0571
 217   2.0000      -0.398872       -10.8539
 218   2.0000      -0.397607       -10.8194
 219   2.0000      -0.396426       -10.7873
 220   2.0000      -0.392807       -10.6888
 221   2.0000      -0.390495       -10.6259
 222   2.0000      -0.379878       -10.3370
 223   2.0000      -0.371415       -10.1067
 224   2.0000      -0.362210        -9.8562
 225   2.0000      -0.361625        -9.8403
 226   2.0000      -0.360002        -9.7962
 227   2.0000      -0.355500        -9.6736
 228   2.0000      -0.352416        -9.5897
 229   2.0000      -0.341337        -9.2882
 230   2.0000      -0.341082        -9.2813
 231   2.0000      -0.339737        -9.2447
 232   2.0000      -0.339292        -9.2326
 233   2.0000      -0.326178        -8.8757
 234   2.0000      -0.324955        -8.8425
 235   2.0000      -0.313109        -8.5201
 236   2.0000      -0.301726        -8.2104
 237   2.0000      -0.284912        -7.7528
 238   2.0000      -0.279415        -7.6033
 239   2.0000      -0.236521        -6.4361
 240   0.0000      -0.144158        -3.9227
 241   0.0000      -0.125042        -3.4026
 242   0.0000      -0.071344        -1.9414
 243   0.0000      -0.057288        -1.5589
 244   0.0000      -0.050021        -1.3611

MULLIKEN ATOMIC CHARGES
-----------------------
   0 C :   -0.035322
   1 S :    0.095227
   2 C :   -0.234662
   3 C :    0.201520
   4 O :   -0.177350
   5 O :   -0.156983
   6 C :    0.104503
   7 C :    0.014211
   8 C :   -0.012073
   9 C :    0.013357
  10 C :    0.116022
  11 C :   -0.113713
  12 C :    0.121244
  13 C :   -0.082356
  14 C :   -0.007449
  15 C :   -0.176682
  16 N :    0.144332
  17 C :    0.109977
  18 C :   -0.096138
  19 C :    0.035196
  20 C :   -0.030358
  21 C :   -0.095997
  22 C :   -0.183500
  23 N :    0.134826
  24 C :    0.156072
  25 N :   -0.255912
  26 C :    0.102851
  27 C :    0.000522
  28 C :    0.159489
  29 O :   -0.190512
  30 C :   -0.057414
  31 C :   -0.059369
  32 C :    0.147653
  33 O :   -0.183142
  34 N :   -0.259657
  35 C :    0.102194
  36 C :    0.001226
  37 C :    0.155173
  38 C :   -0.006649
  39 C :   -0.090917
  40 C :    0.100296
  41 C :   -0.051679
  42 C :   -0.050239
  43 N :   -0.007311
  44 C :   -0.095264
  45 C :   -0.146468
  46 N :    0.085404
  47 C :   -0.199762
  48 N :    0.239793
  49 C :   -0.234628
  50 N :    0.251633
  51 C :    0.198092
  52 C :   -0.008321
  53 C :    0.023552
  54 N :   -0.290847
  55 S :    0.561541
  56 N :   -0.285191
  57 C :   -0.148234
  58 S :    0.109476
  59 C :   -0.182977
  60 C :    0.187425
  61 O :   -0.174894
  62 O :   -0.160260
  63 C :    0.111158
  64 C :   -0.041588
  65 C :   -0.014795
  66 C :   -0.006310
  67 H :    0.043934
  68 H :    0.180245
  69 H :    0.006452
  70 H :    0.019387
  71 H :   -0.015323
  72 H :   -0.001264
  73 H :    0.018264
  74 H :    0.027453
  75 H :   -0.012473
  76 H :    0.026194
  77 H :    0.046926
  78 H :    0.018290
  79 H :    0.029266
  80 H :    0.035990
  81 H :    0.046381
  82 H :    0.023018
  83 H :    0.039770
  84 H :    0.022872
  85 H :    0.013600
  86 H :   -0.005814
  87 H :    0.027196
  88 H :    0.179986
  89 H :   -0.003995
  90 H :    0.020404
  91 H :    0.007229
  92 H :    0.026971
Sum of atomic charges:    0.0000000

LOEWDIN ATOMIC CHARGES
----------------------
   0 C :   -0.153053
   1 S :    0.439410
   2 C :   -0.235086
   3 C :    0.071529
   4 O :   -0.160162
   5 O :   -0.029962
   6 C :   -0.025080
   7 C :   -0.044762
   8 C :    0.007048
   9 C :   -0.009448
  10 C :    0.000787
  11 C :   -0.036058
  12 C :    0.055932
  13 C :   -0.072118
  14 C :    0.059113
  15 C :   -0.032788
  16 N :   -0.049254
  17 C :    0.018425
  18 C :    0.023768
  19 C :   -0.043961
  20 C :    0.039137
  21 C :   -0.081337
  22 C :   -0.030363
  23 N :   -0.067107
  24 C :    0.079585
  25 N :    0.004347
  26 C :    0.037601
  27 C :   -0.061864
  28 C :    0.080878
  29 O :   -0.180382
  30 C :   -0.107071
  31 C :   -0.108536
  32 C :    0.080397
  33 O :   -0.178132
  34 N :    0.001032
  35 C :    0.037294
  36 C :   -0.060315
  37 C :    0.073812
  38 C :   -0.023265
  39 C :    0.023720
  40 C :   -0.024793
  41 C :    0.000620
  42 C :   -0.013432
  43 N :   -0.019871
  44 C :   -0.015569
  45 C :   -0.025605
  46 N :    0.021459
  47 C :   -0.033213
  48 N :   -0.000980
  49 C :   -0.037973
  50 N :    0.002291
  51 C :   -0.030141
  52 C :   -0.035897
  53 C :   -0.034034
  54 N :   -0.277223
  55 S :    0.684147
  56 N :   -0.273879
  57 C :   -0.158657
  58 S :    0.461640
  59 C :   -0.231427
  60 C :    0.067618
  61 O :   -0.157644
  62 O :   -0.032871
  63 C :   -0.026413
  64 C :   -0.020834
  65 C :   -0.020206
  66 C :   -0.031835
  67 H :    0.032644
  68 H :    0.075818
  69 H :    0.036439
  70 H :    0.035124
  71 H :    0.032030
  72 H :    0.034292
  73 H :    0.042905
  74 H :    0.039455
  75 H :    0.035328
  76 H :    0.025261
  77 H :    0.040368
  78 H :    0.020042
  79 H :    0.033304
  80 H :    0.035455
  81 H :    0.039030
  82 H :    0.023320
  83 H :    0.036125
  84 H :    0.030672
  85 H :    0.021483
  86 H :    0.028163
  87 H :    0.039707
  88 H :    0.073217
  89 H :    0.028715
  90 H :    0.036854
  91 H :    0.017302
  92 H :    0.027961

  Mayer bond orders larger than 0.100000
B(  0-C ,  1-S ) :   1.1720 B(  0-C ,  7-C ) :   1.5971 B(  0-C , 67-H ) :   0.9672
B(  1-S ,  2-C ) :   1.1088 B(  2-C ,  3-C ) :   0.9649 B(  2-C ,  6-C ) :   1.4789
B(  3-C ,  4-O ) :   2.1076 B(  3-C ,  5-O ) :   1.2498 B(  5-O , 68-H ) :   0.9485
B(  6-C ,  7-C ) :   1.2330 B(  6-C ,  8-C ) :   1.1188 B(  7-C , 69-H ) :   0.9931
B(  8-C ,  9-C ) :   1.6178 B(  8-C , 70-H ) :   0.9633 B(  9-C , 10-C ) :   1.1243
B(  9-C , 71-H ) :   0.9773 B( 10-C , 11-C ) :   1.5105 B( 10-C , 14-C ) :   1.0308
B( 11-C , 12-C ) :   1.1277 B( 11-C , 72-H ) :   1.0098 B( 12-C , 13-C ) :   1.0970
B( 12-C , 17-C ) :   1.3832 B( 13-C , 14-C ) :   1.6901 B( 13-C , 15-C ) :   1.0893
B( 14-C , 73-H ) :   1.0183 B( 15-C , 16-N ) :   2.9796 B( 17-C , 18-C ) :   1.1271
B( 17-C , 21-C ) :   1.1102 B( 18-C , 19-C ) :   1.5302 B( 18-C , 74-H ) :   0.9910
B( 19-C , 20-C ) :   1.0422 B( 19-C , 24-C ) :   1.0446 B( 20-C , 21-C ) :   1.6497
B( 20-C , 75-H ) :   1.0240 B( 21-C , 22-C ) :   1.0860 B( 22-C , 23-N ) :   2.9671
B( 24-C , 25-N ) :   1.2119 B( 24-C , 31-C ) :   1.3385 B( 25-N , 26-C ) :   0.9381
B( 25-N , 28-C ) :   1.0416 B( 26-C , 27-C ) :   1.1196 B( 26-C , 76-H ) :   0.9496
B( 26-C , 77-H ) :   0.9280 B( 27-C , 78-H ) :   0.9649 B( 27-C , 79-H ) :   0.9683
B( 27-C , 80-H ) :   0.9602 B( 28-C , 29-O ) :   2.0435 B( 28-C , 30-C ) :   0.9835
B( 30-C , 31-C ) :   1.2767 B( 30-C , 37-C ) :   1.2882 B( 31-C , 32-C ) :   0.9685
B( 32-C , 33-O ) :   2.1038 B( 32-C , 34-N ) :   1.0422 B( 34-N , 35-C ) :   0.9437
B( 34-N , 37-C ) :   1.1679 B( 35-C , 36-C ) :   1.1215 B( 35-C , 81-H ) :   0.9269
B( 35-C , 82-H ) :   0.9489 B( 36-C , 83-H ) :   0.9639 B( 36-C , 84-H ) :   0.9678
B( 36-C , 85-H ) :   0.9676 B( 37-C , 38-C ) :   1.1723 B( 38-C , 39-C ) :   1.4746
B( 38-C , 86-H ) :   0.9518 B( 39-C , 40-C ) :   1.2415 B( 39-C , 87-H ) :   0.9453
B( 40-C , 41-C ) :   1.2177 B( 40-C , 51-C ) :   0.1288 B( 40-C , 53-C ) :   1.1546
B( 41-C , 42-C ) :   1.1172 B( 41-C , 46-N ) :   1.4705 B( 42-C , 43-N ) :   1.3845
B( 42-C , 51-C ) :   1.2566 B( 43-N , 44-C ) :   1.7119 B( 44-C , 45-C ) :   1.2061
B( 44-C , 49-C ) :   1.1573 B( 45-C , 46-N ) :   1.7467 B( 45-C , 47-C ) :   1.1585
B( 47-C , 48-N ) :   3.0413 B( 49-C , 50-N ) :   3.0460 B( 51-C , 52-C ) :   1.2032
B( 51-C , 57-C ) :   1.1711 B( 52-C , 53-C ) :   1.1071 B( 52-C , 56-N ) :   1.5132
B( 53-C , 54-N ) :   1.5071 B( 54-N , 55-S ) :   1.2779 B( 54-N , 56-N ) :   0.1492
B( 55-S , 56-N ) :   1.2830 B( 57-C , 58-S ) :   1.1295 B( 57-C , 64-C ) :   1.4820
B( 58-S , 59-C ) :   1.0531 B( 59-C , 60-C ) :   0.9485 B( 59-C , 63-C ) :   1.4921
B( 60-C , 61-O ) :   2.1254 B( 60-C , 62-O ) :   1.2473 B( 62-O , 88-H ) :   0.9463
B( 63-C , 64-C ) :   1.2278 B( 63-C , 65-C ) :   1.0979 B( 64-C , 89-H ) :   0.9790
B( 65-C , 66-C ) :   1.9326 B( 65-C , 90-H ) :   0.9502 B( 66-C , 91-H ) :   0.9494
B( 66-C , 92-H ) :   0.9485

-----------------------------------------------------------------------------
         ABSORPTION SPECTRUM VIA TRANSITION ELECTRIC DIPOLE MOMENTS
-----------------------------------------------------------------------------
State   Energy  Wavelength   fosc         T2         TX        TY        TZ
        (cm-1)    (nm)                  (au**2)     (au)      (au)      (au)
-----------------------------------------------------------------------------
   0    6110.3   1636.6   0.557979604  30.06313   4.41531  -3.24582  -0.18127
   1    9991.1   1000.9   0.045974741   1.51490   0.61939  -1.01305   0.32401
   2   14778.1    676.7   0.009242218   0.20589   0.43099  -0.05892  -0.12909
   3   15508.9    644.8   0.232617440   4.93783  -1.34458   1.51946  -0.90619
   4   18606.2    537.5   0.022905245   0.40528  -0.49848   0.39590   0.00729
   5   19747.6    506.4   0.204830814   3.41473  -1.48646   0.84603   0.69959
   6   20378.4    490.7   0.071981181   1.16285   0.91184  -0.51584  -0.25556
   7   22764.3    439.3   0.027804569   0.40210  -0.52771   0.34991  -0.03456
   8   22818.8    438.2   0.117590866   1.69651  -1.02709   0.80005  -0.03895
   9   23253.4    430.0   0.022685292   0.32117  -0.46921   0.14667  -0.28196
  10   23798.3    420.2   0.128940173   1.78369  -0.78902   0.79519   0.72720
  11   24143.5    414.2   0.012115777   0.16521   0.17461  -0.36631   0.02305
  12   24332.9    411.0   0.009814351   0.13278   0.28702  -0.22434   0.00862
  13   24540.1    407.5   0.241554218   3.24052  -1.02114   1.16688  -0.91443
  14   24847.1    402.5   0.261541521   3.46530  -1.02632   1.23660  -0.93957
  15   26187.2    381.9   0.026527760   0.33349   0.10596   0.10786   0.55734
  16   26401.0    378.8   0.015382978   0.19182   0.30451  -0.21004  -0.23448
  17   26878.9    372.0   0.035767819   0.43808   0.47251  -0.42707  -0.18007
  18   27160.4    368.2   0.000293965   0.00356   0.03393   0.03121   0.03792
  19   28776.5    347.5   0.001558007   0.01782   0.04846  -0.02609  -0.12163
  20   29251.2    341.9   0.145349875   1.63586  -0.55419   0.65719   0.94701
  21   29663.2    337.1   0.355964035   3.95061  -1.30657   1.39711  -0.53997
  22   29930.5    334.1   0.025707529   0.28276  -0.34487   0.40069  -0.05723
  23   30706.5    325.7   0.261323399   2.80172  -0.84140   0.16072  -1.43803
  24   30823.0    324.4   0.008013445   0.08559  -0.18964  -0.01033  -0.22253
  25   31171.7    320.8   0.216532523   2.28686  -1.04006   0.54616  -0.95228
  26   31218.6    320.3   0.034487612   0.36368  -0.43257   0.20853  -0.36481
  27   31374.8    318.7   0.321878243   3.37743   1.32827  -0.73723   1.03423
  28   31770.2    314.8   0.008520735   0.08829  -0.20239   0.21475  -0.03487
  29   32536.2    307.4   0.088174112   0.89218   0.77038  -0.51228   0.19041
  30   33099.5    302.1   0.230845185   2.29602  -0.18987  -0.17834  -1.49270
  31   33264.8    300.6   0.002095946   0.02074   0.04567  -0.10195   0.09090
  32   33343.4    299.9   0.060956701   0.60185   0.25294  -0.66952   0.29936
  33   33543.4    298.1   0.086482900   0.84879   0.44475  -0.67377   0.44387
  34   33883.1    295.1   0.147928485   1.43729  -0.41548   0.32677   1.07605
  35   34105.7    293.2   0.033441567   0.32280   0.26272  -0.31728  -0.39129
  36   34602.7    289.0   0.004324520   0.04114   0.19789  -0.04453   0.00016
  37   34790.1    287.4   0.082452758   0.78023   0.08077  -0.60072   0.64253
  38   34855.7    286.9   0.195932246   1.85058   1.06010  -0.84763   0.09103
  39   35053.0    285.3   0.040127621   0.37687   0.36109  -0.38983  -0.30744
  40   35562.6    281.2   0.052138711   0.48266   0.47920  -0.19975   0.46166
  41   35901.5    278.5   0.020235298   0.18555  -0.15981   0.06759  -0.39427
  42   36021.2    277.6   0.097996068   0.89562  -0.57654   0.55311  -0.50725
  43   36196.8    276.3   0.212577462   1.93340  -0.41147   0.59980   1.18505
  44   36581.8    273.4   0.024393872   0.21953   0.35600  -0.12094   0.27958
  45   36605.2    273.2   0.156530775   1.40777  -0.16337  -0.27932  -1.14152
  46   37453.6    267.0   0.038724900   0.34039  -0.39440   0.02959  -0.42891
  47   37495.0    266.7   0.030055138   0.26389   0.11648  -0.10214   0.48979
  48   37971.8    263.4   0.025082111   0.21746  -0.40229   0.23305  -0.03613
  49   38065.8    262.7   0.038424413   0.33231  -0.41100   0.38460  -0.12442
  50   38627.2    258.9   0.102723253   0.87549   0.08308   0.16565   0.91714
  51   39220.4    255.0   0.004935571   0.04143  -0.14693  -0.09849   0.10069
  52   39362.2    254.1   0.009941901   0.08315   0.00911   0.06267   0.28132
  53   40170.0    248.9   0.000200860   0.00165  -0.03409   0.01612   0.01497

FINAL SINGLE POINT ENERGY     -4034.175063232502

DIPOLE MOMENT
-------------
                                X             Y             Z
Electronic contribution:     23.58802      -8.46738       6.94347
Nuclear contribution   :    -28.21038      10.26210      -8.87924
                        -----------------------------------------
Total Dipole Moment    :     -4.62236       1.79472      -1.93577
                        -----------------------------------------
Magnitude (a.u.)       :      5.32301
Magnitude (Debye)      :     13.53002

Rotational constants in cm-1:     0.002868     0.000262     0.000245
Rotational constants in MHz :    85.972386     7.857095     7.344135

                             ****ORCA TERMINATED NORMALLY****
TOTAL RUN TIME: 0 days 0 hours 9 minutes 58 seconds 496 msec
