                         Program Version 4.2.0 -  RELEASE  -
|  1> # ORCA input file
|  2> # SCF done       -206.047752419813          0.000999557150
|  3> ! CAM-B3LYP def2-SVP def2/J RIJCOSX Grid4 TightSCF
|  4> %maxcore 5000
|  5> %tddft
|  6>     Mode sTDDFT
|  7>     Ethresh 5.0
|  8>     maxcore 5000
|  9> end
| 10>
| 11> %pal
| 12>   nprocs 6
| 13>   end
| 14> * xyz 0 1
| 15>    C        2.47560        -0.92085        -6.70158
| 16>    S        3.50825         0.42899        -6.78523
| 17>    C        2.69365         1.20232        -5.44366
| 18>    C        1.65043         0.41021        -4.99005
| 19>    C        1.54429        -0.80266        -5.70667
| 20>    C        0.50432        -1.85028        -5.42145
| 21>    C       -0.49879        -1.88024        -6.57603
| 22>    F        0.06297        -2.35871        -7.70056
| 23>    F       -1.55037        -2.67328        -6.32096
| 24>    F       -0.99821        -0.67863        -6.89500
| 25>    C       -0.17821        -1.59970        -4.07376
| 26>    C       -0.52201        -0.12561        -3.89653
| 27>    C        0.76385         0.70904        -3.81216
| 28>    O        1.54383         0.41243        -2.66534
| 29>    C        1.01032         0.85082        -1.43589
| 30>    C        3.16894         2.47682        -5.02558
| 31>    C        2.73112         3.31235        -4.02407
| 32>    C        3.48975         4.51580        -4.04801
| 33>    C        4.50312         4.34519        -5.10667
| 34>    C        4.29361         3.13670        -5.68533
| 35>    C        5.55989         5.20947        -5.41965
| 36>    N        6.47496         5.85321        -5.67819
| 37>    C        3.28611         5.64888        -3.29156
| 38>    C        3.95089         6.89878        -3.40933
| 39>    C        3.44299         7.77931        -2.47171
| 40>    C        2.41679         7.07823        -1.72025
| 41>    C        2.29877         5.81504        -2.21399
| 42>    C        1.36959         4.87656        -1.76103
| 43>    N        0.57853         4.14022        -1.36701
| 44>    C        3.84335         9.13944        -2.36891
| 45>    N        3.66386         9.99112        -1.30208
| 46>    C        3.18799         9.67451         0.02397
| 47>    C        4.08266         8.66396         0.73402
| 48>    C        4.16262        11.27913        -1.57326
| 49>    O        4.12042        12.19291        -0.76991
| 50>    C        4.66245        11.20011        -2.92373
| 51>    C        4.46770         9.87296        -3.37750
| 52>    C        4.91187         9.80194        -4.75398
| 53>    O        4.91733         8.90895        -5.57143
| 54>    N        5.38624        11.10338        -5.02813
| 55>    C        5.89367        11.44003        -6.33627
| 56>    C        4.83970        12.14070        -7.19034
| 57>    C        5.22967        11.94690        -3.95888
| 58>    C        5.58943        13.32107        -3.98212
| 59>    C        5.37229        14.14262        -2.92854
| 60>    C        5.66220        15.55097        -2.87754
| 61>    C        6.30749        16.24732        -3.89904
| 62>    C        6.52876        17.61187        -3.81169
| 63>    N        7.15599        18.22449        -4.95466
| 64>    O        7.81996        17.50302        -5.67243
| 65>    O        6.98062        19.40817        -5.15338
| 66>    C        6.12226        18.35990        -2.68751
| 67>    C        5.49279        17.63940        -1.65932
| 68>    C        5.26665        16.28838        -1.74740
| 69>    C        6.37151        19.77356        -2.55309
| 70>    C        5.59436        20.61169        -1.84031
| 71>    C        5.83570        22.01377        -1.72496
| 72>    S        7.31616        22.72108        -2.30759
| 73>    C        6.82693        24.27532        -1.79690
| 74>    C        5.59236        24.27622        -1.21723
| 75>    C        5.02118        22.98302        -1.17041
| 76>    C        3.64329        22.75667        -0.61486
| 77>    C        2.65083        22.57748        -1.77054
| 78>    F        2.84284        23.43109        -2.78412
| 79>    F        2.72008        21.34528        -2.30219
| 80>    F        1.37457        22.73293        -1.38141
| 81>    C        3.23728        23.92444         0.29174
| 82>    C        3.45723        25.26876        -0.39485
| 83>    C        4.95808        25.49780        -0.61145
| 84>    O        5.64126        25.73547         0.61335
| 85>    C        5.57535        27.05837         1.07830
| 86>    H        2.60255        -1.73593        -7.38678
| 87>    H        0.96722        -2.84443        -5.42540
| 88>    H        0.51799        -1.88797        -3.28359
| 89>    H       -1.07257        -2.21889        -3.99050
| 90>    H       -1.09776         0.01106        -2.98111
| 91>    H       -1.12483         0.24250        -4.72641
| 92>    H        0.48141         1.77363        -3.80799
| 93>    H        1.81024         0.72811        -0.70784
| 94>    H        0.15062         0.24838        -1.12375
| 95>    H        0.71381         1.90391        -1.47324
| 96>    H        1.94274         3.12807        -3.32676
| 97>    H        4.85951         2.70962        -6.49280
| 98>    H        4.71291         7.12121        -4.12928
| 99>    H        1.80760         7.48972        -0.93867
|100>    H        2.15342         9.32336        -0.01962
|101>    H        3.19935        10.62485         0.56695
|102>    H        4.11351         7.71861         0.19656
|103>    H        3.70396         8.48113         1.73608
|104>    H        5.09604         9.05136         0.81009
|105>    H        6.17055        10.49126        -6.80456
|106>    H        6.79002        12.05761        -6.23488
|107>    H        3.97704        11.49150        -7.31834
|108>    H        5.25186        12.36706        -8.16956
|109>    H        4.50969        13.06753        -6.72568
|110>    H        6.03519        13.69483        -4.89181
|111>    H        4.91639        13.72977        -2.03816
|112>    H        6.64596        15.74367        -4.79144
|113>    H        5.20161        18.16745        -0.76494
|114>    H        4.77656        15.77001        -0.93664
|115>    H        7.20619        20.19045        -3.09970
|116>    H        4.69979        20.24060        -1.36095
|117>    H        7.47811        25.11347        -1.94544
|118>    H        3.60187        21.82127        -0.04530
|119>    H        3.86128        23.88992         1.18692
|120>    H        2.19405        23.81446         0.59085
|121>    H        3.05761        26.06588         0.23316
|122>    H        2.94383        25.31140        -1.35487
|123>    H        5.11125        26.35944        -1.28101
|124>    H        6.19366        27.09490         1.97299
|125>    H        4.55343        27.35787         1.33703
|126>    H        5.96982        27.76108         0.33400
|127> *
|128>
|129>                          ****END OF INPUT****

CARTESIAN COORDINATES (ANGSTROEM)
---------------------------------
  C      2.475600   -0.920850   -6.701580
  S      3.508250    0.428990   -6.785230
  C      2.693650    1.202320   -5.443660
  C      1.650430    0.410210   -4.990050
  C      1.544290   -0.802660   -5.706670
  C      0.504320   -1.850280   -5.421450
  C     -0.498790   -1.880240   -6.576030
  F      0.062970   -2.358710   -7.700560
  F     -1.550370   -2.673280   -6.320960
  F     -0.998210   -0.678630   -6.895000
  C     -0.178210   -1.599700   -4.073760
  C     -0.522010   -0.125610   -3.896530
  C      0.763850    0.709040   -3.812160
  O      1.543830    0.412430   -2.665340
  C      1.010320    0.850820   -1.435890
  C      3.168940    2.476820   -5.025580
  C      2.731120    3.312350   -4.024070
  C      3.489750    4.515800   -4.048010
  C      4.503120    4.345190   -5.106670
  C      4.293610    3.136700   -5.685330
  C      5.559890    5.209470   -5.419650
  N      6.474960    5.853210   -5.678190
  C      3.286110    5.648880   -3.291560
  C      3.950890    6.898780   -3.409330
  C      3.442990    7.779310   -2.471710
  C      2.416790    7.078230   -1.720250
  C      2.298770    5.815040   -2.213990
  C      1.369590    4.876560   -1.761030
  N      0.578530    4.140220   -1.367010
  C      3.843350    9.139440   -2.368910
  N      3.663860    9.991120   -1.302080
  C      3.187990    9.674510    0.023970
  C      4.082660    8.663960    0.734020
  C      4.162620   11.279130   -1.573260
  O      4.120420   12.192910   -0.769910
  C      4.662450   11.200110   -2.923730
  C      4.467700    9.872960   -3.377500
  C      4.911870    9.801940   -4.753980
  O      4.917330    8.908950   -5.571430
  N      5.386240   11.103380   -5.028130
  C      5.893670   11.440030   -6.336270
  C      4.839700   12.140700   -7.190340
  C      5.229670   11.946900   -3.958880
  C      5.589430   13.321070   -3.982120
  C      5.372290   14.142620   -2.928540
  C      5.662200   15.550970   -2.877540
  C      6.307490   16.247320   -3.899040
  C      6.528760   17.611870   -3.811690
  N      7.155990   18.224490   -4.954660
  O      7.819960   17.503020   -5.672430
  O      6.980620   19.408170   -5.153380
  C      6.122260   18.359900   -2.687510
  C      5.492790   17.639400   -1.659320
  C      5.266650   16.288380   -1.747400
  C      6.371510   19.773560   -2.553090
  C      5.594360   20.611690   -1.840310
  C      5.835700   22.013770   -1.724960
  S      7.316160   22.721080   -2.307590
  C      6.826930   24.275320   -1.796900
  C      5.592360   24.276220   -1.217230
  C      5.021180   22.983020   -1.170410
  C      3.643290   22.756670   -0.614860
  C      2.650830   22.577480   -1.770540
  F      2.842840   23.431090   -2.784120
  F      2.720080   21.345280   -2.302190
  F      1.374570   22.732930   -1.381410
  C      3.237280   23.924440    0.291740
  C      3.457230   25.268760   -0.394850
  C      4.958080   25.497800   -0.611450
  O      5.641260   25.735470    0.613350
  C      5.575350   27.058370    1.078300
  H      2.602550   -1.735930   -7.386780
  H      0.967220   -2.844430   -5.425400
  H      0.517990   -1.887970   -3.283590
  H     -1.072570   -2.218890   -3.990500
  H     -1.097760    0.011060   -2.981110
  H     -1.124830    0.242500   -4.726410
  H      0.481410    1.773630   -3.807990
  H      1.810240    0.728110   -0.707840
  H      0.150620    0.248380   -1.123750
  H      0.713810    1.903910   -1.473240
  H      1.942740    3.128070   -3.326760
  H      4.859510    2.709620   -6.492800
  H      4.712910    7.121210   -4.129280
  H      1.807600    7.489720   -0.938670
  H      2.153420    9.323360   -0.019620
  H      3.199350   10.624850    0.566950
  H      4.113510    7.718610    0.196560
  H      3.703960    8.481130    1.736080
  H      5.096040    9.051360    0.810090
  H      6.170550   10.491260   -6.804560
  H      6.790020   12.057610   -6.234880
  H      3.977040   11.491500   -7.318340
  H      5.251860   12.367060   -8.169560
  H      4.509690   13.067530   -6.725680
  H      6.035190   13.694830   -4.891810
  H      4.916390   13.729770   -2.038160
  H      6.645960   15.743670   -4.791440
  H      5.201610   18.167450   -0.764940
  H      4.776560   15.770010   -0.936640
  H      7.206190   20.190450   -3.099700
  H      4.699790   20.240600   -1.360950
  H      7.478110   25.113470   -1.945440
  H      3.601870   21.821270   -0.045300
  H      3.861280   23.889920    1.186920
  H      2.194050   23.814460    0.590850
  H      3.057610   26.065880    0.233160
  H      2.943830   25.311400   -1.354870
  H      5.111250   26.359440   -1.281010
  H      6.193660   27.094900    1.972990
  H      4.553430   27.357870    1.337030
  H      5.969820   27.761080    0.334000

 Total Charge           Charge          ....    0
 Multiplicity           Mult            ....    1
 Number of Electrons    NEL             ....  522
 Basis Dimension        Dim             .... 1207

ORBITAL ENERGIES
----------------

  NO   OCC          E(Eh)            E(eV)
   0   2.0000     -88.966872     -2420.9117
   1   2.0000     -88.954695     -2420.5803
   2   2.0000     -24.797949      -674.7865
   3   2.0000     -24.797328      -674.7696
   4   2.0000     -24.796437      -674.7454
   5   2.0000     -24.796097      -674.7361
   6   2.0000     -24.795659      -674.7242
   7   2.0000     -24.795401      -674.7172
   8   2.0000     -19.242894      -523.6258
   9   2.0000     -19.240457      -523.5595
  10   2.0000     -19.213584      -522.8282
  11   2.0000     -19.210074      -522.7327
  12   2.0000     -19.191872      -522.2374
  13   2.0000     -19.189508      -522.1731
  14   2.0000     -14.647469      -398.5779
  15   2.0000     -14.454760      -393.3340
  16   2.0000     -14.453504      -393.2998
  17   2.0000     -14.412092      -392.1730
  18   2.0000     -14.399786      -391.8381
  19   2.0000     -10.509322      -285.9732
  20   2.0000     -10.509206      -285.9700
  21   2.0000     -10.373903      -282.2882
  22   2.0000     -10.372565      -282.2518
  23   2.0000     -10.342799      -281.4419
  24   2.0000     -10.338481      -281.3244
  25   2.0000     -10.330932      -281.1189
  26   2.0000     -10.323963      -280.9293
  27   2.0000     -10.323492      -280.9165
  28   2.0000     -10.321215      -280.8545
  29   2.0000     -10.315993      -280.7125
  30   2.0000     -10.313314      -280.6395
  31   2.0000     -10.312835      -280.6265
  32   2.0000     -10.312651      -280.6215
  33   2.0000     -10.311705      -280.5958
  34   2.0000     -10.311684      -280.5952
  35   2.0000     -10.310424      -280.5609
  36   2.0000     -10.308763      -280.5157
  37   2.0000     -10.308615      -280.5117
  38   2.0000     -10.308172      -280.4996
  39   2.0000     -10.306462      -280.4531
  40   2.0000     -10.306130      -280.4440
  41   2.0000     -10.304228      -280.3923
  42   2.0000     -10.304118      -280.3893
  43   2.0000     -10.303693      -280.3777
  44   2.0000     -10.300702      -280.2964
  45   2.0000     -10.300558      -280.2924
  46   2.0000     -10.300121      -280.2805
  47   2.0000     -10.299308      -280.2584
  48   2.0000     -10.297462      -280.2082
  49   2.0000     -10.294176      -280.1188
  50   2.0000     -10.294095      -280.1166
  51   2.0000     -10.293492      -280.1002
  52   2.0000     -10.292823      -280.0819
  53   2.0000     -10.291196      -280.0377
  54   2.0000     -10.290105      -280.0080
  55   2.0000     -10.289836      -280.0007
  56   2.0000     -10.289447      -279.9901
  57   2.0000     -10.287891      -279.9478
  58   2.0000     -10.285053      -279.8705
  59   2.0000     -10.279988      -279.7327
  60   2.0000     -10.279669      -279.7240
  61   2.0000     -10.276247      -279.6309
  62   2.0000     -10.275028      -279.5977
  63   2.0000     -10.274042      -279.5709
  64   2.0000     -10.273128      -279.5460
  65   2.0000     -10.267205      -279.3849
  66   2.0000     -10.265580      -279.3406
  67   2.0000     -10.264759      -279.3183
  68   2.0000     -10.263697      -279.2894
  69   2.0000     -10.261873      -279.2398
  70   2.0000     -10.259362      -279.1714
  71   2.0000      -8.062626      -219.3952
  72   2.0000      -8.050474      -219.0645
  73   2.0000      -6.031700      -164.1309
  74   2.0000      -6.027516      -164.0170
  75   2.0000      -6.025202      -163.9541
  76   2.0000      -6.019589      -163.8013
  77   2.0000      -6.015449      -163.6887
  78   2.0000      -6.012945      -163.6206
  79   2.0000      -1.386998       -37.7421
  80   2.0000      -1.386862       -37.7384
  81   2.0000      -1.322584       -35.9894
  82   2.0000      -1.289395       -35.0862
  83   2.0000      -1.289227       -35.0817
  84   2.0000      -1.287395       -35.0318
  85   2.0000      -1.287211       -35.0268
  86   2.0000      -1.140519       -31.0351
  87   2.0000      -1.134003       -30.8578
  88   2.0000      -1.127076       -30.6693
  89   2.0000      -1.115826       -30.3632
  90   2.0000      -1.110409       -30.2158
  91   2.0000      -1.063982       -28.9524
  92   2.0000      -1.055589       -28.7240
  93   2.0000      -1.013869       -27.5888
  94   2.0000      -1.002891       -27.2901
  95   2.0000      -0.993237       -27.0274
  96   2.0000      -0.992341       -27.0030
  97   2.0000      -0.988346       -26.8943
  98   2.0000      -0.982510       -26.7355
  99   2.0000      -0.973243       -26.4833
 100   2.0000      -0.931347       -25.3432
 101   2.0000      -0.930576       -25.3223
 102   2.0000      -0.928481       -25.2652
 103   2.0000      -0.924216       -25.1492
 104   2.0000      -0.903658       -24.5898
 105   2.0000      -0.892777       -24.2937
 106   2.0000      -0.884717       -24.0744
 107   2.0000      -0.878202       -23.8971
 108   2.0000      -0.872027       -23.7291
 109   2.0000      -0.868745       -23.6398
 110   2.0000      -0.858715       -23.3668
 111   2.0000      -0.848519       -23.0894
 112   2.0000      -0.845562       -23.0089
 113   2.0000      -0.835778       -22.7427
 114   2.0000      -0.828352       -22.5406
 115   2.0000      -0.820945       -22.3390
 116   2.0000      -0.818663       -22.2770
 117   2.0000      -0.808115       -21.9899
 118   2.0000      -0.796589       -21.6763
 119   2.0000      -0.789459       -21.4823
 120   2.0000      -0.785706       -21.3802
 121   2.0000      -0.780290       -21.2328
 122   2.0000      -0.768635       -20.9156
 123   2.0000      -0.761994       -20.7349
 124   2.0000      -0.760068       -20.6825
 125   2.0000      -0.754629       -20.5345
 126   2.0000      -0.751015       -20.4361
 127   2.0000      -0.735160       -20.0047
 128   2.0000      -0.719309       -19.5734
 129   2.0000      -0.717419       -19.5220
 130   2.0000      -0.717227       -19.5167
 131   2.0000      -0.710531       -19.3345
 132   2.0000      -0.705535       -19.1986
 133   2.0000      -0.699002       -19.0208
 134   2.0000      -0.692910       -18.8550
 135   2.0000      -0.683225       -18.5915
 136   2.0000      -0.682558       -18.5733
 137   2.0000      -0.675800       -18.3895
 138   2.0000      -0.673425       -18.3248
 139   2.0000      -0.671691       -18.2776
 140   2.0000      -0.670237       -18.2381
 141   2.0000      -0.669328       -18.2133
 142   2.0000      -0.667298       -18.1581
 143   2.0000      -0.664806       -18.0903
 144   2.0000      -0.656803       -17.8725
 145   2.0000      -0.652435       -17.7537
 146   2.0000      -0.647150       -17.6099
 147   2.0000      -0.644619       -17.5410
 148   2.0000      -0.639535       -17.4026
 149   2.0000      -0.636898       -17.3309
 150   2.0000      -0.628193       -17.0940
 151   2.0000      -0.616924       -16.7874
 152   2.0000      -0.615880       -16.7590
 153   2.0000      -0.607507       -16.5311
 154   2.0000      -0.597807       -16.2672
 155   2.0000      -0.596723       -16.2377
 156   2.0000      -0.592434       -16.1210
 157   2.0000      -0.586787       -15.9673
 158   2.0000      -0.583054       -15.8657
 159   2.0000      -0.582979       -15.8637
 160   2.0000      -0.581281       -15.8175
 161   2.0000      -0.574766       -15.6402
 162   2.0000      -0.571360       -15.5475
 163   2.0000      -0.569128       -15.4867
 164   2.0000      -0.567836       -15.4516
 165   2.0000      -0.560484       -15.2515
 166   2.0000      -0.554373       -15.0853
 167   2.0000      -0.553503       -15.0616
 168   2.0000      -0.548474       -14.9247
 169   2.0000      -0.548125       -14.9152
 170   2.0000      -0.546591       -14.8735
 171   2.0000      -0.545062       -14.8319
 172   2.0000      -0.543380       -14.7861
 173   2.0000      -0.541901       -14.7459
 174   2.0000      -0.540737       -14.7142
 175   2.0000      -0.538325       -14.6486
 176   2.0000      -0.533201       -14.5091
 177   2.0000      -0.529622       -14.4117
 178   2.0000      -0.529196       -14.4002
 179   2.0000      -0.527064       -14.3421
 180   2.0000      -0.524316       -14.2674
 181   2.0000      -0.522506       -14.2181
 182   2.0000      -0.520633       -14.1671
 183   2.0000      -0.519250       -14.1295
 184   2.0000      -0.517095       -14.0709
 185   2.0000      -0.514635       -14.0039
 186   2.0000      -0.513407       -13.9705
 187   2.0000      -0.511002       -13.9051
 188   2.0000      -0.509473       -13.8635
 189   2.0000      -0.506817       -13.7912
 190   2.0000      -0.503815       -13.7095
 191   2.0000      -0.502929       -13.6854
 192   2.0000      -0.501532       -13.6474
 193   2.0000      -0.498296       -13.5593
 194   2.0000      -0.497307       -13.5324
 195   2.0000      -0.496965       -13.5231
 196   2.0000      -0.494484       -13.4556
 197   2.0000      -0.489055       -13.3078
 198   2.0000      -0.487196       -13.2573
 199   2.0000      -0.486480       -13.2378
 200   2.0000      -0.485259       -13.2046
 201   2.0000      -0.483129       -13.1466
 202   2.0000      -0.482393       -13.1266
 203   2.0000      -0.482166       -13.1204
 204   2.0000      -0.479746       -13.0545
 205   2.0000      -0.478177       -13.0119
 206   2.0000      -0.472365       -12.8537
 207   2.0000      -0.471160       -12.8209
 208   2.0000      -0.469702       -12.7812
 209   2.0000      -0.467042       -12.7089
 210   2.0000      -0.466347       -12.6899
 211   2.0000      -0.464729       -12.6459
 212   2.0000      -0.461621       -12.5613
 213   2.0000      -0.460915       -12.5421
 214   2.0000      -0.460012       -12.5176
 215   2.0000      -0.458590       -12.4789
 216   2.0000      -0.455953       -12.4071
 217   2.0000      -0.454216       -12.3598
 218   2.0000      -0.452079       -12.3017
 219   2.0000      -0.447786       -12.1849
 220   2.0000      -0.445062       -12.1108
 221   2.0000      -0.442242       -12.0340
 222   2.0000      -0.441203       -12.0058
 223   2.0000      -0.436291       -11.8721
 224   2.0000      -0.429092       -11.6762
 225   2.0000      -0.426683       -11.6106
 226   2.0000      -0.426006       -11.5922
 227   2.0000      -0.425654       -11.5826
 228   2.0000      -0.424104       -11.5405
 229   2.0000      -0.419801       -11.4234
 230   2.0000      -0.419502       -11.4152
 231   2.0000      -0.419227       -11.4077
 232   2.0000      -0.417598       -11.3634
 233   2.0000      -0.413627       -11.2554
 234   2.0000      -0.412059       -11.2127
 235   2.0000      -0.406438       -11.0597
 236   2.0000      -0.405429       -11.0323
 237   2.0000      -0.404047       -10.9947
 238   2.0000      -0.402354       -10.9486
 239   2.0000      -0.391015       -10.6401
 240   2.0000      -0.384754       -10.4697
 241   2.0000      -0.383241       -10.4285
 242   2.0000      -0.379197       -10.3185
 243   2.0000      -0.374905       -10.2017
 244   2.0000      -0.369070       -10.0429
 245   2.0000      -0.367041        -9.9877
 246   2.0000      -0.354150        -9.6369
 247   2.0000      -0.347679        -9.4608
 248   2.0000      -0.345407        -9.3990
 249   2.0000      -0.332969        -9.0605
 250   2.0000      -0.332362        -9.0440
 251   2.0000      -0.330067        -8.9816
 252   2.0000      -0.324572        -8.8321
 253   2.0000      -0.319602        -8.6968
 254   2.0000      -0.317539        -8.6407
 255   2.0000      -0.316442        -8.6108
 256   2.0000      -0.315648        -8.5892
 257   2.0000      -0.308605        -8.3976
 258   2.0000      -0.277278        -7.5451
 259   2.0000      -0.267489        -7.2788
 260   2.0000      -0.234378        -6.3778
 261   0.0000      -0.121109        -3.2955
 262   0.0000      -0.074092        -2.0161
 263   0.0000      -0.049417        -1.3447
 264   0.0000      -0.025815        -0.7025
 265   0.0000      -0.009792        -0.2665

MULLIKEN ATOMIC CHARGES
-----------------------
   0 C :   -0.102150
   1 S :    0.126973
   2 C :   -0.125939
   3 C :    0.018075
   4 C :   -0.026351
   5 C :   -0.070803
   6 C :    0.479537
   7 F :   -0.167187
   8 F :   -0.161140
   9 F :   -0.159419
  10 C :    0.071715
  11 C :    0.046982
  12 C :    0.173952
  13 O :   -0.390518
  14 C :    0.183479
  15 C :    0.137267
  16 C :   -0.151734
  17 C :    0.115967
  18 C :   -0.078270
  19 C :   -0.031746
  20 C :   -0.176286
  21 N :    0.145583
  22 C :    0.119446
  23 C :   -0.105608
  24 C :    0.030123
  25 C :   -0.026747
  26 C :   -0.111579
  27 C :   -0.143326
  28 N :    0.126296
  29 C :    0.144421
  30 N :   -0.256324
  31 C :    0.099154
  32 C :   -0.005098
  33 C :    0.155266
  34 O :   -0.222464
  35 C :   -0.073895
  36 C :   -0.042142
  37 C :    0.140017
  38 O :   -0.179745
  39 N :   -0.259108
  40 C :    0.097015
  41 C :    0.003671
  42 C :    0.145190
  43 C :    0.001057
  44 C :    0.007359
  45 C :    0.104082
  46 C :   -0.062005
  47 C :    0.146215
  48 N :    0.244693
  49 O :   -0.237091
  50 O :   -0.228092
  51 C :    0.061360
  52 C :   -0.031497
  53 C :    0.018431
  54 C :   -0.021015
  55 C :    0.015262
  56 C :   -0.139215
  57 S :    0.130585
  58 C :   -0.100929
  59 C :    0.000287
  60 C :    0.011242
  61 C :   -0.102243
  62 C :    0.495744
  63 F :   -0.157516
  64 F :   -0.160592
  65 F :   -0.163385
  66 C :    0.060312
  67 C :    0.051690
  68 C :    0.195774
  69 O :   -0.384224
  70 C :    0.192079
  71 H :    0.028480
  72 H :    0.033936
  73 H :    0.021369
  74 H :    0.018082
  75 H :    0.006362
  76 H :    0.015919
  77 H :    0.004998
  78 H :    0.023246
  79 H :   -0.001792
  80 H :    0.013374
  81 H :   -0.018542
  82 H :    0.013910
  83 H :    0.025529
  84 H :   -0.016069
  85 H :    0.021986
  86 H :    0.046650
  87 H :    0.030868
  88 H :    0.024120
  89 H :    0.027125
  90 H :    0.050541
  91 H :    0.027069
  92 H :    0.030548
  93 H :    0.026201
  94 H :    0.014102
  95 H :   -0.028384
  96 H :    0.008560
  97 H :   -0.001444
  98 H :   -0.014356
  99 H :    0.005148
 100 H :    0.013733
 101 H :   -0.010975
 102 H :    0.016097
 103 H :    0.031395
 104 H :    0.023548
 105 H :    0.015375
 106 H :   -0.002933
 107 H :    0.018300
 108 H :   -0.011606
 109 H :    0.030095
 110 H :   -0.001583
 111 H :    0.000096
Sum of atomic charges:   -0.0000000

LOEWDIN ATOMIC CHARGES
----------------------
   0 C :   -0.171105
   1 S :    0.464933
   2 C :   -0.162489
   3 C :   -0.032242
   4 C :   -0.061614
   5 C :   -0.056751
   6 C :    0.163349
   7 F :   -0.066438
   8 F :   -0.060683
   9 F :   -0.056009
  10 C :   -0.020843
  11 C :   -0.041194
  12 C :    0.071504
  13 O :   -0.172887
  14 C :    0.060556
  15 C :   -0.009154
  16 C :   -0.046065
  17 C :    0.054562
  18 C :   -0.071145
  19 C :    0.042792
  20 C :   -0.034146
  21 N :   -0.047820
  22 C :    0.017268
  23 C :    0.014369
  24 C :   -0.044883
  25 C :    0.044689
  26 C :   -0.087535
  27 C :   -0.014607
  28 N :   -0.072653
  29 C :    0.066353
  30 N :   -0.001957
  31 C :    0.034586
  32 C :   -0.061251
  33 C :    0.079068
  34 O :   -0.210556
  35 C :   -0.130352
  36 C :   -0.104284
  37 C :    0.083195
  38 O :   -0.174177
  39 N :    0.000656
  40 C :    0.036544
  41 C :   -0.060796
  42 C :    0.088596
  43 C :   -0.050320
  44 C :    0.042811
  45 C :   -0.037545
  46 C :    0.019269
  47 C :   -0.029954
  48 N :    0.285439
  49 O :   -0.206472
  50 O :   -0.189267
  51 C :    0.007532
  52 C :   -0.011451
  53 C :    0.020380
  54 C :   -0.033675
  55 C :   -0.018761
  56 C :   -0.175525
  57 S :    0.461276
  58 C :   -0.164918
  59 C :   -0.069656
  60 C :   -0.053007
  61 C :   -0.059060
  62 C :    0.164838
  63 F :   -0.053604
  64 F :   -0.060369
  65 F :   -0.063167
  66 C :   -0.019761
  67 C :   -0.041501
  68 C :    0.076434
  69 O :   -0.173167
  70 C :    0.065869
  71 H :    0.026758
  72 H :    0.049471
  73 H :    0.032779
  74 H :    0.027935
  75 H :    0.028682
  76 H :    0.025527
  77 H :    0.015281
  78 H :    0.023338
  79 H :    0.002056
  80 H :    0.007266
  81 H :    0.029128
  82 H :    0.030946
  83 H :    0.038602
  84 H :    0.033333
  85 H :    0.018250
  86 H :    0.038045
  87 H :    0.024627
  88 H :    0.032166
  89 H :    0.032334
  90 H :    0.040998
  91 H :    0.024301
  92 H :    0.032676
  93 H :    0.031894
  94 H :    0.021253
  95 H :    0.027886
  96 H :    0.038218
  97 H :    0.036033
  98 H :    0.033333
  99 H :    0.041012
 100 H :    0.021449
 101 H :    0.025900
 102 H :    0.025020
 103 H :    0.044731
 104 H :    0.032215
 105 H :    0.026467
 106 H :    0.026184
 107 H :    0.024512
 108 H :    0.014142
 109 H :    0.024608
 110 H :    0.002640
 111 H :    0.005954

  Mayer bond orders larger than 0.100000
B(  0-C ,  1-S ) :   1.1856 B(  0-C ,  4-C ) :   1.5304 B(  0-C , 71-H ) :   0.9667
B(  1-S ,  2-C ) :   1.1344 B(  2-C ,  3-C ) :   1.5157 B(  2-C , 15-C ) :   1.1203
B(  3-C ,  4-C ) :   1.3565 B(  3-C , 12-C ) :   0.9900 B(  4-C ,  5-C ) :   0.9445
B(  5-C ,  6-C ) :   0.9822 B(  5-C , 10-C ) :   1.0683 B(  5-C , 72-H ) :   0.8913
B(  6-C ,  7-F ) :   1.1407 B(  6-C ,  8-F ) :   1.1539 B(  6-C ,  9-F ) :   1.1412
B( 10-C , 11-C ) :   1.0529 B( 10-C , 73-H ) :   0.9260 B( 10-C , 74-H ) :   0.9357
B( 11-C , 12-C ) :   1.0474 B( 11-C , 75-H ) :   0.9220 B( 11-C , 76-H ) :   0.9382
B( 12-C , 13-O ) :   1.0634 B( 12-C , 77-H ) :   0.8988 B( 13-O , 14-C ) :   0.9689
B( 14-C , 78-H ) :   0.9773 B( 14-C , 79-H ) :   0.9640 B( 14-C , 80-H ) :   0.9502
B( 15-C , 16-C ) :   1.5524 B( 15-C , 19-C ) :   1.0192 B( 16-C , 17-C ) :   1.1347
B( 16-C , 81-H ) :   0.9991 B( 17-C , 18-C ) :   1.0939 B( 17-C , 22-C ) :   1.3805
B( 18-C , 19-C ) :   1.6995 B( 18-C , 20-C ) :   1.0791 B( 19-C , 82-H ) :   1.0070
B( 20-C , 21-N ) :   2.9811 B( 22-C , 23-C ) :   1.1204 B( 22-C , 26-C ) :   1.1093
B( 23-C , 24-C ) :   1.5375 B( 23-C , 83-H ) :   0.9944 B( 24-C , 25-C ) :   1.0437
B( 24-C , 29-C ) :   1.0314 B( 25-C , 26-C ) :   1.6367 B( 25-C , 84-H ) :   1.0287
B( 26-C , 27-C ) :   1.0969 B( 27-C , 28-N ) :   2.9204 B( 29-C , 30-N ) :   1.1894
B( 29-C , 36-C ) :   1.3972 B( 30-N , 31-C ) :   0.9457 B( 30-N , 33-C ) :   1.0550
B( 31-C , 32-C ) :   1.1166 B( 31-C , 85-H ) :   0.9506 B( 31-C , 86-H ) :   0.9221
B( 32-C , 87-H ) :   0.9657 B( 32-C , 88-H ) :   0.9660 B( 32-C , 89-H ) :   0.9619
B( 33-C , 34-O ) :   2.0034 B( 33-C , 35-C ) :   1.0045 B( 34-O , 96-H ) :   0.1170
B( 35-C , 36-C ) :   1.2374 B( 35-C , 42-C ) :   1.3168 B( 36-C , 37-C ) :   0.9658
B( 37-C , 38-O ) :   2.1044 B( 37-C , 39-N ) :   1.0341 B( 39-N , 40-C ) :   0.9429
B( 39-N , 42-C ) :   1.1801 B( 40-C , 41-C ) :   1.1215 B( 40-C , 90-H ) :   0.9272
B( 40-C , 91-H ) :   0.9496 B( 41-C , 92-H ) :   0.9636 B( 41-C , 93-H ) :   0.9680
B( 41-C , 94-H ) :   0.9682 B( 42-C , 43-C ) :   1.1520 B( 43-C , 44-C ) :   1.6099
B( 43-C , 95-H ) :   0.9557 B( 44-C , 45-C ) :   1.0784 B( 44-C , 96-H ) :   0.9650
B( 45-C , 46-C ) :   1.2949 B( 45-C , 53-C ) :   1.3007 B( 46-C , 47-C ) :   1.3855
B( 46-C , 97-H ) :   0.9844 B( 47-C , 48-N ) :   0.8803 B( 47-C , 51-C ) :   1.3320
B( 48-N , 49-O ) :   1.5438 B( 48-N , 50-O ) :   1.5259 B( 49-O , 50-O ) :   0.2632
B( 51-C , 52-C ) :   1.3344 B( 51-C , 54-C ) :   1.0811 B( 52-C , 53-C ) :   1.3993
B( 52-C , 98-H ) :   0.9877 B( 53-C , 99-H ) :   1.0006 B( 54-C , 55-C ) :   1.7156
B( 54-C ,100-H ) :   0.9488 B( 55-C , 56-C ) :   1.1444 B( 55-C ,101-H ) :   0.9585
B( 56-C , 57-S ) :   1.1392 B( 56-C , 60-C ) :   1.4934 B( 57-S , 58-C ) :   1.1754
B( 58-C , 59-C ) :   1.5791 B( 58-C ,102-H ) :   0.9678 B( 59-C , 60-C ) :   1.3328
B( 59-C , 68-C ) :   0.9618 B( 60-C , 61-C ) :   0.9737 B( 61-C , 62-C ) :   0.9754
B( 61-C , 66-C ) :   1.0689 B( 61-C ,103-H ) :   0.8846 B( 62-C , 63-F ) :   1.1387
B( 62-C , 64-F ) :   1.1451 B( 62-C , 65-F ) :   1.1514 B( 66-C , 67-C ) :   1.0517
B( 66-C ,104-H ) :   0.9338 B( 66-C ,105-H ) :   0.9331 B( 67-C , 68-C ) :   1.0565
B( 67-C ,106-H ) :   0.9198 B( 67-C ,107-H ) :   0.9370 B( 68-C , 69-O ) :   1.0295
B( 68-C ,108-H ) :   0.9140 B( 69-O , 70-C ) :   0.9954 B( 70-C ,109-H ) :   0.9817
B( 70-C ,110-H ) :   0.9637 B( 70-C ,111-H ) :   0.9659

-----------------------------------------------------------------------------
         ABSORPTION SPECTRUM VIA TRANSITION ELECTRIC DIPOLE MOMENTS
-----------------------------------------------------------------------------
State   Energy  Wavelength   fosc         T2         TX        TY        TZ
        (cm-1)    (nm)                  (au**2)     (au)      (au)      (au)
-----------------------------------------------------------------------------
   0    9436.7   1059.7   0.442046501  15.42139   0.56188   3.84275   0.58221
   1   15772.3    634.0   0.131295143   2.74050   0.01608  -1.40289  -0.87872
   2   19301.5    518.1   0.652542396  11.12997  -0.97940  -3.10168   0.74183
   3   21275.6    470.0   0.001188459   0.01839   0.12176   0.05903  -0.00895
   4   22977.0    435.2   0.259024651   3.71128  -0.05713  -1.81917  -0.63138
   5   24553.7    407.3   0.002559435   0.03432   0.11331   0.14364   0.02907
   6   24803.1    403.2   0.241258338   3.20222   0.17355   1.56880   0.84318
   7   25321.0    394.9   0.153157168   1.99128   0.38488  -0.87135  -1.04110
   8   26321.9    379.9   0.011170706   0.13971  -0.01394   0.37069   0.04592
   9   26862.7    372.3   0.247083775   3.02810  -0.07026   1.40088   1.02990
  10   28121.9    355.6   0.310268559   3.63219  -0.06231  -1.86384  -0.39295
  11   28445.2    351.6   0.008498636   0.09836   0.18603   0.25226  -0.01080
  12   30064.9    332.6   0.185777725   2.03427  -0.09413   1.26231   0.65725
  13   30462.6    328.3   0.045647725   0.49332   0.38220   0.23793  -0.53910
  14   30990.0    322.7   0.000829325   0.00881   0.06657   0.03229  -0.05776
  15   31904.2    313.4   0.126999607   1.31048  -0.05648   0.99336   0.56614
  16   32151.4    311.0   0.150199549   1.53796  -0.04975  -1.13089  -0.50652
  17   32205.8    310.5   0.018919330   0.19340   0.08901   0.40518   0.14594
  18   34430.9    290.4   0.056146843   0.53685   0.18991   0.65940   0.25686
  19   34733.7    287.9   0.135602001   1.28526   0.53930  -0.61634  -0.78392
  20   35004.5    285.7   0.026039438   0.24490   0.23508  -0.03994  -0.43363
  21   35129.8    284.7   0.212361758   1.99011  -0.28301  -1.34074  -0.33531
  22   35716.5    280.0   0.029177890   0.26894   0.22264   0.46415   0.06276
  23   35729.7    279.9   0.083177543   0.76640   0.19331  -0.71749  -0.46286
  24   36471.0    274.2   0.208904487   1.88571   0.40028   1.28339   0.28002
  25   36604.2    273.2   0.004697369   0.04225   0.08275   0.18815   0.00031
  26   36961.0    270.6   0.026332516   0.23454  -0.41053  -0.24683  -0.07130
  27   37339.1    267.8   0.027555747   0.24295  -0.11543  -0.43657   0.19758
  28   37409.2    267.3   0.000415141   0.00365  -0.05746  -0.01805  -0.00508
  29   37985.8    263.3   0.038963262   0.33768  -0.06535   0.26014   0.51550
  30   38377.4    260.6   0.008274298   0.07098  -0.12103  -0.18665   0.14660
  31   39545.2    252.9   0.155703689   1.29622  -0.21298  -1.11302  -0.10973
  32   39986.1    250.1   0.040678230   0.33491  -0.47842   0.23612   0.22421
  33   40168.5    249.0   0.022757217   0.18651   0.36510  -0.15943  -0.16672

FINAL SINGLE POINT ENERGY     -4122.386634561961

DIPOLE MOMENT
-------------
                                X             Y             Z
Electronic contribution:    -10.03196     -35.80192     -41.56421
Nuclear contribution   :      9.48526      36.89596      43.55915
                        -----------------------------------------
Total Dipole Moment    :     -0.54670       1.09403       1.99495
                        -----------------------------------------
Magnitude (a.u.)       :      2.34000
Magnitude (Debye)      :      5.94782

Rotational constants in cm-1:     0.002796     0.000185     0.000181
Rotational constants in MHz :    83.807533     5.552060     5.416715

                             ****ORCA TERMINATED NORMALLY****
TOTAL RUN TIME: 0 days 0 hours 10 minutes 41 seconds 886 msec
