                         Program Version 4.2.0 -  RELEASE  -
|  1> # ORCA input file
|  2> # SCF done       -223.199852591516          0.000658110689
|  3> ! CAM-B3LYP def2-SVP def2/J RIJCOSX Grid4 TightSCF
|  4> %maxcore 5000
|  5> %tddft
|  6>     Mode sTDDFT
|  7>     Ethresh 5.0
|  8>     maxcore 5000
|  9> end
| 10>
| 11> %pal
| 12>   nprocs 6
| 13>   end
| 14> * xyz 0 1
| 15>    C        1.10180        -1.15740         1.41881
| 16>    S        2.45702        -0.68027         2.34224
| 17>    C        2.11873         0.99386         2.03758
| 18>    C        1.01750         1.14524         1.22943
| 19>    C        0.43900        -0.09742         0.87090
| 20>    C       -0.75812        -0.21307        -0.03152
| 21>    C       -0.36675        -0.96163        -1.30694
| 22>    F       -0.04221        -2.23979        -1.05569
| 23>    F       -1.37622        -1.00503        -2.19310
| 24>    F        0.67664        -0.42590        -1.95112
| 25>    C       -1.34563         1.16638        -0.35322
| 26>    C       -0.24913         2.19864        -0.60102
| 27>    C        0.50328         2.45869         0.71024
| 28>    O       -0.32265         3.03228         1.71529
| 29>    C       -0.78018         4.33095         1.43592
| 30>    C        2.92911         2.03054         2.62614
| 31>    C        4.27132         2.27506         2.44447
| 32>    N        5.16879         1.56157         1.62585
| 33>    O        4.74556         0.60275         1.00387
| 34>    O        6.31761         1.96244         1.57520
| 35>    C        4.64883         3.46680         3.17398
| 36>    C        3.54499         3.97426         3.76399
| 37>    C        2.42414         3.10031         3.48844
| 38>    C        1.17385         3.13512         4.06416
| 39>    C        0.33043         2.00312         4.31863
| 40>    C       -0.68402         2.38175         5.13818
| 41>    C       -0.57718         3.79075         5.38660
| 42>    N       -1.55030         4.51983         6.09198
| 43>    O       -1.53657         5.73835         6.01069
| 44>    O       -2.36824         3.88402         6.73432
| 45>    C        0.54565         4.29418         4.73765
| 46>    C        0.94298         5.64379         4.68313
| 47>    C        1.61945         6.22251         3.64487
| 48>    C        2.07597         7.55337         3.68348
| 49>    N        2.57759         8.23733         2.59805
| 50>    C        2.60034         7.77530         1.23180
| 51>    C        1.22397         7.88565         0.58042
| 52>    C        2.99168         9.53387         2.93466
| 53>    O        3.45315        10.32259         2.13288
| 54>    C        2.74602         9.63053         4.35879
| 55>    C        2.18231         8.40982         4.78513
| 56>    C        1.98410         8.48231         6.21853
| 57>    O        1.56452         7.68287         7.02481
| 58>    N        2.42389         9.77875         6.56070
| 59>    C        2.41126        10.22616         7.93337
| 60>    C        3.78494        10.09529         8.58662
| 61>    C        2.89246        10.46678         5.47347
| 62>    C        3.42586        11.77932         5.54056
| 63>    C        3.88349        12.42848         4.44292
| 64>    C        4.46189        13.74493         4.41922
| 65>    C        4.74706        14.48154         5.56779
| 66>    C        5.31842        15.74180         5.49097
| 67>    N        5.53331        16.41534         6.74512
| 68>    O        5.54771        15.73101         7.74690
| 69>    O        5.68226        17.62160         6.74804
| 70>    C        5.63504        16.33354         4.25111
| 71>    C        5.33949        15.58140         3.10463
| 72>    C        4.77628        14.33150         3.18013
| 73>    C        6.27037        17.62690         4.14991
| 74>    C        6.07603        18.48932         3.14054
| 75>    C        6.65306        19.80773         3.10131
| 76>    S        7.24899        20.40926         1.57952
| 77>    C        7.76988        21.86613         2.31565
| 78>    C        7.47835        21.91436         3.64486
| 79>    C        6.82930        20.73568         4.10241
| 80>    C        6.22435        20.67150         5.47980
| 81>    C        4.71514        20.89218         5.33780
| 82>    F        4.39160        21.94231         4.56206
| 83>    F        4.10200        19.83347         4.77904
| 84>    F        4.10866        21.09587         6.51342
| 85>    C        6.85555        21.70964         6.41463
| 86>    C        6.95309        23.09018         5.77298
| 87>    C        7.88897        23.03182         4.56624
| 88>    O        9.19936        22.81551         5.07372
| 89>    C       10.23436        22.99732         4.14581
| 90>    H        0.87094        -2.19945         1.31876
| 91>    H       -1.52356        -0.84169         0.43929
| 92>    H       -1.93595         1.49272         0.50530
| 93>    H       -2.00680         1.09294        -1.21770
| 94>    H       -0.68960         3.12535        -0.96926
| 95>    H        0.46302         1.84713        -1.34686
| 96>    H        1.35311         3.13972         0.52164
| 97>    H       -1.13792         4.74169         2.37894
| 98>    H       -1.60390         4.33382         0.71496
| 99>    H        0.03006         4.95874         1.04727
|100>    H        5.65393         3.84031         3.21184
|101>    H        3.50726         4.81560         4.42666
|102>    H        0.53610         1.00567         3.98798
|103>    H       -1.46414         1.76691         5.54580
|104>    H        0.61522         6.27083         5.50527
|105>    H        1.79360         5.65254         2.74304
|106>    H        2.96854         6.74591         1.20091
|107>    H        3.31034         8.41779         0.70407
|108>    H        0.48167         7.32416         1.14447
|109>    H        1.26243         7.50211        -0.43544
|110>    H        0.91305         8.92682         0.54602
|111>    H        1.69674         9.58290         8.45424
|112>    H        2.05263        11.25778         7.97786
|113>    H        4.10161         9.05532         8.57956
|114>    H        3.73361        10.43480         9.61709
|115>    H        4.53005        10.68767         8.06007
|116>    H        3.45238        12.24987         6.51186
|117>    H        3.82066        11.93109         3.48372
|118>    H        4.53194        14.09084         6.55040
|119>    H        5.59455        15.99271         2.14074
|120>    H        4.57052        13.77689         2.27684
|121>    H        6.91716        17.91806         4.96325
|122>    H        5.45441        18.22294         2.29630
|123>    H        8.24943        22.61470         1.71621
|124>    H        6.31386        19.68201         5.93404
|125>    H        7.86533        21.37777         6.65829
|126>    H        6.27811        21.76087         7.33814
|127>    H        7.36867        23.79311         6.49480
|128>    H        5.97574        23.45291         5.45712
|129>    H        7.86926        23.98714         4.01568
|130>    H       11.16272        22.89890         4.70524
|131>    H       10.18781        23.99406         3.68924
|132>    H       10.21005        22.24177         3.35148
|133> *
|134>
|135>                          ****END OF INPUT****

CARTESIAN COORDINATES (ANGSTROEM)
---------------------------------
  C      1.101800   -1.157400    1.418810
  S      2.457020   -0.680270    2.342240
  C      2.118730    0.993860    2.037580
  C      1.017500    1.145240    1.229430
  C      0.439000   -0.097420    0.870900
  C     -0.758120   -0.213070   -0.031520
  C     -0.366750   -0.961630   -1.306940
  F     -0.042210   -2.239790   -1.055690
  F     -1.376220   -1.005030   -2.193100
  F      0.676640   -0.425900   -1.951120
  C     -1.345630    1.166380   -0.353220
  C     -0.249130    2.198640   -0.601020
  C      0.503280    2.458690    0.710240
  O     -0.322650    3.032280    1.715290
  C     -0.780180    4.330950    1.435920
  C      2.929110    2.030540    2.626140
  C      4.271320    2.275060    2.444470
  N      5.168790    1.561570    1.625850
  O      4.745560    0.602750    1.003870
  O      6.317610    1.962440    1.575200
  C      4.648830    3.466800    3.173980
  C      3.544990    3.974260    3.763990
  C      2.424140    3.100310    3.488440
  C      1.173850    3.135120    4.064160
  C      0.330430    2.003120    4.318630
  C     -0.684020    2.381750    5.138180
  C     -0.577180    3.790750    5.386600
  N     -1.550300    4.519830    6.091980
  O     -1.536570    5.738350    6.010690
  O     -2.368240    3.884020    6.734320
  C      0.545650    4.294180    4.737650
  C      0.942980    5.643790    4.683130
  C      1.619450    6.222510    3.644870
  C      2.075970    7.553370    3.683480
  N      2.577590    8.237330    2.598050
  C      2.600340    7.775300    1.231800
  C      1.223970    7.885650    0.580420
  C      2.991680    9.533870    2.934660
  O      3.453150   10.322590    2.132880
  C      2.746020    9.630530    4.358790
  C      2.182310    8.409820    4.785130
  C      1.984100    8.482310    6.218530
  O      1.564520    7.682870    7.024810
  N      2.423890    9.778750    6.560700
  C      2.411260   10.226160    7.933370
  C      3.784940   10.095290    8.586620
  C      2.892460   10.466780    5.473470
  C      3.425860   11.779320    5.540560
  C      3.883490   12.428480    4.442920
  C      4.461890   13.744930    4.419220
  C      4.747060   14.481540    5.567790
  C      5.318420   15.741800    5.490970
  N      5.533310   16.415340    6.745120
  O      5.547710   15.731010    7.746900
  O      5.682260   17.621600    6.748040
  C      5.635040   16.333540    4.251110
  C      5.339490   15.581400    3.104630
  C      4.776280   14.331500    3.180130
  C      6.270370   17.626900    4.149910
  C      6.076030   18.489320    3.140540
  C      6.653060   19.807730    3.101310
  S      7.248990   20.409260    1.579520
  C      7.769880   21.866130    2.315650
  C      7.478350   21.914360    3.644860
  C      6.829300   20.735680    4.102410
  C      6.224350   20.671500    5.479800
  C      4.715140   20.892180    5.337800
  F      4.391600   21.942310    4.562060
  F      4.102000   19.833470    4.779040
  F      4.108660   21.095870    6.513420
  C      6.855550   21.709640    6.414630
  C      6.953090   23.090180    5.772980
  C      7.888970   23.031820    4.566240
  O      9.199360   22.815510    5.073720
  C     10.234360   22.997320    4.145810
  H      0.870940   -2.199450    1.318760
  H     -1.523560   -0.841690    0.439290
  H     -1.935950    1.492720    0.505300
  H     -2.006800    1.092940   -1.217700
  H     -0.689600    3.125350   -0.969260
  H      0.463020    1.847130   -1.346860
  H      1.353110    3.139720    0.521640
  H     -1.137920    4.741690    2.378940
  H     -1.603900    4.333820    0.714960
  H      0.030060    4.958740    1.047270
  H      5.653930    3.840310    3.211840
  H      3.507260    4.815600    4.426660
  H      0.536100    1.005670    3.987980
  H     -1.464140    1.766910    5.545800
  H      0.615220    6.270830    5.505270
  H      1.793600    5.652540    2.743040
  H      2.968540    6.745910    1.200910
  H      3.310340    8.417790    0.704070
  H      0.481670    7.324160    1.144470
  H      1.262430    7.502110   -0.435440
  H      0.913050    8.926820    0.546020
  H      1.696740    9.582900    8.454240
  H      2.052630   11.257780    7.977860
  H      4.101610    9.055320    8.579560
  H      3.733610   10.434800    9.617090
  H      4.530050   10.687670    8.060070
  H      3.452380   12.249870    6.511860
  H      3.820660   11.931090    3.483720
  H      4.531940   14.090840    6.550400
  H      5.594550   15.992710    2.140740
  H      4.570520   13.776890    2.276840
  H      6.917160   17.918060    4.963250
  H      5.454410   18.222940    2.296300
  H      8.249430   22.614700    1.716210
  H      6.313860   19.682010    5.934040
  H      7.865330   21.377770    6.658290
  H      6.278110   21.760870    7.338140
  H      7.368670   23.793110    6.494800
  H      5.975740   23.452910    5.457120
  H      7.869260   23.987140    4.015680
  H     11.162720   22.898900    4.705240
  H     10.187810   23.994060    3.689240
  H     10.210050   22.241770    3.351480

 Total Charge           Charge          ....    0
 Multiplicity           Mult            ....    1
 Number of Electrons    NEL             ....  556
 Basis Dimension        Dim             .... 1273

ORBITAL ENERGIES
----------------

  NO   OCC          E(Eh)            E(eV)
   0   2.0000     -88.962269     -2420.7864
   1   2.0000     -88.955792     -2420.6102
   2   2.0000     -24.798815      -674.8101
   3   2.0000     -24.796776      -674.7546
   4   2.0000     -24.796016      -674.7339
   5   2.0000     -24.787421      -674.5000
   6   2.0000     -24.787015      -674.4890
   7   2.0000     -24.783417      -674.3911
   8   2.0000     -19.253849      -523.9239
   9   2.0000     -19.252043      -523.8747
  10   2.0000     -19.238266      -523.4998
  11   2.0000     -19.235935      -523.4364
  12   2.0000     -19.232936      -523.3548
  13   2.0000     -19.232260      -523.3364
  14   2.0000     -19.232202      -523.3348
  15   2.0000     -19.211152      -522.7620
  16   2.0000     -19.202925      -522.5382
  17   2.0000     -19.195867      -522.3461
  18   2.0000     -14.659114      -398.8948
  19   2.0000     -14.646019      -398.5384
  20   2.0000     -14.641324      -398.4107
  21   2.0000     -14.463254      -393.5652
  22   2.0000     -14.460211      -393.4824
  23   2.0000     -10.509588      -285.9804
  24   2.0000     -10.498605      -285.6816
  25   2.0000     -10.384095      -282.5656
  26   2.0000     -10.380051      -282.4556
  27   2.0000     -10.352007      -281.6924
  28   2.0000     -10.342937      -281.4456
  29   2.0000     -10.339625      -281.3555
  30   2.0000     -10.336337      -281.2660
  31   2.0000     -10.331880      -281.1447
  32   2.0000     -10.331514      -281.1348
  33   2.0000     -10.326913      -281.0096
  34   2.0000     -10.323044      -280.9043
  35   2.0000     -10.323034      -280.9040
  36   2.0000     -10.320622      -280.8384
  37   2.0000     -10.319414      -280.8055
  38   2.0000     -10.319158      -280.7986
  39   2.0000     -10.317037      -280.7409
  40   2.0000     -10.316571      -280.7282
  41   2.0000     -10.315274      -280.6929
  42   2.0000     -10.309955      -280.5481
  43   2.0000     -10.307480      -280.4808
  44   2.0000     -10.305643      -280.4308
  45   2.0000     -10.305367      -280.4233
  46   2.0000     -10.305360      -280.4231
  47   2.0000     -10.305181      -280.4182
  48   2.0000     -10.302567      -280.3471
  49   2.0000     -10.302311      -280.3401
  50   2.0000     -10.301509      -280.3183
  51   2.0000     -10.299285      -280.2578
  52   2.0000     -10.299102      -280.2528
  53   2.0000     -10.298074      -280.2248
  54   2.0000     -10.297663      -280.2137
  55   2.0000     -10.294146      -280.1180
  56   2.0000     -10.293796      -280.1084
  57   2.0000     -10.293753      -280.1073
  58   2.0000     -10.291789      -280.0538
  59   2.0000     -10.290420      -280.0166
  60   2.0000     -10.286737      -279.9163
  61   2.0000     -10.286133      -279.8999
  62   2.0000     -10.285458      -279.8815
  63   2.0000     -10.285363      -279.8790
  64   2.0000     -10.282488      -279.8007
  65   2.0000     -10.281995      -279.7873
  66   2.0000     -10.280421      -279.7445
  67   2.0000     -10.275250      -279.6038
  68   2.0000     -10.273916      -279.5675
  69   2.0000     -10.272889      -279.5395
  70   2.0000     -10.272796      -279.5370
  71   2.0000     -10.269143      -279.4376
  72   2.0000     -10.268866      -279.4300
  73   2.0000     -10.264101      -279.3004
  74   2.0000     -10.258438      -279.1463
  75   2.0000      -8.057665      -219.2602
  76   2.0000      -8.051899      -219.1033
  77   2.0000      -6.026867      -163.9994
  78   2.0000      -6.022577      -163.8827
  79   2.0000      -6.021096      -163.8424
  80   2.0000      -6.020059      -163.8141
  81   2.0000      -6.016901      -163.7282
  82   2.0000      -6.014237      -163.6557
  83   2.0000      -1.387687       -37.7609
  84   2.0000      -1.376430       -37.4546
  85   2.0000      -1.333706       -36.2920
  86   2.0000      -1.317160       -35.8417
  87   2.0000      -1.311337       -35.6833
  88   2.0000      -1.290461       -35.1152
  89   2.0000      -1.287940       -35.0466
  90   2.0000      -1.279263       -34.8105
  91   2.0000      -1.275644       -34.7120
  92   2.0000      -1.151362       -31.3302
  93   2.0000      -1.143585       -31.1185
  94   2.0000      -1.135176       -30.8897
  95   2.0000      -1.134663       -30.8758
  96   2.0000      -1.132702       -30.8224
  97   2.0000      -1.128810       -30.7165
  98   2.0000      -1.113350       -30.2958
  99   2.0000      -1.073559       -29.2130
 100   2.0000      -1.064110       -28.9559
 101   2.0000      -1.017989       -27.7009
 102   2.0000      -1.000324       -27.2202
 103   2.0000      -0.998712       -27.1763
 104   2.0000      -0.988810       -26.9069
 105   2.0000      -0.988188       -26.8900
 106   2.0000      -0.939178       -25.5563
 107   2.0000      -0.933735       -25.4082
 108   2.0000      -0.932689       -25.3798
 109   2.0000      -0.920519       -25.0486
 110   2.0000      -0.917778       -24.9740
 111   2.0000      -0.910002       -24.7624
 112   2.0000      -0.908301       -24.7161
 113   2.0000      -0.898728       -24.4556
 114   2.0000      -0.885013       -24.0824
 115   2.0000      -0.880467       -23.9587
 116   2.0000      -0.878336       -23.9007
 117   2.0000      -0.870478       -23.6869
 118   2.0000      -0.851434       -23.1687
 119   2.0000      -0.850962       -23.1558
 120   2.0000      -0.844050       -22.9678
 121   2.0000      -0.836088       -22.7511
 122   2.0000      -0.828656       -22.5489
 123   2.0000      -0.825239       -22.4559
 124   2.0000      -0.813116       -22.1260
 125   2.0000      -0.809820       -22.0363
 126   2.0000      -0.800859       -21.7925
 127   2.0000      -0.793497       -21.5922
 128   2.0000      -0.780329       -21.2338
 129   2.0000      -0.777078       -21.1454
 130   2.0000      -0.775748       -21.1092
 131   2.0000      -0.768598       -20.9146
 132   2.0000      -0.765098       -20.8194
 133   2.0000      -0.761116       -20.7110
 134   2.0000      -0.746050       -20.3011
 135   2.0000      -0.738437       -20.0939
 136   2.0000      -0.726024       -19.7561
 137   2.0000      -0.722313       -19.6551
 138   2.0000      -0.718300       -19.5459
 139   2.0000      -0.715729       -19.4760
 140   2.0000      -0.709777       -19.3140
 141   2.0000      -0.697009       -18.9666
 142   2.0000      -0.692052       -18.8317
 143   2.0000      -0.691013       -18.8034
 144   2.0000      -0.684794       -18.6342
 145   2.0000      -0.679886       -18.5006
 146   2.0000      -0.673590       -18.3293
 147   2.0000      -0.672912       -18.3109
 148   2.0000      -0.670646       -18.2492
 149   2.0000      -0.668700       -18.1962
 150   2.0000      -0.665363       -18.1055
 151   2.0000      -0.661354       -17.9964
 152   2.0000      -0.659087       -17.9347
 153   2.0000      -0.657587       -17.8938
 154   2.0000      -0.655448       -17.8356
 155   2.0000      -0.649250       -17.6670
 156   2.0000      -0.647141       -17.6096
 157   2.0000      -0.638665       -17.3790
 158   2.0000      -0.636111       -17.3095
 159   2.0000      -0.631927       -17.1956
 160   2.0000      -0.628065       -17.0905
 161   2.0000      -0.628005       -17.0889
 162   2.0000      -0.623492       -16.9661
 163   2.0000      -0.618220       -16.8226
 164   2.0000      -0.617447       -16.8016
 165   2.0000      -0.613415       -16.6919
 166   2.0000      -0.610210       -16.6047
 167   2.0000      -0.601112       -16.3571
 168   2.0000      -0.600659       -16.3448
 169   2.0000      -0.598682       -16.2910
 170   2.0000      -0.592529       -16.1235
 171   2.0000      -0.591580       -16.0977
 172   2.0000      -0.586655       -15.9637
 173   2.0000      -0.585354       -15.9283
 174   2.0000      -0.581120       -15.8131
 175   2.0000      -0.579872       -15.7791
 176   2.0000      -0.578214       -15.7340
 177   2.0000      -0.574707       -15.6386
 178   2.0000      -0.571372       -15.5478
 179   2.0000      -0.566303       -15.4099
 180   2.0000      -0.560982       -15.2651
 181   2.0000      -0.558653       -15.2017
 182   2.0000      -0.552050       -15.0220
 183   2.0000      -0.550963       -14.9925
 184   2.0000      -0.548111       -14.9148
 185   2.0000      -0.546262       -14.8646
 186   2.0000      -0.543994       -14.8028
 187   2.0000      -0.542202       -14.7541
 188   2.0000      -0.541594       -14.7375
 189   2.0000      -0.539788       -14.6884
 190   2.0000      -0.539317       -14.6756
 191   2.0000      -0.537043       -14.6137
 192   2.0000      -0.536177       -14.5901
 193   2.0000      -0.534950       -14.5567
 194   2.0000      -0.534133       -14.5345
 195   2.0000      -0.531078       -14.4514
 196   2.0000      -0.529266       -14.4021
 197   2.0000      -0.525929       -14.3113
 198   2.0000      -0.524105       -14.2616
 199   2.0000      -0.518803       -14.1173
 200   2.0000      -0.516583       -14.0569
 201   2.0000      -0.515564       -14.0292
 202   2.0000      -0.515319       -14.0225
 203   2.0000      -0.511505       -13.9188
 204   2.0000      -0.508669       -13.8416
 205   2.0000      -0.503766       -13.7082
 206   2.0000      -0.502389       -13.6707
 207   2.0000      -0.500633       -13.6229
 208   2.0000      -0.499711       -13.5978
 209   2.0000      -0.497043       -13.5252
 210   2.0000      -0.495065       -13.4714
 211   2.0000      -0.489698       -13.3254
 212   2.0000      -0.487371       -13.2620
 213   2.0000      -0.486298       -13.2328
 214   2.0000      -0.485747       -13.2178
 215   2.0000      -0.485656       -13.2154
 216   2.0000      -0.484302       -13.1785
 217   2.0000      -0.482891       -13.1401
 218   2.0000      -0.481384       -13.0991
 219   2.0000      -0.478063       -13.0088
 220   2.0000      -0.477040       -12.9809
 221   2.0000      -0.475498       -12.9389
 222   2.0000      -0.474991       -12.9252
 223   2.0000      -0.474482       -12.9113
 224   2.0000      -0.472408       -12.8549
 225   2.0000      -0.470986       -12.8162
 226   2.0000      -0.469125       -12.7656
 227   2.0000      -0.465795       -12.6749
 228   2.0000      -0.463937       -12.6244
 229   2.0000      -0.462044       -12.5728
 230   2.0000      -0.460133       -12.5209
 231   2.0000      -0.457035       -12.4366
 232   2.0000      -0.455469       -12.3940
 233   2.0000      -0.453183       -12.3317
 234   2.0000      -0.451044       -12.2735
 235   2.0000      -0.448229       -12.1969
 236   2.0000      -0.445704       -12.1282
 237   2.0000      -0.443691       -12.0734
 238   2.0000      -0.441343       -12.0096
 239   2.0000      -0.433135       -11.7862
 240   2.0000      -0.432153       -11.7595
 241   2.0000      -0.427319       -11.6279
 242   2.0000      -0.425375       -11.5750
 243   2.0000      -0.421108       -11.4589
 244   2.0000      -0.421039       -11.4571
 245   2.0000      -0.416489       -11.3332
 246   2.0000      -0.413275       -11.2458
 247   2.0000      -0.409486       -11.1427
 248   2.0000      -0.407066       -11.0768
 249   2.0000      -0.397580       -10.8187
 250   2.0000      -0.396598       -10.7920
 251   2.0000      -0.394448       -10.7335
 252   2.0000      -0.390479       -10.6255
 253   2.0000      -0.385315       -10.4850
 254   2.0000      -0.383148       -10.4260
 255   2.0000      -0.379587       -10.3291
 256   2.0000      -0.377388       -10.2693
 257   2.0000      -0.376647       -10.2491
 258   2.0000      -0.372661       -10.1406
 259   2.0000      -0.369333       -10.0501
 260   2.0000      -0.365346        -9.9416
 261   2.0000      -0.363383        -9.8882
 262   2.0000      -0.357979        -9.7411
 263   2.0000      -0.356503        -9.7009
 264   2.0000      -0.354135        -9.6365
 265   2.0000      -0.351749        -9.5716
 266   2.0000      -0.340014        -9.2522
 267   2.0000      -0.332167        -9.0387
 268   2.0000      -0.331897        -9.0314
 269   2.0000      -0.329131        -8.9561
 270   2.0000      -0.324938        -8.8420
 271   2.0000      -0.322269        -8.7694
 272   2.0000      -0.320650        -8.7253
 273   2.0000      -0.313122        -8.5205
 274   2.0000      -0.302819        -8.2401
 275   2.0000      -0.288277        -7.8444
 276   2.0000      -0.279407        -7.6030
 277   2.0000      -0.240473        -6.5436
 278   0.0000      -0.131131        -3.5683
 279   0.0000      -0.087583        -2.3832
 280   0.0000      -0.061473        -1.6728
 281   0.0000      -0.048306        -1.3145
 282   0.0000      -0.029201        -0.7946

MULLIKEN ATOMIC CHARGES
-----------------------
   0 C :   -0.120279
   1 S :    0.193795
   2 C :   -0.295871
   3 C :    0.071259
   4 C :   -0.036054
   5 C :   -0.053321
   6 C :    0.475923
   7 F :   -0.163084
   8 F :   -0.165840
   9 F :   -0.157830
  10 C :    0.061472
  11 C :    0.029534
  12 C :    0.196034
  13 O :   -0.379481
  14 C :    0.182051
  15 C :    0.022309
  16 C :    0.089475
  17 N :    0.265233
  18 O :   -0.240320
  19 O :   -0.244027
  20 C :    0.002576
  21 C :   -0.000871
  22 C :    0.011796
  23 C :    0.066808
  24 C :    0.063436
  25 C :    0.006734
  26 C :    0.097850
  27 N :    0.269048
  28 O :   -0.247870
  29 O :   -0.249771
  30 C :    0.019065
  31 C :   -0.021968
  32 C :   -0.063378
  33 C :    0.122077
  34 N :   -0.253361
  35 C :    0.099185
  36 C :    0.000118
  37 C :    0.165516
  38 O :   -0.220738
  39 C :   -0.077853
  40 C :   -0.044111
  41 C :    0.155385
  42 O :   -0.181616
  43 N :   -0.257380
  44 C :    0.097374
  45 C :    0.004557
  46 C :    0.144790
  47 C :   -0.002462
  48 C :    0.008280
  49 C :    0.108065
  50 C :   -0.070604
  51 C :    0.152821
  52 N :    0.258816
  53 O :   -0.228653
  54 O :   -0.240305
  55 C :    0.052979
  56 C :   -0.029712
  57 C :    0.021816
  58 C :   -0.001220
  59 C :    0.013742
  60 C :   -0.173112
  61 S :    0.119972
  62 C :   -0.123775
  63 C :   -0.048630
  64 C :    0.026000
  65 C :   -0.083970
  66 C :    0.481281
  67 F :   -0.168657
  68 F :   -0.162873
  69 F :   -0.157674
  70 C :    0.051517
  71 C :    0.073020
  72 C :    0.218576
  73 O :   -0.380925
  74 C :    0.189653
  75 H :    0.024654
  76 H :    0.036476
  77 H :    0.018605
  78 H :    0.020589
  79 H :    0.000366
  80 H :    0.025934
  81 H :   -0.005814
  82 H :    0.041755
  83 H :    0.018995
  84 H :   -0.002724
  85 H :   -0.001925
  86 H :    0.011247
  87 H :   -0.005990
  88 H :    0.000797
  89 H :    0.047545
  90 H :   -0.005055
  91 H :    0.023765
  92 H :    0.044685
  93 H :    0.019901
  94 H :    0.023355
  95 H :    0.031142
  96 H :    0.048701
  97 H :    0.027528
  98 H :    0.030722
  99 H :    0.028776
 100 H :    0.015851
 101 H :   -0.026652
 102 H :    0.009589
 103 H :   -0.000067
 104 H :   -0.009274
 105 H :    0.007544
 106 H :    0.017406
 107 H :    0.008459
 108 H :    0.014220
 109 H :    0.044118
 110 H :    0.022567
 111 H :    0.017319
 112 H :    0.006179
 113 H :    0.015144
 114 H :   -0.017656
 115 H :    0.026163
 116 H :   -0.008567
 117 H :    0.011285
Sum of atomic charges:    0.0000000

LOEWDIN ATOMIC CHARGES
----------------------
   0 C :   -0.177793
   1 S :    0.487286
   2 C :   -0.182870
   3 C :   -0.053105
   4 C :   -0.070432
   5 C :   -0.055656
   6 C :    0.162830
   7 F :   -0.061470
   8 F :   -0.064652
   9 F :   -0.054007
  10 C :   -0.021089
  11 C :   -0.039979
  12 C :    0.072273
  13 O :   -0.154291
  14 C :    0.064360
  15 C :   -0.018084
  16 C :   -0.035152
  17 N :    0.280760
  18 O :   -0.211123
  19 O :   -0.209190
  20 C :   -0.010547
  21 C :   -0.034861
  22 C :    0.020020
  23 C :    0.069007
  24 C :   -0.019308
  25 C :    0.015020
  26 C :   -0.037857
  27 N :    0.283323
  28 O :   -0.210890
  29 O :   -0.214504
  30 C :    0.000309
  31 C :    0.021385
  32 C :   -0.026518
  33 C :    0.057136
  34 N :    0.001353
  35 C :    0.037759
  36 C :   -0.062711
  37 C :    0.076875
  38 O :   -0.210898
  39 C :   -0.127823
  40 C :   -0.101943
  41 C :    0.082484
  42 O :   -0.175128
  43 N :    0.001980
  44 C :    0.037169
  45 C :   -0.060188
  46 C :    0.089655
  47 C :   -0.050851
  48 C :    0.046345
  49 C :   -0.037390
  50 C :    0.021160
  51 C :   -0.031155
  52 N :    0.291720
  53 O :   -0.197268
  54 O :   -0.196042
  55 C :    0.011828
  56 C :   -0.008843
  57 C :    0.024236
  58 C :   -0.022305
  59 C :   -0.020696
  60 C :   -0.177863
  61 S :    0.437715
  62 C :   -0.184874
  63 C :   -0.073410
  64 C :   -0.051181
  65 C :   -0.058828
  66 C :    0.167229
  67 F :   -0.065140
  68 F :   -0.063042
  69 F :   -0.057146
  70 C :   -0.018792
  71 C :   -0.033392
  72 C :    0.076700
  73 O :   -0.167898
  74 C :    0.063758
  75 H :    0.024645
  76 H :    0.049841
  77 H :    0.031229
  78 H :    0.028949
  79 H :    0.024591
  80 H :    0.029475
  81 H :    0.011517
  82 H :    0.025953
  83 H :    0.010036
  84 H :    0.003759
  85 H :    0.036514
  86 H :    0.033814
  87 H :    0.030166
  88 H :    0.038144
  89 H :    0.045284
  90 H :    0.028896
  91 H :    0.022917
  92 H :    0.038326
  93 H :    0.020693
  94 H :    0.030052
  95 H :    0.033986
  96 H :    0.040357
  97 H :    0.024859
  98 H :    0.032743
  99 H :    0.033252
 100 H :    0.022013
 101 H :    0.028431
 102 H :    0.038749
 103 H :    0.036184
 104 H :    0.035650
 105 H :    0.042054
 106 H :    0.029975
 107 H :    0.029020
 108 H :    0.021104
 109 H :    0.044691
 110 H :    0.032418
 111 H :    0.028154
 112 H :    0.030000
 113 H :    0.023447
 114 H :    0.011720
 115 H :    0.023450
 116 H :    0.003393
 117 H :    0.006057

  Mayer bond orders larger than 0.100000
B(  0-C ,  1-S ) :   1.1858 B(  0-C ,  4-C ) :   1.5590 B(  0-C , 75-H ) :   0.9658
B(  1-S ,  2-C ) :   1.1706 B(  2-C ,  3-C ) :   1.5741 B(  2-C , 15-C ) :   0.9984
B(  3-C ,  4-C ) :   1.3204 B(  3-C , 12-C ) :   0.9870 B(  4-C ,  5-C ) :   0.9411
B(  5-C ,  6-C ) :   0.9848 B(  5-C , 10-C ) :   1.0686 B(  5-C , 76-H ) :   0.8893
B(  6-C ,  7-F ) :   1.1414 B(  6-C ,  8-F ) :   1.1443 B(  6-C ,  9-F ) :   1.1449
B( 10-C , 11-C ) :   1.0536 B( 10-C , 77-H ) :   0.9243 B( 10-C , 78-H ) :   0.9350
B( 11-C , 12-C ) :   1.0490 B( 11-C , 79-H ) :   0.9247 B( 11-C , 80-H ) :   0.9381
B( 12-C , 13-O ) :   1.0365 B( 12-C , 81-H ) :   0.9072 B( 13-O , 14-C ) :   0.9785
B( 14-C , 82-H ) :   0.9766 B( 14-C , 83-H ) :   0.9644 B( 14-C , 84-H ) :   0.9553
B( 15-C , 16-C ) :   1.6062 B( 15-C , 22-C ) :   1.0972 B( 16-C , 17-N ) :   0.9303
B( 16-C , 20-C ) :   1.1135 B( 17-N , 18-O ) :   1.5143 B( 17-N , 19-O ) :   1.5293
B( 18-O , 19-O ) :   0.2718 B( 20-C , 21-C ) :   1.6015 B( 20-C , 85-H ) :   1.0154
B( 21-C , 22-C ) :   1.1029 B( 21-C , 86-H ) :   0.9990 B( 22-C , 23-C ) :   1.4933
B( 23-C , 24-C ) :   1.1339 B( 23-C , 30-C ) :   0.9988 B( 24-C , 25-C ) :   1.5720
B( 24-C , 87-H ) :   1.0014 B( 25-C , 26-C ) :   1.1227 B( 25-C , 88-H ) :   1.0156
B( 26-C , 27-N ) :   0.9468 B( 26-C , 30-C ) :   1.4967 B( 27-N , 28-O ) :   1.4963
B( 27-N , 29-O ) :   1.5218 B( 28-O , 29-O ) :   0.2617 B( 30-C , 31-C ) :   1.1958
B( 31-C , 32-C ) :   1.5314 B( 31-C , 89-H ) :   0.9281 B( 32-C , 33-C ) :   1.1869
B( 32-C , 90-H ) :   0.9528 B( 33-C , 34-N ) :   1.1493 B( 33-C , 40-C ) :   1.3375
B( 34-N , 35-C ) :   0.9496 B( 34-N , 37-C ) :   1.0717 B( 35-C , 36-C ) :   1.1201
B( 35-C , 91-H ) :   0.9482 B( 35-C , 92-H ) :   0.9283 B( 36-C , 93-H ) :   0.9632
B( 36-C , 94-H ) :   0.9686 B( 36-C , 95-H ) :   0.9602 B( 37-C , 38-O ) :   2.0083
B( 37-C , 39-C ) :   0.9934 B( 38-O ,102-H ) :   0.1203 B( 39-C , 40-C ) :   1.2723
B( 39-C , 46-C ) :   1.3068 B( 40-C , 41-C ) :   0.9687 B( 41-C , 42-O ) :   2.0893
B( 41-C , 43-N ) :   1.0384 B( 43-N , 44-C ) :   0.9417 B( 43-N , 46-C ) :   1.1827
B( 44-C , 45-C ) :   1.1203 B( 44-C , 96-H ) :   0.9276 B( 44-C , 97-H ) :   0.9498
B( 45-C , 98-H ) :   0.9635 B( 45-C , 99-H ) :   0.9680 B( 45-C ,100-H ) :   0.9685
B( 46-C , 47-C ) :   1.1566 B( 47-C , 48-C ) :   1.6031 B( 47-C ,101-H ) :   0.9569
B( 48-C , 49-C ) :   1.0780 B( 48-C ,102-H ) :   0.9640 B( 49-C , 50-C ) :   1.2948
B( 49-C , 57-C ) :   1.2993 B( 50-C , 51-C ) :   1.3762 B( 50-C ,103-H ) :   0.9853
B( 51-C , 52-N ) :   0.8848 B( 51-C , 55-C ) :   1.3367 B( 52-N , 53-O ) :   1.5577
B( 52-N , 54-O ) :   1.4936 B( 53-O , 54-O ) :   0.2593 B( 55-C , 56-C ) :   1.3412
B( 55-C , 58-C ) :   1.0697 B( 56-C , 57-C ) :   1.3955 B( 56-C ,104-H ) :   0.9904
B( 57-C ,105-H ) :   1.0019 B( 58-C , 59-C ) :   1.7966 B( 58-C ,106-H ) :   0.9478
B( 59-C , 60-C ) :   1.0512 B( 59-C ,107-H ) :   0.9495 B( 60-C , 61-S ) :   1.1382
B( 60-C , 64-C ) :   1.5509 B( 61-S , 62-C ) :   1.1570 B( 62-C , 63-C ) :   1.5815
B( 62-C ,108-H ) :   0.9679 B( 63-C , 64-C ) :   1.3004 B( 63-C , 72-C ) :   0.9639
B( 64-C , 65-C ) :   0.9789 B( 65-C , 66-C ) :   0.9829 B( 65-C , 70-C ) :   1.0634
B( 65-C ,109-H ) :   0.8745 B( 66-C , 67-F ) :   1.1293 B( 66-C , 68-F ) :   1.1451
B( 66-C , 69-F ) :   1.1583 B( 70-C , 71-C ) :   1.0607 B( 70-C ,110-H ) :   0.9324
B( 70-C ,111-H ) :   0.9337 B( 71-C , 72-C ) :   1.0533 B( 71-C ,112-H ) :   0.9208
B( 71-C ,113-H ) :   0.9395 B( 72-C , 73-O ) :   1.0193 B( 72-C ,114-H ) :   0.9200
B( 73-O , 74-C ) :   0.9969 B( 74-C ,115-H ) :   0.9802 B( 74-C ,116-H ) :   0.9620
B( 74-C ,117-H ) :   0.9637

-----------------------------------------------------------------------------
         ABSORPTION SPECTRUM VIA TRANSITION ELECTRIC DIPOLE MOMENTS
-----------------------------------------------------------------------------
State   Energy  Wavelength   fosc         T2         TX        TY        TZ
        (cm-1)    (nm)                  (au**2)     (au)      (au)      (au)
-----------------------------------------------------------------------------
   0    7979.0   1253.3   0.277251213  11.43930  -0.72357  -3.26180  -0.52575
   1   14721.7    679.3   0.002412474   0.05395  -0.03246  -0.12266   0.19455
   2   17124.1    584.0   0.435902419   8.38025   1.15919   2.58720   0.58560
   3   18186.7    549.9   0.055614946   1.00673   0.41437   0.90977   0.08569
   4   21898.7    456.6   0.003969894   0.05968  -0.04900   0.23903  -0.01196
   5   22621.6    442.1   0.010113993   0.14719   0.24087   0.23319   0.18653
   6   23423.0    426.9   0.262701669   3.69228  -0.68549  -1.71937   0.51591
   7   24192.3    413.4   0.041316422   0.56224  -0.31106  -0.62942   0.26328
   8   24657.6    405.6   0.089884444   1.20008   1.05467  -0.14779  -0.25672
   9   24865.1    402.2   0.057959594   0.76738   0.55017  -0.54366   0.41126
  10   25846.7    386.9   0.061548153   0.78394  -0.39439   0.29305   0.73656
  11   26018.5    384.3   0.003621409   0.04582   0.04454  -0.00743   0.20924
  12   26593.9    376.0   0.001063140   0.01316   0.03110  -0.10618  -0.03034
  13   27816.2    359.5   0.027865224   0.32979   0.44478  -0.35577  -0.07338
  14   28406.4    352.0   0.244390745   2.83234   0.41006   1.54597  -0.52359
  15   28518.0    350.7   0.019130597   0.22084  -0.05898   0.46567  -0.02266
  16   29442.8    339.6   0.127774388   1.42870   0.57147  -0.64179  -0.83080
  17   29998.4    333.4   0.260952655   2.86377  -0.59554  -1.57518   0.16708
  18   30158.5    331.6   0.014210457   0.15512   0.17146   0.35320   0.03120
  19   30369.6    329.3   0.009777542   0.10599  -0.23487   0.19401   0.11483
  20   30807.7    324.6   0.004823706   0.05155  -0.04875   0.00694  -0.22163
  21   31279.0    319.7   0.024917447   0.26226  -0.43631   0.23464   0.12975
  22   31430.9    318.2   0.305741584   3.20238  -1.20236  -0.86388   1.00519
  23   31898.0    313.5   0.063261562   0.65291  -0.44403   0.67502  -0.00991
  24   32618.4    306.6   0.402114583   4.05847   1.53875   0.31966  -1.26038
  25   32761.9    305.2   0.029366229   0.29509   0.34320  -0.24537  -0.34219
  26   32899.5    304.0   0.001189690   0.01190  -0.01853  -0.01845   0.10593
  27   33001.2    303.0   0.115816415   1.15536  -0.82891  -0.25474   0.63511
  28   33888.6    295.1   0.002116463   0.02056  -0.02721   0.00760  -0.14058
  29   33956.6    294.5   0.001627681   0.01578   0.03813   0.10959   0.04813
  30   35005.2    285.7   0.111940682   1.05276   0.96185   0.13936  -0.32891
  31   35584.6    281.0   0.005008287   0.04633  -0.15845  -0.14490  -0.01525
  32   36339.1    275.2   0.021232716   0.19236   0.41408  -0.13496  -0.05174
  33   36667.8    272.7   0.016804491   0.15087   0.20102   0.29445   0.15416
  34   36680.7    272.6   0.004797049   0.04305  -0.15854   0.03280  -0.12978
  35   36921.4    270.8   0.076833992   0.68509  -0.76367  -0.13373   0.28986
  36   37080.4    269.7   0.184753272   1.64030  -0.20437  -1.14738   0.53108
  37   37351.8    267.7   0.043862886   0.38660   0.02303   0.54326  -0.30157
  38   37410.8    267.3   0.133491416   1.17471  -0.48792  -0.77800   0.57564
  39   37446.3    267.0   0.028098662   0.24703   0.44346   0.17025  -0.14626
  40   37733.8    265.0   0.079082732   0.68996  -0.21996  -0.78391  -0.16452
  41   37804.1    264.5   0.027736642   0.24154   0.03560  -0.31300  -0.37723
  42   37871.3    264.1   0.017593345   0.15294   0.32254   0.05762  -0.21351
  43   38120.2    262.3   0.140774723   1.21575   0.97759  -0.04581  -0.50790
  44   39056.8    256.0   0.104139166   0.87779  -0.37739  -0.85394   0.07854
  45   39292.8    254.5   0.049704648   0.41645   0.20638  -0.50777  -0.34062
  46   39784.9    251.4   0.005997949   0.04963   0.06715   0.14458  -0.15563
  47   40008.8    249.9   0.073352986   0.60358   0.71283  -0.09635  -0.29356

FINAL SINGLE POINT ENERGY     -4423.962388519240

DIPOLE MOMENT
-------------
                                X             Y             Z
Electronic contribution:    -13.93876     -45.35310     -12.08065
Nuclear contribution   :     14.35766      46.87770      10.77160
                        -----------------------------------------
Total Dipole Moment    :      0.41891       1.52460      -1.30905
                        -----------------------------------------
Magnitude (a.u.)       :      2.05269
Magnitude (Debye)      :      5.21751

Rotational constants in cm-1:     0.002103     0.000208     0.000201
Rotational constants in MHz :    63.054568     6.230490     6.028837

                             ****ORCA TERMINATED NORMALLY****
TOTAL RUN TIME: 0 days 0 hours 12 minutes 51 seconds 725 msec
