                         Program Version 4.2.0 -  RELEASE  -
|  1> # ORCA input file
|  2> # SCF done       -187.817074896076          0.000380070803
|  3> ! CAM-B3LYP def2-SVP def2/J RIJCOSX Grid4 TightSCF
|  4> %maxcore 5000
|  5> %tddft
|  6>     Mode sTDDFT
|  7>     Ethresh 5.0
|  8>     maxcore 5000
|  9> end
| 10>
| 11> %pal
| 12>   nprocs 6
| 13>   end
| 14> * xyz 0 1
| 15>    C        8.46741         3.39678        -6.57789
| 16>    S        7.22691         3.62182        -5.43972
| 17>    C        7.80318         2.28223        -4.48363
| 18>    C        8.95465         1.73986        -5.03832
| 19>    C        9.29399         2.34802        -6.26328
| 20>    C       10.38888         1.84238        -7.16151
| 21>    C        9.75249         1.28075        -8.43471
| 22>    F        9.05525         2.21174        -9.11229
| 23>    F       10.66849         0.81079        -9.29147
| 24>    F        8.89380         0.27740        -8.20627
| 25>    C       11.25702         0.77470        -6.48012
| 26>    C       10.44458        -0.14818        -5.57354
| 27>    C        9.83666         0.67844        -4.43696
| 28>    O       10.92911         1.27487        -3.75465
| 29>    C       10.64840         1.80587        -2.48289
| 30>    C        7.11074         1.87119        -3.31639
| 31>    N        7.71291         1.18793        -2.35449
| 32>    C        6.83427         1.09610        -1.33845
| 33>    C        5.58354         1.78268        -1.66609
| 34>    C        4.61072         1.65977        -0.57410
| 35>    O        3.48493         2.11238        -0.52354
| 36>    C        5.34570         0.85267         0.41328
| 37>    C        6.70163         0.53793        -0.08827
| 38>    N        7.37096        -0.23499         0.79781
| 39>    C        6.53235        -0.42769         1.78891
| 40>    C        5.24553         0.20876         1.60606
| 41>    C        5.70738         2.21376        -2.96231
| 42>    C        4.66148         2.73509        -3.76840
| 43>    C        4.38904         2.50149        -5.12609
| 44>    C        3.12880         3.03086        -5.53365
| 45>    N        2.70248         2.90956        -6.80236
| 46>    C        3.49160         2.26689        -7.61661
| 47>    C        4.73138         1.69185        -7.21331
| 48>    C        5.58094         0.95097        -8.18527
| 49>    N        5.16715         1.81514        -5.98318
| 50>    C        2.43554         3.67667        -4.49420
| 51>    S        3.34689         3.57371        -3.02350
| 52>    C        1.17922         4.29624        -4.58623
| 53>    C        0.58822         4.97117        -3.55918
| 54>    C       -0.70039         5.53846        -3.66193
| 55>    N       -1.41041         5.52593        -4.78686
| 56>    C       -2.51376         6.24490        -4.53534
| 57>    C       -2.50114         6.78332        -3.15970
| 58>    C       -3.71442         7.57938        -2.89583
| 59>    O       -4.01518         8.19025        -1.89683
| 60>    C       -4.45662         7.44441        -4.16416
| 61>    C       -3.68606         6.63840        -5.13569
| 62>    N       -4.37671         6.49430        -6.29232
| 63>    C       -5.50637         7.13148        -6.09766
| 64>    C       -5.62762         7.73600        -4.78724
| 65>    C       -1.37592         6.29009        -2.57493
| 66>    C       -0.88210         6.48043        -1.24014
| 67>    S       -0.83417         8.08296        -0.57206
| 68>    C       -0.15123         7.49453         0.88697
| 69>    C       -0.00344         6.14271         0.88599
| 70>    C       -0.41403         5.55381        -0.33730
| 71>    C       -0.45598         4.06122        -0.50761
| 72>    C       -1.86749         3.59804        -0.14906
| 73>    F       -2.21085         3.88202         1.11533
| 74>    F       -2.80172         4.15544        -0.93432
| 75>    F       -2.01201         2.26855        -0.28731
| 76>    C        0.57119         3.31217         0.37421
| 77>    C        1.46507         4.23803         1.19334
| 78>    C        0.62695         5.27985         1.94421
| 79>    O        1.45731         6.00548         2.82794
| 80>    C        0.81848         6.44333         4.00115
| 81>    H        8.52895         4.04530        -7.43028
| 82>    H       11.01647         2.67505        -7.49983
| 83>    H       11.99618         1.27807        -5.85756
| 84>    H       11.78281         0.19500        -7.23992
| 85>    H       11.11046        -0.89547        -5.14378
| 86>    H        9.65253        -0.65762        -6.12127
| 87>    H        9.25679         0.05625        -3.74249
| 88>    H       11.60917         2.11925        -2.07739
| 89>    H       10.19254         1.05743        -1.82956
| 90>    H        9.97991         2.67116        -2.54357
| 91>    H        6.82700        -1.01251         2.64263
| 92>    H        4.42265         0.16116         2.29143
| 93>    H        3.15562         2.17638        -8.64035
| 94>    H        6.36254         0.40939        -7.66064
| 95>    H        6.04648         1.65384        -8.87634
| 96>    H        4.97980         0.25771        -8.76911
| 97>    H        0.66009         4.21324        -5.53144
| 98>    H        1.12076         5.10204        -2.62566
| 99>    H       -6.24467         7.17756        -6.87963
|100>    H       -6.47288         8.29111        -4.43151
|101>    H        0.12099         8.18842         1.65606
|102>    H       -0.33725         3.78887        -1.56068
|103>    H        1.20803         2.68919        -0.25152
|104>    H        0.03371         2.65247         1.05875
|105>    H        2.17364         4.75835         0.54795
|106>    H        2.03885         3.64730         1.90589
|107>    H       -0.16044         4.76312         2.51699
|108>    H        1.56391         7.00437         4.56187
|109>    H        0.47355         5.59437         4.60457
|110>    H       -0.03931         7.08959         3.78732
|111> *
|112>
|113>                          ****END OF INPUT****

CARTESIAN COORDINATES (ANGSTROEM)
---------------------------------
  C      8.467410    3.396780   -6.577890
  S      7.226910    3.621820   -5.439720
  C      7.803180    2.282230   -4.483630
  C      8.954650    1.739860   -5.038320
  C      9.293990    2.348020   -6.263280
  C     10.388880    1.842380   -7.161510
  C      9.752490    1.280750   -8.434710
  F      9.055250    2.211740   -9.112290
  F     10.668490    0.810790   -9.291470
  F      8.893800    0.277400   -8.206270
  C     11.257020    0.774700   -6.480120
  C     10.444580   -0.148180   -5.573540
  C      9.836660    0.678440   -4.436960
  O     10.929110    1.274870   -3.754650
  C     10.648400    1.805870   -2.482890
  C      7.110740    1.871190   -3.316390
  N      7.712910    1.187930   -2.354490
  C      6.834270    1.096100   -1.338450
  C      5.583540    1.782680   -1.666090
  C      4.610720    1.659770   -0.574100
  O      3.484930    2.112380   -0.523540
  C      5.345700    0.852670    0.413280
  C      6.701630    0.537930   -0.088270
  N      7.370960   -0.234990    0.797810
  C      6.532350   -0.427690    1.788910
  C      5.245530    0.208760    1.606060
  C      5.707380    2.213760   -2.962310
  C      4.661480    2.735090   -3.768400
  C      4.389040    2.501490   -5.126090
  C      3.128800    3.030860   -5.533650
  N      2.702480    2.909560   -6.802360
  C      3.491600    2.266890   -7.616610
  C      4.731380    1.691850   -7.213310
  C      5.580940    0.950970   -8.185270
  N      5.167150    1.815140   -5.983180
  C      2.435540    3.676670   -4.494200
  S      3.346890    3.573710   -3.023500
  C      1.179220    4.296240   -4.586230
  C      0.588220    4.971170   -3.559180
  C     -0.700390    5.538460   -3.661930
  N     -1.410410    5.525930   -4.786860
  C     -2.513760    6.244900   -4.535340
  C     -2.501140    6.783320   -3.159700
  C     -3.714420    7.579380   -2.895830
  O     -4.015180    8.190250   -1.896830
  C     -4.456620    7.444410   -4.164160
  C     -3.686060    6.638400   -5.135690
  N     -4.376710    6.494300   -6.292320
  C     -5.506370    7.131480   -6.097660
  C     -5.627620    7.736000   -4.787240
  C     -1.375920    6.290090   -2.574930
  C     -0.882100    6.480430   -1.240140
  S     -0.834170    8.082960   -0.572060
  C     -0.151230    7.494530    0.886970
  C     -0.003440    6.142710    0.885990
  C     -0.414030    5.553810   -0.337300
  C     -0.455980    4.061220   -0.507610
  C     -1.867490    3.598040   -0.149060
  F     -2.210850    3.882020    1.115330
  F     -2.801720    4.155440   -0.934320
  F     -2.012010    2.268550   -0.287310
  C      0.571190    3.312170    0.374210
  C      1.465070    4.238030    1.193340
  C      0.626950    5.279850    1.944210
  O      1.457310    6.005480    2.827940
  C      0.818480    6.443330    4.001150
  H      8.528950    4.045300   -7.430280
  H     11.016470    2.675050   -7.499830
  H     11.996180    1.278070   -5.857560
  H     11.782810    0.195000   -7.239920
  H     11.110460   -0.895470   -5.143780
  H      9.652530   -0.657620   -6.121270
  H      9.256790    0.056250   -3.742490
  H     11.609170    2.119250   -2.077390
  H     10.192540    1.057430   -1.829560
  H      9.979910    2.671160   -2.543570
  H      6.827000   -1.012510    2.642630
  H      4.422650    0.161160    2.291430
  H      3.155620    2.176380   -8.640350
  H      6.362540    0.409390   -7.660640
  H      6.046480    1.653840   -8.876340
  H      4.979800    0.257710   -8.769110
  H      0.660090    4.213240   -5.531440
  H      1.120760    5.102040   -2.625660
  H     -6.244670    7.177560   -6.879630
  H     -6.472880    8.291110   -4.431510
  H      0.120990    8.188420    1.656060
  H     -0.337250    3.788870   -1.560680
  H      1.208030    2.689190   -0.251520
  H      0.033710    2.652470    1.058750
  H      2.173640    4.758350    0.547950
  H      2.038850    3.647300    1.905890
  H     -0.160440    4.763120    2.516990
  H      1.563910    7.004370    4.561870
  H      0.473550    5.594370    4.604570
  H     -0.039310    7.089590    3.787320

 Total Charge           Charge          ....    0
 Multiplicity           Mult            ....    1
 Number of Electrons    NEL             ....  488
 Basis Dimension        Dim             .... 1086

ORBITAL ENERGIES
----------------

  NO   OCC          E(Eh)            E(eV)
   0   2.0000     -88.992472     -2421.6083
   1   2.0000     -88.978410     -2421.2256
   2   2.0000     -88.947063     -2420.3726
   3   2.0000     -24.810415      -675.1257
   4   2.0000     -24.807916      -675.0577
   5   2.0000     -24.805849      -675.0015
   6   2.0000     -24.788872      -674.5395
   7   2.0000     -24.784337      -674.4161
   8   2.0000     -24.784153      -674.4111
   9   2.0000     -19.224707      -523.1309
  10   2.0000     -19.212350      -522.7946
  11   2.0000     -19.205901      -522.6191
  12   2.0000     -19.194406      -522.3064
  13   2.0000     -14.438946      -392.9037
  14   2.0000     -14.433082      -392.7441
  15   2.0000     -14.420357      -392.3979
  16   2.0000     -14.412362      -392.1803
  17   2.0000     -14.396960      -391.7612
  18   2.0000     -14.391142      -391.6029
  19   2.0000     -10.519057      -286.2381
  20   2.0000     -10.498157      -285.6694
  21   2.0000     -10.384489      -282.5763
  22   2.0000     -10.364555      -282.0339
  23   2.0000     -10.356144      -281.8050
  24   2.0000     -10.344232      -281.4809
  25   2.0000     -10.337508      -281.2979
  26   2.0000     -10.335647      -281.2472
  27   2.0000     -10.333636      -281.1925
  28   2.0000     -10.331250      -281.1276
  29   2.0000     -10.330281      -281.1012
  30   2.0000     -10.329612      -281.0830
  31   2.0000     -10.329313      -281.0749
  32   2.0000     -10.328988      -281.0660
  33   2.0000     -10.328296      -281.0472
  34   2.0000     -10.325116      -280.9607
  35   2.0000     -10.321832      -280.8713
  36   2.0000     -10.319833      -280.8169
  37   2.0000     -10.319411      -280.8054
  38   2.0000     -10.319039      -280.7953
  39   2.0000     -10.313312      -280.6395
  40   2.0000     -10.311455      -280.5890
  41   2.0000     -10.310098      -280.5520
  42   2.0000     -10.308424      -280.5065
  43   2.0000     -10.308398      -280.5058
  44   2.0000     -10.303851      -280.3820
  45   2.0000     -10.303641      -280.3763
  46   2.0000     -10.301205      -280.3101
  47   2.0000     -10.298883      -280.2468
  48   2.0000     -10.298028      -280.2236
  49   2.0000     -10.297505      -280.2093
  50   2.0000     -10.296626      -280.1854
  51   2.0000     -10.295792      -280.1627
  52   2.0000     -10.295075      -280.1432
  53   2.0000     -10.294576      -280.1296
  54   2.0000     -10.289811      -280.0000
  55   2.0000     -10.282546      -279.8023
  56   2.0000     -10.279091      -279.7083
  57   2.0000     -10.277779      -279.6726
  58   2.0000     -10.275926      -279.6222
  59   2.0000     -10.275703      -279.6161
  60   2.0000     -10.274508      -279.5836
  61   2.0000     -10.273402      -279.5535
  62   2.0000     -10.267106      -279.3821
  63   2.0000     -10.265430      -279.3365
  64   2.0000     -10.264076      -279.2997
  65   2.0000     -10.255112      -279.0558
  66   2.0000      -8.086520      -220.0454
  67   2.0000      -8.073309      -219.6859
  68   2.0000      -8.042745      -218.8542
  69   2.0000      -6.055314      -164.7735
  70   2.0000      -6.051219      -164.6620
  71   2.0000      -6.049633      -164.6189
  72   2.0000      -6.042508      -164.4250
  73   2.0000      -6.038091      -164.3048
  74   2.0000      -6.035925      -164.2459
  75   2.0000      -6.012033      -163.5957
  76   2.0000      -6.007636      -163.4761
  77   2.0000      -6.005050      -163.4057
  78   2.0000      -1.398215       -38.0474
  79   2.0000      -1.375657       -37.4335
  80   2.0000      -1.300754       -35.3953
  81   2.0000      -1.298352       -35.3300
  82   2.0000      -1.279100       -34.8061
  83   2.0000      -1.275536       -34.7091
  84   2.0000      -1.138842       -30.9895
  85   2.0000      -1.113586       -30.3022
  86   2.0000      -1.110008       -30.2049
  87   2.0000      -1.108609       -30.1668
  88   2.0000      -1.096180       -29.8286
  89   2.0000      -1.090496       -29.6739
  90   2.0000      -1.067345       -29.0439
  91   2.0000      -1.065718       -28.9996
  92   2.0000      -1.045308       -28.4443
  93   2.0000      -1.019483       -27.7415
  94   2.0000      -1.007196       -27.4072
  95   2.0000      -1.003019       -27.2935
  96   2.0000      -0.983452       -26.7611
  97   2.0000      -0.948297       -25.8045
  98   2.0000      -0.936965       -25.4961
  99   2.0000      -0.930575       -25.3222
 100   2.0000      -0.918770       -25.0010
 101   2.0000      -0.915547       -24.9133
 102   2.0000      -0.896362       -24.3913
 103   2.0000      -0.886298       -24.1174
 104   2.0000      -0.884871       -24.0786
 105   2.0000      -0.877475       -23.8773
 106   2.0000      -0.867856       -23.6156
 107   2.0000      -0.854537       -23.2531
 108   2.0000      -0.847894       -23.0724
 109   2.0000      -0.842772       -22.9330
 110   2.0000      -0.841003       -22.8848
 111   2.0000      -0.832140       -22.6437
 112   2.0000      -0.818617       -22.2757
 113   2.0000      -0.811960       -22.0946
 114   2.0000      -0.793939       -21.6042
 115   2.0000      -0.787053       -21.4168
 116   2.0000      -0.782445       -21.2914
 117   2.0000      -0.776391       -21.1267
 118   2.0000      -0.770042       -20.9539
 119   2.0000      -0.765858       -20.8400
 120   2.0000      -0.750982       -20.4353
 121   2.0000      -0.748295       -20.3621
 122   2.0000      -0.741686       -20.1823
 123   2.0000      -0.736844       -20.0506
 124   2.0000      -0.724654       -19.7188
 125   2.0000      -0.722987       -19.6735
 126   2.0000      -0.719433       -19.5768
 127   2.0000      -0.708415       -19.2769
 128   2.0000      -0.705084       -19.1863
 129   2.0000      -0.692013       -18.8306
 130   2.0000      -0.684711       -18.6319
 131   2.0000      -0.682500       -18.5718
 132   2.0000      -0.678843       -18.4722
 133   2.0000      -0.676366       -18.4049
 134   2.0000      -0.674173       -18.3452
 135   2.0000      -0.669614       -18.2211
 136   2.0000      -0.660232       -17.9658
 137   2.0000      -0.656690       -17.8694
 138   2.0000      -0.651261       -17.7217
 139   2.0000      -0.650674       -17.7057
 140   2.0000      -0.645948       -17.5771
 141   2.0000      -0.640134       -17.4189
 142   2.0000      -0.632157       -17.2019
 143   2.0000      -0.630207       -17.1488
 144   2.0000      -0.626671       -17.0526
 145   2.0000      -0.615173       -16.7397
 146   2.0000      -0.611328       -16.6351
 147   2.0000      -0.606537       -16.5047
 148   2.0000      -0.605538       -16.4775
 149   2.0000      -0.599675       -16.3180
 150   2.0000      -0.596407       -16.2291
 151   2.0000      -0.587687       -15.9918
 152   2.0000      -0.579608       -15.7719
 153   2.0000      -0.571744       -15.5580
 154   2.0000      -0.567521       -15.4430
 155   2.0000      -0.562770       -15.3137
 156   2.0000      -0.561438       -15.2775
 157   2.0000      -0.558595       -15.2001
 158   2.0000      -0.557961       -15.1829
 159   2.0000      -0.555077       -15.1044
 160   2.0000      -0.552825       -15.0431
 161   2.0000      -0.551022       -14.9941
 162   2.0000      -0.547746       -14.9049
 163   2.0000      -0.545625       -14.8472
 164   2.0000      -0.541788       -14.7428
 165   2.0000      -0.538340       -14.6490
 166   2.0000      -0.537402       -14.6235
 167   2.0000      -0.535782       -14.5794
 168   2.0000      -0.534876       -14.5547
 169   2.0000      -0.533347       -14.5131
 170   2.0000      -0.531838       -14.4721
 171   2.0000      -0.528941       -14.3932
 172   2.0000      -0.525933       -14.3114
 173   2.0000      -0.520094       -14.1525
 174   2.0000      -0.516167       -14.0456
 175   2.0000      -0.513941       -13.9851
 176   2.0000      -0.511916       -13.9299
 177   2.0000      -0.510580       -13.8936
 178   2.0000      -0.507357       -13.8059
 179   2.0000      -0.507169       -13.8008
 180   2.0000      -0.505457       -13.7542
 181   2.0000      -0.504538       -13.7292
 182   2.0000      -0.502457       -13.6725
 183   2.0000      -0.497198       -13.5294
 184   2.0000      -0.496242       -13.5034
 185   2.0000      -0.491946       -13.3865
 186   2.0000      -0.491101       -13.3635
 187   2.0000      -0.490492       -13.3470
 188   2.0000      -0.488207       -13.2848
 189   2.0000      -0.487117       -13.2551
 190   2.0000      -0.484708       -13.1896
 191   2.0000      -0.483403       -13.1541
 192   2.0000      -0.482934       -13.1413
 193   2.0000      -0.482053       -13.1173
 194   2.0000      -0.480272       -13.0689
 195   2.0000      -0.479207       -13.0399
 196   2.0000      -0.476322       -12.9614
 197   2.0000      -0.473162       -12.8754
 198   2.0000      -0.472151       -12.8479
 199   2.0000      -0.470474       -12.8022
 200   2.0000      -0.467020       -12.7083
 201   2.0000      -0.463821       -12.6212
 202   2.0000      -0.461288       -12.5523
 203   2.0000      -0.461051       -12.5458
 204   2.0000      -0.456975       -12.4349
 205   2.0000      -0.455059       -12.3828
 206   2.0000      -0.453959       -12.3529
 207   2.0000      -0.447410       -12.1746
 208   2.0000      -0.445211       -12.1148
 209   2.0000      -0.437308       -11.8998
 210   2.0000      -0.435009       -11.8372
 211   2.0000      -0.433032       -11.7834
 212   2.0000      -0.421944       -11.4817
 213   2.0000      -0.420554       -11.4439
 214   2.0000      -0.419524       -11.4158
 215   2.0000      -0.408165       -11.1067
 216   2.0000      -0.406569       -11.0633
 217   2.0000      -0.403718       -10.9857
 218   2.0000      -0.401346       -10.9212
 219   2.0000      -0.400047       -10.8858
 220   2.0000      -0.395897       -10.7729
 221   2.0000      -0.391694       -10.6585
 222   2.0000      -0.383790       -10.4435
 223   2.0000      -0.369503       -10.0547
 224   2.0000      -0.363927        -9.9029
 225   2.0000      -0.362757        -9.8711
 226   2.0000      -0.357473        -9.7273
 227   2.0000      -0.353470        -9.6184
 228   2.0000      -0.345894        -9.4123
 229   2.0000      -0.341217        -9.2850
 230   2.0000      -0.340971        -9.2783
 231   2.0000      -0.339908        -9.2494
 232   2.0000      -0.337162        -9.1746
 233   2.0000      -0.330878        -9.0036
 234   2.0000      -0.329738        -8.9726
 235   2.0000      -0.325427        -8.8553
 236   2.0000      -0.319683        -8.6990
 237   2.0000      -0.317837        -8.6488
 238   2.0000      -0.315939        -8.5972
 239   2.0000      -0.315151        -8.5757
 240   2.0000      -0.302330        -8.2268
 241   2.0000      -0.297141        -8.0856
 242   2.0000      -0.277432        -7.5493
 243   2.0000      -0.259980        -7.0744
 244   0.0000      -0.125495        -3.4149
 245   0.0000      -0.107879        -2.9355
 246   0.0000      -0.072193        -1.9645
 247   0.0000      -0.049944        -1.3590
 248   0.0000      -0.029817        -0.8114

MULLIKEN ATOMIC CHARGES
-----------------------
   0 C :   -0.095630
   1 S :    0.170519
   2 C :   -0.187572
   3 C :    0.009757
   4 C :   -0.040311
   5 C :   -0.050219
   6 C :    0.477587
   7 F :   -0.169623
   8 F :   -0.157693
   9 F :   -0.160712
  10 C :    0.052024
  11 C :    0.070268
  12 C :    0.225132
  13 O :   -0.388666
  14 C :    0.205378
  15 C :    0.060613
  16 N :   -0.052234
  17 C :    0.083598
  18 C :   -0.186688
  19 C :    0.220125
  20 O :   -0.137375
  21 C :   -0.030454
  22 C :   -0.052200
  23 N :   -0.054516
  24 C :    0.088525
  25 C :   -0.091475
  26 C :    0.065087
  27 C :   -0.256827
  28 C :    0.073454
  29 C :    0.019860
  30 N :    0.015766
  31 C :    0.027139
  32 C :   -0.147140
  33 C :    0.104049
  34 N :    0.001263
  35 C :   -0.127142
  36 S :    0.249419
  37 C :    0.040187
  38 C :   -0.072962
  39 C :    0.029425
  40 N :   -0.044774
  41 C :    0.064975
  42 C :   -0.133330
  43 C :    0.203296
  44 O :   -0.122285
  45 C :   -0.050742
  46 C :   -0.023326
  47 N :   -0.057325
  48 C :    0.083180
  49 C :   -0.093993
  50 C :    0.013166
  51 C :   -0.240486
  52 S :    0.183909
  53 C :   -0.140580
  54 C :   -0.027400
  55 C :    0.037135
  56 C :   -0.090613
  57 C :    0.488954
  58 F :   -0.166838
  59 F :   -0.158839
  60 F :   -0.169876
  61 C :    0.064602
  62 C :    0.078835
  63 C :    0.201296
  64 O :   -0.377130
  65 C :    0.190474
  66 H :    0.031034
  67 H :    0.034978
  68 H :    0.030433
  69 H :    0.018022
  70 H :    0.010911
  71 H :    0.012286
  72 H :    0.009835
  73 H :    0.015493
  74 H :    0.024020
  75 H :   -0.004476
  76 H :    0.010194
  77 H :   -0.003042
  78 H :    0.008600
  79 H :    0.034692
  80 H :    0.039431
  81 H :    0.029628
  82 H :    0.037696
  83 H :    0.012517
  84 H :    0.004173
  85 H :   -0.011116
  86 H :    0.016547
  87 H :    0.022182
  88 H :    0.025455
  89 H :    0.011250
  90 H :    0.001723
  91 H :    0.005043
  92 H :   -0.003467
  93 H :    0.026404
  94 H :    0.003383
  95 H :    0.004143
Sum of atomic charges:    0.0000000

LOEWDIN ATOMIC CHARGES
----------------------
   0 C :   -0.156538
   1 S :    0.509138
   2 C :   -0.193997
   3 C :   -0.012215
   4 C :   -0.067797
   5 C :   -0.054357
   6 C :    0.164331
   7 F :   -0.066024
   8 F :   -0.056529
   9 F :   -0.053712
  10 C :   -0.021822
  11 C :   -0.031182
  12 C :    0.076056
  13 O :   -0.166526
  14 C :    0.067454
  15 C :    0.072838
  16 N :   -0.097143
  17 C :    0.048474
  18 C :   -0.049298
  19 C :    0.070078
  20 O :   -0.149123
  21 C :   -0.044751
  22 C :    0.013312
  23 N :   -0.095385
  24 C :    0.071012
  25 C :   -0.033312
  26 C :   -0.045858
  27 C :   -0.193499
  28 C :   -0.053155
  29 C :   -0.042085
  30 N :   -0.027538
  31 C :    0.015441
  32 C :    0.001938
  33 C :   -0.053121
  34 N :   -0.064485
  35 C :   -0.182975
  36 S :    0.562932
  37 C :    0.045352
  38 C :   -0.060241
  39 C :    0.065244
  40 N :   -0.110780
  41 C :    0.045369
  42 C :   -0.039568
  43 C :    0.062037
  44 O :   -0.137886
  45 C :   -0.043080
  46 C :    0.016350
  47 N :   -0.100928
  48 C :    0.066892
  49 C :   -0.043467
  50 C :   -0.048060
  51 C :   -0.181600
  52 S :    0.475692
  53 C :   -0.184420
  54 C :   -0.068871
  55 C :   -0.064872
  56 C :   -0.061440
  57 C :    0.161361
  58 F :   -0.060724
  59 F :   -0.057417
  60 F :   -0.067314
  61 C :   -0.021976
  62 C :   -0.022073
  63 C :    0.068810
  64 O :   -0.169695
  65 C :    0.067201
  66 H :    0.027564
  67 H :    0.049873
  68 H :    0.034774
  69 H :    0.027266
  70 H :    0.032082
  71 H :    0.021935
  72 H :    0.020107
  73 H :    0.017464
  74 H :    0.012545
  75 H :    0.002731
  76 H :    0.024223
  77 H :    0.034970
  78 H :    0.028465
  79 H :    0.037426
  80 H :    0.043429
  81 H :    0.038987
  82 H :    0.054506
  83 H :    0.027616
  84 H :    0.020975
  85 H :    0.031966
  86 H :    0.022937
  87 H :    0.041630
  88 H :    0.031865
  89 H :    0.025245
  90 H :    0.023895
  91 H :    0.027242
  92 H :    0.013801
  93 H :    0.022717
  94 H :    0.006931
  95 H :    0.004362

  Mayer bond orders larger than 0.100000
B(  0-C ,  1-S ) :   1.2246 B(  0-C ,  4-C ) :   1.5006 B(  0-C , 66-H ) :   0.9668
B(  1-S ,  2-C ) :   1.1265 B(  2-C ,  3-C ) :   1.4648 B(  2-C , 15-C ) :   1.1546
B(  3-C ,  4-C ) :   1.3583 B(  3-C , 12-C ) :   0.9940 B(  4-C ,  5-C ) :   0.9495
B(  5-C ,  6-C ) :   0.9857 B(  5-C , 10-C ) :   1.0538 B(  5-C , 67-H ) :   0.8861
B(  6-C ,  7-F ) :   1.1247 B(  6-C ,  8-F ) :   1.1546 B(  6-C ,  9-F ) :   1.1250
B( 10-C , 11-C ) :   1.0679 B( 10-C , 68-H ) :   0.9204 B( 10-C , 69-H ) :   0.9360
B( 11-C , 12-C ) :   1.0343 B( 11-C , 70-H ) :   0.9212 B( 11-C , 71-H ) :   0.9472
B( 12-C , 13-O ) :   1.0372 B( 12-C , 72-H ) :   0.9031 B( 13-O , 14-C ) :   0.9760
B( 14-C , 73-H ) :   0.9759 B( 14-C , 74-H ) :   0.9677 B( 14-C , 75-H ) :   0.9692
B( 15-C , 16-N ) :   1.5766 B( 15-C , 17-C ) :   0.1170 B( 15-C , 26-C ) :   1.0259
B( 16-N , 17-C ) :   1.3522 B( 17-C , 18-C ) :   1.0535 B( 17-C , 22-C ) :   1.4127
B( 18-C , 19-C ) :   0.8982 B( 18-C , 26-C ) :   1.5854 B( 19-C , 20-O ) :   2.1848
B( 19-C , 21-C ) :   0.9237 B( 21-C , 22-C ) :   1.0681 B( 21-C , 25-C ) :   1.5930
B( 22-C , 23-N ) :   1.3279 B( 23-N , 24-C ) :   1.6414 B( 24-C , 25-C ) :   1.0870
B( 24-C , 76-H ) :   0.9898 B( 25-C , 77-H ) :   1.0110 B( 26-C , 27-C ) :   1.0750
B( 27-C , 28-C ) :   1.3131 B( 27-C , 35-C ) :   0.1398 B( 27-C , 36-S ) :   1.2259
B( 28-C , 29-C ) :   1.2367 B( 28-C , 34-N ) :   1.4041 B( 29-C , 30-N ) :   1.4314
B( 29-C , 35-C ) :   1.2843 B( 30-N , 31-C ) :   1.7173 B( 31-C , 32-C ) :   1.1533
B( 31-C , 78-H ) :   0.9802 B( 32-C , 33-C ) :   1.0515 B( 32-C , 34-N ) :   1.6803
B( 33-C , 79-H ) :   0.9501 B( 33-C , 80-H ) :   0.9461 B( 33-C , 81-H ) :   0.9511
B( 35-C , 36-S ) :   1.1546 B( 35-C , 37-C ) :   1.1871 B( 37-C , 38-C ) :   1.5312
B( 37-C , 82-H ) :   0.9941 B( 38-C , 39-C ) :   1.1744 B( 38-C , 83-H ) :   0.9550
B( 39-C , 40-N ) :   1.5786 B( 39-C , 41-C ) :   0.1088 B( 39-C , 50-C ) :   1.0296
B( 40-N , 41-C ) :   1.3736 B( 41-C , 42-C ) :   1.0402 B( 41-C , 46-C ) :   1.3931
B( 42-C , 43-C ) :   0.8777 B( 42-C , 50-C ) :   1.6484 B( 43-C , 44-O ) :   2.3107
B( 43-C , 45-C ) :   0.8940 B( 45-C , 46-C ) :   1.0581 B( 45-C , 49-C ) :   1.6016
B( 46-C , 47-N ) :   1.3243 B( 47-N , 48-C ) :   1.6455 B( 48-C , 49-C ) :   1.0860
B( 48-C , 84-H ) :   0.9889 B( 49-C , 85-H ) :   1.0086 B( 50-C , 51-C ) :   1.0248
B( 51-C , 52-S ) :   1.1879 B( 51-C , 53-C ) :   0.1031 B( 51-C , 55-C ) :   1.5220
B( 52-S , 53-C ) :   1.1603 B( 53-C , 54-C ) :   1.5888 B( 53-C , 86-H ) :   0.9643
B( 54-C , 55-C ) :   1.2784 B( 54-C , 63-C ) :   0.9525 B( 55-C , 56-C ) :   1.0247
B( 56-C , 57-C ) :   0.9955 B( 56-C , 61-C ) :   0.9848 B( 56-C , 87-H ) :   0.8626
B( 57-C , 58-F ) :   1.1371 B( 57-C , 59-F ) :   1.1553 B( 57-C , 60-F ) :   1.1447
B( 61-C , 62-C ) :   1.1125 B( 61-C , 88-H ) :   0.9130 B( 61-C , 89-H ) :   0.9239
B( 62-C , 63-C ) :   1.0631 B( 62-C , 90-H ) :   0.9214 B( 62-C , 91-H ) :   0.9343
B( 63-C , 64-O ) :   1.0596 B( 63-C , 92-H ) :   0.9022 B( 64-O , 65-C ) :   0.9878
B( 65-C , 93-H ) :   0.9825 B( 65-C , 94-H ) :   0.9678 B( 65-C , 95-H ) :   0.9618

-----------------------------------------------------------------------------
         ABSORPTION SPECTRUM VIA TRANSITION ELECTRIC DIPOLE MOMENTS
-----------------------------------------------------------------------------
State   Energy  Wavelength   fosc         T2         TX        TY        TZ
        (cm-1)    (nm)                  (au**2)     (au)      (au)      (au)
-----------------------------------------------------------------------------
   0   14410.8    693.9   0.467827327  10.68744   2.57653  -1.58204   1.24341
   1   17284.2    578.6   0.023992339   0.45698  -0.47166   0.36082   0.32299
   2   17788.7    562.2   0.846695847  15.66963  -3.50788   1.79553  -0.37478
   3   20953.0    477.3   0.001467490   0.02306   0.07122  -0.13381  -0.00899
   4   21429.6    466.6   0.400203001   6.14811  -0.92036  -0.83900   2.14409
   5   22400.6    446.4   0.047162073   0.69312  -0.33599  -0.38882   0.65502
   6   23278.5    429.6   0.020772519   0.29377  -0.37201   0.08126  -0.38571
   7   23754.4    421.0   0.024984786   0.34626  -0.13907   0.19448  -0.53768
   8   23903.3    418.4   0.037477164   0.51616   0.07775  -0.39915   0.59228
   9   24267.1    412.1   0.016718175   0.22680  -0.41525   0.17733   0.15140
  10   24540.6    407.5   0.014385564   0.19298   0.13459  -0.26079   0.32689
  11   24756.0    403.9   0.014185198   0.18864  -0.32014   0.12101   0.26740
  12   25381.7    394.0   0.022876612   0.29672  -0.19446   0.40057  -0.31377
  13   25556.6    391.3   0.022274460   0.28693  -0.03583   0.32010  -0.42800
  14   25864.0    386.6   0.065140739   0.82915  -0.40031  -0.22582   0.78607
  15   26518.7    377.1   0.003220509   0.03998  -0.15062  -0.05913   0.11746
  16   26672.6    374.9   0.000931079   0.01149   0.03685   0.05858  -0.08187
  17   27023.0    370.1   0.017066126   0.20791   0.37746   0.22780  -0.11636
  18   27424.0    364.6   0.040478157   0.48592   0.65766  -0.17987   0.14508
  19   28282.9    353.6   0.068855528   0.80148  -0.30041  -0.05648   0.84145
  20   28802.4    347.2   0.037152752   0.42466   0.43533  -0.18353   0.44885
  21   29167.1    342.9   0.014204450   0.16033   0.35195  -0.11920  -0.14916
  22   29215.2    342.3   0.133250162   1.50153   0.78789   0.16245  -0.92432
  23   29584.9    338.0   0.061496872   0.68432   0.14134  -0.24554   0.77721
  24   29969.0    333.7   0.053606788   0.58887  -0.63270   0.05655   0.43054
  25   30261.2    330.5   0.128117207   1.39379   0.08779  -0.16224  -1.16609
  26   30668.4    326.1   0.129291012   1.38788   0.49553   0.59564  -0.88744
  27   30953.6    323.1   0.039691488   0.42215   0.22616   0.07642   0.60428
  28   31103.1    321.5   0.001157774   0.01225  -0.01573  -0.06869  -0.08538
  29   31457.0    317.9   0.046455626   0.48618   0.36364  -0.13571  -0.57925
  30   32372.2    308.9   0.017578922   0.17877   0.27013  -0.29122  -0.14488
  31   32714.2    305.7   0.059561836   0.59939   0.20592   0.24155   0.70614
  32   33159.8    301.6   0.003278835   0.03255   0.06429  -0.04857   0.16143
  33   33325.5    300.1   0.150096144   1.48275   0.33152   0.06077   1.17011
  34   34000.1    294.1   0.048665661   0.47121  -0.48042   0.35687  -0.33624
  35   34443.1    290.3   0.008735190   0.08349   0.12174  -0.11694  -0.23451
  36   34606.6    289.0   0.011974635   0.11391   0.28802  -0.15329   0.08637
  37   34661.8    288.5   0.011220052   0.10657  -0.24331   0.19905  -0.08800
  38   34851.7    286.9   0.054330214   0.51321   0.66970  -0.20888  -0.14517
  39   35029.3    285.5   0.001616802   0.01520   0.09083   0.01731  -0.08152
  40   35211.2    284.0   0.213960650   2.00045   1.19214  -0.73235  -0.20714
  41   35381.4    282.6   0.224245663   2.08653   0.95180  -0.04817  -1.08549
  42   35917.0    278.4   0.070294459   0.64431   0.52477  -0.22864  -0.56272
  43   36370.5    274.9   0.029416130   0.26626  -0.04018  -0.24260  -0.45364
  44   36411.4    274.6   0.031185122   0.28196  -0.07174  -0.02812   0.52538
  45   36569.2    273.5   0.025864948   0.23285  -0.34590  -0.07722  -0.32747
  46   36884.1    271.1   0.134034634   1.19634  -0.06316  -0.38892   1.02034
  47   36928.8    270.8   0.046110683   0.41107   0.57014  -0.18595   0.22677
  48   37458.9    267.0   0.007060146   0.06205  -0.00054   0.07191  -0.23849
  49   37910.3    263.8   0.051371011   0.44610   0.28289  -0.11172   0.59464
  50   37997.3    263.2   0.108028468   0.93597   0.47385  -0.14600   0.83073
  51   38103.9    262.4   0.033768830   0.29176  -0.16715   0.15807  -0.48871
  52   38441.4    260.1   0.003731690   0.03196  -0.03962   0.16512  -0.05589
  53   38629.4    258.9   0.004369170   0.03724   0.02400   0.00313  -0.19144
  54   38838.6    257.5   0.005726423   0.04854   0.10506  -0.05269  -0.18635
  55   39254.9    254.7   0.003521549   0.02953  -0.01438  -0.02546  -0.16935
  56   39684.0    252.0   0.157674368   1.30804  -0.69705   0.40334   0.81209
  57   39863.7    250.9   0.044622552   0.36851   0.10790  -0.15395  -0.57721
  58   40261.7    248.4   0.031968218   0.26140  -0.10952   0.32684   0.37760
  59   40279.2    248.3   0.016644276   0.13604   0.08304  -0.10962   0.34224

FINAL SINGLE POINT ENERGY     -4227.970761954301

DIPOLE MOMENT
-------------
                                X             Y             Z
Electronic contribution:    -28.83214       6.10209     -22.10367
Nuclear contribution   :     31.50504      -6.88011      21.83082
                        -----------------------------------------
Total Dipole Moment    :      2.67291      -0.77802      -0.27285
                        -----------------------------------------
Magnitude (a.u.)       :      2.79718
Magnitude (Debye)      :      7.10985

Rotational constants in cm-1:     0.001747     0.000568     0.000464
Rotational constants in MHz :    52.373048    17.038382    13.922543

                             ****ORCA TERMINATED NORMALLY****
TOTAL RUN TIME: 0 days 0 hours 10 minutes 23 seconds 213 msec
