                         Program Version 4.2.0 -  RELEASE  -
|  1> # ORCA input file
|  2> # SCF done       -174.317860382460          0.000762351228
|  3> ! CAM-B3LYP def2-SVP def2/J RIJCOSX Grid4 TightSCF
|  4> %maxcore 5000
|  5> %tddft
|  6>     Mode sTDDFT
|  7>     Ethresh 5.0
|  8>     maxcore 5000
|  9> end
| 10>
| 11> %pal
| 12>   nprocs 6
| 13>   end
| 14> * xyz 0 1
| 15>    C        0.03298        -0.71591        -4.32883
| 16>    O       -0.30506        -1.32176        -3.20438
| 17>    C       -0.47837        -2.64360        -3.47875
| 18>    C       -0.24489        -2.88052        -4.80929
| 19>    C        0.09224        -1.61831        -5.37496
| 20>    C        0.43587        -1.27759        -6.74056
| 21>    O        0.71454        -0.18138        -7.14855
| 22>    C        0.42223        -2.49384        -7.71465
| 23>    F        1.28800        -3.44438        -7.32417
| 24>    F       -0.78987        -3.07200        -7.75765
| 25>    F        0.74361        -2.14670        -8.95560
| 26>    C       -0.84615        -3.53288        -2.41945
| 27>    S       -1.07982        -5.22453        -2.71345
| 28>    C       -1.45178        -5.51835        -1.04038
| 29>    C       -1.39350        -4.32541        -0.31188
| 30>    C       -1.05107        -3.21141        -1.09921
| 31>    C       -1.65442        -4.20154         1.06251
| 32>    N       -1.86545        -4.05913         2.18194
| 33>    C       -1.74732        -6.84089        -0.63276
| 34>    C       -1.99739        -7.23060         0.64731
| 35>    C       -2.28332        -8.57247         0.98674
| 36>    N       -2.53376        -8.99662         2.26852
| 37>    C       -2.60363        -8.17212         3.45240
| 38>    C       -3.92348        -7.41105         3.54114
| 39>    C       -2.78216       -10.37866         2.32645
| 40>    O       -3.02354       -10.97541         3.35621
| 41>    C       -2.66368       -10.82302         0.95242
| 42>    C       -2.35767        -9.69826         0.15852
| 43>    C       -2.23238       -10.14095        -1.21590
| 44>    O       -1.97464        -9.53846        -2.23941
| 45>    N       -2.47167       -11.51978        -1.15982
| 46>    C       -2.47822       -12.32824        -2.35721
| 47>    C       -3.89597       -12.61088        -2.84652
| 48>    C       -2.73606       -11.94968         0.12105
| 49>    C       -3.01448       -13.28820         0.45487
| 50>    C       -3.26376       -13.70050         1.73426
| 51>    C       -3.56749       -15.03432         2.08202
| 52>    C       -3.72892       -16.13558         1.26022
| 53>    C       -4.05458       -17.26878         2.04865
| 54>    C       -4.07612       -16.80018         3.45159
| 55>    C       -3.78981       -15.47445         3.45539
| 56>    C       -4.34215       -17.57131         4.58904
| 57>    N       -4.55473       -18.17425         5.54322
| 58>    C       -4.31957       -18.54629         1.60359
| 59>    C       -4.67219       -19.68278         2.38712
| 60>    C       -4.87798       -20.76160         1.55128
| 61>    C       -4.64715       -20.32563         0.18570
| 62>    C       -4.31222       -19.00682         0.20599
| 63>    C       -4.01222       -18.23468        -0.92119
| 64>    N       -3.76539       -17.60424        -1.84997
| 65>    C       -5.24722       -22.05687         2.02161
| 66>    O       -5.32180       -22.19883         3.35393
| 67>    C       -5.67578       -23.46150         3.63427
| 68>    C       -5.84340       -24.18077         2.49814
| 69>    C       -5.57140       -23.28753         1.41523
| 70>    C       -5.64876       -23.62137         0.01844
| 71>    O       -5.46249       -22.90648        -0.93772
| 72>    C       -6.03224       -25.10875        -0.25722
| 73>    F       -5.15883       -25.97015         0.29364
| 74>    F       -7.24431       -25.41971         0.23566
| 75>    F       -6.06349       -25.36479        -1.56155
| 76>    H        0.21341         0.34134        -4.31136
| 77>    H       -0.30696        -3.82703        -5.30483
| 78>    H       -0.95803        -2.21266        -0.71162
| 79>    H       -1.76283        -7.58272        -1.42167
| 80>    H       -1.97500        -6.50616         1.44642
| 81>    H       -1.75761        -7.48009         3.46727
| 82>    H       -2.51628        -8.85613         4.30105
| 83>    H       -4.04488        -6.73719         2.69625
| 84>    H       -3.94404        -6.82523         4.45530
| 85>    H       -4.75727        -8.10885         3.55457
| 86>    H       -1.93756       -13.25992        -2.17156
| 87>    H       -1.93740       -11.75207        -3.11297
| 88>    H       -4.47266       -13.14318        -2.09359
| 89>    H       -3.85702       -13.21764        -3.74644
| 90>    H       -4.40393       -11.67748        -3.07687
| 91>    H       -3.02635       -14.01342        -0.34529
| 92>    H       -3.23559       -12.97630         2.53797
| 93>    H       -3.64077       -16.15362         0.19287
| 94>    H       -3.72700       -14.83068         4.31321
| 95>    H       -4.76749       -19.69082         3.45477
| 96>    H       -4.73227       -20.94886        -0.68219
| 97>    H       -5.77428       -23.72401         4.66904
| 98>    H       -6.12620       -25.21024         2.43740
| 99> *
|100>
|101>                          ****END OF INPUT****

CARTESIAN COORDINATES (ANGSTROEM)
---------------------------------
  C      0.032980   -0.715910   -4.328830
  O     -0.305060   -1.321760   -3.204380
  C     -0.478370   -2.643600   -3.478750
  C     -0.244890   -2.880520   -4.809290
  C      0.092240   -1.618310   -5.374960
  C      0.435870   -1.277590   -6.740560
  O      0.714540   -0.181380   -7.148550
  C      0.422230   -2.493840   -7.714650
  F      1.288000   -3.444380   -7.324170
  F     -0.789870   -3.072000   -7.757650
  F      0.743610   -2.146700   -8.955600
  C     -0.846150   -3.532880   -2.419450
  S     -1.079820   -5.224530   -2.713450
  C     -1.451780   -5.518350   -1.040380
  C     -1.393500   -4.325410   -0.311880
  C     -1.051070   -3.211410   -1.099210
  C     -1.654420   -4.201540    1.062510
  N     -1.865450   -4.059130    2.181940
  C     -1.747320   -6.840890   -0.632760
  C     -1.997390   -7.230600    0.647310
  C     -2.283320   -8.572470    0.986740
  N     -2.533760   -8.996620    2.268520
  C     -2.603630   -8.172120    3.452400
  C     -3.923480   -7.411050    3.541140
  C     -2.782160  -10.378660    2.326450
  O     -3.023540  -10.975410    3.356210
  C     -2.663680  -10.823020    0.952420
  C     -2.357670   -9.698260    0.158520
  C     -2.232380  -10.140950   -1.215900
  O     -1.974640   -9.538460   -2.239410
  N     -2.471670  -11.519780   -1.159820
  C     -2.478220  -12.328240   -2.357210
  C     -3.895970  -12.610880   -2.846520
  C     -2.736060  -11.949680    0.121050
  C     -3.014480  -13.288200    0.454870
  C     -3.263760  -13.700500    1.734260
  C     -3.567490  -15.034320    2.082020
  C     -3.728920  -16.135580    1.260220
  C     -4.054580  -17.268780    2.048650
  C     -4.076120  -16.800180    3.451590
  C     -3.789810  -15.474450    3.455390
  C     -4.342150  -17.571310    4.589040
  N     -4.554730  -18.174250    5.543220
  C     -4.319570  -18.546290    1.603590
  C     -4.672190  -19.682780    2.387120
  C     -4.877980  -20.761600    1.551280
  C     -4.647150  -20.325630    0.185700
  C     -4.312220  -19.006820    0.205990
  C     -4.012220  -18.234680   -0.921190
  N     -3.765390  -17.604240   -1.849970
  C     -5.247220  -22.056870    2.021610
  O     -5.321800  -22.198830    3.353930
  C     -5.675780  -23.461500    3.634270
  C     -5.843400  -24.180770    2.498140
  C     -5.571400  -23.287530    1.415230
  C     -5.648760  -23.621370    0.018440
  O     -5.462490  -22.906480   -0.937720
  C     -6.032240  -25.108750   -0.257220
  F     -5.158830  -25.970150    0.293640
  F     -7.244310  -25.419710    0.235660
  F     -6.063490  -25.364790   -1.561550
  H      0.213410    0.341340   -4.311360
  H     -0.306960   -3.827030   -5.304830
  H     -0.958030   -2.212660   -0.711620
  H     -1.762830   -7.582720   -1.421670
  H     -1.975000   -6.506160    1.446420
  H     -1.757610   -7.480090    3.467270
  H     -2.516280   -8.856130    4.301050
  H     -4.044880   -6.737190    2.696250
  H     -3.944040   -6.825230    4.455300
  H     -4.757270   -8.108850    3.554570
  H     -1.937560  -13.259920   -2.171560
  H     -1.937400  -11.752070   -3.112970
  H     -4.472660  -13.143180   -2.093590
  H     -3.857020  -13.217640   -3.746440
  H     -4.403930  -11.677480   -3.076870
  H     -3.026350  -14.013420   -0.345290
  H     -3.235590  -12.976300    2.537970
  H     -3.640770  -16.153620    0.192870
  H     -3.727000  -14.830680    4.313210
  H     -4.767490  -19.690820    3.454770
  H     -4.732270  -20.948860   -0.682190
  H     -5.774280  -23.724010    4.669040
  H     -6.126200  -25.210240    2.437400

 Total Charge           Charge          ....    0
 Multiplicity           Mult            ....    1
 Number of Electrons    NEL             ....  434
 Basis Dimension        Dim             ....  973

ORBITAL ENERGIES
----------------

  NO   OCC          E(Eh)            E(eV)
   0   2.0000     -88.992111     -2421.5985
   1   2.0000     -24.814699      -675.2423
   2   2.0000     -24.814508      -675.2371
   3   2.0000     -24.810705      -675.1336
   4   2.0000     -24.810410      -675.1256
   5   2.0000     -24.809551      -675.1022
   6   2.0000     -24.804581      -674.9670
   7   2.0000     -19.332631      -526.0676
   8   2.0000     -19.318843      -525.6924
   9   2.0000     -19.244968      -523.6822
  10   2.0000     -19.242746      -523.6217
  11   2.0000     -19.203129      -522.5437
  12   2.0000     -19.199601      -522.4477
  13   2.0000     -14.462708      -393.5503
  14   2.0000     -14.461158      -393.5081
  15   2.0000     -14.424106      -392.4999
  16   2.0000     -14.410584      -392.1319
  17   2.0000     -14.408001      -392.0616
  18   2.0000     -10.524065      -286.3744
  19   2.0000     -10.520749      -286.2841
  20   2.0000     -10.397988      -282.9436
  21   2.0000     -10.396604      -282.9060
  22   2.0000     -10.384659      -282.5809
  23   2.0000     -10.382391      -282.5192
  24   2.0000     -10.372819      -282.2588
  25   2.0000     -10.368932      -282.1530
  26   2.0000     -10.366269      -282.0805
  27   2.0000     -10.349609      -281.6272
  28   2.0000     -10.346582      -281.5448
  29   2.0000     -10.345909      -281.5265
  30   2.0000     -10.342794      -281.4417
  31   2.0000     -10.339803      -281.3603
  32   2.0000     -10.332182      -281.1530
  33   2.0000     -10.328052      -281.0406
  34   2.0000     -10.325138      -280.9613
  35   2.0000     -10.323403      -280.9141
  36   2.0000     -10.319000      -280.7943
  37   2.0000     -10.312615      -280.6205
  38   2.0000     -10.312280      -280.6114
  39   2.0000     -10.311907      -280.6013
  40   2.0000     -10.311890      -280.6008
  41   2.0000     -10.311695      -280.5955
  42   2.0000     -10.311222      -280.5826
  43   2.0000     -10.311022      -280.5772
  44   2.0000     -10.310647      -280.5670
  45   2.0000     -10.309974      -280.5486
  46   2.0000     -10.307876      -280.4916
  47   2.0000     -10.307287      -280.4755
  48   2.0000     -10.306184      -280.4455
  49   2.0000     -10.306099      -280.4432
  50   2.0000     -10.304018      -280.3866
  51   2.0000     -10.303956      -280.3849
  52   2.0000     -10.303460      -280.3714
  53   2.0000     -10.298805      -280.2447
  54   2.0000     -10.294818      -280.1362
  55   2.0000     -10.292691      -280.0784
  56   2.0000     -10.286132      -279.8999
  57   2.0000     -10.274410      -279.5809
  58   2.0000     -10.271925      -279.5133
  59   2.0000     -10.265365      -279.3348
  60   2.0000     -10.264436      -279.3095
  61   2.0000      -8.087484      -220.0716
  62   2.0000      -6.056771      -164.8131
  63   2.0000      -6.052535      -164.6979
  64   2.0000      -6.049629      -164.6188
  65   2.0000      -1.402806       -38.1723
  66   2.0000      -1.398402       -38.0525
  67   2.0000      -1.305514       -35.5248
  68   2.0000      -1.305398       -35.5217
  69   2.0000      -1.301295       -35.4100
  70   2.0000      -1.300203       -35.3803
  71   2.0000      -1.253122       -34.0992
  72   2.0000      -1.241507       -33.7831
  73   2.0000      -1.162230       -31.6259
  74   2.0000      -1.159184       -31.5430
  75   2.0000      -1.143711       -31.1220
  76   2.0000      -1.136796       -30.9338
  77   2.0000      -1.073611       -29.2144
  78   2.0000      -1.064796       -28.9746
  79   2.0000      -1.027896       -27.9705
  80   2.0000      -1.017944       -27.6997
  81   2.0000      -1.003051       -27.2944
  82   2.0000      -1.001452       -27.2509
  83   2.0000      -0.987063       -26.8593
  84   2.0000      -0.983278       -26.7564
  85   2.0000      -0.941688       -25.6246
  86   2.0000      -0.937617       -25.5139
  87   2.0000      -0.933326       -25.3971
  88   2.0000      -0.931225       -25.3399
  89   2.0000      -0.919448       -25.0194
  90   2.0000      -0.903714       -24.5913
  91   2.0000      -0.900876       -24.5141
  92   2.0000      -0.880904       -23.9706
  93   2.0000      -0.876557       -23.8523
  94   2.0000      -0.865253       -23.5447
  95   2.0000      -0.853092       -23.2138
  96   2.0000      -0.848356       -23.0849
  97   2.0000      -0.838824       -22.8255
  98   2.0000      -0.836618       -22.7655
  99   2.0000      -0.831107       -22.6156
 100   2.0000      -0.825376       -22.4596
 101   2.0000      -0.806280       -21.9400
 102   2.0000      -0.793520       -21.5928
 103   2.0000      -0.772445       -21.0193
 104   2.0000      -0.764967       -20.8158
 105   2.0000      -0.762198       -20.7405
 106   2.0000      -0.758898       -20.6507
 107   2.0000      -0.739472       -20.1220
 108   2.0000      -0.732989       -19.9457
 109   2.0000      -0.729854       -19.8603
 110   2.0000      -0.724193       -19.7063
 111   2.0000      -0.717031       -19.5114
 112   2.0000      -0.715492       -19.4695
 113   2.0000      -0.709056       -19.2944
 114   2.0000      -0.707339       -19.2477
 115   2.0000      -0.697434       -18.9781
 116   2.0000      -0.690525       -18.7901
 117   2.0000      -0.688026       -18.7221
 118   2.0000      -0.685876       -18.6636
 119   2.0000      -0.682266       -18.5654
 120   2.0000      -0.681823       -18.5534
 121   2.0000      -0.674573       -18.3561
 122   2.0000      -0.663217       -18.0471
 123   2.0000      -0.656859       -17.8740
 124   2.0000      -0.656565       -17.8660
 125   2.0000      -0.642403       -17.4807
 126   2.0000      -0.637093       -17.3362
 127   2.0000      -0.633307       -17.2332
 128   2.0000      -0.623295       -16.9607
 129   2.0000      -0.611737       -16.6462
 130   2.0000      -0.609173       -16.5765
 131   2.0000      -0.600548       -16.3417
 132   2.0000      -0.596117       -16.2212
 133   2.0000      -0.594240       -16.1701
 134   2.0000      -0.592571       -16.1247
 135   2.0000      -0.587699       -15.9921
 136   2.0000      -0.584373       -15.9016
 137   2.0000      -0.584138       -15.8952
 138   2.0000      -0.567178       -15.4337
 139   2.0000      -0.565970       -15.4008
 140   2.0000      -0.565763       -15.3952
 141   2.0000      -0.561041       -15.2667
 142   2.0000      -0.557343       -15.1661
 143   2.0000      -0.556679       -15.1480
 144   2.0000      -0.555960       -15.1284
 145   2.0000      -0.554858       -15.0985
 146   2.0000      -0.546609       -14.8740
 147   2.0000      -0.543739       -14.7959
 148   2.0000      -0.538867       -14.6633
 149   2.0000      -0.537968       -14.6388
 150   2.0000      -0.536889       -14.6095
 151   2.0000      -0.533197       -14.5090
 152   2.0000      -0.530875       -14.4458
 153   2.0000      -0.530436       -14.4339
 154   2.0000      -0.529018       -14.3953
 155   2.0000      -0.527167       -14.3449
 156   2.0000      -0.526448       -14.3254
 157   2.0000      -0.523762       -14.2523
 158   2.0000      -0.522533       -14.2188
 159   2.0000      -0.521550       -14.1921
 160   2.0000      -0.518997       -14.1226
 161   2.0000      -0.518489       -14.1088
 162   2.0000      -0.514771       -14.0076
 163   2.0000      -0.513255       -13.9664
 164   2.0000      -0.510380       -13.8881
 165   2.0000      -0.508475       -13.8363
 166   2.0000      -0.505011       -13.7421
 167   2.0000      -0.500525       -13.6200
 168   2.0000      -0.499953       -13.6044
 169   2.0000      -0.498910       -13.5760
 170   2.0000      -0.497308       -13.5324
 171   2.0000      -0.497223       -13.5301
 172   2.0000      -0.493307       -13.4236
 173   2.0000      -0.491037       -13.3618
 174   2.0000      -0.488208       -13.2848
 175   2.0000      -0.484541       -13.1850
 176   2.0000      -0.482733       -13.1358
 177   2.0000      -0.480453       -13.0738
 178   2.0000      -0.479467       -13.0470
 179   2.0000      -0.478005       -13.0072
 180   2.0000      -0.470844       -12.8123
 181   2.0000      -0.468202       -12.7404
 182   2.0000      -0.464819       -12.6484
 183   2.0000      -0.459847       -12.5131
 184   2.0000      -0.458491       -12.4762
 185   2.0000      -0.455898       -12.4056
 186   2.0000      -0.453748       -12.3471
 187   2.0000      -0.451486       -12.2856
 188   2.0000      -0.450254       -12.2520
 189   2.0000      -0.448051       -12.1921
 190   2.0000      -0.445556       -12.1242
 191   2.0000      -0.440781       -11.9943
 192   2.0000      -0.439105       -11.9486
 193   2.0000      -0.435204       -11.8425
 194   2.0000      -0.434200       -11.8152
 195   2.0000      -0.430650       -11.7186
 196   2.0000      -0.425126       -11.5683
 197   2.0000      -0.418389       -11.3849
 198   2.0000      -0.417260       -11.3542
 199   2.0000      -0.407567       -11.0905
 200   2.0000      -0.398414       -10.8414
 201   2.0000      -0.389200       -10.5907
 202   2.0000      -0.385449       -10.4886
 203   2.0000      -0.381532       -10.3820
 204   2.0000      -0.367112        -9.9896
 205   2.0000      -0.364946        -9.9307
 206   2.0000      -0.358081        -9.7439
 207   2.0000      -0.354419        -9.6442
 208   2.0000      -0.350571        -9.5395
 209   2.0000      -0.348561        -9.4848
 210   2.0000      -0.342064        -9.3080
 211   2.0000      -0.325786        -8.8651
 212   2.0000      -0.324755        -8.8370
 213   2.0000      -0.305469        -8.3122
 214   2.0000      -0.294107        -8.0031
 215   2.0000      -0.285606        -7.7717
 216   2.0000      -0.239410        -6.5147
 217   0.0000      -0.136848        -3.7238
 218   0.0000      -0.092709        -2.5227
 219   0.0000      -0.048556        -1.3213
 220   0.0000      -0.045116        -1.2277
 221   0.0000      -0.041504        -1.1294

MULLIKEN ATOMIC CHARGES
-----------------------
   0 C :    0.138672
   1 O :   -0.161644
   2 C :    0.182637
   3 C :   -0.044178
   4 C :   -0.064260
   5 C :    0.040764
   6 O :   -0.125155
   7 C :    0.470646
   8 F :   -0.167917
   9 F :   -0.167748
  10 F :   -0.131281
  11 C :   -0.071492
  12 S :    0.193962
  13 C :   -0.066623
  14 C :   -0.065429
  15 C :    0.007400
  16 C :   -0.166662
  17 N :    0.121066
  18 C :    0.061817
  19 C :   -0.038187
  20 C :    0.142528
  21 N :   -0.254235
  22 C :    0.091329
  23 C :    0.007999
  24 C :    0.166379
  25 O :   -0.202426
  26 C :   -0.059497
  27 C :   -0.074093
  28 C :    0.169862
  29 O :   -0.212957
  30 N :   -0.254845
  31 C :    0.093170
  32 C :    0.005715
  33 C :    0.145908
  34 C :   -0.012159
  35 C :   -0.001342
  36 C :    0.114832
  37 C :   -0.125454
  38 C :    0.126816
  39 C :   -0.088856
  40 C :    0.001455
  41 C :   -0.177329
  42 N :    0.135171
  43 C :    0.113484
  44 C :   -0.108157
  45 C :    0.040252
  46 C :    0.003492
  47 C :   -0.107968
  48 C :   -0.163377
  49 N :    0.120661
  50 C :    0.156537
  51 O :   -0.163357
  52 C :    0.157660
  53 C :    0.016398
  54 C :   -0.080628
  55 C :    0.028878
  56 O :   -0.143797
  57 C :    0.467185
  58 F :   -0.167505
  59 F :   -0.167753
  60 F :   -0.133439
  61 H :    0.039496
  62 H :    0.014394
  63 H :    0.005303
  64 H :    0.006806
  65 H :   -0.013571
  66 H :    0.037310
  67 H :    0.043129
  68 H :    0.019667
  69 H :    0.031007
  70 H :    0.024996
  71 H :    0.032592
  72 H :    0.043578
  73 H :    0.018930
  74 H :    0.033454
  75 H :    0.026799
  76 H :   -0.009924
  77 H :    0.006261
  78 H :   -0.000497
  79 H :    0.012979
  80 H :    0.011867
  81 H :    0.017495
  82 H :    0.027040
  83 H :    0.017965
Sum of atomic charges:    0.0000000

LOEWDIN ATOMIC CHARGES
----------------------
   0 C :    0.104728
   1 O :    0.046106
   2 C :    0.011449
   3 C :   -0.043910
   4 C :   -0.125634
   5 C :    0.036598
   6 O :   -0.098536
   7 C :    0.138643
   8 F :   -0.060131
   9 F :   -0.060042
  10 F :   -0.032290
  11 C :   -0.177445
  12 S :    0.494264
  13 C :   -0.140661
  14 C :   -0.099331
  15 C :   -0.019303
  16 C :   -0.024800
  17 N :   -0.057158
  18 C :    0.001725
  19 C :   -0.033339
  20 C :    0.078677
  21 N :    0.004517
  22 C :    0.036847
  23 C :   -0.058691
  24 C :    0.082185
  25 O :   -0.192452
  26 C :   -0.107446
  27 C :   -0.117588
  28 C :    0.079055
  29 O :   -0.202507
  30 N :    0.003380
  31 C :    0.037218
  32 C :   -0.059384
  33 C :    0.069348
  34 C :   -0.014976
  35 C :    0.019048
  36 C :   -0.012961
  37 C :   -0.026076
  38 C :    0.046639
  39 C :   -0.080531
  40 C :    0.062854
  41 C :   -0.030714
  42 N :   -0.061274
  43 C :    0.029663
  44 C :    0.001692
  45 C :   -0.040985
  46 C :    0.060290
  47 C :   -0.092157
  48 C :   -0.023951
  49 N :   -0.075147
  50 C :    0.084365
  51 O :    0.048365
  52 C :    0.052338
  53 C :   -0.049647
  54 C :   -0.119543
  55 C :    0.041801
  56 O :   -0.107943
  57 C :    0.143277
  58 F :   -0.060520
  59 F :   -0.060737
  60 F :   -0.034399
  61 H :    0.038687
  62 H :    0.034036
  63 H :    0.043620
  64 H :    0.037178
  65 H :    0.035977
  66 H :    0.028207
  67 H :    0.037801
  68 H :    0.023887
  69 H :    0.034766
  70 H :    0.030006
  71 H :    0.026570
  72 H :    0.038162
  73 H :    0.023477
  74 H :    0.035255
  75 H :    0.031002
  76 H :    0.036084
  77 H :    0.037695
  78 H :    0.031340
  79 H :    0.042924
  80 H :    0.036643
  81 H :    0.035770
  82 H :    0.032358
  83 H :    0.035691

  Mayer bond orders larger than 0.100000
B(  0-C ,  1-O ) :   1.2070 B(  0-C ,  4-C ) :   1.4774 B(  0-C , 61-H ) :   1.0032
B(  1-O ,  2-C ) :   1.1594 B(  2-C ,  3-C ) :   1.5260 B(  2-C , 11-C ) :   1.0736
B(  3-C ,  4-C ) :   1.2196 B(  3-C , 62-H ) :   0.9885 B(  4-C ,  5-C ) :   0.9460
B(  5-C ,  6-O ) :   2.2479 B(  5-C ,  7-C ) :   0.8737 B(  7-C ,  8-F ) :   1.1271
B(  7-C ,  9-F ) :   1.1281 B(  7-C , 10-F ) :   1.1949 B( 11-C , 12-S ) :   1.1413
B( 11-C , 15-C ) :   1.4771 B( 12-S , 13-C ) :   1.1408 B( 13-C , 14-C ) :   1.4358
B( 13-C , 18-C ) :   1.1631 B( 14-C , 15-C ) :   1.2683 B( 14-C , 16-C ) :   1.1162
B( 15-C , 63-H ) :   1.0178 B( 16-C , 17-N ) :   2.9658 B( 18-C , 19-C ) :   1.6004
B( 18-C , 64-H ) :   0.9188 B( 19-C , 20-C ) :   1.1828 B( 19-C , 65-H ) :   0.9483
B( 20-C , 21-N ) :   1.1701 B( 20-C , 27-C ) :   1.3092 B( 21-N , 22-C ) :   0.9377
B( 21-N , 24-C ) :   1.0618 B( 22-C , 23-C ) :   1.1225 B( 22-C , 66-H ) :   0.9482
B( 22-C , 67-H ) :   0.9280 B( 23-C , 68-H ) :   0.9677 B( 23-C , 69-H ) :   0.9676
B( 23-C , 70-H ) :   0.9633 B( 24-C , 25-O ) :   2.0325 B( 24-C , 26-C ) :   0.9800
B( 25-O , 77-H ) :   0.1106 B( 26-C , 27-C ) :   1.2815 B( 26-C , 33-C ) :   1.3116
B( 27-C , 28-C ) :   0.9846 B( 28-C , 29-O ) :   2.0158 B( 28-C , 30-N ) :   1.0735
B( 29-O , 64-H ) :   0.1218 B( 30-N , 31-C ) :   0.9396 B( 30-N , 33-C ) :   1.1554
B( 31-C , 32-C ) :   1.1216 B( 31-C , 71-H ) :   0.9497 B( 31-C , 72-H ) :   0.9283
B( 32-C , 73-H ) :   0.9685 B( 32-C , 74-H ) :   0.9676 B( 32-C , 75-H ) :   0.9632
B( 33-C , 34-C ) :   1.1783 B( 34-C , 35-C ) :   1.5491 B( 34-C , 76-H ) :   0.9667
B( 35-C , 36-C ) :   1.1267 B( 35-C , 77-H ) :   0.9581 B( 36-C , 37-C ) :   1.5058
B( 36-C , 40-C ) :   1.0263 B( 37-C , 38-C ) :   1.1525 B( 37-C , 78-H ) :   0.9948
B( 38-C , 39-C ) :   1.0961 B( 38-C , 43-C ) :   1.3830 B( 39-C , 40-C ) :   1.6707
B( 39-C , 41-C ) :   1.0902 B( 40-C , 79-H ) :   1.0279 B( 41-C , 42-N ) :   2.9662
B( 43-C , 44-C ) :   1.1012 B( 43-C , 47-C ) :   1.1187 B( 44-C , 45-C ) :   1.5220
B( 44-C , 80-H ) :   1.0127 B( 45-C , 46-C ) :   1.0936 B( 45-C , 50-C ) :   1.0530
B( 46-C , 47-C ) :   1.6270 B( 46-C , 81-H ) :   1.0060 B( 47-C , 48-C ) :   1.0958
B( 48-C , 49-N ) :   2.9543 B( 50-C , 51-O ) :   1.2445 B( 50-C , 54-C ) :   1.4083
B( 51-O , 52-C ) :   1.1176 B( 52-C , 53-C ) :   1.5651 B( 52-C , 82-H ) :   1.0032
B( 53-C , 54-C ) :   1.2175 B( 53-C , 83-H ) :   0.9744 B( 54-C , 55-C ) :   0.9825
B( 55-C , 56-O ) :   2.1513 B( 55-C , 57-C ) :   0.8844 B( 57-C , 58-F ) :   1.1264
B( 57-C , 59-F ) :   1.1254 B( 57-C , 60-F ) :   1.1912

-----------------------------------------------------------------------------
         ABSORPTION SPECTRUM VIA TRANSITION ELECTRIC DIPOLE MOMENTS
-----------------------------------------------------------------------------
State   Energy  Wavelength   fosc         T2         TX        TY        TZ
        (cm-1)    (nm)                  (au**2)     (au)      (au)      (au)
-----------------------------------------------------------------------------
   0    8858.9   1128.8   0.799697134  29.71818  -1.13746  -5.32191   0.31880
   1   15456.8    647.0   0.029054777   0.61883   0.17467   0.65133   0.40508
   2   16737.2    597.5   0.293158697   5.76629   0.44391   2.32133  -0.42503
   3   18260.9    547.6   0.020399627   0.36777   0.11479   0.59450   0.03408
   4   23179.7    431.4   0.358564923   5.09256  -0.52452  -1.87606   1.13922
   5   24116.8    414.6   0.130212408   1.77750   0.26764   1.24062   0.40831
   6   24222.5    412.8   0.409116732   5.56036   0.57916   2.28452  -0.07673
   7   26507.9    377.2   0.003077670   0.03822   0.11085   0.08506  -0.13675
   8   26985.7    370.6   0.104427042   1.27396  -0.29321  -0.66927   0.86027
   9   29368.1    340.5   0.055384174   0.62085  -0.18423  -0.39867   0.65419
  10   29632.6    337.5   0.336407545   3.73741  -0.47235  -1.74057   0.69622
  11   29965.7    333.7   0.017883582   0.19647   0.09593   0.43220  -0.02188
  12   30331.2    329.7   0.111110286   1.20598  -0.06729  -0.02808   1.09575
  13   30806.9    324.6   0.056078282   0.59927   0.24229   0.66738  -0.30850
  14   31360.2    318.9   0.000076365   0.00080   0.01941  -0.00022   0.02061
  15   31514.9    317.3   0.011253632   0.11756   0.03731   0.33102   0.08117
  16   31826.0    314.2   0.014837205   0.15348   0.05513   0.04027  -0.38577
  17   32765.7    305.2   0.024399393   0.24515   0.11364   0.46219  -0.13645
  18   34130.5    293.0   0.094648595   0.91295  -0.29261  -0.88265   0.21966
  19   34621.0    288.8   0.043865009   0.41711   0.09604   0.39282  -0.50357
  20   34721.9    288.0   0.152627910   1.44712  -0.28761  -0.71868   0.92082
  21   35356.5    282.8   0.058931751   0.54873  -0.13472  -0.23842   0.68828
  22   35558.0    281.2   0.000062319   0.00058   0.01196   0.01568  -0.01371
  23   36111.0    276.9   0.122124164   1.11336   0.27963   0.35173  -0.95470
  24   36273.9    275.7   0.000783498   0.00711   0.08145  -0.01511   0.01576
  25   37576.6    266.1   0.068572575   0.60077   0.00156  -0.22702  -0.74110
  26   37909.0    263.8   0.071686964   0.62255  -0.16388  -0.70513  -0.31382
  27   37963.9    263.4   0.001794706   0.01556  -0.03732  -0.02552   0.11627
  28   38031.5    262.9   0.008344485   0.07223  -0.03766  -0.24055  -0.11379
  29   38299.4    261.1   0.062550692   0.53767  -0.09986  -0.72571   0.03228
  30   38967.8    256.6   0.153935248   1.30049   0.08955   0.04008  -1.13616
  31   39378.3    253.9   0.011039128   0.09229  -0.01654  -0.27843  -0.12038
  32   39902.6    250.6   0.087017918   0.71793   0.18936   0.55900  -0.60794

FINAL SINGLE POINT ENERGY     -3371.017604076586

DIPOLE MOMENT
-------------
                                X             Y             Z
Electronic contribution:      7.22001     -21.27746     -42.42387
Nuclear contribution   :     -7.11642      22.29074      43.28164
                        -----------------------------------------
Total Dipole Moment    :      0.10359       1.01328       0.85776
                        -----------------------------------------
Magnitude (a.u.)       :      1.33163
Magnitude (Debye)      :      3.38473

Rotational constants in cm-1:     0.002610     0.000269     0.000245
Rotational constants in MHz :    78.237559     8.067656     7.353181

                             ****ORCA TERMINATED NORMALLY****
TOTAL RUN TIME: 0 days 0 hours 7 minutes 53 seconds 751 msec
