                         Program Version 4.2.0 -  RELEASE  -
|  1> # ORCA input file
|  2> # SCF done       -182.373356734373          0.000499033493
|  3> ! CAM-B3LYP def2-SVP def2/J RIJCOSX Grid4 TightSCF
|  4> %maxcore 5000
|  5> %tddft
|  6>     Mode sTDDFT
|  7>     Ethresh 5.0
|  8>     maxcore 5000
|  9> end
| 10>
| 11> %pal
| 12>   nprocs 6
| 13>   end
| 14> * xyz 0 1
| 15>    C       -2.11394        -0.08481        -2.72764
| 16>    O       -1.50157        -1.26018        -2.58932
| 17>    C       -2.34397        -2.08524        -1.91000
| 18>    C       -3.50455        -1.41689        -1.60822
| 19>    C       -3.35581        -0.11246        -2.14400
| 20>    C       -4.31264         1.00227        -2.10342
| 21>    O       -4.10497         2.09843        -2.55937
| 22>    O       -5.45092         0.65107        -1.49147
| 23>    C       -6.44506         1.66141        -1.40814
| 24>    C       -1.93988        -3.42355        -1.61124
| 25>    S       -2.90065        -4.38758        -0.54540
| 26>    C       -1.80011        -5.72786        -0.68495
| 27>    C       -0.72906        -5.40308        -1.50460
| 28>    C       -0.82314        -4.11078        -2.05261
| 29>    C        0.14065        -3.60634        -3.07814
| 30>    N       -0.57240        -3.03942        -4.26210
| 31>    O        0.03388        -2.22445        -4.90825
| 32>    O       -1.66210        -3.48011        -4.52493
| 33>    C        0.98893        -4.76207        -3.62700
| 34>    C        1.57028        -5.56577        -2.47272
| 35>    C        0.45021        -6.29493        -1.71760
| 36>    N        1.06294        -6.72600        -0.41382
| 37>    O        0.71559        -6.16621         0.59434
| 38>    O        1.91318        -7.57212        -0.49231
| 39>    C       -2.01683        -6.98379        -0.07517
| 40>    C       -2.98121        -7.29054         0.82744
| 41>    C       -3.07232        -8.60794         1.34302
| 42>    N       -3.98056        -9.02321         2.28489
| 43>    C       -5.03552        -8.23191         2.86797
| 44>    C       -6.22135        -8.08076         1.91795
| 45>    C       -3.81515       -10.38592         2.61695
| 46>    O       -4.50131       -10.96635         3.42968
| 47>    C       -2.70461       -10.81297         1.79556
| 48>    C       -2.27072        -9.70553         1.02735
| 49>    C       -1.17449       -10.15486         0.20875
| 50>    O       -0.49960        -9.58021        -0.63286
| 51>    N       -1.00239       -11.50706         0.54175
| 52>    C        0.06437       -12.25363        -0.07904
| 53>    C        1.30662       -12.30897         0.80781
| 54>    C       -1.91363       -11.91632         1.49540
| 55>    C       -2.12350       -13.19377         2.08573
| 56>    C       -1.40107       -14.32955         1.97122
| 57>    C       -1.72647       -15.59220         2.58867
| 58>    C       -2.90284       -15.82718         3.30297
| 59>    C       -3.15986       -17.06989         3.85357
| 60>    N       -4.36402       -17.20342         4.63464
| 61>    O       -5.28602       -16.46401         4.36540
| 62>    O       -4.37494       -18.02442         5.52777
| 63>    C       -2.27250       -18.15238         3.70958
| 64>    C       -1.09166       -17.89893         2.99987
| 65>    C       -0.82570       -16.66285         2.46118
| 66>    C       -2.59318       -19.48063         4.17884
| 67>    C       -1.67788       -20.36384         4.61115
| 68>    C       -1.94553       -21.69390         5.06992
| 69>    O       -0.88685       -22.35697         5.58406
| 70>    C       -1.30497       -23.56148         6.00046
| 71>    C       -2.63478       -23.71269         5.77397
| 72>    C       -3.07376       -22.50565         5.16217
| 73>    C       -4.45039       -22.27056         4.71735
| 74>    O       -4.82214       -21.40705         3.95794
| 75>    O       -5.28517       -23.17688         5.24693
| 76>    C       -6.64989       -23.04032         4.88277
| 77>    H       -1.59727         0.69350        -3.25290
| 78>    H       -4.35259        -1.80167        -1.08200
| 79>    H       -7.28489         1.21830        -0.87950
| 80>    H       -6.74538         1.98077        -2.40816
| 81>    H       -6.06136         2.52746        -0.86496
| 82>    H        0.77998        -2.80591        -2.69051
| 83>    H        1.78814        -4.36205        -4.25207
| 84>    H        0.35802        -5.41087        -4.24007
| 85>    H        2.08559        -4.88570        -1.78878
| 86>    H        2.29461        -6.29330        -2.83871
| 87>    H        0.17302        -7.22196        -2.23216
| 88>    H       -1.34630        -7.77348        -0.38567
| 89>    H       -3.66972        -6.53326         1.17338
| 90>    H       -4.64126        -7.25368         3.15737
| 91>    H       -5.35233        -8.76680         3.76777
| 92>    H       -5.92134        -7.59040         0.99437
| 93>    H       -6.99988        -7.48969         2.39203
| 94>    H       -6.62765        -9.05937         1.67471
| 95>    H        0.30963       -11.71412        -0.99917
| 96>    H       -0.29266       -13.25109        -0.34547
| 97>    H        1.68869       -11.30273         0.96102
| 98>    H        2.07926       -12.90277         0.32667
| 99>    H        1.07892       -12.74191         1.77956
|100>    H       -3.00189       -13.19087         2.71797
|101>    H       -0.49203       -14.34708         1.39048
|102>    H       -3.63554       -15.04822         3.44881
|103>    H       -0.39535       -18.70920         2.84946
|104>    H        0.09533       -16.51042         1.91676
|105>    H       -3.63323       -19.77126         4.16943
|106>    H       -0.63493       -20.08445         4.69679
|107>    H       -0.57140       -24.21229         6.43364
|108>    H       -3.24532       -24.56216         5.99654
|109>    H       -7.18420       -23.83020         5.40376
|110>    H       -6.76722       -23.14401         3.80197
|111>    H       -7.02516       -22.05970         5.18234
|112> *
|113>
|114>                          ****END OF INPUT****

CARTESIAN COORDINATES (ANGSTROEM)
---------------------------------
  C     -2.113940   -0.084810   -2.727640
  O     -1.501570   -1.260180   -2.589320
  C     -2.343970   -2.085240   -1.910000
  C     -3.504550   -1.416890   -1.608220
  C     -3.355810   -0.112460   -2.144000
  C     -4.312640    1.002270   -2.103420
  O     -4.104970    2.098430   -2.559370
  O     -5.450920    0.651070   -1.491470
  C     -6.445060    1.661410   -1.408140
  C     -1.939880   -3.423550   -1.611240
  S     -2.900650   -4.387580   -0.545400
  C     -1.800110   -5.727860   -0.684950
  C     -0.729060   -5.403080   -1.504600
  C     -0.823140   -4.110780   -2.052610
  C      0.140650   -3.606340   -3.078140
  N     -0.572400   -3.039420   -4.262100
  O      0.033880   -2.224450   -4.908250
  O     -1.662100   -3.480110   -4.524930
  C      0.988930   -4.762070   -3.627000
  C      1.570280   -5.565770   -2.472720
  C      0.450210   -6.294930   -1.717600
  N      1.062940   -6.726000   -0.413820
  O      0.715590   -6.166210    0.594340
  O      1.913180   -7.572120   -0.492310
  C     -2.016830   -6.983790   -0.075170
  C     -2.981210   -7.290540    0.827440
  C     -3.072320   -8.607940    1.343020
  N     -3.980560   -9.023210    2.284890
  C     -5.035520   -8.231910    2.867970
  C     -6.221350   -8.080760    1.917950
  C     -3.815150  -10.385920    2.616950
  O     -4.501310  -10.966350    3.429680
  C     -2.704610  -10.812970    1.795560
  C     -2.270720   -9.705530    1.027350
  C     -1.174490  -10.154860    0.208750
  O     -0.499600   -9.580210   -0.632860
  N     -1.002390  -11.507060    0.541750
  C      0.064370  -12.253630   -0.079040
  C      1.306620  -12.308970    0.807810
  C     -1.913630  -11.916320    1.495400
  C     -2.123500  -13.193770    2.085730
  C     -1.401070  -14.329550    1.971220
  C     -1.726470  -15.592200    2.588670
  C     -2.902840  -15.827180    3.302970
  C     -3.159860  -17.069890    3.853570
  N     -4.364020  -17.203420    4.634640
  O     -5.286020  -16.464010    4.365400
  O     -4.374940  -18.024420    5.527770
  C     -2.272500  -18.152380    3.709580
  C     -1.091660  -17.898930    2.999870
  C     -0.825700  -16.662850    2.461180
  C     -2.593180  -19.480630    4.178840
  C     -1.677880  -20.363840    4.611150
  C     -1.945530  -21.693900    5.069920
  O     -0.886850  -22.356970    5.584060
  C     -1.304970  -23.561480    6.000460
  C     -2.634780  -23.712690    5.773970
  C     -3.073760  -22.505650    5.162170
  C     -4.450390  -22.270560    4.717350
  O     -4.822140  -21.407050    3.957940
  O     -5.285170  -23.176880    5.246930
  C     -6.649890  -23.040320    4.882770
  H     -1.597270    0.693500   -3.252900
  H     -4.352590   -1.801670   -1.082000
  H     -7.284890    1.218300   -0.879500
  H     -6.745380    1.980770   -2.408160
  H     -6.061360    2.527460   -0.864960
  H      0.779980   -2.805910   -2.690510
  H      1.788140   -4.362050   -4.252070
  H      0.358020   -5.410870   -4.240070
  H      2.085590   -4.885700   -1.788780
  H      2.294610   -6.293300   -2.838710
  H      0.173020   -7.221960   -2.232160
  H     -1.346300   -7.773480   -0.385670
  H     -3.669720   -6.533260    1.173380
  H     -4.641260   -7.253680    3.157370
  H     -5.352330   -8.766800    3.767770
  H     -5.921340   -7.590400    0.994370
  H     -6.999880   -7.489690    2.392030
  H     -6.627650   -9.059370    1.674710
  H      0.309630  -11.714120   -0.999170
  H     -0.292660  -13.251090   -0.345470
  H      1.688690  -11.302730    0.961020
  H      2.079260  -12.902770    0.326670
  H      1.078920  -12.741910    1.779560
  H     -3.001890  -13.190870    2.717970
  H     -0.492030  -14.347080    1.390480
  H     -3.635540  -15.048220    3.448810
  H     -0.395350  -18.709200    2.849460
  H      0.095330  -16.510420    1.916760
  H     -3.633230  -19.771260    4.169430
  H     -0.634930  -20.084450    4.696790
  H     -0.571400  -24.212290    6.433640
  H     -3.245320  -24.562160    5.996540
  H     -7.184200  -23.830200    5.403760
  H     -6.767220  -23.144010    3.801970
  H     -7.025160  -22.059700    5.182340

 Total Charge           Charge          ....    0
 Multiplicity           Mult            ....    1
 Number of Electrons    NEL             ....  450
 Basis Dimension        Dim             .... 1047

ORBITAL ENERGIES
----------------

  NO   OCC          E(Eh)            E(eV)
   0   2.0000     -88.975858     -2421.1562
   1   2.0000     -19.314395      -525.5714
   2   2.0000     -19.292422      -524.9735
   3   2.0000     -19.261621      -524.1354
   4   2.0000     -19.253493      -523.9142
   5   2.0000     -19.246103      -523.7131
   6   2.0000     -19.245454      -523.6954
   7   2.0000     -19.243508      -523.6425
   8   2.0000     -19.243189      -523.6338
   9   2.0000     -19.235407      -523.4220
  10   2.0000     -19.233544      -523.3713
  11   2.0000     -19.202082      -522.5152
  12   2.0000     -19.197594      -522.3931
  13   2.0000     -19.188638      -522.1494
  14   2.0000     -19.188381      -522.1424
  15   2.0000     -14.644202      -398.4890
  16   2.0000     -14.641368      -398.4119
  17   2.0000     -14.639358      -398.3572
  18   2.0000     -14.451171      -393.2364
  19   2.0000     -14.451150      -393.2358
  20   2.0000     -10.403049      -283.0814
  21   2.0000     -10.397240      -282.9233
  22   2.0000     -10.371696      -282.2282
  23   2.0000     -10.370069      -282.1839
  24   2.0000     -10.349211      -281.6163
  25   2.0000     -10.346276      -281.5365
  26   2.0000     -10.342250      -281.4269
  27   2.0000     -10.340945      -281.3914
  28   2.0000     -10.340380      -281.3760
  29   2.0000     -10.338801      -281.3331
  30   2.0000     -10.331507      -281.1346
  31   2.0000     -10.328414      -281.0504
  32   2.0000     -10.324769      -280.9513
  33   2.0000     -10.323287      -280.9109
  34   2.0000     -10.320890      -280.8457
  35   2.0000     -10.315850      -280.7085
  36   2.0000     -10.315763      -280.7062
  37   2.0000     -10.307298      -280.4758
  38   2.0000     -10.304970      -280.4125
  39   2.0000     -10.303131      -280.3625
  40   2.0000     -10.302679      -280.3501
  41   2.0000     -10.302372      -280.3418
  42   2.0000     -10.301632      -280.3217
  43   2.0000     -10.300870      -280.3009
  44   2.0000     -10.296928      -280.1936
  45   2.0000     -10.295452      -280.1535
  46   2.0000     -10.292430      -280.0713
  47   2.0000     -10.291463      -280.0449
  48   2.0000     -10.291006      -280.0325
  49   2.0000     -10.290371      -280.0152
  50   2.0000     -10.288924      -279.9759
  51   2.0000     -10.288309      -279.9591
  52   2.0000     -10.288193      -279.9560
  53   2.0000     -10.286534      -279.9108
  54   2.0000     -10.279598      -279.7221
  55   2.0000     -10.277090      -279.6538
  56   2.0000     -10.274102      -279.5725
  57   2.0000     -10.269190      -279.4389
  58   2.0000     -10.263269      -279.2777
  59   2.0000     -10.260551      -279.2038
  60   2.0000     -10.257800      -279.1289
  61   2.0000     -10.254874      -279.0493
  62   2.0000      -8.071042      -219.6242
  63   2.0000      -6.040276      -164.3643
  64   2.0000      -6.036315      -164.2565
  65   2.0000      -6.033149      -164.1703
  66   2.0000      -1.328247       -36.1434
  67   2.0000      -1.325643       -36.0726
  68   2.0000      -1.315487       -35.7962
  69   2.0000      -1.232555       -33.5395
  70   2.0000      -1.212469       -32.9929
  71   2.0000      -1.192220       -32.4419
  72   2.0000      -1.186033       -32.2736
  73   2.0000      -1.149001       -31.2659
  74   2.0000      -1.146819       -31.2065
  75   2.0000      -1.134143       -30.8616
  76   2.0000      -1.130466       -30.7615
  77   2.0000      -1.123692       -30.5772
  78   2.0000      -1.096693       -29.8425
  79   2.0000      -1.090291       -29.6683
  80   2.0000      -1.060591       -28.8601
  81   2.0000      -1.051234       -28.6055
  82   2.0000      -1.017185       -27.6790
  83   2.0000      -0.984761       -26.7967
  84   2.0000      -0.963323       -26.2133
  85   2.0000      -0.938392       -25.5349
  86   2.0000      -0.927001       -25.2250
  87   2.0000      -0.923010       -25.1164
  88   2.0000      -0.920448       -25.0467
  89   2.0000      -0.909912       -24.7600
  90   2.0000      -0.907035       -24.6817
  91   2.0000      -0.897392       -24.4193
  92   2.0000      -0.887247       -24.1432
  93   2.0000      -0.882222       -24.0065
  94   2.0000      -0.870872       -23.6976
  95   2.0000      -0.859082       -23.3768
  96   2.0000      -0.853753       -23.2318
  97   2.0000      -0.833452       -22.6794
  98   2.0000      -0.824393       -22.4329
  99   2.0000      -0.823592       -22.4111
 100   2.0000      -0.820757       -22.3339
 101   2.0000      -0.818330       -22.2679
 102   2.0000      -0.810811       -22.0633
 103   2.0000      -0.790974       -21.5235
 104   2.0000      -0.778690       -21.1892
 105   2.0000      -0.769345       -20.9349
 106   2.0000      -0.758627       -20.6433
 107   2.0000      -0.736864       -20.0511
 108   2.0000      -0.733290       -19.9538
 109   2.0000      -0.729920       -19.8621
 110   2.0000      -0.721085       -19.6217
 111   2.0000      -0.716912       -19.5082
 112   2.0000      -0.708840       -19.2885
 113   2.0000      -0.704127       -19.1603
 114   2.0000      -0.692926       -18.8555
 115   2.0000      -0.686373       -18.6772
 116   2.0000      -0.682511       -18.5721
 117   2.0000      -0.680912       -18.5286
 118   2.0000      -0.679160       -18.4809
 119   2.0000      -0.670606       -18.2481
 120   2.0000      -0.657094       -17.8804
 121   2.0000      -0.653771       -17.7900
 122   2.0000      -0.649483       -17.6733
 123   2.0000      -0.644696       -17.5431
 124   2.0000      -0.639982       -17.4148
 125   2.0000      -0.632802       -17.2194
 126   2.0000      -0.629333       -17.1250
 127   2.0000      -0.628635       -17.1060
 128   2.0000      -0.626816       -17.0565
 129   2.0000      -0.625023       -17.0078
 130   2.0000      -0.618525       -16.8309
 131   2.0000      -0.614942       -16.7334
 132   2.0000      -0.605563       -16.4782
 133   2.0000      -0.601366       -16.3640
 134   2.0000      -0.598523       -16.2866
 135   2.0000      -0.592988       -16.1360
 136   2.0000      -0.590756       -16.0753
 137   2.0000      -0.586025       -15.9466
 138   2.0000      -0.583935       -15.8897
 139   2.0000      -0.581262       -15.8169
 140   2.0000      -0.578062       -15.7299
 141   2.0000      -0.572888       -15.5891
 142   2.0000      -0.571900       -15.5622
 143   2.0000      -0.569529       -15.4977
 144   2.0000      -0.567067       -15.4307
 145   2.0000      -0.564525       -15.3615
 146   2.0000      -0.563467       -15.3327
 147   2.0000      -0.561922       -15.2907
 148   2.0000      -0.559113       -15.2142
 149   2.0000      -0.550285       -14.9740
 150   2.0000      -0.549753       -14.9595
 151   2.0000      -0.546424       -14.8689
 152   2.0000      -0.543294       -14.7838
 153   2.0000      -0.541344       -14.7307
 154   2.0000      -0.536460       -14.5978
 155   2.0000      -0.534517       -14.5449
 156   2.0000      -0.531233       -14.4556
 157   2.0000      -0.529423       -14.4063
 158   2.0000      -0.526203       -14.3187
 159   2.0000      -0.525568       -14.3014
 160   2.0000      -0.515926       -14.0391
 161   2.0000      -0.514349       -13.9961
 162   2.0000      -0.512140       -13.9360
 163   2.0000      -0.510407       -13.8889
 164   2.0000      -0.509681       -13.8691
 165   2.0000      -0.505022       -13.7423
 166   2.0000      -0.503349       -13.6968
 167   2.0000      -0.501817       -13.6551
 168   2.0000      -0.496573       -13.5124
 169   2.0000      -0.493770       -13.4362
 170   2.0000      -0.488333       -13.2882
 171   2.0000      -0.480066       -13.0633
 172   2.0000      -0.479815       -13.0564
 173   2.0000      -0.478932       -13.0324
 174   2.0000      -0.478558       -13.0222
 175   2.0000      -0.474470       -12.9110
 176   2.0000      -0.473129       -12.8745
 177   2.0000      -0.472569       -12.8593
 178   2.0000      -0.470813       -12.8115
 179   2.0000      -0.465099       -12.6560
 180   2.0000      -0.464482       -12.6392
 181   2.0000      -0.457880       -12.4596
 182   2.0000      -0.455081       -12.3834
 183   2.0000      -0.453507       -12.3405
 184   2.0000      -0.450816       -12.2673
 185   2.0000      -0.448508       -12.2045
 186   2.0000      -0.443677       -12.0731
 187   2.0000      -0.438680       -11.9371
 188   2.0000      -0.437252       -11.8982
 189   2.0000      -0.435981       -11.8636
 190   2.0000      -0.435345       -11.8463
 191   2.0000      -0.434881       -11.8337
 192   2.0000      -0.432576       -11.7710
 193   2.0000      -0.427784       -11.6406
 194   2.0000      -0.427107       -11.6222
 195   2.0000      -0.424235       -11.5440
 196   2.0000      -0.419921       -11.4266
 197   2.0000      -0.404591       -11.0095
 198   2.0000      -0.396207       -10.7814
 199   2.0000      -0.384957       -10.4752
 200   2.0000      -0.381658       -10.3854
 201   2.0000      -0.380614       -10.3570
 202   2.0000      -0.378914       -10.3108
 203   2.0000      -0.378092       -10.2884
 204   2.0000      -0.375025       -10.2049
 205   2.0000      -0.373362       -10.1597
 206   2.0000      -0.372329       -10.1316
 207   2.0000      -0.372112       -10.1257
 208   2.0000      -0.370445       -10.0803
 209   2.0000      -0.368141       -10.0176
 210   2.0000      -0.364459        -9.9174
 211   2.0000      -0.363327        -9.8866
 212   2.0000      -0.356352        -9.6968
 213   2.0000      -0.355522        -9.6743
 214   2.0000      -0.346574        -9.4308
 215   2.0000      -0.345986        -9.4148
 216   2.0000      -0.339000        -9.2247
 217   2.0000      -0.338155        -9.2017
 218   2.0000      -0.331547        -9.0219
 219   2.0000      -0.329408        -8.9636
 220   2.0000      -0.315999        -8.5988
 221   2.0000      -0.312098        -8.4926
 222   2.0000      -0.277406        -7.5486
 223   2.0000      -0.267095        -7.2680
 224   2.0000      -0.230652        -6.2764
 225   0.0000      -0.087265        -2.3746
 226   0.0000      -0.050608        -1.3771
 227   0.0000      -0.036234        -0.9860
 228   0.0000      -0.020519        -0.5583
 229   0.0000      -0.013619        -0.3706

MULLIKEN ATOMIC CHARGES
-----------------------
   0 C :    0.137457
   1 O :   -0.201434
   2 C :    0.129864
   3 C :   -0.059289
   4 C :   -0.009485
   5 C :    0.175603
   6 O :   -0.200638
   7 O :   -0.301059
   8 C :    0.190280
   9 C :   -0.087913
  10 S :    0.154372
  11 C :   -0.051192
  12 C :   -0.031356
  13 C :   -0.007377
  14 C :    0.125448
  15 N :    0.192315
  16 O :   -0.230713
  17 O :   -0.216515
  18 C :    0.064893
  19 C :    0.080402
  20 C :    0.093405
  21 N :    0.191304
  22 O :   -0.215553
  23 O :   -0.216146
  24 C :    0.002104
  25 C :   -0.037033
  26 C :    0.141786
  27 N :   -0.264957
  28 C :    0.102513
  29 C :    0.000996
  30 C :    0.153664
  31 O :   -0.187553
  32 C :   -0.040441
  33 C :   -0.070160
  34 C :    0.175866
  35 O :   -0.247825
  36 N :   -0.260298
  37 C :    0.105367
  38 C :    0.000331
  39 C :    0.106702
  40 C :   -0.010348
  41 C :   -0.003122
  42 C :    0.108939
  43 C :   -0.056212
  44 C :    0.143811
  45 N :    0.240575
  46 O :   -0.230441
  47 O :   -0.225963
  48 C :    0.055822
  49 C :   -0.030657
  50 C :    0.006964
  51 C :    0.007979
  52 C :   -0.025758
  53 C :    0.147383
  54 O :   -0.183167
  55 C :    0.139434
  56 C :   -0.007074
  57 C :   -0.057428
  58 C :    0.195337
  59 O :   -0.216895
  60 O :   -0.301019
  61 C :    0.190015
  62 H :    0.032337
  63 H :   -0.000461
  64 H :    0.033954
  65 H :    0.034480
  66 H :    0.034189
  67 H :    0.039263
  68 H :    0.035306
  69 H :    0.029647
  70 H :    0.023075
  71 H :    0.040098
  72 H :    0.065575
  73 H :    0.017418
  74 H :   -0.028253
  75 H :    0.022200
  76 H :    0.044936
  77 H :    0.014012
  78 H :    0.023443
  79 H :    0.031654
  80 H :    0.038949
  81 H :    0.022224
  82 H :    0.037813
  83 H :    0.018396
  84 H :    0.019826
  85 H :    0.008205
  86 H :   -0.031314
  87 H :    0.010909
  88 H :   -0.012718
  89 H :   -0.017211
  90 H :    0.035304
  91 H :   -0.007528
  92 H :    0.011494
  93 H :   -0.003743
  94 H :    0.031962
  95 H :    0.031392
  96 H :    0.037255
Sum of atomic charges:   -0.0000000

LOEWDIN ATOMIC CHARGES
----------------------
   0 C :    0.093169
   1 O :    0.027362
   2 C :    0.001692
   3 C :   -0.035007
   4 C :   -0.112123
   5 C :    0.084015
   6 O :   -0.176872
   7 O :   -0.093096
   8 C :    0.082179
   9 C :   -0.159508
  10 S :    0.470470
  11 C :   -0.163552
  12 C :   -0.052395
  13 C :   -0.071353
  14 C :    0.014308
  15 N :    0.272224
  16 O :   -0.198688
  17 O :   -0.195636
  18 C :   -0.017254
  19 C :   -0.017351
  20 C :    0.016907
  21 N :    0.272811
  22 O :   -0.191818
  23 O :   -0.186563
  24 C :    0.018066
  25 C :   -0.057119
  26 C :    0.088328
  27 N :   -0.004390
  28 C :    0.036811
  29 C :   -0.061284
  30 C :    0.082032
  31 O :   -0.190446
  32 C :   -0.109318
  33 C :   -0.134178
  34 C :    0.081733
  35 O :   -0.224303
  36 N :    0.002330
  37 C :    0.035071
  38 C :   -0.063475
  39 C :    0.062873
  40 C :   -0.022791
  41 C :   -0.011365
  42 C :   -0.027516
  43 C :    0.016097
  44 C :   -0.021399
  45 N :    0.284649
  46 O :   -0.199126
  47 O :   -0.188335
  48 C :   -0.001817
  49 C :   -0.008921
  50 C :    0.003762
  51 C :    0.007773
  52 C :   -0.041870
  53 C :    0.060541
  54 O :    0.027036
  55 C :    0.032344
  56 C :   -0.049587
  57 C :   -0.112645
  58 C :    0.096466
  59 O :   -0.175407
  60 O :   -0.089623
  61 C :    0.080397
  62 H :    0.036809
  63 H :    0.034364
  64 H :    0.025798
  65 H :    0.024578
  66 H :    0.024202
  67 H :    0.043161
  68 H :    0.038933
  69 H :    0.034512
  70 H :    0.033302
  71 H :    0.040952
  72 H :    0.053381
  73 H :    0.035957
  74 H :    0.023417
  75 H :    0.023020
  76 H :    0.038369
  77 H :    0.021165
  78 H :    0.030498
  79 H :    0.032979
  80 H :    0.036317
  81 H :    0.020748
  82 H :    0.036470
  83 H :    0.028944
  84 H :    0.021265
  85 H :    0.045440
  86 H :    0.027515
  87 H :    0.041852
  88 H :    0.033863
  89 H :    0.031185
  90 H :    0.031005
  91 H :    0.033143
  92 H :    0.023760
  93 H :    0.034441
  94 H :    0.024820
  95 H :    0.022842
  96 H :    0.025681

  Mayer bond orders larger than 0.100000
B(  0-C ,  1-O ) :   1.1664 B(  0-C ,  4-C ) :   1.5139 B(  0-C , 62-H ) :   1.0047
B(  1-O ,  2-C ) :   1.1268 B(  2-C ,  3-C ) :   1.5188 B(  2-C ,  9-C ) :   1.0738
B(  3-C ,  4-C ) :   1.2101 B(  3-C , 63-H ) :   1.0108 B(  4-C ,  5-C ) :   0.9287
B(  5-C ,  6-O ) :   2.1512 B(  5-C ,  7-O ) :   1.2502 B(  7-O ,  8-C ) :   0.9221
B(  8-C , 64-H ) :   0.9813 B(  8-C , 65-H ) :   0.9768 B(  8-C , 66-H ) :   0.9761
B(  9-C , 10-S ) :   1.1655 B(  9-C , 11-C ) :   0.1091 B(  9-C , 13-C ) :   1.5269
B( 10-S , 11-C ) :   1.0949 B( 11-C , 12-C ) :   1.5036 B( 11-C , 24-C ) :   1.1592
B( 12-C , 13-C ) :   1.3321 B( 12-C , 20-C ) :   0.9671 B( 13-C , 14-C ) :   0.9526
B( 14-C , 15-N ) :   0.8356 B( 14-C , 18-C ) :   1.0706 B( 14-C , 67-H ) :   0.8924
B( 15-N , 16-O ) :   1.5560 B( 15-N , 17-O ) :   1.5905 B( 16-O , 17-O ) :   0.2683
B( 18-C , 19-C ) :   1.1007 B( 18-C , 68-H ) :   0.9288 B( 18-C , 69-H ) :   0.9245
B( 19-C , 20-C ) :   1.0757 B( 19-C , 70-H ) :   0.9216 B( 19-C , 71-H ) :   0.9247
B( 20-C , 21-N ) :   0.8336 B( 20-C , 72-H ) :   0.8818 B( 21-N , 22-O ) :   1.5964
B( 21-N , 23-O ) :   1.5635 B( 22-O , 23-O ) :   0.2701 B( 24-C , 25-C ) :   1.5821
B( 24-C , 73-H ) :   0.9279 B( 25-C , 26-C ) :   1.1666 B( 25-C , 74-H ) :   0.9756
B( 26-C , 27-N ) :   1.1701 B( 26-C , 33-C ) :   1.3167 B( 27-N , 28-C ) :   0.9458
B( 27-N , 30-C ) :   1.0273 B( 28-C , 29-C ) :   1.1208 B( 28-C , 75-H ) :   0.9503
B( 28-C , 76-H ) :   0.9289 B( 29-C , 77-H ) :   0.9687 B( 29-C , 78-H ) :   0.9681
B( 29-C , 79-H ) :   0.9640 B( 30-C , 31-O ) :   2.1343 B( 30-C , 32-C ) :   0.9728
B( 32-C , 33-C ) :   1.2391 B( 32-C , 39-C ) :   1.3620 B( 33-C , 34-C ) :   1.0124
B( 34-C , 35-O ) :   1.9393 B( 34-C , 36-N ) :   1.0857 B( 35-O , 73-H ) :   0.1395
B( 36-N , 37-C ) :   0.9457 B( 36-N , 39-C ) :   1.1516 B( 37-C , 38-C ) :   1.1175
B( 37-C , 80-H ) :   0.9239 B( 37-C , 81-H ) :   0.9504 B( 38-C , 82-H ) :   0.9601
B( 38-C , 83-H ) :   0.9688 B( 38-C , 84-H ) :   0.9675 B( 39-C , 40-C ) :   1.1696
B( 40-C , 41-C ) :   1.6048 B( 40-C , 85-H ) :   0.9425 B( 41-C , 42-C ) :   1.0738
B( 41-C , 86-H ) :   0.9882 B( 42-C , 43-C ) :   1.2990 B( 42-C , 50-C ) :   1.3085
B( 43-C , 44-C ) :   1.3977 B( 43-C , 87-H ) :   0.9858 B( 44-C , 45-N ) :   0.8734
B( 44-C , 48-C ) :   1.3395 B( 45-N , 46-O ) :   1.5500 B( 45-N , 47-O ) :   1.5311
B( 46-O , 47-O ) :   0.2677 B( 48-C , 49-C ) :   1.3494 B( 48-C , 51-C ) :   1.0569
B( 49-C , 50-C ) :   1.3961 B( 49-C , 88-H ) :   0.9883 B( 50-C , 89-H ) :   0.9972
B( 51-C , 52-C ) :   1.7446 B( 51-C , 90-H ) :   0.9161 B( 52-C , 53-C ) :   1.1378
B( 52-C , 91-H ) :   0.9528 B( 53-C , 54-O ) :   1.1773 B( 53-C , 57-C ) :   1.4597
B( 54-O , 55-C ) :   1.1265 B( 55-C , 56-C ) :   1.5531 B( 55-C , 92-H ) :   1.0030
B( 56-C , 57-C ) :   1.2260 B( 56-C , 93-H ) :   1.0065 B( 57-C , 58-C ) :   0.9564
B( 58-C , 59-O ) :   2.0282 B( 58-C , 60-O ) :   1.2481 B( 60-O , 61-C ) :   0.9255
B( 61-C , 94-H ) :   0.9806 B( 61-C , 95-H ) :   0.9762 B( 61-C , 96-H ) :   0.9763

-----------------------------------------------------------------------------
         ABSORPTION SPECTRUM VIA TRANSITION ELECTRIC DIPOLE MOMENTS
-----------------------------------------------------------------------------
State   Energy  Wavelength   fosc         T2         TX        TY        TZ
        (cm-1)    (nm)                  (au**2)     (au)      (au)      (au)
-----------------------------------------------------------------------------
   0   15934.3    627.6   1.178661462  24.35182  -0.63834   4.76694  -1.10482
   1   24407.8    409.7   0.298750515   4.02955  -0.10708   1.91472  -0.59323
   2   25705.2    389.0   0.041225669   0.52799  -0.41356  -0.25124   0.54206
   3   26568.7    376.4   0.424529996   5.26034   0.34178   1.96375  -1.13456
   4   27222.0    367.4   0.239534269   2.89684  -0.21357  -1.57704   0.60347
   5   27776.0    360.0   0.002277590   0.02699  -0.06878  -0.06277   0.13536
   6   28889.3    346.1   0.002530004   0.02883  -0.16811   0.01111  -0.02116
   7   29728.8    336.4   0.005380610   0.05958   0.06149   0.23191  -0.04493
   8   30780.7    324.9   0.064844025   0.69353  -0.20594  -0.70512   0.39234
   9   31078.0    321.8   0.016225208   0.17188  -0.20437   0.35280   0.07512
  10   32659.5    306.2   0.439324061   4.42844  -0.65896  -1.63239   1.15305
  11   33368.3    299.7   0.001733136   0.01710   0.05670   0.08127  -0.08532
  12   35156.2    284.4   0.185273785   1.73495  -0.17568  -1.20622   0.49913
  13   35955.7    278.1   0.017454262   0.15981   0.05582  -0.39358  -0.04229
  14   36877.0    271.2   0.048817625   0.43581   0.45076   0.34810  -0.33385
  15   37199.3    268.8   0.202547577   1.79254  -0.34971   1.27094  -0.23439
  16   37485.1    266.8   0.014722901   0.12930  -0.29041   0.21192  -0.00733
  17   38184.9    261.9   0.060135801   0.51846  -0.60570  -0.17352   0.34855
  18   38746.5    258.1   0.009699555   0.08241  -0.07615  -0.22168   0.16574
  19   38927.3    256.9   0.047762626   0.40393  -0.51612   0.35136   0.11875
  20   39360.9    254.1   0.024079118   0.20140   0.23574  -0.37719   0.05961
  21   39698.4    251.9   0.056975378   0.47249  -0.50888  -0.21542   0.40881

FINAL SINGLE POINT ENERGY     -3342.691634864155

DIPOLE MOMENT
-------------
                                X             Y             Z
Electronic contribution:      4.29615      13.91391      -2.31821
Nuclear contribution   :     -3.61865     -14.51540       2.04352
                        -----------------------------------------
Total Dipole Moment    :      0.67750      -0.60149      -0.27468
                        -----------------------------------------
Magnitude (a.u.)       :      0.94670
Magnitude (Debye)      :      2.40633

Rotational constants in cm-1:     0.003448     0.000298     0.000280
Rotational constants in MHz :   103.366403     8.935407     8.396151

                             ****ORCA TERMINATED NORMALLY****
TOTAL RUN TIME: 0 days 0 hours 10 minutes 35 seconds 177 msec
