                         Program Version 4.2.0 -  RELEASE  -
|  1> # ORCA input file
|  2> # SCF done       -182.292598029655          0.000687605293
|  3> ! CAM-B3LYP def2-SVP def2/J RIJCOSX Grid4 TightSCF
|  4> %maxcore 5000
|  5> %tddft
|  6>     Mode sTDDFT
|  7>     Ethresh 5.0
|  8>     maxcore 5000
|  9> end
| 10>
| 11> %pal
| 12>   nprocs 6
| 13>   end
| 14> * xyz 0 1
| 15>    C       -3.96877         1.08906        -9.38089
| 16>    O       -5.04759         0.52316        -8.86229
| 17>    C       -4.64456        -0.48174        -8.04885
| 18>    C       -3.26803        -0.55278        -8.05127
| 19>    C       -2.82679         0.46817        -8.92704
| 20>    C       -1.43144         0.78020        -9.26638
| 21>    O       -0.47075         0.19442        -8.83641
| 22>    O       -1.35815         1.81185       -10.12089
| 23>    C       -0.04941         2.19221       -10.52202
| 24>    C       -5.62207        -1.30299        -7.39561
| 25>    C       -6.83239        -1.73349        -7.89455
| 26>    N       -7.38388        -1.52727        -9.17790
| 27>    O       -8.56172        -1.80533        -9.32191
| 28>    O       -6.66117        -1.12597       -10.07075
| 29>    C       -7.47468        -2.58745        -6.92077
| 30>    C       -6.64473        -2.73730        -5.86420
| 31>    C       -5.47079        -1.92624        -6.07355
| 32>    C       -4.49670        -1.65644        -5.13600
| 33>    C       -3.73697        -0.45208        -5.00300
| 34>    C       -3.10972        -0.46778        -3.79735
| 35>    C       -3.38413        -1.70789        -3.12802
| 36>    N       -2.80275        -1.96770        -1.87668
| 37>    O       -3.22311        -2.89246        -1.19436
| 38>    O       -1.90346        -1.22703        -1.51786
| 39>    C       -4.20839        -2.49158        -3.94459
| 40>    C       -4.55815        -3.85469        -3.94834
| 41>    C       -4.50784        -4.75477        -2.91563
| 42>    C       -4.88592        -6.09731        -3.09516
| 43>    N       -4.89750        -7.02678        -2.08298
| 44>    C       -4.55477        -6.78868        -0.69903
| 45>    C       -5.69321        -6.11349         0.06003
| 46>    C       -5.33566        -8.28296        -2.52009
| 47>    O       -5.43248        -9.25698        -1.80190
| 48>    C       -5.60226        -8.09855        -3.93525
| 49>    C       -5.31823        -6.75676        -4.25921
| 50>    C       -5.58206        -6.57489        -5.67115
| 51>    O       -5.49018        -5.60902        -6.40294
| 52>    N       -6.02281        -7.83654        -6.10876
| 53>    C       -6.34160        -8.06846        -7.49718
| 54>    C       -5.19298        -8.75048        -8.23632
| 55>    C       -6.03399        -8.75920        -5.09229
| 56>    C       -6.43676       -10.10711        -5.25849
| 57>    C       -6.43956       -10.99669        -4.23422
| 58>    C       -6.84389       -12.37256        -4.31124
| 59>    C       -6.87381       -13.12847        -3.13530
| 60>    C       -7.28364       -14.44896        -3.13841
| 61>    N       -7.33437       -15.10273        -1.85197
| 62>    O       -6.55420       -14.71803        -1.00866
| 63>    O       -8.15703       -15.97754        -1.68279
| 64>    C       -7.65835       -15.10871        -4.32866
| 65>    C       -7.59785       -14.34009        -5.50412
| 66>    C       -7.21914       -13.02136        -5.50060
| 67>    C       -8.01134       -16.50388        -4.36926
| 68>    C       -8.68175       -17.09910        -5.37842
| 69>    C       -8.99597       -18.49082        -5.38478
| 70>    O       -8.62584       -19.27240        -4.35139
| 71>    C       -9.04877       -20.51890        -4.59982
| 72>    C       -9.69744       -20.58421        -5.79376
| 73>    C       -9.67208       -19.26754        -6.32354
| 74>    C      -10.26133       -18.90944        -7.61687
| 75>    O      -10.86451       -19.68281        -8.31758
| 76>    O      -10.05454       -17.62229        -7.95686
| 77>    C      -10.60332       -17.22809        -9.20702
| 78>    H       -4.10220         1.91672       -10.04887
| 79>    H       -2.64947        -1.25227        -7.52898
| 80>    H       -0.17376         3.02395       -11.21030
| 81>    H        0.45422         1.35789       -11.01432
| 82>    H        0.54066         2.49550        -9.65475
| 83>    H       -8.44764        -3.01577        -7.06659
| 84>    H       -6.86183        -3.27328        -4.96218
| 85>    H       -3.76278         0.36972        -5.68967
| 86>    H       -2.50311         0.30698        -3.36716
| 87>    H       -4.90239        -4.22127        -4.90630
| 88>    H       -4.19609        -4.43729        -1.93318
| 89>    H       -3.64766        -6.18213        -0.64845
| 90>    H       -4.35321        -7.77100        -0.26345
| 91>    H       -5.91756        -5.13730        -0.36271
| 92>    H       -5.40726        -5.98213         1.09934
| 93>    H       -6.58882        -6.72910         0.01999
| 94>    H       -6.52300        -7.08272        -7.93445
| 95>    H       -7.25971        -8.65803        -7.56814
| 96>    H       -4.30693        -8.12154        -8.20427
| 97>    H       -5.46729        -8.90884        -9.27545
| 98>    H       -4.95113        -9.71064        -7.78547
| 99>    H       -6.75707       -10.40323        -6.24637
|100>    H       -6.11952       -10.65887        -3.25694
|101>    H       -6.58968       -12.67510        -2.19629
|102>    H       -7.84052       -14.81430        -6.44160
|103>    H       -7.19591       -12.48459        -6.43597
|104>    H       -7.74233       -17.11408        -3.51893
|105>    H       -9.04901       -16.55137        -6.23123
|106>    H       -8.83194       -21.26545        -3.86149
|107>    H      -10.14274       -21.43758        -6.26035
|108>    H      -10.33141       -16.18458        -9.34385
|109>    H      -11.68885       -17.34368        -9.19811
|110>    H      -10.19272       -17.84125       -10.01168
|111> *
|112>
|113>                          ****END OF INPUT****

CARTESIAN COORDINATES (ANGSTROEM)
---------------------------------
  C     -3.968770    1.089060   -9.380890
  O     -5.047590    0.523160   -8.862290
  C     -4.644560   -0.481740   -8.048850
  C     -3.268030   -0.552780   -8.051270
  C     -2.826790    0.468170   -8.927040
  C     -1.431440    0.780200   -9.266380
  O     -0.470750    0.194420   -8.836410
  O     -1.358150    1.811850  -10.120890
  C     -0.049410    2.192210  -10.522020
  C     -5.622070   -1.302990   -7.395610
  C     -6.832390   -1.733490   -7.894550
  N     -7.383880   -1.527270   -9.177900
  O     -8.561720   -1.805330   -9.321910
  O     -6.661170   -1.125970  -10.070750
  C     -7.474680   -2.587450   -6.920770
  C     -6.644730   -2.737300   -5.864200
  C     -5.470790   -1.926240   -6.073550
  C     -4.496700   -1.656440   -5.136000
  C     -3.736970   -0.452080   -5.003000
  C     -3.109720   -0.467780   -3.797350
  C     -3.384130   -1.707890   -3.128020
  N     -2.802750   -1.967700   -1.876680
  O     -3.223110   -2.892460   -1.194360
  O     -1.903460   -1.227030   -1.517860
  C     -4.208390   -2.491580   -3.944590
  C     -4.558150   -3.854690   -3.948340
  C     -4.507840   -4.754770   -2.915630
  C     -4.885920   -6.097310   -3.095160
  N     -4.897500   -7.026780   -2.082980
  C     -4.554770   -6.788680   -0.699030
  C     -5.693210   -6.113490    0.060030
  C     -5.335660   -8.282960   -2.520090
  O     -5.432480   -9.256980   -1.801900
  C     -5.602260   -8.098550   -3.935250
  C     -5.318230   -6.756760   -4.259210
  C     -5.582060   -6.574890   -5.671150
  O     -5.490180   -5.609020   -6.402940
  N     -6.022810   -7.836540   -6.108760
  C     -6.341600   -8.068460   -7.497180
  C     -5.192980   -8.750480   -8.236320
  C     -6.033990   -8.759200   -5.092290
  C     -6.436760  -10.107110   -5.258490
  C     -6.439560  -10.996690   -4.234220
  C     -6.843890  -12.372560   -4.311240
  C     -6.873810  -13.128470   -3.135300
  C     -7.283640  -14.448960   -3.138410
  N     -7.334370  -15.102730   -1.851970
  O     -6.554200  -14.718030   -1.008660
  O     -8.157030  -15.977540   -1.682790
  C     -7.658350  -15.108710   -4.328660
  C     -7.597850  -14.340090   -5.504120
  C     -7.219140  -13.021360   -5.500600
  C     -8.011340  -16.503880   -4.369260
  C     -8.681750  -17.099100   -5.378420
  C     -8.995970  -18.490820   -5.384780
  O     -8.625840  -19.272400   -4.351390
  C     -9.048770  -20.518900   -4.599820
  C     -9.697440  -20.584210   -5.793760
  C     -9.672080  -19.267540   -6.323540
  C    -10.261330  -18.909440   -7.616870
  O    -10.864510  -19.682810   -8.317580
  O    -10.054540  -17.622290   -7.956860
  C    -10.603320  -17.228090   -9.207020
  H     -4.102200    1.916720  -10.048870
  H     -2.649470   -1.252270   -7.528980
  H     -0.173760    3.023950  -11.210300
  H      0.454220    1.357890  -11.014320
  H      0.540660    2.495500   -9.654750
  H     -8.447640   -3.015770   -7.066590
  H     -6.861830   -3.273280   -4.962180
  H     -3.762780    0.369720   -5.689670
  H     -2.503110    0.306980   -3.367160
  H     -4.902390   -4.221270   -4.906300
  H     -4.196090   -4.437290   -1.933180
  H     -3.647660   -6.182130   -0.648450
  H     -4.353210   -7.771000   -0.263450
  H     -5.917560   -5.137300   -0.362710
  H     -5.407260   -5.982130    1.099340
  H     -6.588820   -6.729100    0.019990
  H     -6.523000   -7.082720   -7.934450
  H     -7.259710   -8.658030   -7.568140
  H     -4.306930   -8.121540   -8.204270
  H     -5.467290   -8.908840   -9.275450
  H     -4.951130   -9.710640   -7.785470
  H     -6.757070  -10.403230   -6.246370
  H     -6.119520  -10.658870   -3.256940
  H     -6.589680  -12.675100   -2.196290
  H     -7.840520  -14.814300   -6.441600
  H     -7.195910  -12.484590   -6.435970
  H     -7.742330  -17.114080   -3.518930
  H     -9.049010  -16.551370   -6.231230
  H     -8.831940  -21.265450   -3.861490
  H    -10.142740  -21.437580   -6.260350
  H    -10.331410  -16.184580   -9.343850
  H    -11.688850  -17.343680   -9.198110
  H    -10.192720  -17.841250  -10.011680

 Total Charge           Charge          ....    0
 Multiplicity           Mult            ....    1
 Number of Electrons    NEL             ....  444
 Basis Dimension        Dim             .... 1047

ORBITAL ENERGIES
----------------

  NO   OCC          E(Eh)            E(eV)
   0   2.0000     -19.304379      -525.2989
   1   2.0000     -19.302069      -525.2360
   2   2.0000     -19.266456      -524.2669
   3   2.0000     -19.259119      -524.0673
   4   2.0000     -19.246202      -523.7158
   5   2.0000     -19.244811      -523.6779
   6   2.0000     -19.237624      -523.4824
   7   2.0000     -19.235429      -523.4226
   8   2.0000     -19.231410      -523.3133
   9   2.0000     -19.230588      -523.2909
  10   2.0000     -19.208586      -522.6922
  11   2.0000     -19.205432      -522.6064
  12   2.0000     -19.201887      -522.5099
  13   2.0000     -19.196646      -522.3673
  14   2.0000     -14.650972      -398.6732
  15   2.0000     -14.645599      -398.5270
  16   2.0000     -14.640140      -398.3785
  17   2.0000     -14.467297      -393.6752
  18   2.0000     -14.459485      -393.4626
  19   2.0000     -10.405514      -283.1484
  20   2.0000     -10.401372      -283.0357
  21   2.0000     -10.388792      -282.6934
  22   2.0000     -10.380520      -282.4683
  23   2.0000     -10.353462      -281.7320
  24   2.0000     -10.346753      -281.5495
  25   2.0000     -10.344590      -281.4906
  26   2.0000     -10.344213      -281.4803
  27   2.0000     -10.343912      -281.4722
  28   2.0000     -10.336934      -281.2823
  29   2.0000     -10.332007      -281.1482
  30   2.0000     -10.328771      -281.0602
  31   2.0000     -10.328587      -281.0551
  32   2.0000     -10.326226      -280.9909
  33   2.0000     -10.326007      -280.9849
  34   2.0000     -10.325508      -280.9714
  35   2.0000     -10.321938      -280.8742
  36   2.0000     -10.320937      -280.8470
  37   2.0000     -10.320382      -280.8319
  38   2.0000     -10.320207      -280.8271
  39   2.0000     -10.317970      -280.7662
  40   2.0000     -10.308334      -280.5040
  41   2.0000     -10.306232      -280.4468
  42   2.0000     -10.304844      -280.4091
  43   2.0000     -10.304569      -280.4016
  44   2.0000     -10.303796      -280.3805
  45   2.0000     -10.301357      -280.3142
  46   2.0000     -10.299959      -280.2761
  47   2.0000     -10.297681      -280.2141
  48   2.0000     -10.297033      -280.1965
  49   2.0000     -10.295067      -280.1430
  50   2.0000     -10.293728      -280.1066
  51   2.0000     -10.289293      -279.9859
  52   2.0000     -10.289131      -279.9815
  53   2.0000     -10.287897      -279.9479
  54   2.0000     -10.286942      -279.9219
  55   2.0000     -10.285305      -279.8774
  56   2.0000     -10.282961      -279.8136
  57   2.0000     -10.280562      -279.7483
  58   2.0000     -10.277323      -279.6602
  59   2.0000     -10.277130      -279.6549
  60   2.0000     -10.274477      -279.5827
  61   2.0000     -10.271933      -279.5135
  62   2.0000     -10.262153      -279.2474
  63   2.0000      -1.327211       -36.1152
  64   2.0000      -1.315299       -35.7911
  65   2.0000      -1.311195       -35.6794
  66   2.0000      -1.228175       -33.4203
  67   2.0000      -1.223130       -33.2831
  68   2.0000      -1.195036       -32.5186
  69   2.0000      -1.189774       -32.3754
  70   2.0000      -1.147451       -31.2237
  71   2.0000      -1.145724       -31.1767
  72   2.0000      -1.136183       -30.9171
  73   2.0000      -1.131554       -30.7912
  74   2.0000      -1.128080       -30.6966
  75   2.0000      -1.099571       -29.9208
  76   2.0000      -1.095549       -29.8114
  77   2.0000      -1.076390       -29.2901
  78   2.0000      -1.064808       -28.9749
  79   2.0000      -1.014087       -27.5947
  80   2.0000      -0.996986       -27.1294
  81   2.0000      -0.993000       -27.0209
  82   2.0000      -0.940391       -25.5893
  83   2.0000      -0.934578       -25.4311
  84   2.0000      -0.919564       -25.0226
  85   2.0000      -0.916532       -24.9401
  86   2.0000      -0.914661       -24.8892
  87   2.0000      -0.909351       -24.7447
  88   2.0000      -0.906786       -24.6749
  89   2.0000      -0.897981       -24.4353
  90   2.0000      -0.886695       -24.1282
  91   2.0000      -0.880697       -23.9650
  92   2.0000      -0.875517       -23.8240
  93   2.0000      -0.873197       -23.7609
  94   2.0000      -0.846349       -23.0303
  95   2.0000      -0.836104       -22.7516
  96   2.0000      -0.827903       -22.5284
  97   2.0000      -0.825514       -22.4634
  98   2.0000      -0.820325       -22.3222
  99   2.0000      -0.814402       -22.1610
 100   2.0000      -0.800261       -21.7762
 101   2.0000      -0.787184       -21.4204
 102   2.0000      -0.784160       -21.3381
 103   2.0000      -0.767647       -20.8887
 104   2.0000      -0.764288       -20.7973
 105   2.0000      -0.741010       -20.1639
 106   2.0000      -0.726896       -19.7798
 107   2.0000      -0.724196       -19.7064
 108   2.0000      -0.722900       -19.6711
 109   2.0000      -0.722423       -19.6581
 110   2.0000      -0.716260       -19.4904
 111   2.0000      -0.705449       -19.1963
 112   2.0000      -0.700019       -19.0485
 113   2.0000      -0.688821       -18.7438
 114   2.0000      -0.684620       -18.6295
 115   2.0000      -0.673732       -18.3332
 116   2.0000      -0.669875       -18.2282
 117   2.0000      -0.668115       -18.1803
 118   2.0000      -0.659714       -17.9517
 119   2.0000      -0.653144       -17.7729
 120   2.0000      -0.650948       -17.7132
 121   2.0000      -0.646828       -17.6011
 122   2.0000      -0.640473       -17.4282
 123   2.0000      -0.639023       -17.3887
 124   2.0000      -0.631063       -17.1721
 125   2.0000      -0.626272       -17.0417
 126   2.0000      -0.624405       -16.9909
 127   2.0000      -0.620794       -16.8927
 128   2.0000      -0.617829       -16.8120
 129   2.0000      -0.616032       -16.7631
 130   2.0000      -0.613678       -16.6990
 131   2.0000      -0.603578       -16.4242
 132   2.0000      -0.597469       -16.2579
 133   2.0000      -0.596892       -16.2423
 134   2.0000      -0.593073       -16.1383
 135   2.0000      -0.591143       -16.0858
 136   2.0000      -0.586072       -15.9478
 137   2.0000      -0.581507       -15.8236
 138   2.0000      -0.578508       -15.7420
 139   2.0000      -0.577822       -15.7233
 140   2.0000      -0.577378       -15.7113
 141   2.0000      -0.573900       -15.6166
 142   2.0000      -0.571798       -15.5594
 143   2.0000      -0.569897       -15.5077
 144   2.0000      -0.566416       -15.4130
 145   2.0000      -0.561823       -15.2880
 146   2.0000      -0.560458       -15.2508
 147   2.0000      -0.557605       -15.1732
 148   2.0000      -0.555793       -15.1239
 149   2.0000      -0.549136       -14.9428
 150   2.0000      -0.545142       -14.8341
 151   2.0000      -0.543693       -14.7946
 152   2.0000      -0.540753       -14.7146
 153   2.0000      -0.539109       -14.6699
 154   2.0000      -0.536005       -14.5854
 155   2.0000      -0.534350       -14.5404
 156   2.0000      -0.532247       -14.4832
 157   2.0000      -0.528812       -14.3897
 158   2.0000      -0.521438       -14.1891
 159   2.0000      -0.516404       -14.0521
 160   2.0000      -0.515299       -14.0220
 161   2.0000      -0.509692       -13.8694
 162   2.0000      -0.503081       -13.6895
 163   2.0000      -0.501393       -13.6436
 164   2.0000      -0.498491       -13.5646
 165   2.0000      -0.496641       -13.5143
 166   2.0000      -0.494946       -13.4682
 167   2.0000      -0.492612       -13.4047
 168   2.0000      -0.492092       -13.3905
 169   2.0000      -0.487360       -13.2617
 170   2.0000      -0.486949       -13.2506
 171   2.0000      -0.484924       -13.1954
 172   2.0000      -0.483657       -13.1610
 173   2.0000      -0.482761       -13.1366
 174   2.0000      -0.479279       -13.0418
 175   2.0000      -0.477989       -13.0067
 176   2.0000      -0.472907       -12.8684
 177   2.0000      -0.470564       -12.8047
 178   2.0000      -0.467480       -12.7208
 179   2.0000      -0.464480       -12.6391
 180   2.0000      -0.462043       -12.5728
 181   2.0000      -0.460584       -12.5331
 182   2.0000      -0.458976       -12.4894
 183   2.0000      -0.457074       -12.4376
 184   2.0000      -0.452649       -12.3172
 185   2.0000      -0.449638       -12.2353
 186   2.0000      -0.446489       -12.1496
 187   2.0000      -0.444830       -12.1044
 188   2.0000      -0.439580       -11.9616
 189   2.0000      -0.436399       -11.8750
 190   2.0000      -0.433839       -11.8054
 191   2.0000      -0.433214       -11.7883
 192   2.0000      -0.425208       -11.5705
 193   2.0000      -0.420074       -11.4308
 194   2.0000      -0.388995       -10.5851
 195   2.0000      -0.386279       -10.5112
 196   2.0000      -0.385238       -10.4829
 197   2.0000      -0.383589       -10.4380
 198   2.0000      -0.382647       -10.4124
 199   2.0000      -0.380114       -10.3434
 200   2.0000      -0.379562       -10.3284
 201   2.0000      -0.378470       -10.2987
 202   2.0000      -0.375121       -10.2076
 203   2.0000      -0.373698       -10.1688
 204   2.0000      -0.370667       -10.0864
 205   2.0000      -0.366041        -9.9605
 206   2.0000      -0.363668        -9.8959
 207   2.0000      -0.363349        -9.8872
 208   2.0000      -0.360090        -9.7986
 209   2.0000      -0.359828        -9.7914
 210   2.0000      -0.356492        -9.7007
 211   2.0000      -0.354722        -9.6525
 212   2.0000      -0.350637        -9.5413
 213   2.0000      -0.342514        -9.3203
 214   2.0000      -0.341254        -9.2860
 215   2.0000      -0.334455        -9.1010
 216   2.0000      -0.329924        -8.9777
 217   2.0000      -0.325938        -8.8692
 218   2.0000      -0.303050        -8.2464
 219   2.0000      -0.281564        -7.6618
 220   2.0000      -0.275983        -7.5099
 221   2.0000      -0.239500        -6.5171
 222   0.0000      -0.134964        -3.6725
 223   0.0000      -0.090239        -2.4555
 224   0.0000      -0.062695        -1.7060
 225   0.0000      -0.042037        -1.1439
 226   0.0000      -0.030456        -0.8287

MULLIKEN ATOMIC CHARGES
-----------------------
   0 C :    0.136554
   1 O :   -0.144893
   2 C :    0.039892
   3 C :   -0.056581
   4 C :   -0.019373
   5 C :    0.176353
   6 O :   -0.196666
   7 O :   -0.306010
   8 C :    0.190407
   9 C :    0.093249
  10 C :    0.080206
  11 N :    0.262229
  12 O :   -0.252400
  13 O :   -0.240417
  14 C :    0.011442
  15 C :    0.026831
  16 C :    0.061908
  17 C :   -0.008377
  18 C :    0.005103
  19 C :    0.022651
  20 C :    0.067645
  21 N :    0.279742
  22 O :   -0.262710
  23 O :   -0.247277
  24 C :    0.086722
  25 C :   -0.095232
  26 C :   -0.007153
  27 C :    0.129731
  28 N :   -0.249600
  29 C :    0.096470
  30 C :    0.006609
  31 C :    0.166278
  32 O :   -0.209587
  33 C :   -0.075646
  34 C :   -0.056764
  35 C :    0.162929
  36 O :   -0.198711
  37 N :   -0.252109
  38 C :    0.097889
  39 C :    0.003382
  40 C :    0.140324
  41 C :   -0.002322
  42 C :    0.010869
  43 C :    0.101997
  44 C :   -0.059598
  45 C :    0.142893
  46 N :    0.241082
  47 O :   -0.227444
  48 O :   -0.230499
  49 C :    0.083222
  50 C :   -0.033473
  51 C :    0.022828
  52 C :   -0.000044
  53 C :   -0.022701
  54 C :    0.121023
  55 O :   -0.176787
  56 C :    0.149337
  57 C :   -0.013392
  58 C :   -0.021944
  59 C :    0.169285
  60 O :   -0.198690
  61 O :   -0.315661
  62 C :    0.193367
  63 H :    0.025282
  64 H :    0.009945
  65 H :    0.034796
  66 H :    0.034407
  67 H :    0.032878
  68 H :   -0.001975
  69 H :   -0.004408
  70 H :    0.008833
  71 H :    0.005581
  72 H :    0.034708
  73 H :    0.003570
  74 H :    0.038851
  75 H :    0.042626
  76 H :    0.019723
  77 H :    0.028647
  78 H :    0.025271
  79 H :    0.047227
  80 H :    0.024504
  81 H :    0.033779
  82 H :    0.027147
  83 H :    0.014807
  84 H :   -0.032890
  85 H :    0.014066
  86 H :    0.020910
  87 H :   -0.015132
  88 H :   -0.020443
  89 H :    0.016406
  90 H :    0.009958
  91 H :    0.019243
  92 H :    0.003817
  93 H :    0.027316
  94 H :    0.036594
  95 H :    0.035567
Sum of atomic charges:   -0.0000000

LOEWDIN ATOMIC CHARGES
----------------------
   0 C :    0.087727
   1 O :    0.054401
   2 C :    0.013318
   3 C :   -0.012960
   4 C :   -0.121995
   5 C :    0.084365
   6 O :   -0.174509
   7 O :   -0.097823
   8 C :    0.081700
   9 C :   -0.010514
  10 C :   -0.032965
  11 N :    0.281692
  12 O :   -0.216299
  13 O :   -0.207194
  14 C :    0.010563
  15 C :   -0.028918
  16 C :    0.046549
  17 C :    0.044807
  18 C :   -0.040020
  19 C :    0.016381
  20 C :   -0.048672
  21 N :    0.287346
  22 O :   -0.223006
  23 O :   -0.211237
  24 C :    0.007447
  25 C :    0.001586
  26 C :   -0.007493
  27 C :    0.063304
  28 N :    0.006580
  29 C :    0.038755
  30 C :   -0.058973
  31 C :    0.077607
  32 O :   -0.200247
  33 C :   -0.121641
  34 C :   -0.104615
  35 C :    0.081948
  36 O :   -0.185002
  37 N :    0.002855
  38 C :    0.036604
  39 C :   -0.060451
  40 C :    0.086200
  41 C :   -0.054552
  42 C :    0.047753
  43 C :   -0.035929
  44 C :    0.024000
  45 C :   -0.026110
  46 N :    0.283066
  47 O :   -0.195168
  48 O :   -0.192147
  49 C :    0.005603
  50 C :   -0.006441
  51 C :    0.012957
  52 C :   -0.012146
  53 C :   -0.020525
  54 C :    0.050303
  55 O :    0.034289
  56 C :    0.046490
  57 C :   -0.042103
  58 C :   -0.105977
  59 C :    0.088619
  60 O :   -0.172533
  61 O :   -0.099766
  62 C :    0.080959
  63 H :    0.033139
  64 H :    0.040837
  65 H :    0.025869
  66 H :    0.024282
  67 H :    0.023687
  68 H :    0.036275
  69 H :    0.030652
  70 H :    0.032515
  71 H :    0.038537
  72 H :    0.039468
  73 H :    0.029022
  74 H :    0.029958
  75 H :    0.037780
  76 H :    0.024066
  77 H :    0.033674
  78 H :    0.030068
  79 H :    0.039307
  80 H :    0.023284
  81 H :    0.034053
  82 H :    0.032158
  83 H :    0.021710
  84 H :    0.025505
  85 H :    0.039973
  86 H :    0.048199
  87 H :    0.034245
  88 H :    0.030572
  89 H :    0.031451
  90 H :    0.032553
  91 H :    0.027388
  92 H :    0.039400
  93 H :    0.022617
  94 H :    0.025194
  95 H :    0.024715

  Mayer bond orders larger than 0.100000
B(  0-C ,  1-O ) :   1.2091 B(  0-C ,  4-C ) :   1.4665 B(  0-C , 63-H ) :   1.0048
B(  1-O ,  2-C ) :   1.1604 B(  2-C ,  3-C ) :   1.5045 B(  2-C ,  9-C ) :   0.9817
B(  3-C ,  4-C ) :   1.2296 B(  3-C , 64-H ) :   1.0215 B(  4-C ,  5-C ) :   0.9250
B(  5-C ,  6-O ) :   2.1563 B(  5-C ,  7-O ) :   1.2443 B(  7-O ,  8-C ) :   0.9216
B(  8-C , 65-H ) :   0.9813 B(  8-C , 66-H ) :   0.9763 B(  8-C , 67-H ) :   0.9764
B(  9-C , 10-C ) :   1.5845 B(  9-C , 16-C ) :   1.0936 B( 10-C , 11-N ) :   0.9299
B( 10-C , 14-C ) :   1.1097 B( 11-N , 12-O ) :   1.5201 B( 11-N , 13-O ) :   1.5292
B( 12-O , 13-O ) :   0.2705 B( 14-C , 15-C ) :   1.6041 B( 14-C , 68-H ) :   1.0134
B( 15-C , 16-C ) :   1.1127 B( 15-C , 69-H ) :   1.0013 B( 16-C , 17-C ) :   1.5006
B( 17-C , 18-C ) :   1.1395 B( 17-C , 24-C ) :   1.0096 B( 18-C , 19-C ) :   1.5589
B( 18-C , 70-H ) :   1.0040 B( 19-C , 20-C ) :   1.1493 B( 19-C , 71-H ) :   1.0070
B( 20-C , 21-N ) :   0.9663 B( 20-C , 24-C ) :   1.4401 B( 21-N , 22-O ) :   1.4572
B( 21-N , 23-O ) :   1.5361 B( 22-O , 23-O ) :   0.2488 B( 22-O , 73-H ) :   0.1035
B( 24-C , 25-C ) :   1.1943 B( 25-C , 26-C ) :   1.5254 B( 25-C , 72-H ) :   0.9393
B( 26-C , 27-C ) :   1.1778 B( 26-C , 73-H ) :   0.9470 B( 27-C , 28-N ) :   1.1613
B( 27-C , 34-C ) :   1.2892 B( 28-N , 29-C ) :   0.9357 B( 28-N , 31-C ) :   1.0749
B( 29-C , 30-C ) :   1.1258 B( 29-C , 74-H ) :   0.9483 B( 29-C , 75-H ) :   0.9283
B( 30-C , 76-H ) :   0.9677 B( 30-C , 77-H ) :   0.9673 B( 30-C , 78-H ) :   0.9633
B( 31-C , 32-O ) :   2.0241 B( 31-C , 33-C ) :   0.9819 B( 32-O , 85-H ) :   0.1181
B( 33-C , 34-C ) :   1.2870 B( 33-C , 40-C ) :   1.3114 B( 34-C , 35-C ) :   0.9812
B( 35-C , 36-O ) :   2.0191 B( 35-C , 37-N ) :   1.0589 B( 36-O , 72-H ) :   0.1075
B( 37-N , 38-C ) :   0.9426 B( 37-N , 40-C ) :   1.1707 B( 38-C , 39-C ) :   1.1218
B( 38-C , 79-H ) :   0.9273 B( 38-C , 80-H ) :   0.9493 B( 39-C , 81-H ) :   0.9634
B( 39-C , 82-H ) :   0.9678 B( 39-C , 83-H ) :   0.9683 B( 40-C , 41-C ) :   1.1680
B( 41-C , 42-C ) :   1.5849 B( 41-C , 84-H ) :   0.9552 B( 42-C , 43-C ) :   1.0889
B( 42-C , 85-H ) :   0.9650 B( 43-C , 44-C ) :   1.2897 B( 43-C , 51-C ) :   1.2896
B( 44-C , 45-C ) :   1.3637 B( 44-C , 86-H ) :   1.0050 B( 45-C , 46-N ) :   0.8721
B( 45-C , 49-C ) :   1.3425 B( 46-N , 47-O ) :   1.5574 B( 46-N , 48-O ) :   1.5205
B( 47-O , 48-O ) :   0.2674 B( 49-C , 50-C ) :   1.3157 B( 49-C , 52-C ) :   1.0704
B( 50-C , 51-C ) :   1.4429 B( 50-C , 87-H ) :   0.9851 B( 51-C , 88-H ) :   0.9899
B( 52-C , 53-C ) :   1.6733 B( 52-C , 89-H ) :   0.9645 B( 53-C , 54-C ) :   1.1619
B( 53-C , 90-H ) :   0.9461 B( 54-C , 55-O ) :   1.1899 B( 54-C , 58-C ) :   1.3960
B( 55-O , 56-C ) :   1.1283 B( 56-C , 57-C ) :   1.5470 B( 56-C , 91-H ) :   1.0043
B( 57-C , 58-C ) :   1.2443 B( 57-C , 92-H ) :   1.0099 B( 58-C , 59-C ) :   0.9565
B( 59-C , 60-O ) :   2.1458 B( 59-C , 61-O ) :   1.1963 B( 61-O , 62-C ) :   0.9212
B( 62-C , 93-H ) :   0.9803 B( 62-C , 94-H ) :   0.9769 B( 62-C , 95-H ) :   0.9757

-----------------------------------------------------------------------------
         ABSORPTION SPECTRUM VIA TRANSITION ELECTRIC DIPOLE MOMENTS
-----------------------------------------------------------------------------
State   Energy  Wavelength   fosc         T2         TX        TY        TZ
        (cm-1)    (nm)                  (au**2)     (au)      (au)      (au)
-----------------------------------------------------------------------------
   0    6982.2   1432.2   0.285204138  13.44751  -0.72103  -3.58047   0.32841
   1   12856.3    777.8   0.028175800   0.72150  -0.17371   0.35391   0.75238
   2   16933.9    590.5   0.557659463  10.84143   1.12436   2.75976   1.40034
   3   18033.9    554.5   0.019558917   0.35705  -0.05190  -0.59489   0.02151
   4   21419.2    466.9   0.298135529   4.58233   0.66564   2.03224  -0.09622
   5   23348.2    428.3   0.056349352   0.79453   0.43541   0.76731   0.12720
   6   23984.2    416.9   0.106196148   1.45767  -0.58961  -0.99849  -0.33621
   7   24738.5    404.2   0.029460461   0.39205  -0.05098   0.29104  -0.55204
   8   25531.3    391.7   0.055913433   0.72097   0.17615   0.38136  -0.73791
   9   25939.2    385.5   0.166905378   2.11831  -1.03778   0.03851  -1.01973
  10   26520.6    377.1   0.023863776   0.29623   0.35836   0.40157   0.08095
  11   26789.6    373.3   0.051932022   0.63818   0.00973   0.76822   0.21891
  12   26868.7    372.2   0.179804579   2.20308  -0.76431  -0.95834  -0.83695
  13   28002.1    357.1   0.094635509   1.11260  -0.35258  -0.83149  -0.54490
  14   28344.3    352.8   0.262193409   3.04531   0.02619   1.38254  -1.06453
  15   29238.1    342.0   0.003909324   0.04402   0.07219   0.19697  -0.00297
  16   30167.1    331.5   0.176238136   1.92328  -0.43972  -1.31056   0.11119
  17   30529.0    327.6   0.337708299   3.64171  -0.81030  -1.71209  -0.23211
  18   30915.9    323.5   0.134705704   1.43443  -0.05425   0.93906  -0.74139
  19   31330.9    319.2   0.021215547   0.22292  -0.10910  -0.02739  -0.45855
  20   31545.2    317.0   0.003214157   0.03354  -0.07025   0.16196  -0.04877
  21   31893.3    313.5   0.056183300   0.57994  -0.53662  -0.33127  -0.42690
  22   32185.0    310.7   0.051621941   0.52803   0.33688   0.18682   0.61615
  23   32194.2    310.6   0.027029059   0.27639   0.24275   0.00616   0.46629
  24   32317.3    309.4   0.234536142   2.38919   1.05156   0.12783   1.12564
  25   32782.7    305.0   0.001265100   0.01270  -0.00241   0.04810  -0.10191
  26   32870.8    304.2   0.002235252   0.02239   0.11685   0.01538  -0.09218
  27   33845.3    295.5   0.032757117   0.31863   0.47878   0.23039   0.19058
  28   33961.4    294.5   0.123901031   1.20106   0.85615   0.48408   0.48346
  29   34102.1    293.2   0.057228110   0.55246  -0.54660  -0.37852  -0.33228
  30   34195.5    292.4   0.036805221   0.35434   0.03727  -0.00558  -0.59407
  31   34887.0    286.6   0.071210273   0.67198  -0.25915  -0.73007   0.26798
  32   35365.6    282.8   0.017123618   0.15940  -0.16778   0.32291  -0.16425
  33   35703.3    280.1   0.018167668   0.16752   0.06318   0.33794  -0.22209
  34   36720.2    272.3   0.071771972   0.64347   0.51989   0.22113   0.56945
  35   36940.2    270.7   0.049741987   0.44330  -0.46994  -0.34375  -0.32294
  36   37309.5    268.0   0.047521636   0.41932  -0.36125  -0.37806  -0.38196
  37   37841.8    264.3   0.113383346   0.98640  -0.36546  -0.91109  -0.15082
  38   37900.5    263.8   0.109652020   0.95246  -0.59883   0.13090  -0.75942
  39   38185.5    261.9   0.023160268   0.19967   0.38178   0.10170   0.20874
  40   38613.0    259.0   0.040411927   0.34455   0.40760   0.04164   0.42033
  41   38949.3    256.7   0.000911214   0.00770   0.01108  -0.04563   0.07414
  42   39310.8    254.4   0.014127394   0.11831   0.12456  -0.01148   0.32041
  43   39531.1    253.0   0.005651103   0.04706  -0.11943  -0.06662  -0.16840
  44   40291.2    248.2   0.047815342   0.39069  -0.07640   0.47266  -0.40180

FINAL SINGLE POINT ENERGY     -3019.429892780554

DIPOLE MOMENT
-------------
                                X             Y             Z
Electronic contribution:     -1.71940      12.73097       8.10151
Nuclear contribution   :      1.52331     -13.04507      -9.87644
                        -----------------------------------------
Total Dipole Moment    :     -0.19610      -0.31410      -1.77493
                        -----------------------------------------
Magnitude (a.u.)       :      1.81314
Magnitude (Debye)      :      4.60864

Rotational constants in cm-1:     0.002112     0.000359     0.000322
Rotational constants in MHz :    63.319286    10.774405     9.663914

                             ****ORCA TERMINATED NORMALLY****
TOTAL RUN TIME: 0 days 0 hours 13 minutes 30 seconds 111 msec
