                         Program Version 4.2.0 -  RELEASE  -
|  1> # ORCA input file
|  2> # SCF done       -176.641786079539          0.000215570572
|  3> ! CAM-B3LYP def2-SVP def2/J RIJCOSX Grid4 TightSCF
|  4> %maxcore 5000
|  5> %tddft
|  6>     Mode sTDDFT
|  7>     Ethresh 5.0
|  8>     maxcore 5000
|  9> end
| 10>
| 11> %pal
| 12>   nprocs 6
| 13>   end
| 14> * xyz 0 1
| 15>    C       -0.83427         0.92281        -0.84052
| 16>    O       -1.33527        -0.30226        -0.82834
| 17>    C       -0.35163        -1.15477        -0.44005
| 18>    C        0.80493        -0.43895        -0.19988
| 19>    C        0.49026         0.91374        -0.46266
| 20>    C        1.40856         2.05717        -0.35092
| 21>    O        2.56110         1.98538        -0.01310
| 22>    O        0.79645         3.20672        -0.67904
| 23>    C        1.60270         4.37474        -0.60524
| 24>    C       -0.65631        -2.55335        -0.35834
| 25>    C        0.29277        -3.52509         0.03581
| 26>    C       -0.04951        -4.92577         0.15993
| 27>    N        0.85129        -5.78867         0.66241
| 28>    C        2.05097        -5.36319         0.97066
| 29>    C        2.41926        -3.99451         0.75479
| 30>    N        1.54383        -3.12732         0.31662
| 31>    C        3.74674        -3.57186         1.02051
| 32>    N        4.82943        -3.27459         1.24565
| 33>    C        2.99078        -6.28013         1.50462
| 34>    N        3.77447        -7.00150         1.92577
| 35>    C       -1.33554        -5.40292        -0.15716
| 36>    C       -2.26277        -4.44000        -0.59737
| 37>    C       -1.94242        -3.03454        -0.67186
| 38>    N       -2.99287        -2.31824        -1.08375
| 39>    S       -4.22012        -3.30392        -1.36136
| 40>    N       -3.50733        -4.68869        -1.00762
| 41>    C       -1.81973        -6.73898         0.05679
| 42>    N       -1.20764        -7.92078        -0.24299
| 43>    C        0.01241        -8.11253        -0.98916
| 44>    C       -0.11364        -7.59864        -2.41972
| 45>    C       -2.02751        -9.02375         0.08581
| 46>    O       -1.70716       -10.17622        -0.12421
| 47>    C       -3.21208        -8.43515         0.66700
| 48>    C       -3.06046        -7.03123         0.61928
| 49>    C       -4.21929        -6.42739         1.24935
| 50>    O       -4.52067        -5.27602         1.48067
| 51>    N       -5.02818        -7.52590         1.59251
| 52>    C       -6.28642        -7.34257         2.27660
| 53>    C       -6.17077        -7.63048         3.77119
| 54>    C       -4.44567        -8.72688         1.26191
| 55>    C       -5.05567        -9.98013         1.47606
| 56>    C       -4.45105       -11.16067         1.15459
| 57>    C       -5.05448       -12.42866         1.32285
| 58>    C       -6.32051       -12.73808         1.78162
| 59>    C       -6.50230       -14.14830         1.75096
| 60>    C       -5.23531       -14.71201         1.24316
| 61>    C       -4.38815       -13.68159         0.99146
| 62>    C       -4.93861       -16.06528         1.04473
| 63>    N       -4.66071       -17.16589         0.86863
| 64>    C       -7.63421       -14.84923         2.09883
| 65>    C       -7.83636       -16.25949         2.04696
| 66>    C       -9.12137       -16.54531         2.44790
| 67>    C       -9.78375       -15.29430         2.78202
| 68>    C       -8.90604       -14.27622         2.58131
| 69>    C       -9.17984       -12.92274         2.80023
| 70>    N       -9.41486       -11.81253         2.98422
| 71>    C       -9.67035       -17.86259         2.50962
| 72>    O       -8.82629       -18.87102         2.20453
| 73>    C       -9.49505       -20.02541         2.29640
| 74>    C      -10.78707       -19.80678         2.65724
| 75>    C      -10.92634       -18.40001         2.80372
| 76>    C      -12.18564       -17.74955         3.18138
| 77>    O      -12.36088       -16.57305         3.39046
| 78>    O      -13.17245       -18.65414         3.27569
| 79>    C      -14.44574       -18.14296         3.63690
| 80>    H       -1.47910         1.73092        -1.12509
| 81>    H        1.75179        -0.82018         0.11783
| 82>    H        0.97180         5.19950        -0.92569
| 83>    H        2.47177         4.27764        -1.25905
| 84>    H        1.95039         4.53160         0.41783
| 85>    H        0.19232        -9.19104        -0.99049
| 86>    H        0.83469        -7.61416        -0.47043
| 87>    H       -0.93340        -8.09846        -2.93091
| 88>    H        0.80684        -7.79659        -2.96178
| 89>    H       -0.30084        -6.52643        -2.43209
| 90>    H       -7.04939        -7.97684         1.81730
| 91>    H       -6.56113        -6.29511         2.12501
| 92>    H       -5.85425        -8.65566         3.94919
| 93>    H       -7.13399        -7.47597         4.24889
| 94>    H       -5.44484        -6.95989         4.22456
| 95>    H       -6.04795        -9.99068         1.90241
| 96>    H       -3.45190       -11.14603         0.73919
| 97>    H       -7.06992       -12.04461         2.10558
| 98>    H       -3.38595       -13.75010         0.61039
| 99>    H       -7.10179       -16.97570         1.73656
|100>    H      -10.79616       -15.21750         3.12769
|101>    H       -8.95140       -20.92496         2.08430
|102>    H      -11.55772       -20.53281         2.80741
|103>    H      -15.11576       -18.99779         3.67545
|104>    H      -14.78912       -17.41894         2.89483
|105>    H      -14.39550       -17.64913         4.60966
|106> *
|107>
|108>                          ****END OF INPUT****

CARTESIAN COORDINATES (ANGSTROEM)
---------------------------------
  C     -0.834270    0.922810   -0.840520
  O     -1.335270   -0.302260   -0.828340
  C     -0.351630   -1.154770   -0.440050
  C      0.804930   -0.438950   -0.199880
  C      0.490260    0.913740   -0.462660
  C      1.408560    2.057170   -0.350920
  O      2.561100    1.985380   -0.013100
  O      0.796450    3.206720   -0.679040
  C      1.602700    4.374740   -0.605240
  C     -0.656310   -2.553350   -0.358340
  C      0.292770   -3.525090    0.035810
  C     -0.049510   -4.925770    0.159930
  N      0.851290   -5.788670    0.662410
  C      2.050970   -5.363190    0.970660
  C      2.419260   -3.994510    0.754790
  N      1.543830   -3.127320    0.316620
  C      3.746740   -3.571860    1.020510
  N      4.829430   -3.274590    1.245650
  C      2.990780   -6.280130    1.504620
  N      3.774470   -7.001500    1.925770
  C     -1.335540   -5.402920   -0.157160
  C     -2.262770   -4.440000   -0.597370
  C     -1.942420   -3.034540   -0.671860
  N     -2.992870   -2.318240   -1.083750
  S     -4.220120   -3.303920   -1.361360
  N     -3.507330   -4.688690   -1.007620
  C     -1.819730   -6.738980    0.056790
  N     -1.207640   -7.920780   -0.242990
  C      0.012410   -8.112530   -0.989160
  C     -0.113640   -7.598640   -2.419720
  C     -2.027510   -9.023750    0.085810
  O     -1.707160  -10.176220   -0.124210
  C     -3.212080   -8.435150    0.667000
  C     -3.060460   -7.031230    0.619280
  C     -4.219290   -6.427390    1.249350
  O     -4.520670   -5.276020    1.480670
  N     -5.028180   -7.525900    1.592510
  C     -6.286420   -7.342570    2.276600
  C     -6.170770   -7.630480    3.771190
  C     -4.445670   -8.726880    1.261910
  C     -5.055670   -9.980130    1.476060
  C     -4.451050  -11.160670    1.154590
  C     -5.054480  -12.428660    1.322850
  C     -6.320510  -12.738080    1.781620
  C     -6.502300  -14.148300    1.750960
  C     -5.235310  -14.712010    1.243160
  C     -4.388150  -13.681590    0.991460
  C     -4.938610  -16.065280    1.044730
  N     -4.660710  -17.165890    0.868630
  C     -7.634210  -14.849230    2.098830
  C     -7.836360  -16.259490    2.046960
  C     -9.121370  -16.545310    2.447900
  C     -9.783750  -15.294300    2.782020
  C     -8.906040  -14.276220    2.581310
  C     -9.179840  -12.922740    2.800230
  N     -9.414860  -11.812530    2.984220
  C     -9.670350  -17.862590    2.509620
  O     -8.826290  -18.871020    2.204530
  C     -9.495050  -20.025410    2.296400
  C    -10.787070  -19.806780    2.657240
  C    -10.926340  -18.400010    2.803720
  C    -12.185640  -17.749550    3.181380
  O    -12.360880  -16.573050    3.390460
  O    -13.172450  -18.654140    3.275690
  C    -14.445740  -18.142960    3.636900
  H     -1.479100    1.730920   -1.125090
  H      1.751790   -0.820180    0.117830
  H      0.971800    5.199500   -0.925690
  H      2.471770    4.277640   -1.259050
  H      1.950390    4.531600    0.417830
  H      0.192320   -9.191040   -0.990490
  H      0.834690   -7.614160   -0.470430
  H     -0.933400   -8.098460   -2.930910
  H      0.806840   -7.796590   -2.961780
  H     -0.300840   -6.526430   -2.432090
  H     -7.049390   -7.976840    1.817300
  H     -6.561130   -6.295110    2.125010
  H     -5.854250   -8.655660    3.949190
  H     -7.133990   -7.475970    4.248890
  H     -5.444840   -6.959890    4.224560
  H     -6.047950   -9.990680    1.902410
  H     -3.451900  -11.146030    0.739190
  H     -7.069920  -12.044610    2.105580
  H     -3.385950  -13.750100    0.610390
  H     -7.101790  -16.975700    1.736560
  H    -10.796160  -15.217500    3.127690
  H     -8.951400  -20.924960    2.084300
  H    -11.557720  -20.532810    2.807410
  H    -15.115760  -18.997790    3.675450
  H    -14.789120  -17.418940    2.894830
  H    -14.395500  -17.649130    4.609660

 Total Charge           Charge          ....    0
 Multiplicity           Mult            ....    1
 Number of Electrons    NEL             ....  452
 Basis Dimension        Dim             .... 1044

ORBITAL ENERGIES
----------------

  NO   OCC          E(Eh)            E(eV)
   0   2.0000     -89.043861     -2423.0067
   1   2.0000     -19.309187      -525.4297
   2   2.0000     -19.306875      -525.3668
   3   2.0000     -19.269411      -524.3473
   4   2.0000     -19.259784      -524.0854
   5   2.0000     -19.215978      -522.8933
   6   2.0000     -19.202571      -522.5285
   7   2.0000     -19.195857      -522.3458
   8   2.0000     -19.193889      -522.2923
   9   2.0000     -14.467303      -393.6753
  10   2.0000     -14.465852      -393.6358
  11   2.0000     -14.456888      -393.3919
  12   2.0000     -14.456540      -393.3825
  13   2.0000     -14.448202      -393.1556
  14   2.0000     -14.447600      -393.1392
  15   2.0000     -14.432716      -392.7342
  16   2.0000     -14.430721      -392.6799
  17   2.0000     -14.406379      -392.0175
  18   2.0000     -14.405323      -391.9888
  19   2.0000     -10.415740      -283.4267
  20   2.0000     -10.402029      -283.0536
  21   2.0000     -10.385827      -282.6127
  22   2.0000     -10.384713      -282.5824
  23   2.0000     -10.377508      -282.3863
  24   2.0000     -10.377418      -282.3839
  25   2.0000     -10.358910      -281.8803
  26   2.0000     -10.356562      -281.8164
  27   2.0000     -10.354426      -281.7583
  28   2.0000     -10.348873      -281.6071
  29   2.0000     -10.346428      -281.5406
  30   2.0000     -10.346293      -281.5369
  31   2.0000     -10.345414      -281.5130
  32   2.0000     -10.344129      -281.4781
  33   2.0000     -10.342634      -281.4374
  34   2.0000     -10.339732      -281.3584
  35   2.0000     -10.331134      -281.1245
  36   2.0000     -10.329211      -281.0721
  37   2.0000     -10.325588      -280.9735
  38   2.0000     -10.323669      -280.9213
  39   2.0000     -10.322676      -280.8943
  40   2.0000     -10.322171      -280.8806
  41   2.0000     -10.321641      -280.8661
  42   2.0000     -10.321265      -280.8559
  43   2.0000     -10.312984      -280.6306
  44   2.0000     -10.309934      -280.5476
  45   2.0000     -10.309417      -280.5335
  46   2.0000     -10.309240      -280.5287
  47   2.0000     -10.307529      -280.4821
  48   2.0000     -10.307508      -280.4816
  49   2.0000     -10.305398      -280.4241
  50   2.0000     -10.301286      -280.3122
  51   2.0000     -10.300146      -280.2812
  52   2.0000     -10.299627      -280.2671
  53   2.0000     -10.298595      -280.2390
  54   2.0000     -10.297821      -280.2180
  55   2.0000     -10.297585      -280.2115
  56   2.0000     -10.286919      -279.9213
  57   2.0000     -10.285973      -279.8956
  58   2.0000     -10.285622      -279.8860
  59   2.0000     -10.284956      -279.8679
  60   2.0000     -10.284736      -279.8619
  61   2.0000     -10.269178      -279.4385
  62   2.0000     -10.266545      -279.3669
  63   2.0000     -10.263323      -279.2792
  64   2.0000     -10.263069      -279.2723
  65   2.0000      -8.135037      -221.3656
  66   2.0000      -6.105920      -166.1505
  67   2.0000      -6.098322      -165.9438
  68   2.0000      -6.098052      -165.9364
  69   2.0000      -1.231063       -33.4989
  70   2.0000      -1.231047       -33.4985
  71   2.0000      -1.202592       -32.7242
  72   2.0000      -1.190368       -32.3916
  73   2.0000      -1.142184       -31.0804
  74   2.0000      -1.136557       -30.9273
  75   2.0000      -1.130519       -30.7630
  76   2.0000      -1.125036       -30.6138
  77   2.0000      -1.107738       -30.1431
  78   2.0000      -1.096385       -29.8342
  79   2.0000      -1.068506       -29.0755
  80   2.0000      -1.060429       -28.8557
  81   2.0000      -1.050340       -28.5812
  82   2.0000      -1.016099       -27.6495
  83   2.0000      -1.014001       -27.5924
  84   2.0000      -1.005875       -27.3713
  85   2.0000      -0.997734       -27.1497
  86   2.0000      -0.994345       -27.0575
  87   2.0000      -0.983350       -26.7583
  88   2.0000      -0.981768       -26.7153
  89   2.0000      -0.979415       -26.6512
  90   2.0000      -0.931244       -25.3404
  91   2.0000      -0.922855       -25.1122
  92   2.0000      -0.918523       -24.9943
  93   2.0000      -0.915445       -24.9105
  94   2.0000      -0.912184       -24.8218
  95   2.0000      -0.907180       -24.6856
  96   2.0000      -0.893685       -24.3184
  97   2.0000      -0.874394       -23.7935
  98   2.0000      -0.860837       -23.4246
  99   2.0000      -0.859342       -23.3839
 100   2.0000      -0.847699       -23.0671
 101   2.0000      -0.834434       -22.7061
 102   2.0000      -0.834103       -22.6971
 103   2.0000      -0.827349       -22.5133
 104   2.0000      -0.822163       -22.3722
 105   2.0000      -0.820477       -22.3263
 106   2.0000      -0.817797       -22.2534
 107   2.0000      -0.799466       -21.7546
 108   2.0000      -0.783818       -21.3288
 109   2.0000      -0.766767       -20.8648
 110   2.0000      -0.761419       -20.7193
 111   2.0000      -0.743333       -20.2271
 112   2.0000      -0.737608       -20.0713
 113   2.0000      -0.729194       -19.8424
 114   2.0000      -0.722635       -19.6639
 115   2.0000      -0.716657       -19.5012
 116   2.0000      -0.713416       -19.4130
 117   2.0000      -0.709500       -19.3065
 118   2.0000      -0.705812       -19.2061
 119   2.0000      -0.699827       -19.0433
 120   2.0000      -0.689710       -18.7680
 121   2.0000      -0.687564       -18.7096
 122   2.0000      -0.680729       -18.5236
 123   2.0000      -0.672255       -18.2930
 124   2.0000      -0.668627       -18.1943
 125   2.0000      -0.657877       -17.9018
 126   2.0000      -0.653534       -17.7836
 127   2.0000      -0.644705       -17.5433
 128   2.0000      -0.644047       -17.5254
 129   2.0000      -0.636543       -17.3212
 130   2.0000      -0.633944       -17.2505
 131   2.0000      -0.629813       -17.1381
 132   2.0000      -0.623215       -16.9585
 133   2.0000      -0.610464       -16.6116
 134   2.0000      -0.604078       -16.4378
 135   2.0000      -0.603442       -16.4205
 136   2.0000      -0.593001       -16.1364
 137   2.0000      -0.586481       -15.9589
 138   2.0000      -0.584440       -15.9034
 139   2.0000      -0.581568       -15.8253
 140   2.0000      -0.576334       -15.6828
 141   2.0000      -0.574666       -15.6375
 142   2.0000      -0.572710       -15.5842
 143   2.0000      -0.569158       -15.4876
 144   2.0000      -0.567698       -15.4478
 145   2.0000      -0.564201       -15.3527
 146   2.0000      -0.563655       -15.3378
 147   2.0000      -0.562445       -15.3049
 148   2.0000      -0.557209       -15.1624
 149   2.0000      -0.554834       -15.0978
 150   2.0000      -0.553876       -15.0717
 151   2.0000      -0.537710       -14.6318
 152   2.0000      -0.534137       -14.5346
 153   2.0000      -0.533724       -14.5234
 154   2.0000      -0.532520       -14.4906
 155   2.0000      -0.531358       -14.4590
 156   2.0000      -0.529288       -14.4027
 157   2.0000      -0.528632       -14.3848
 158   2.0000      -0.523126       -14.2350
 159   2.0000      -0.517569       -14.0838
 160   2.0000      -0.516567       -14.0565
 161   2.0000      -0.511556       -13.9201
 162   2.0000      -0.509076       -13.8526
 163   2.0000      -0.506232       -13.7753
 164   2.0000      -0.505014       -13.7421
 165   2.0000      -0.500356       -13.6154
 166   2.0000      -0.499415       -13.5898
 167   2.0000      -0.492517       -13.4021
 168   2.0000      -0.488753       -13.2996
 169   2.0000      -0.487284       -13.2597
 170   2.0000      -0.486362       -13.2346
 171   2.0000      -0.484587       -13.1863
 172   2.0000      -0.483978       -13.1697
 173   2.0000      -0.482145       -13.1198
 174   2.0000      -0.479679       -13.0527
 175   2.0000      -0.479000       -13.0343
 176   2.0000      -0.476085       -12.9549
 177   2.0000      -0.473284       -12.8787
 178   2.0000      -0.471802       -12.8384
 179   2.0000      -0.468131       -12.7385
 180   2.0000      -0.466547       -12.6954
 181   2.0000      -0.462858       -12.5950
 182   2.0000      -0.457534       -12.4501
 183   2.0000      -0.456850       -12.4315
 184   2.0000      -0.455802       -12.4030
 185   2.0000      -0.454627       -12.3710
 186   2.0000      -0.447123       -12.1668
 187   2.0000      -0.446126       -12.1397
 188   2.0000      -0.445893       -12.1334
 189   2.0000      -0.444989       -12.1088
 190   2.0000      -0.441925       -12.0254
 191   2.0000      -0.439188       -11.9509
 192   2.0000      -0.438231       -11.9249
 193   2.0000      -0.435045       -11.8382
 194   2.0000      -0.434213       -11.8155
 195   2.0000      -0.432250       -11.7621
 196   2.0000      -0.431851       -11.7513
 197   2.0000      -0.430771       -11.7219
 198   2.0000      -0.422736       -11.5032
 199   2.0000      -0.420120       -11.4320
 200   2.0000      -0.415735       -11.3127
 201   2.0000      -0.413818       -11.2606
 202   2.0000      -0.411249       -11.1906
 203   2.0000      -0.405998       -11.0478
 204   2.0000      -0.400440       -10.8965
 205   2.0000      -0.394872       -10.7450
 206   2.0000      -0.389288       -10.5931
 207   2.0000      -0.381813       -10.3897
 208   2.0000      -0.378831       -10.3085
 209   2.0000      -0.374594       -10.1932
 210   2.0000      -0.372117       -10.1258
 211   2.0000      -0.369467       -10.0537
 212   2.0000      -0.367146        -9.9905
 213   2.0000      -0.363520        -9.8919
 214   2.0000      -0.356199        -9.6927
 215   2.0000      -0.352592        -9.5945
 216   2.0000      -0.348815        -9.4917
 217   2.0000      -0.348103        -9.4724
 218   2.0000      -0.343195        -9.3388
 219   2.0000      -0.335357        -9.1255
 220   2.0000      -0.321580        -8.7506
 221   2.0000      -0.317523        -8.6402
 222   2.0000      -0.300754        -8.1839
 223   2.0000      -0.286735        -7.8025
 224   2.0000      -0.279204        -7.5975
 225   2.0000      -0.237674        -6.4674
 226   0.0000      -0.133236        -3.6255
 227   0.0000      -0.117970        -3.2101
 228   0.0000      -0.065168        -1.7733
 229   0.0000      -0.051300        -1.3959
 230   0.0000      -0.035759        -0.9731

MULLIKEN ATOMIC CHARGES
-----------------------
   0 C :    0.142341
   1 O :   -0.147217
   2 C :   -0.010557
   3 C :   -0.052778
   4 C :    0.000138
   5 C :    0.176505
   6 O :   -0.189546
   7 O :   -0.309202
   8 C :    0.192602
   9 C :    0.182073
  10 C :   -0.064192
  11 C :   -0.047184
  12 N :    0.038339
  13 C :   -0.130891
  14 C :   -0.119890
  15 N :    0.054844
  16 C :   -0.218424
  17 N :    0.243404
  18 C :   -0.208131
  19 N :    0.244551
  20 C :    0.068479
  21 C :   -0.023407
  22 C :    0.016093
  23 N :   -0.263738
  24 S :    0.565330
  25 N :   -0.241937
  26 C :    0.016724
  27 N :   -0.237415
  28 C :    0.112543
  29 C :   -0.006980
  30 C :    0.172820
  31 O :   -0.204631
  32 C :   -0.094757
  33 C :   -0.007575
  34 C :    0.134229
  35 O :   -0.196254
  36 N :   -0.262940
  37 C :    0.097716
  38 C :    0.006195
  39 C :    0.158950
  40 C :   -0.016750
  41 C :    0.013735
  42 C :    0.102438
  43 C :   -0.114178
  44 C :    0.115285
  45 C :   -0.091813
  46 C :    0.005386
  47 C :   -0.177917
  48 N :    0.133523
  49 C :    0.118916
  50 C :   -0.117135
  51 C :    0.051136
  52 C :    0.008999
  53 C :   -0.107810
  54 C :   -0.162696
  55 N :    0.118143
  56 C :    0.152440
  57 O :   -0.171656
  58 C :    0.160406
  59 C :   -0.007443
  60 C :   -0.051707
  61 C :    0.177632
  62 O :   -0.206723
  63 O :   -0.299289
  64 C :    0.189879
  65 H :    0.023771
  66 H :    0.012460
  67 H :    0.032175
  68 H :    0.034919
  69 H :    0.033527
  70 H :    0.043626
  71 H :    0.033104
  72 H :    0.025285
  73 H :    0.024965
  74 H :    0.016278
  75 H :    0.031984
  76 H :    0.040032
  77 H :    0.017335
  78 H :    0.029220
  79 H :    0.028091
  80 H :   -0.012749
  81 H :    0.006396
  82 H :   -0.000712
  83 H :    0.010615
  84 H :    0.009647
  85 H :    0.016905
  86 H :    0.022805
  87 H :    0.003408
  88 H :    0.037419
  89 H :    0.035757
  90 H :    0.034706
Sum of atomic charges:   -0.0000000

LOEWDIN ATOMIC CHARGES
----------------------
   0 C :    0.089738
   1 O :    0.054441
   2 C :    0.019142
   3 C :   -0.001063
   4 C :   -0.119354
   5 C :    0.084731
   6 O :   -0.167683
   7 O :   -0.100190
   8 C :    0.082102
   9 C :   -0.013304
  10 C :   -0.010375
  11 C :   -0.000282
  12 N :    0.002060
  13 C :   -0.025777
  14 C :   -0.028173
  15 N :    0.009117
  16 C :   -0.039263
  17 N :    0.000058
  18 C :   -0.038148
  19 N :    0.000261
  20 C :   -0.043311
  21 C :   -0.031828
  22 C :   -0.043911
  23 N :   -0.278752
  24 S :    0.705041
  25 N :   -0.263824
  26 C :    0.077265
  27 N :    0.014447
  28 C :    0.031942
  29 C :   -0.062328
  30 C :    0.083316
  31 O :   -0.193797
  32 C :   -0.119859
  33 C :   -0.097637
  34 C :    0.082481
  35 O :   -0.197422
  36 N :   -0.000391
  37 C :    0.036530
  38 C :   -0.059542
  39 C :    0.083520
  40 C :   -0.025899
  41 C :    0.032079
  42 C :   -0.023135
  43 C :   -0.013404
  44 C :    0.035086
  45 C :   -0.083348
  46 C :    0.060554
  47 C :   -0.030452
  48 N :   -0.063654
  49 C :    0.041872
  50 C :   -0.013209
  51 C :   -0.027694
  52 C :    0.066934
  53 C :   -0.092221
  54 C :   -0.024206
  55 N :   -0.076582
  56 C :    0.060673
  57 O :    0.041107
  58 C :    0.052658
  59 C :   -0.048293
  60 C :   -0.103549
  61 C :    0.096342
  62 O :   -0.174537
  63 O :   -0.086903
  64 C :    0.081364
  65 H :    0.032459
  66 H :    0.039253
  67 H :    0.025180
  68 H :    0.024362
  69 H :    0.024233
  70 H :    0.036002
  71 H :    0.020159
  72 H :    0.029388
  73 H :    0.031947
  74 H :    0.019603
  75 H :    0.026127
  76 H :    0.036820
  77 H :    0.023081
  78 H :    0.033652
  79 H :    0.031501
  80 H :    0.034948
  81 H :    0.038786
  82 H :    0.031424
  83 H :    0.042356
  84 H :    0.036559
  85 H :    0.036470
  86 H :    0.029865
  87 H :    0.037279
  88 H :    0.027128
  89 H :    0.025064
  90 H :    0.024793

  Mayer bond orders larger than 0.100000
B(  0-C ,  1-O ) :   1.2145 B(  0-C ,  4-C ) :   1.4549 B(  0-C , 65-H ) :   1.0034
B(  1-O ,  2-C ) :   1.1695 B(  2-C ,  3-C ) :   1.4756 B(  2-C ,  9-C ) :   1.0499
B(  3-C ,  4-C ) :   1.2110 B(  3-C , 66-H ) :   1.0174 B(  4-C ,  5-C ) :   0.9189
B(  5-C ,  6-O ) :   2.1599 B(  5-C ,  7-O ) :   1.2422 B(  7-O ,  8-C ) :   0.9220
B(  8-C , 67-H ) :   0.9813 B(  8-C , 68-H ) :   0.9757 B(  8-C , 69-H ) :   0.9769
B(  9-C , 10-C ) :   1.2929 B(  9-C , 20-C ) :   0.1467 B(  9-C , 22-C ) :   1.1874
B( 10-C , 11-C ) :   1.1002 B( 10-C , 15-N ) :   1.4536 B( 11-C , 12-N ) :   1.4414
B( 11-C , 20-C ) :   1.2841 B( 12-N , 13-C ) :   1.7056 B( 13-C , 14-C ) :   1.2044
B( 13-C , 18-C ) :   1.1510 B( 14-C , 15-N ) :   1.7384 B( 14-C , 16-C ) :   1.1475
B( 16-C , 17-N ) :   3.0464 B( 18-C , 19-N ) :   3.0473 B( 20-C , 21-C ) :   1.2679
B( 20-C , 26-C ) :   0.9944 B( 21-C , 22-C ) :   1.0935 B( 21-C , 25-N ) :   1.5250
B( 22-C , 23-N ) :   1.5148 B( 23-N , 24-S ) :   1.3075 B( 23-N , 25-N ) :   0.1511
B( 24-S , 25-N ) :   1.2986 B( 26-C , 27-N ) :   1.2427 B( 26-C , 33-C ) :   1.4227
B( 27-N , 28-C ) :   0.9427 B( 27-N , 30-C ) :   1.0394 B( 28-C , 29-C ) :   1.1165
B( 28-C , 70-H ) :   0.9261 B( 28-C , 71-H ) :   0.9331 B( 29-C , 72-H ) :   0.9653
B( 29-C , 73-H ) :   0.9678 B( 29-C , 74-H ) :   0.9660 B( 30-C , 31-O ) :   2.0254
B( 30-C , 32-C ) :   0.9964 B( 31-O , 81-H ) :   0.1114 B( 32-C , 33-C ) :   1.2512
B( 32-C , 39-C ) :   1.3114 B( 33-C , 34-C ) :   0.9503 B( 34-C , 35-O ) :   2.1387
B( 34-C , 36-N ) :   1.0412 B( 36-N , 37-C ) :   0.9412 B( 36-N , 39-C ) :   1.1668
B( 37-C , 38-C ) :   1.1221 B( 37-C , 75-H ) :   0.9494 B( 37-C , 76-H ) :   0.9271
B( 38-C , 77-H ) :   0.9687 B( 38-C , 78-H ) :   0.9678 B( 38-C , 79-H ) :   0.9632
B( 39-C , 40-C ) :   1.1698 B( 40-C , 41-C ) :   1.5655 B( 40-C , 80-H ) :   0.9657
B( 41-C , 42-C ) :   1.1153 B( 41-C , 81-H ) :   0.9559 B( 42-C , 43-C ) :   1.5191
B( 42-C , 46-C ) :   1.0361 B( 43-C , 44-C ) :   1.1380 B( 43-C , 82-H ) :   0.9935
B( 44-C , 45-C ) :   1.1047 B( 44-C , 49-C ) :   1.3966 B( 45-C , 46-C ) :   1.6647
B( 45-C , 47-C ) :   1.0884 B( 46-C , 83-H ) :   1.0266 B( 47-C , 48-N ) :   2.9691
B( 49-C , 50-C ) :   1.0983 B( 49-C , 53-C ) :   1.1045 B( 50-C , 51-C ) :   1.5368
B( 50-C , 84-H ) :   1.0139 B( 51-C , 52-C ) :   1.0842 B( 51-C , 56-C ) :   1.0460
B( 52-C , 53-C ) :   1.6428 B( 52-C , 85-H ) :   1.0023 B( 53-C , 54-C ) :   1.0950
B( 54-C , 55-N ) :   2.9555 B( 56-C , 57-O ) :   1.2158 B( 56-C , 60-C ) :   1.4526
B( 57-O , 58-C ) :   1.1340 B( 58-C , 59-C ) :   1.5343 B( 58-C , 86-H ) :   1.0051
B( 59-C , 60-C ) :   1.2251 B( 59-C , 87-H ) :   1.0047 B( 60-C , 61-C ) :   0.9455
B( 61-C , 62-O ) :   2.0519 B( 61-C , 63-O ) :   1.2620 B( 63-O , 64-C ) :   0.9210
B( 64-C , 88-H ) :   0.9806 B( 64-C , 89-H ) :   0.9761 B( 64-C , 90-H ) :   0.9762

-----------------------------------------------------------------------------
         ABSORPTION SPECTRUM VIA TRANSITION ELECTRIC DIPOLE MOMENTS
-----------------------------------------------------------------------------
State   Energy  Wavelength   fosc         T2         TX        TY        TZ
        (cm-1)    (nm)                  (au**2)     (au)      (au)      (au)
-----------------------------------------------------------------------------
   0    7996.1   1250.6   0.586825482  24.16049   2.81947   3.91882  -0.92408
   1   11492.7    870.1   0.156406755   4.48033  -1.56999  -1.33822   0.47393
   2   15507.3    644.9   0.065872200   1.39843  -0.92468  -0.70654   0.21025
   3   17586.0    568.6   0.135475782   2.53613  -0.06306  -1.59000   0.06354
   4   18542.1    539.3   0.003308858   0.05875  -0.22138  -0.01481   0.09757
   5   21428.4    466.7   0.283191698   4.35076  -1.58224  -1.25676   0.51754
   6   22387.9    446.7   0.004465595   0.06567   0.23316   0.10577  -0.01085
   7   23830.6    419.6   0.391915448   5.41419   1.00050   2.07514  -0.32708
   8   24302.3    411.5   0.014835988   0.20098   0.44288  -0.05734  -0.03928
   9   24651.6    405.7   0.012780974   0.17068   0.16364  -0.04204   0.37702
  10   25136.5    397.8   0.039721692   0.52023   0.35639   0.62314  -0.07006
  11   25253.8    396.0   0.216240816   2.81895  -1.20250  -1.14173   0.26341
  12   26024.2    384.3   0.037274288   0.47153  -0.47992   0.47611   0.12054
  13   26823.9    372.8   0.007786475   0.09556  -0.05983  -0.24571  -0.17779
  14   27027.1    370.0   0.005018565   0.06113  -0.17827  -0.02773   0.16906
  15   27806.0    359.6   0.008915528   0.10556  -0.27313  -0.11017  -0.13718
  16   28053.0    356.5   0.020892716   0.24518   0.02455  -0.48513   0.09606
  17   29625.9    337.5   0.012892310   0.14326  -0.12180   0.34063  -0.11135
  18   29890.7    334.6   0.114770888   1.26407  -1.03071   0.20580  -0.39919
  19   30174.5    331.4   0.045863947   0.50039  -0.65680   0.19465  -0.17640
  20   30630.0    326.5   0.120238187   1.29232  -0.60109  -0.92149   0.28615
  21   31430.1    318.2   0.000699578   0.00733   0.02714  -0.07887  -0.01923
  22   32465.9    308.0   0.187608722   1.90240   1.28795   0.02674   0.49281
  23   33104.8    302.1   0.321372742   3.19591  -0.92159  -1.49418  -0.33765
  24   33531.5    298.2   0.070179549   0.68902   0.70578  -0.27640   0.33837
  25   33578.5    297.8   0.029180494   0.28609  -0.18874   0.43692  -0.24407
  26   33878.3    295.2   0.000767647   0.00746   0.05631  -0.06183  -0.02159
  27   33969.0    294.4   0.204920952   1.98600  -1.08610   0.76530  -0.46978
  28   34013.2    294.0   0.080864278   0.78268  -0.55486   0.68627   0.06203
  29   34385.1    290.8   0.087242539   0.83528   0.68701  -0.51005   0.32117
  30   34789.0    287.4   0.002102943   0.01990   0.12355  -0.05970   0.03275
  31   35153.8    284.5   0.022875863   0.21423  -0.44348   0.05521  -0.12044
  32   36039.5    277.5   0.141798348   1.29529   0.88220   0.71862  -0.02483
  33   36139.9    276.7   0.289506694   2.63723   1.34328  -0.78029   0.47327
  34   36518.0    273.8   0.086687642   0.78150  -0.03762  -0.88317  -0.00942
  35   37140.9    269.2   0.062131817   0.55073   0.66278   0.21019  -0.25937
  36   37385.3    267.5   0.009265213   0.08159  -0.17754  -0.22373   0.00341
  37   37543.6    266.4   0.001985835   0.01741   0.11150   0.06660  -0.02334
  38   37955.4    263.5   0.052863711   0.45852  -0.39427   0.40633  -0.37144
  39   38177.7    261.9   0.163463390   1.40957  -1.11461  -0.33926  -0.22828
  40   38481.1    259.9   0.034761917   0.29739   0.53497   0.08854   0.05801
  41   38614.3    259.0   0.058978859   0.50283  -0.03366  -0.69628   0.12999
  42   39040.6    256.1   0.006774564   0.05713   0.14151  -0.17687  -0.07629
  43   39379.2    253.9   0.112932974   0.94412  -0.16996  -0.95648  -0.01963
  44   39562.5    252.8   0.415722393   3.45936   0.68500  -1.71607  -0.21268
  45   39833.5    251.0   0.005355234   0.04426   0.10445  -0.18203   0.01462
  46   40163.2    249.0   0.005632605   0.04617   0.12292  -0.16575   0.05990

FINAL SINGLE POINT ENERGY     -3312.213941673531

DIPOLE MOMENT
-------------
                                X             Y             Z
Electronic contribution:     24.32328      15.89663      -6.65580
Nuclear contribution   :    -28.23137     -15.82343       5.67351
                        -----------------------------------------
Total Dipole Moment    :     -3.90809       0.07319      -0.98229
                        -----------------------------------------
Magnitude (a.u.)       :      4.03031
Magnitude (Debye)      :     10.24424

Rotational constants in cm-1:     0.003177     0.000314     0.000294
Rotational constants in MHz :    95.233171     9.418673     8.812492

                             ****ORCA TERMINATED NORMALLY****
TOTAL RUN TIME: 0 days 0 hours 8 minutes 52 seconds 105 msec
