                         Program Version 4.2.0 -  RELEASE  -
|  1> # ORCA input file
|  2> # SCF done       -206.686890222061          0.000617089127
|  3> ! CAM-B3LYP def2-SVP def2/J RIJCOSX Grid4 TightSCF
|  4> %maxcore 5000
|  5> %tddft
|  6>     Mode sTDDFT
|  7>     Ethresh 5.0
|  8>     maxcore 5000
|  9> end
| 10>
| 11> %pal
| 12>   nprocs 6
| 13>   end
| 14> * xyz 0 1
| 15>    C        6.92496        -6.72569        -6.90728
| 16>    O        7.91453        -6.39720        -6.08007
| 17>    C        7.79538        -5.09049        -5.77122
| 18>    C        6.68681        -4.56813        -6.42125
| 19>    C        6.11801        -5.64192        -7.16426
| 20>    C        4.97874        -5.62193        -7.99090
| 21>    N        4.05548        -5.62235        -8.66678
| 22>    C        6.20883        -3.16494        -6.31146
| 23>    F        5.91487        -2.83649        -5.03493
| 24>    F        7.14835        -2.27817        -6.70002
| 25>    F        5.11981        -2.91669        -7.03587
| 26>    C        8.71134        -4.44039        -4.89305
| 27>    C        9.75008        -5.07869        -4.30390
| 28>    C       10.68321        -4.46071        -3.42995
| 29>    C       12.00958        -4.82709        -3.24544
| 30>    N       12.68450        -5.94702        -3.76765
| 31>    O       12.06583        -6.73460        -4.46508
| 32>    O       13.86154        -6.07084        -3.48001
| 33>    C       12.67327        -3.83543        -2.44355
| 34>    C       11.79054        -2.84463        -2.15874
| 35>    C       10.50475        -3.19874        -2.69334
| 36>    C        9.30899        -2.58095        -2.38357
| 37>    C        8.03812        -3.21346        -2.21796
| 38>    C        7.18602        -2.32621        -1.63803
| 39>    C        7.84916        -1.06555        -1.46737
| 40>    N        7.15305         0.01775        -0.90465
| 41>    O        7.77000         1.01543        -0.55606
| 42>    O        5.94945        -0.10591        -0.76740
| 43>    C        9.15951        -1.17065        -1.95244
| 44>    C       10.15630        -0.23970        -2.29341
| 45>    C       10.24765         1.08571        -1.95145
| 46>    C       11.31343         1.88402        -2.40014
| 47>    N       11.47327         3.20468        -2.05427
| 48>    C       10.61225         3.97031        -1.18102
| 49>    C       10.87210         3.65972         0.28999
| 50>    C       12.62700         3.76435        -2.61444
| 51>    O       12.97475         4.91624        -2.44640
| 52>    C       13.21640         2.68223        -3.38255
| 53>    C       12.39297         1.54865        -3.23749
| 54>    C       12.98181         0.47077        -4.00557
| 55>    O       12.64287        -0.68161        -4.18856
| 56>    N       14.14604         1.03272        -4.56023
| 57>    C       14.98918         0.26798        -5.44904
| 58>    C       14.72080         0.60483        -6.91348
| 59>    C       14.29897         2.34840        -4.20756
| 60>    C       15.38941         3.15402        -4.62253
| 61>    C       15.50779         4.45325        -4.25507
| 62>    C       16.58480         5.33648        -4.61177
| 63>    C       17.59029         5.00020        -5.52346
| 64>    C       18.61106         5.88493        -5.81303
| 65>    N       19.50529         5.49878        -6.88345
| 66>    O       19.77544         4.32218        -6.97423
| 67>    O       19.87754         6.36315        -7.64473
| 68>    C       18.70623         7.13723        -5.18224
| 69>    C       17.66290         7.48657        -4.31505
| 70>    C       16.63292         6.61806        -4.03856
| 71>    C       19.82922         8.03649        -5.33372
| 72>    C       21.11493         7.65353        -5.43746
| 73>    C       22.19925         8.57267        -5.55481
| 74>    O       21.99662         9.90193        -5.63032
| 75>    C       23.18928        10.51437        -5.74492
| 76>    C       24.19823         9.56740        -5.74110
| 77>    C       23.56352         8.30361        -5.61748
| 78>    C       24.14853         7.02895        -5.55370
| 79>    N       24.59487         5.97667        -5.48256
| 80>    C       25.65582         9.84924        -5.83836
| 81>    F       25.96450        10.53657        -6.95495
| 82>    F       26.08772        10.61112        -4.81206
| 83>    F       26.40586         8.74785        -5.84161
| 84>    C       23.27629        11.94768        -5.84786
| 85>    C       22.21219        12.74669        -5.85798
| 86>    H        6.87091        -7.73699        -7.25982
| 87>    H        8.54351        -3.38506        -4.73987
| 88>    H        9.94880        -6.11075        -4.56447
| 89>    H       13.70122        -3.90738        -2.14354
| 90>    H       11.97359        -2.00369        -1.51948
| 91>    H        7.84029        -4.24947        -2.40946
| 92>    H        6.17128        -2.50067        -1.33396
| 93>    H       10.93982        -0.63954        -2.92334
| 94>    H        9.50560         1.53325        -1.30932
| 95>    H        9.56839         3.77327        -1.43540
| 96>    H       10.83643         5.02144        -1.38161
| 97>    H       10.64389         2.62106         0.51504
| 98>    H       10.24347         4.29228         0.90956
| 99>    H       11.91333         3.85379         0.53702
|100>    H       14.74821        -0.78258        -5.26514
|101>    H       16.03853         0.43705        -5.19379
|102>    H       13.68549         0.38499        -7.16210
|103>    H       15.36477         0.00542        -7.55038
|104>    H       14.90884         1.65694        -7.11615
|105>    H       16.14079         2.68326        -5.23874
|106>    H       14.74245         4.88414        -3.62243
|107>    H       17.57945         4.05621        -6.04648
|108>    H       17.69293         8.45313        -3.83541
|109>    H       15.84780         6.91233        -3.35854
|110>    H       19.60212         9.09254        -5.28088
|111>    H       21.40944         6.61334        -5.41858
|112>    H       24.27815        12.34379        -5.92056
|113>    H       21.21246        12.35245        -5.79038
|114>    H       22.31490        13.81363        -5.93766
|115> *
|116>
|117>                          ****END OF INPUT****

CARTESIAN COORDINATES (ANGSTROEM)
---------------------------------
  C      6.924960   -6.725690   -6.907280
  O      7.914530   -6.397200   -6.080070
  C      7.795380   -5.090490   -5.771220
  C      6.686810   -4.568130   -6.421250
  C      6.118010   -5.641920   -7.164260
  C      4.978740   -5.621930   -7.990900
  N      4.055480   -5.622350   -8.666780
  C      6.208830   -3.164940   -6.311460
  F      5.914870   -2.836490   -5.034930
  F      7.148350   -2.278170   -6.700020
  F      5.119810   -2.916690   -7.035870
  C      8.711340   -4.440390   -4.893050
  C      9.750080   -5.078690   -4.303900
  C     10.683210   -4.460710   -3.429950
  C     12.009580   -4.827090   -3.245440
  N     12.684500   -5.947020   -3.767650
  O     12.065830   -6.734600   -4.465080
  O     13.861540   -6.070840   -3.480010
  C     12.673270   -3.835430   -2.443550
  C     11.790540   -2.844630   -2.158740
  C     10.504750   -3.198740   -2.693340
  C      9.308990   -2.580950   -2.383570
  C      8.038120   -3.213460   -2.217960
  C      7.186020   -2.326210   -1.638030
  C      7.849160   -1.065550   -1.467370
  N      7.153050    0.017750   -0.904650
  O      7.770000    1.015430   -0.556060
  O      5.949450   -0.105910   -0.767400
  C      9.159510   -1.170650   -1.952440
  C     10.156300   -0.239700   -2.293410
  C     10.247650    1.085710   -1.951450
  C     11.313430    1.884020   -2.400140
  N     11.473270    3.204680   -2.054270
  C     10.612250    3.970310   -1.181020
  C     10.872100    3.659720    0.289990
  C     12.627000    3.764350   -2.614440
  O     12.974750    4.916240   -2.446400
  C     13.216400    2.682230   -3.382550
  C     12.392970    1.548650   -3.237490
  C     12.981810    0.470770   -4.005570
  O     12.642870   -0.681610   -4.188560
  N     14.146040    1.032720   -4.560230
  C     14.989180    0.267980   -5.449040
  C     14.720800    0.604830   -6.913480
  C     14.298970    2.348400   -4.207560
  C     15.389410    3.154020   -4.622530
  C     15.507790    4.453250   -4.255070
  C     16.584800    5.336480   -4.611770
  C     17.590290    5.000200   -5.523460
  C     18.611060    5.884930   -5.813030
  N     19.505290    5.498780   -6.883450
  O     19.775440    4.322180   -6.974230
  O     19.877540    6.363150   -7.644730
  C     18.706230    7.137230   -5.182240
  C     17.662900    7.486570   -4.315050
  C     16.632920    6.618060   -4.038560
  C     19.829220    8.036490   -5.333720
  C     21.114930    7.653530   -5.437460
  C     22.199250    8.572670   -5.554810
  O     21.996620    9.901930   -5.630320
  C     23.189280   10.514370   -5.744920
  C     24.198230    9.567400   -5.741100
  C     23.563520    8.303610   -5.617480
  C     24.148530    7.028950   -5.553700
  N     24.594870    5.976670   -5.482560
  C     25.655820    9.849240   -5.838360
  F     25.964500   10.536570   -6.954950
  F     26.087720   10.611120   -4.812060
  F     26.405860    8.747850   -5.841610
  C     23.276290   11.947680   -5.847860
  C     22.212190   12.746690   -5.857980
  H      6.870910   -7.736990   -7.259820
  H      8.543510   -3.385060   -4.739870
  H      9.948800   -6.110750   -4.564470
  H     13.701220   -3.907380   -2.143540
  H     11.973590   -2.003690   -1.519480
  H      7.840290   -4.249470   -2.409460
  H      6.171280   -2.500670   -1.333960
  H     10.939820   -0.639540   -2.923340
  H      9.505600    1.533250   -1.309320
  H      9.568390    3.773270   -1.435400
  H     10.836430    5.021440   -1.381610
  H     10.643890    2.621060    0.515040
  H     10.243470    4.292280    0.909560
  H     11.913330    3.853790    0.537020
  H     14.748210   -0.782580   -5.265140
  H     16.038530    0.437050   -5.193790
  H     13.685490    0.384990   -7.162100
  H     15.364770    0.005420   -7.550380
  H     14.908840    1.656940   -7.116150
  H     16.140790    2.683260   -5.238740
  H     14.742450    4.884140   -3.622430
  H     17.579450    4.056210   -6.046480
  H     17.692930    8.453130   -3.835410
  H     15.847800    6.912330   -3.358540
  H     19.602120    9.092540   -5.280880
  H     21.409440    6.613340   -5.418580
  H     24.278150   12.343790   -5.920560
  H     21.212460   12.352450   -5.790380
  H     22.314900   13.813630   -5.937660

 Total Charge           Charge          ....    0
 Multiplicity           Mult            ....    1
 Number of Electrons    NEL             ....  500
 Basis Dimension        Dim             .... 1139

ORBITAL ENERGIES
----------------

  NO   OCC          E(Eh)            E(eV)
   0   2.0000     -24.814243      -675.2299
   1   2.0000     -24.810392      -675.1251
   2   2.0000     -24.807155      -675.0370
   3   2.0000     -24.806415      -675.0169
   4   2.0000     -24.803846      -674.9470
   5   2.0000     -24.802725      -674.9165
   6   2.0000     -19.336755      -526.1799
   7   2.0000     -19.330898      -526.0205
   8   2.0000     -19.257237      -524.0161
   9   2.0000     -19.255933      -523.9806
  10   2.0000     -19.241849      -523.5973
  11   2.0000     -19.240348      -523.5565
  12   2.0000     -19.240340      -523.5563
  13   2.0000     -19.239404      -523.5308
  14   2.0000     -19.215243      -522.8733
  15   2.0000     -19.203960      -522.5663
  16   2.0000     -14.661546      -398.9610
  17   2.0000     -14.650483      -398.6599
  18   2.0000     -14.648921      -398.6174
  19   2.0000     -14.473354      -393.8400
  20   2.0000     -14.466052      -393.6413
  21   2.0000     -14.416973      -392.3058
  22   2.0000     -14.415355      -392.2617
  23   2.0000     -10.535575      -286.6876
  24   2.0000     -10.531818      -286.5853
  25   2.0000     -10.395298      -282.8704
  26   2.0000     -10.387795      -282.6663
  27   2.0000     -10.374437      -282.3028
  28   2.0000     -10.374207      -282.2965
  29   2.0000     -10.373997      -282.2908
  30   2.0000     -10.371794      -282.2309
  31   2.0000     -10.360223      -281.9160
  32   2.0000     -10.350426      -281.6494
  33   2.0000     -10.348285      -281.5911
  34   2.0000     -10.338938      -281.3368
  35   2.0000     -10.334474      -281.2153
  36   2.0000     -10.334057      -281.2040
  37   2.0000     -10.332785      -281.1694
  38   2.0000     -10.332194      -281.1533
  39   2.0000     -10.330444      -281.1057
  40   2.0000     -10.328303      -281.0474
  41   2.0000     -10.326647      -281.0024
  42   2.0000     -10.323988      -280.9300
  43   2.0000     -10.323606      -280.9196
  44   2.0000     -10.322117      -280.8791
  45   2.0000     -10.319268      -280.8016
  46   2.0000     -10.319030      -280.7951
  47   2.0000     -10.317111      -280.7429
  48   2.0000     -10.316965      -280.7389
  49   2.0000     -10.315713      -280.7048
  50   2.0000     -10.314591      -280.6743
  51   2.0000     -10.313032      -280.6319
  52   2.0000     -10.312954      -280.6298
  53   2.0000     -10.310555      -280.5645
  54   2.0000     -10.310153      -280.5535
  55   2.0000     -10.309626      -280.5392
  56   2.0000     -10.308568      -280.5104
  57   2.0000     -10.308557      -280.5101
  58   2.0000     -10.306370      -280.4506
  59   2.0000     -10.304455      -280.3985
  60   2.0000     -10.303855      -280.3822
  61   2.0000     -10.303019      -280.3594
  62   2.0000     -10.301056      -280.3060
  63   2.0000     -10.296185      -280.1734
  64   2.0000     -10.294297      -280.1221
  65   2.0000     -10.289432      -279.9897
  66   2.0000     -10.288735      -279.9707
  67   2.0000     -10.284085      -279.8442
  68   2.0000     -10.278962      -279.7048
  69   2.0000     -10.276645      -279.6417
  70   2.0000     -10.267793      -279.4009
  71   2.0000      -1.399852       -38.0919
  72   2.0000      -1.396597       -38.0033
  73   2.0000      -1.338603       -36.4253
  74   2.0000      -1.320383       -35.9294
  75   2.0000      -1.319345       -35.9012
  76   2.0000      -1.305471       -35.5237
  77   2.0000      -1.301797       -35.4237
  78   2.0000      -1.296339       -35.2752
  79   2.0000      -1.293656       -35.2022
  80   2.0000      -1.258840       -34.2548
  81   2.0000      -1.252001       -34.0687
  82   2.0000      -1.157881       -31.5075
  83   2.0000      -1.153847       -31.3978
  84   2.0000      -1.143016       -31.1030
  85   2.0000      -1.136625       -30.9291
  86   2.0000      -1.136434       -30.9239
  87   2.0000      -1.082892       -29.4670
  88   2.0000      -1.071366       -29.1534
  89   2.0000      -1.020951       -27.7815
  90   2.0000      -1.007681       -27.4204
  91   2.0000      -1.003772       -27.3140
  92   2.0000      -1.002279       -27.2734
  93   2.0000      -0.999660       -27.2021
  94   2.0000      -0.957412       -26.0525
  95   2.0000      -0.953492       -25.9458
  96   2.0000      -0.952371       -25.9153
  97   2.0000      -0.944271       -25.6949
  98   2.0000      -0.938302       -25.5325
  99   2.0000      -0.937045       -25.4983
 100   2.0000      -0.920777       -25.0556
 101   2.0000      -0.914204       -24.8767
 102   2.0000      -0.911649       -24.8072
 103   2.0000      -0.906229       -24.6597
 104   2.0000      -0.886795       -24.1309
 105   2.0000      -0.884751       -24.0753
 106   2.0000      -0.880874       -23.9698
 107   2.0000      -0.876568       -23.8526
 108   2.0000      -0.853105       -23.2142
 109   2.0000      -0.847387       -23.0586
 110   2.0000      -0.832971       -22.6663
 111   2.0000      -0.831864       -22.6362
 112   2.0000      -0.817070       -22.2336
 113   2.0000      -0.813683       -22.1414
 114   2.0000      -0.807551       -21.9746
 115   2.0000      -0.798026       -21.7154
 116   2.0000      -0.795495       -21.6465
 117   2.0000      -0.773647       -21.0520
 118   2.0000      -0.772120       -21.0105
 119   2.0000      -0.767702       -20.8902
 120   2.0000      -0.763763       -20.7831
 121   2.0000      -0.752603       -20.4794
 122   2.0000      -0.734919       -19.9982
 123   2.0000      -0.733778       -19.9671
 124   2.0000      -0.732190       -19.9239
 125   2.0000      -0.726330       -19.7644
 126   2.0000      -0.723949       -19.6996
 127   2.0000      -0.721398       -19.6302
 128   2.0000      -0.720079       -19.5944
 129   2.0000      -0.709373       -19.3030
 130   2.0000      -0.695057       -18.9135
 131   2.0000      -0.686406       -18.6781
 132   2.0000      -0.685298       -18.6479
 133   2.0000      -0.681531       -18.5454
 134   2.0000      -0.679784       -18.4979
 135   2.0000      -0.678372       -18.4594
 136   2.0000      -0.675414       -18.3790
 137   2.0000      -0.668773       -18.1982
 138   2.0000      -0.666332       -18.1318
 139   2.0000      -0.662952       -18.0398
 140   2.0000      -0.653827       -17.7915
 141   2.0000      -0.650872       -17.7111
 142   2.0000      -0.642757       -17.4903
 143   2.0000      -0.640857       -17.4386
 144   2.0000      -0.635456       -17.2916
 145   2.0000      -0.630533       -17.1577
 146   2.0000      -0.630209       -17.1489
 147   2.0000      -0.628141       -17.0926
 148   2.0000      -0.623349       -16.9622
 149   2.0000      -0.620064       -16.8728
 150   2.0000      -0.615505       -16.7487
 151   2.0000      -0.612388       -16.6639
 152   2.0000      -0.608642       -16.5620
 153   2.0000      -0.603403       -16.4194
 154   2.0000      -0.600163       -16.3313
 155   2.0000      -0.598674       -16.2907
 156   2.0000      -0.598545       -16.2872
 157   2.0000      -0.596734       -16.2380
 158   2.0000      -0.595855       -16.2140
 159   2.0000      -0.588640       -16.0177
 160   2.0000      -0.588141       -16.0041
 161   2.0000      -0.585673       -15.9370
 162   2.0000      -0.581898       -15.8342
 163   2.0000      -0.580197       -15.7880
 164   2.0000      -0.576499       -15.6873
 165   2.0000      -0.572663       -15.5830
 166   2.0000      -0.566084       -15.4039
 167   2.0000      -0.560788       -15.2598
 168   2.0000      -0.557070       -15.1586
 169   2.0000      -0.556692       -15.1484
 170   2.0000      -0.556570       -15.1450
 171   2.0000      -0.555252       -15.1092
 172   2.0000      -0.553607       -15.0644
 173   2.0000      -0.549935       -14.9645
 174   2.0000      -0.547657       -14.9025
 175   2.0000      -0.544779       -14.8242
 176   2.0000      -0.542844       -14.7715
 177   2.0000      -0.540785       -14.7155
 178   2.0000      -0.536726       -14.6050
 179   2.0000      -0.533327       -14.5126
 180   2.0000      -0.532784       -14.4978
 181   2.0000      -0.531731       -14.4691
 182   2.0000      -0.522446       -14.2165
 183   2.0000      -0.519939       -14.1483
 184   2.0000      -0.517825       -14.0907
 185   2.0000      -0.517062       -14.0700
 186   2.0000      -0.515953       -14.0398
 187   2.0000      -0.512960       -13.9583
 188   2.0000      -0.509838       -13.8734
 189   2.0000      -0.508590       -13.8394
 190   2.0000      -0.505124       -13.7451
 191   2.0000      -0.502123       -13.6635
 192   2.0000      -0.500153       -13.6098
 193   2.0000      -0.494429       -13.4541
 194   2.0000      -0.493676       -13.4336
 195   2.0000      -0.490865       -13.3571
 196   2.0000      -0.490112       -13.3366
 197   2.0000      -0.489000       -13.3064
 198   2.0000      -0.488501       -13.2928
 199   2.0000      -0.485692       -13.2164
 200   2.0000      -0.484800       -13.1921
 201   2.0000      -0.482551       -13.1309
 202   2.0000      -0.480937       -13.0870
 203   2.0000      -0.478912       -13.0319
 204   2.0000      -0.475544       -12.9402
 205   2.0000      -0.473429       -12.8826
 206   2.0000      -0.471127       -12.8200
 207   2.0000      -0.469337       -12.7713
 208   2.0000      -0.467976       -12.7343
 209   2.0000      -0.467480       -12.7208
 210   2.0000      -0.465425       -12.6649
 211   2.0000      -0.463967       -12.6252
 212   2.0000      -0.462382       -12.5821
 213   2.0000      -0.456477       -12.4214
 214   2.0000      -0.452835       -12.3223
 215   2.0000      -0.451034       -12.2733
 216   2.0000      -0.445036       -12.1101
 217   2.0000      -0.443917       -12.0796
 218   2.0000      -0.443291       -12.0626
 219   2.0000      -0.441546       -12.0151
 220   2.0000      -0.434024       -11.8104
 221   2.0000      -0.431168       -11.7327
 222   2.0000      -0.419863       -11.4251
 223   2.0000      -0.419125       -11.4050
 224   2.0000      -0.417114       -11.3502
 225   2.0000      -0.412790       -11.2326
 226   2.0000      -0.400018       -10.8850
 227   2.0000      -0.395962       -10.7747
 228   2.0000      -0.390885       -10.6365
 229   2.0000      -0.389052       -10.5866
 230   2.0000      -0.386900       -10.5281
 231   2.0000      -0.386160       -10.5080
 232   2.0000      -0.383023       -10.4226
 233   2.0000      -0.381691       -10.3863
 234   2.0000      -0.378478       -10.2989
 235   2.0000      -0.376411       -10.2427
 236   2.0000      -0.368858       -10.0371
 237   2.0000      -0.367383        -9.9970
 238   2.0000      -0.366189        -9.9645
 239   2.0000      -0.363781        -9.8990
 240   2.0000      -0.357635        -9.7317
 241   2.0000      -0.348860        -9.4930
 242   2.0000      -0.344243        -9.3673
 243   2.0000      -0.337910        -9.1950
 244   2.0000      -0.333591        -9.0775
 245   2.0000      -0.331494        -9.0204
 246   2.0000      -0.308851        -8.4043
 247   2.0000      -0.286664        -7.8005
 248   2.0000      -0.282526        -7.6879
 249   2.0000      -0.246035        -6.6949
 250   0.0000      -0.143837        -3.9140
 251   0.0000      -0.099102        -2.6967
 252   0.0000      -0.075621        -2.0578
 253   0.0000      -0.059519        -1.6196
 254   0.0000      -0.046144        -1.2556

MULLIKEN ATOMIC CHARGES
-----------------------
   0 C :    0.132739
   1 O :   -0.155178
   2 C :    0.097853
   3 C :   -0.085568
   4 C :   -0.106718
   5 C :   -0.180032
   6 N :    0.167661
   7 C :    0.519209
   8 F :   -0.164446
   9 F :   -0.164847
  10 F :   -0.130987
  11 C :   -0.022789
  12 C :   -0.024844
  13 C :    0.036457
  14 C :    0.089103
  15 N :    0.270841
  16 O :   -0.254685
  17 O :   -0.243621
  18 C :    0.012956
  19 C :    0.039991
  20 C :    0.035471
  21 C :   -0.007080
  22 C :    0.004261
  23 C :    0.033860
  24 C :    0.063878
  25 N :    0.279020
  26 O :   -0.263566
  27 O :   -0.244082
  28 C :    0.095550
  29 C :   -0.091784
  30 C :   -0.003962
  31 C :    0.136487
  32 N :   -0.252255
  33 C :    0.094364
  34 C :    0.006901
  35 C :    0.170270
  36 O :   -0.214261
  37 C :   -0.078161
  38 C :   -0.059299
  39 C :    0.167335
  40 O :   -0.196863
  41 N :   -0.252211
  42 C :    0.091532
  43 C :    0.003956
  44 C :    0.143998
  45 C :    0.001209
  46 C :    0.006542
  47 C :    0.098435
  48 C :   -0.029375
  49 C :    0.113582
  50 N :    0.226242
  51 O :   -0.225544
  52 O :   -0.215116
  53 C :    0.082491
  54 C :   -0.010939
  55 C :    0.011325
  56 C :   -0.012773
  57 C :   -0.001358
  58 C :    0.115536
  59 O :   -0.183002
  60 C :    0.102538
  61 C :   -0.085147
  62 C :   -0.048175
  63 C :   -0.251213
  64 N :    0.175791
  65 C :    0.512653
  66 F :   -0.162587
  67 F :   -0.165075
  68 F :   -0.133373
  69 C :   -0.022386
  70 C :    0.015969
  71 H :    0.034229
  72 H :    0.043270
  73 H :    0.034508
  74 H :    0.001570
  75 H :   -0.004459
  76 H :    0.001053
  77 H :    0.007454
  78 H :    0.026822
  79 H :    0.000985
  80 H :    0.040221
  81 H :    0.041771
  82 H :    0.022863
  83 H :    0.029659
  84 H :    0.023059
  85 H :    0.048760
  86 H :    0.032064
  87 H :    0.031234
  88 H :    0.032903
  89 H :    0.015745
  90 H :   -0.023666
  91 H :    0.012795
  92 H :   -0.003007
  93 H :   -0.009454
  94 H :    0.011841
  95 H :    0.013979
  96 H :    0.029256
  97 H :    0.021147
  98 H :    0.032800
  99 H :    0.037893
Sum of atomic charges:   -0.0000000

LOEWDIN ATOMIC CHARGES
----------------------
   0 C :    0.091797
   1 O :    0.054843
   2 C :    0.052170
   3 C :   -0.103801
   4 C :   -0.097419
   5 C :   -0.039233
   6 N :   -0.031766
   7 C :    0.170201
   8 F :   -0.066603
   9 F :   -0.065348
  10 F :   -0.031915
  11 C :   -0.021335
  12 C :    0.001749
  13 C :    0.002344
  14 C :   -0.036666
  15 N :    0.284959
  16 O :   -0.216052
  17 O :   -0.208383
  18 C :    0.011744
  19 C :   -0.022947
  20 C :    0.042583
  21 C :    0.045307
  22 C :   -0.043785
  23 C :    0.020945
  24 C :   -0.048845
  25 N :    0.287218
  26 O :   -0.224406
  27 O :   -0.207863
  28 C :    0.005925
  29 C :    0.002788
  30 C :   -0.005708
  31 C :    0.064393
  32 N :    0.006750
  33 C :    0.038566
  34 C :   -0.058695
  35 C :    0.078556
  36 O :   -0.203751
  37 C :   -0.120930
  38 C :   -0.102759
  39 C :    0.083140
  40 O :   -0.182541
  41 N :    0.004995
  42 C :    0.036830
  43 C :   -0.059539
  44 C :    0.087524
  45 C :   -0.047488
  46 C :    0.045031
  47 C :   -0.030078
  48 C :    0.018991
  49 C :   -0.021740
  50 N :    0.279012
  51 O :   -0.194974
  52 O :   -0.187444
  53 C :   -0.002966
  54 C :   -0.004097
  55 C :    0.019046
  56 C :   -0.002209
  57 C :   -0.019911
  58 C :    0.067730
  59 O :    0.040260
  60 C :    0.063783
  61 C :   -0.107222
  62 C :   -0.088409
  63 C :   -0.041138
  64 N :   -0.034090
  65 C :    0.169485
  66 F :   -0.063424
  67 F :   -0.066897
  68 F :   -0.033934
  69 C :   -0.041632
  70 C :   -0.005280
  71 H :    0.040111
  72 H :    0.040728
  73 H :    0.041405
  74 H :    0.037663
  75 H :    0.030955
  76 H :    0.031409
  77 H :    0.039717
  78 H :    0.038962
  79 H :    0.029084
  80 H :    0.030229
  81 H :    0.037119
  82 H :    0.025196
  83 H :    0.034093
  84 H :    0.029385
  85 H :    0.039643
  86 H :    0.025971
  87 H :    0.033118
  88 H :    0.034682
  89 H :    0.022148
  90 H :    0.029323
  91 H :    0.039248
  92 H :    0.037414
  93 H :    0.037175
  94 H :    0.043130
  95 H :    0.037403
  96 H :    0.044405
  97 H :    0.042245
  98 H :    0.028476
  99 H :    0.034117

  Mayer bond orders larger than 0.100000
B(  0-C ,  1-O ) :   1.1792 B(  0-C ,  4-C ) :   1.5090 B(  0-C , 71-H ) :   1.0151
B(  1-O ,  2-C ) :   1.1683 B(  2-C ,  3-C ) :   1.4684 B(  2-C , 11-C ) :   1.1724
B(  3-C ,  4-C ) :   1.2936 B(  3-C ,  7-C ) :   0.9320 B(  4-C ,  5-C ) :   1.0959
B(  5-C ,  6-N ) :   3.0510 B(  7-C ,  8-F ) :   1.1697 B(  7-C ,  9-F ) :   1.1612
B(  7-C , 10-F ) :   1.1929 B( 11-C , 12-C ) :   1.6026 B( 11-C , 72-H ) :   0.9322
B( 12-C , 13-C ) :   1.1438 B( 12-C , 73-H ) :   0.9642 B( 13-C , 14-C ) :   1.5168
B( 13-C , 20-C ) :   1.0256 B( 14-C , 15-N ) :   0.9435 B( 14-C , 18-C ) :   1.1382
B( 15-N , 16-O ) :   1.4956 B( 15-N , 17-O ) :   1.5380 B( 16-O , 17-O ) :   0.2627
B( 18-C , 19-C ) :   1.5693 B( 18-C , 74-H ) :   1.0103 B( 19-C , 20-C ) :   1.1447
B( 19-C , 75-H ) :   1.0018 B( 20-C , 21-C ) :   1.4791 B( 21-C , 22-C ) :   1.1546
B( 21-C , 28-C ) :   1.0140 B( 22-C , 23-C ) :   1.5496 B( 22-C , 76-H ) :   0.9989
B( 23-C , 24-C ) :   1.1586 B( 23-C , 77-H ) :   1.0045 B( 24-C , 25-N ) :   0.9662
B( 24-C , 28-C ) :   1.4242 B( 25-N , 26-O ) :   1.4567 B( 25-N , 27-O ) :   1.5399
B( 26-O , 27-O ) :   0.2483 B( 26-O , 79-H ) :   0.1056 B( 28-C , 29-C ) :   1.2022
B( 29-C , 30-C ) :   1.5133 B( 29-C , 78-H ) :   0.9415 B( 30-C , 31-C ) :   1.1810
B( 30-C , 79-H ) :   0.9472 B( 31-C , 32-N ) :   1.1583 B( 31-C , 38-C ) :   1.2851
B( 32-N , 33-C ) :   0.9344 B( 32-N , 35-C ) :   1.0789 B( 33-C , 34-C ) :   1.1262
B( 33-C , 80-H ) :   0.9481 B( 33-C , 81-H ) :   0.9286 B( 34-C , 82-H ) :   0.9678
B( 34-C , 83-H ) :   0.9670 B( 34-C , 84-H ) :   0.9633 B( 35-C , 36-O ) :   2.0167
B( 35-C , 37-C ) :   0.9822 B( 36-O , 91-H ) :   0.1209 B( 37-C , 38-C ) :   1.2933
B( 37-C , 44-C ) :   1.3069 B( 38-C , 39-C ) :   0.9808 B( 39-C , 40-O ) :   2.0182
B( 39-C , 41-N ) :   1.0587 B( 40-O , 78-H ) :   0.1076 B( 41-N , 42-C ) :   0.9374
B( 41-N , 44-C ) :   1.1765 B( 42-C , 43-C ) :   1.1223 B( 42-C , 85-H ) :   0.9279
B( 42-C , 86-H ) :   0.9494 B( 43-C , 87-H ) :   0.9636 B( 43-C , 88-H ) :   0.9675
B( 43-C , 89-H ) :   0.9684 B( 44-C , 45-C ) :   1.1625 B( 45-C , 46-C ) :   1.5971
B( 45-C , 90-H ) :   0.9561 B( 46-C , 47-C ) :   1.0808 B( 46-C , 91-H ) :   0.9632
B( 47-C , 48-C ) :   1.2848 B( 47-C , 55-C ) :   1.3196 B( 48-C , 49-C ) :   1.4234
B( 48-C , 92-H ) :   0.9847 B( 49-C , 50-N ) :   0.8585 B( 49-C , 53-C ) :   1.3497
B( 50-N , 51-O ) :   1.5374 B( 50-N , 52-O ) :   1.5544 B( 51-O , 52-O ) :   0.2728
B( 53-C , 54-C ) :   1.3423 B( 53-C , 56-C ) :   1.0330 B( 54-C , 55-C ) :   1.3832
B( 54-C , 93-H ) :   0.9945 B( 55-C , 94-H ) :   1.0030 B( 56-C , 57-C ) :   1.7046
B( 56-C , 95-H ) :   0.9690 B( 57-C , 58-C ) :   1.2154 B( 57-C , 96-H ) :   0.9396
B( 58-C , 59-O ) :   1.1655 B( 58-C , 62-C ) :   1.4244 B( 59-O , 60-C ) :   1.1514
B( 60-C , 61-C ) :   1.4764 B( 60-C , 69-C ) :   1.1337 B( 61-C , 62-C ) :   1.2804
B( 61-C , 65-C ) :   0.9264 B( 62-C , 63-C ) :   1.1276 B( 63-C , 64-N ) :   3.0248
B( 65-C , 66-F ) :   1.1719 B( 65-C , 67-F ) :   1.1745 B( 65-C , 68-F ) :   1.1927
B( 69-C , 70-C ) :   1.9141 B( 69-C , 97-H ) :   0.9421 B( 70-C , 98-H ) :   0.9618
B( 70-C , 99-H ) :   0.9432

-----------------------------------------------------------------------------
         ABSORPTION SPECTRUM VIA TRANSITION ELECTRIC DIPOLE MOMENTS
-----------------------------------------------------------------------------
State   Energy  Wavelength   fosc         T2         TX        TY        TZ
        (cm-1)    (nm)                  (au**2)     (au)      (au)      (au)
-----------------------------------------------------------------------------
   0    6294.3   1588.7   0.237368467  12.41511   2.34784   2.59271  -0.42498
   1   12311.1    812.3   0.044335910   1.18559  -0.06595   0.01077   1.08680
   2   16396.4    609.9   0.480277096   9.64316   2.59152   0.87690  -1.46908
   3   17513.1    571.0   0.024335721   0.45746   0.40969   0.42242  -0.33344
   4   21899.8    456.6   0.310352029   4.66541  -1.64396  -1.39885   0.07769
   5   22778.0    439.0   0.126627676   1.83016   1.04080   0.78113   0.36979
   6   23478.1    425.9   0.060457606   0.84774  -0.68513  -0.57084  -0.22908
   7   24190.8    413.4   0.060770754   0.82703   0.38192  -0.48758  -0.66591
   8   24398.6    409.9   0.068785847   0.92813  -0.94755   0.04372  -0.16846
   9   25230.7    396.3   0.131766295   1.71930   0.97243   0.15341   0.86611
  10   25510.9    392.0   0.070567060   0.91065   0.89491  -0.29356  -0.15366
  11   25949.2    385.4   0.071146608   0.90262   0.12016  -0.89990  -0.27994
  12   26628.4    375.5   0.130946106   1.61891   0.01671  -1.16848  -0.50327
  13   27170.4    368.0   0.024892365   0.30161   0.25524   0.39871   0.27838
  14   27668.6    361.4   0.228261324   2.71594  -1.51006  -0.55833   0.35203
  15   28842.0    346.7   0.053883866   0.61505  -0.59260   0.39281   0.33102
  16   29073.8    344.0   0.104471038   1.18296   0.61928   0.89005  -0.08527
  17   29373.1    340.4   0.423107496   4.74216   1.17078   1.82480  -0.20382
  18   29897.3    334.5   0.095433610   1.05086   0.45896  -0.78361  -0.47557
  19   30670.9    326.0   0.093025038   0.99850  -0.76908  -0.48906   0.40967
  20   31062.8    321.9   0.113814908   1.20624   1.00832  -0.13149   0.41501
  21   31247.6    320.0   0.090312751   0.95150  -0.95922  -0.14606  -0.10031
  22   31499.9    317.5   0.002575676   0.02692  -0.10759   0.12320  -0.01282
  23   31679.4    315.7   0.005521661   0.05738   0.23135  -0.06137   0.00953
  24   31861.8    313.9   0.460851039   4.76174  -2.10854   0.55528   0.08644
  25   32305.4    309.5   0.192135501   1.95798   1.32009  -0.45332   0.09921
  26   33617.3    297.5   0.017910214   0.17539   0.37316   0.09326   0.16567
  27   33830.7    295.6   0.040893281   0.39794   0.29592   0.50513   0.23498
  28   33838.4    295.5   0.002014457   0.01960   0.04604  -0.07456  -0.10917
  29   34373.9    290.9   0.027799932   0.26625   0.35994  -0.23876  -0.28228
  30   34621.7    288.8   0.029762249   0.28300   0.18410   0.36098  -0.34468
  31   35250.3    283.7   0.010740535   0.10031  -0.31157   0.00786   0.05629
  32   35723.1    279.9   0.043889698   0.40447  -0.24980   0.47271   0.34441
  33   35852.0    278.9   0.023359530   0.21450  -0.20780  -0.36137  -0.20183
  34   35968.8    278.0   0.112159315   1.02656  -0.96491  -0.25677  -0.17199
  35   36147.1    276.6   0.104420860   0.95102  -0.90037   0.28547  -0.24262
  36   36847.4    271.4   0.086604488   0.77376  -0.87742  -0.06090  -0.01363
  37   36867.3    271.2   0.147136942   1.31388  -0.48183  -0.95921   0.40205
  38   37053.3    269.9   0.009817357   0.08723   0.27510   0.07773   0.07417
  39   37419.1    267.2   0.014674913   0.12911   0.35572   0.03707  -0.03459
  40   38072.9    262.7   0.014571815   0.12600  -0.13401   0.24125   0.22325
  41   38617.2    259.0   0.006392065   0.05449  -0.01783  -0.20951  -0.10138
  42   39094.0    255.8   0.025919806   0.21827  -0.43496  -0.05184  -0.16247
  43   39326.9    254.3   0.037640884   0.31510  -0.27117  -0.48991   0.03944
  44   39562.8    252.8   0.032196090   0.26791   0.47918   0.18796  -0.05454
  45   39669.0    252.1   0.027010724   0.22416   0.34012  -0.28252  -0.16930
  46   40020.6    249.9   0.036949450   0.30395   0.32158   0.38262  -0.23267
  47   40257.7    248.4   0.028090828   0.22972  -0.45425  -0.10191   0.11396

FINAL SINGLE POINT ENERGY     -3576.458997983547

DIPOLE MOMENT
-------------
                                X             Y             Z
Electronic contribution:     15.22218      -7.43044     -25.03258
Nuclear contribution   :    -15.24220       9.68775      26.31874
                        -----------------------------------------
Total Dipole Moment    :     -0.02002       2.25731       1.28616
                        -----------------------------------------
Magnitude (a.u.)       :      2.59809
Magnitude (Debye)      :      6.60382

Rotational constants in cm-1:     0.001969     0.000247     0.000237
Rotational constants in MHz :    59.026017     7.417298     7.114402

                             ****ORCA TERMINATED NORMALLY****
TOTAL RUN TIME: 0 days 0 hours 10 minutes 28 seconds 496 msec
