                         Program Version 4.2.0 -  RELEASE  -
|  1> # ORCA input file
|  2> # SCF done       -178.468107917656          0.000934740824
|  3> ! CAM-B3LYP def2-SVP def2/J RIJCOSX Grid4 TightSCF
|  4> %maxcore 5000
|  5> %tddft
|  6>     Mode sTDDFT
|  7>     Ethresh 5.0
|  8>     maxcore 5000
|  9> end
| 10>
| 11> %pal
| 12>   nprocs 6
| 13>   end
| 14> * xyz 0 1
| 15>    C       -4.65108         2.57588         2.43619
| 16>    S       -3.65492         3.92722         2.76806
| 17>    C       -4.86117         5.01707         2.12108
| 18>    C       -5.95637         4.32258         1.66269
| 19>    C       -5.82828         2.92317         1.84245
| 20>    C       -6.87153         1.95312         1.38913
| 21>    C       -8.19019         2.65252         1.06708
| 22>    F       -8.98513         1.76575         0.37237
| 23>    C       -7.94142         3.89901         0.21560
| 24>    F       -9.14414         4.46226        -0.14796
| 25>    C       -7.15017         4.93126         1.01233
| 26>    C       -4.58786         6.42472         2.12763
| 27>    C       -5.32906         7.46585         2.65772
| 28>    N       -6.54134         7.40546         3.35847
| 29>    O       -6.98858         8.45125         3.79885
| 30>    O       -7.07304         6.31572         3.52032
| 31>    C       -4.58067         8.69610         2.53100
| 32>    C       -3.37339         8.41352         1.99132
| 33>    C       -3.31917         7.00452         1.69073
| 34>    C       -2.34814         6.35837         0.94997
| 35>    C       -2.55060         5.26580         0.05623
| 36>    C       -1.44843         5.12759        -0.73739
| 37>    C       -0.45612         6.06943        -0.33007
| 38>    N        0.81049         6.14199        -0.91012
| 39>    O        1.60518         6.99094        -0.50418
| 40>    O        1.07203         5.35653        -1.80569
| 41>    C       -0.95917         6.81674         0.74796
| 42>    C       -0.19403         7.66004         1.55265
| 43>    C       -0.47652         8.11464         2.81932
| 44>    C        0.37563         8.96899         3.51899
| 45>    S       -0.06359         9.52324         5.12361
| 46>    C        1.34324        10.53201         5.30718
| 47>    C        2.15194        10.42140         4.16483
| 48>    C        1.60560         9.55221         3.17527
| 49>    N        2.46121         9.51006         2.12647
| 50>    C        3.53980        10.31510         2.41625
| 51>    C        4.61212        10.48485         1.52599
| 52>    N        5.49783        10.64507         0.81644
| 53>    C        3.38354        10.89469         3.65872
| 54>    C        1.47562        11.29552         6.48572
| 55>    C        2.45634        12.20393         6.71896
| 56>    C        2.59818        13.01120         7.89685
| 57>    C        3.59559        13.98921         7.92579
| 58>    C        3.76768        14.81551         9.02175
| 59>    N        4.77747        15.83693         8.89657
| 60>    O        5.67027        15.63723         8.10148
| 61>    O        4.66980        16.84272         9.56838
| 62>    C        2.96268        14.69379        10.17418
| 63>    C        1.97197        13.69820        10.13331
| 64>    C        1.78619        12.89114         9.03954
| 65>    C        3.17689        15.49760        11.35123
| 66>    C        2.20996        15.80830        12.23803
| 67>    C        2.34393        16.63690        13.39232
| 68>    S        1.01721        16.61923        14.52905
| 69>    C        1.80848        17.74416        15.54000
| 70>    C        3.01494        18.13815        15.03779
| 71>    C        3.33147        17.51235        13.80790
| 72>    C        4.60307        17.81272        13.08239
| 73>    C        5.29021        19.07260        13.61000
| 74>    F        6.57977        19.08392        13.12707
| 75>    C        5.32091        19.08428        15.13885
| 76>    F        6.00745        20.19356        15.58159
| 77>    C        3.90141        19.14815        15.69264
| 78>    H       -4.31317         1.59350         2.70028
| 79>    H       -7.03673         1.18473         2.14659
| 80>    H       -6.53109         1.44574         0.47985
| 81>    H       -8.74769         2.92654         1.97064
| 82>    H       -7.44163         3.62007        -0.72166
| 83>    H       -7.80509         5.33173         1.79617
| 84>    H       -6.86531         5.76560         0.36725
| 85>    H       -4.96454         9.65089         2.83432
| 86>    H       -2.61453         9.11997         1.71746
| 87>    H       -3.47491         4.73409        -0.05685
| 88>    H       -1.31545         4.43875        -1.55040
| 89>    H        0.77209         7.89957         1.13722
| 90>    H       -1.37688         7.79770         3.32582
| 91>    H        2.38189         8.96341         1.28099
| 92>    H        4.08598        11.55837         4.11922
| 93>    H        0.70114        11.13298         7.22246
| 94>    H        3.19787        12.37259         5.95274
| 95>    H        4.24362        14.13293         7.07274
| 96>    H        1.35691        13.54890        11.00662
| 97>    H        1.01224        12.14120         9.07077
| 98>    H        4.17005        15.88639        11.49348
| 99>    H        1.20679        15.43205        12.08219
|100>    H        1.34443        18.06067        16.45293
|101>    H        4.42364        17.93079        12.01113
|102>    H        5.30717        16.98316        13.21262
|103>    H        4.81556        19.98980        13.23984
|104>    H        5.87455        18.21269        15.51001
|105>    H        3.51351        20.15478        15.50410
|106>    H        3.91765        19.00325        16.77444
|107> *
|108>
|109>                          ****END OF INPUT****

CARTESIAN COORDINATES (ANGSTROEM)
---------------------------------
  C     -4.651080    2.575880    2.436190
  S     -3.654920    3.927220    2.768060
  C     -4.861170    5.017070    2.121080
  C     -5.956370    4.322580    1.662690
  C     -5.828280    2.923170    1.842450
  C     -6.871530    1.953120    1.389130
  C     -8.190190    2.652520    1.067080
  F     -8.985130    1.765750    0.372370
  C     -7.941420    3.899010    0.215600
  F     -9.144140    4.462260   -0.147960
  C     -7.150170    4.931260    1.012330
  C     -4.587860    6.424720    2.127630
  C     -5.329060    7.465850    2.657720
  N     -6.541340    7.405460    3.358470
  O     -6.988580    8.451250    3.798850
  O     -7.073040    6.315720    3.520320
  C     -4.580670    8.696100    2.531000
  C     -3.373390    8.413520    1.991320
  C     -3.319170    7.004520    1.690730
  C     -2.348140    6.358370    0.949970
  C     -2.550600    5.265800    0.056230
  C     -1.448430    5.127590   -0.737390
  C     -0.456120    6.069430   -0.330070
  N      0.810490    6.141990   -0.910120
  O      1.605180    6.990940   -0.504180
  O      1.072030    5.356530   -1.805690
  C     -0.959170    6.816740    0.747960
  C     -0.194030    7.660040    1.552650
  C     -0.476520    8.114640    2.819320
  C      0.375630    8.968990    3.518990
  S     -0.063590    9.523240    5.123610
  C      1.343240   10.532010    5.307180
  C      2.151940   10.421400    4.164830
  C      1.605600    9.552210    3.175270
  N      2.461210    9.510060    2.126470
  C      3.539800   10.315100    2.416250
  C      4.612120   10.484850    1.525990
  N      5.497830   10.645070    0.816440
  C      3.383540   10.894690    3.658720
  C      1.475620   11.295520    6.485720
  C      2.456340   12.203930    6.718960
  C      2.598180   13.011200    7.896850
  C      3.595590   13.989210    7.925790
  C      3.767680   14.815510    9.021750
  N      4.777470   15.836930    8.896570
  O      5.670270   15.637230    8.101480
  O      4.669800   16.842720    9.568380
  C      2.962680   14.693790   10.174180
  C      1.971970   13.698200   10.133310
  C      1.786190   12.891140    9.039540
  C      3.176890   15.497600   11.351230
  C      2.209960   15.808300   12.238030
  C      2.343930   16.636900   13.392320
  S      1.017210   16.619230   14.529050
  C      1.808480   17.744160   15.540000
  C      3.014940   18.138150   15.037790
  C      3.331470   17.512350   13.807900
  C      4.603070   17.812720   13.082390
  C      5.290210   19.072600   13.610000
  F      6.579770   19.083920   13.127070
  C      5.320910   19.084280   15.138850
  F      6.007450   20.193560   15.581590
  C      3.901410   19.148150   15.692640
  H     -4.313170    1.593500    2.700280
  H     -7.036730    1.184730    2.146590
  H     -6.531090    1.445740    0.479850
  H     -8.747690    2.926540    1.970640
  H     -7.441630    3.620070   -0.721660
  H     -7.805090    5.331730    1.796170
  H     -6.865310    5.765600    0.367250
  H     -4.964540    9.650890    2.834320
  H     -2.614530    9.119970    1.717460
  H     -3.474910    4.734090   -0.056850
  H     -1.315450    4.438750   -1.550400
  H      0.772090    7.899570    1.137220
  H     -1.376880    7.797700    3.325820
  H      2.381890    8.963410    1.280990
  H      4.085980   11.558370    4.119220
  H      0.701140   11.132980    7.222460
  H      3.197870   12.372590    5.952740
  H      4.243620   14.132930    7.072740
  H      1.356910   13.548900   11.006620
  H      1.012240   12.141200    9.070770
  H      4.170050   15.886390   11.493480
  H      1.206790   15.432050   12.082190
  H      1.344430   18.060670   16.452930
  H      4.423640   17.930790   12.011130
  H      5.307170   16.983160   13.212620
  H      4.815560   19.989800   13.239840
  H      5.874550   18.212690   15.510010
  H      3.513510   20.154780   15.504100
  H      3.917650   19.003250   16.774440

 Total Charge           Charge          ....    0
 Multiplicity           Mult            ....    1
 Number of Electrons    NEL             ....  466
 Basis Dimension        Dim             .... 1039

ORBITAL ENERGIES
----------------

  NO   OCC          E(Eh)            E(eV)
   0   2.0000     -88.993337     -2421.6318
   1   2.0000     -88.964232     -2420.8398
   2   2.0000     -88.963992     -2420.8333
   3   2.0000     -24.748252      -673.4342
   4   2.0000     -24.746950      -673.3987
   5   2.0000     -24.744103      -673.3213
   6   2.0000     -24.742927      -673.2893
   7   2.0000     -19.255199      -523.9606
   8   2.0000     -19.253947      -523.9265
   9   2.0000     -19.236435      -523.4500
  10   2.0000     -19.236277      -523.4457
  11   2.0000     -19.230283      -523.2826
  12   2.0000     -19.229671      -523.2659
  13   2.0000     -14.660580      -398.9347
  14   2.0000     -14.644833      -398.5062
  15   2.0000     -14.640086      -398.3770
  16   2.0000     -14.503148      -394.6507
  17   2.0000     -14.428340      -392.6151
  18   2.0000     -10.366971      -282.0996
  19   2.0000     -10.353085      -281.7218
  20   2.0000     -10.350585      -281.6537
  21   2.0000     -10.348794      -281.6050
  22   2.0000     -10.348201      -281.5889
  23   2.0000     -10.344567      -281.4900
  24   2.0000     -10.343716      -281.4668
  25   2.0000     -10.343688      -281.4661
  26   2.0000     -10.336496      -281.2704
  27   2.0000     -10.331902      -281.1454
  28   2.0000     -10.328788      -281.0606
  29   2.0000     -10.326843      -281.0077
  30   2.0000     -10.326230      -280.9910
  31   2.0000     -10.325158      -280.9618
  32   2.0000     -10.324860      -280.9537
  33   2.0000     -10.321715      -280.8681
  34   2.0000     -10.320090      -280.8239
  35   2.0000     -10.317277      -280.7474
  36   2.0000     -10.316651      -280.7303
  37   2.0000     -10.315989      -280.7123
  38   2.0000     -10.315155      -280.6897
  39   2.0000     -10.312778      -280.6250
  40   2.0000     -10.312753      -280.6243
  41   2.0000     -10.311931      -280.6019
  42   2.0000     -10.311633      -280.5938
  43   2.0000     -10.310073      -280.5514
  44   2.0000     -10.308961      -280.5211
  45   2.0000     -10.306107      -280.4434
  46   2.0000     -10.303477      -280.3719
  47   2.0000     -10.301019      -280.3050
  48   2.0000     -10.300654      -280.2950
  49   2.0000     -10.300408      -280.2883
  50   2.0000     -10.300106      -280.2801
  51   2.0000     -10.292558      -280.0747
  52   2.0000     -10.291625      -280.0494
  53   2.0000     -10.291557      -280.0475
  54   2.0000     -10.289966      -280.0042
  55   2.0000     -10.288727      -279.9705
  56   2.0000     -10.286540      -279.9110
  57   2.0000     -10.285989      -279.8960
  58   2.0000     -10.285736      -279.8891
  59   2.0000     -10.284534      -279.8564
  60   2.0000     -10.282998      -279.8146
  61   2.0000     -10.281130      -279.7638
  62   2.0000     -10.274592      -279.5859
  63   2.0000      -8.088418      -220.0970
  64   2.0000      -8.060249      -219.3305
  65   2.0000      -8.059351      -219.3061
  66   2.0000      -6.057681      -164.8379
  67   2.0000      -6.053607      -164.7270
  68   2.0000      -6.050576      -164.6445
  69   2.0000      -6.029392      -164.0681
  70   2.0000      -6.028675      -164.0486
  71   2.0000      -6.025241      -163.9551
  72   2.0000      -6.024348      -163.9308
  73   2.0000      -6.022675      -163.8853
  74   2.0000      -6.021616      -163.8565
  75   2.0000      -1.335848       -36.3503
  76   2.0000      -1.314680       -35.7743
  77   2.0000      -1.306630       -35.5552
  78   2.0000      -1.268110       -34.5070
  79   2.0000      -1.263587       -34.3839
  80   2.0000      -1.253151       -34.1000
  81   2.0000      -1.248744       -33.9801
  82   2.0000      -1.154199       -31.4074
  83   2.0000      -1.131563       -30.7914
  84   2.0000      -1.125005       -30.6129
  85   2.0000      -1.123289       -30.5662
  86   2.0000      -1.019754       -27.7489
  87   2.0000      -1.014728       -27.6122
  88   2.0000      -1.006332       -27.3837
  89   2.0000      -1.003975       -27.3196
  90   2.0000      -1.000296       -27.2194
  91   2.0000      -0.998286       -27.1647
  92   2.0000      -0.987546       -26.8725
  93   2.0000      -0.950192       -25.8560
  94   2.0000      -0.934822       -25.4378
  95   2.0000      -0.923472       -25.1289
  96   2.0000      -0.917911       -24.9776
  97   2.0000      -0.913691       -24.8628
  98   2.0000      -0.909706       -24.7544
  99   2.0000      -0.905098       -24.6290
 100   2.0000      -0.900755       -24.5108
 101   2.0000      -0.881810       -23.9953
 102   2.0000      -0.879818       -23.9411
 103   2.0000      -0.874910       -23.8075
 104   2.0000      -0.870427       -23.6855
 105   2.0000      -0.855604       -23.2822
 106   2.0000      -0.842507       -22.9258
 107   2.0000      -0.838868       -22.8268
 108   2.0000      -0.827201       -22.5093
 109   2.0000      -0.822607       -22.3843
 110   2.0000      -0.814371       -22.1602
 111   2.0000      -0.810570       -22.0567
 112   2.0000      -0.795454       -21.6454
 113   2.0000      -0.777715       -21.1627
 114   2.0000      -0.770233       -20.9591
 115   2.0000      -0.764002       -20.7895
 116   2.0000      -0.751095       -20.4383
 117   2.0000      -0.735316       -20.0090
 118   2.0000      -0.731826       -19.9140
 119   2.0000      -0.731697       -19.9105
 120   2.0000      -0.728266       -19.8171
 121   2.0000      -0.726701       -19.7745
 122   2.0000      -0.716226       -19.4895
 123   2.0000      -0.705278       -19.1916
 124   2.0000      -0.692679       -18.8487
 125   2.0000      -0.688672       -18.7397
 126   2.0000      -0.682530       -18.5726
 127   2.0000      -0.679978       -18.5032
 128   2.0000      -0.670013       -18.2320
 129   2.0000      -0.663397       -18.0520
 130   2.0000      -0.657542       -17.8926
 131   2.0000      -0.650235       -17.6938
 132   2.0000      -0.644744       -17.5444
 133   2.0000      -0.639678       -17.4065
 134   2.0000      -0.637023       -17.3343
 135   2.0000      -0.632988       -17.2245
 136   2.0000      -0.631332       -17.1794
 137   2.0000      -0.627080       -17.0637
 138   2.0000      -0.626589       -17.0504
 139   2.0000      -0.623277       -16.9602
 140   2.0000      -0.620431       -16.8828
 141   2.0000      -0.616650       -16.7799
 142   2.0000      -0.613478       -16.6936
 143   2.0000      -0.609922       -16.5968
 144   2.0000      -0.602292       -16.3892
 145   2.0000      -0.598912       -16.2972
 146   2.0000      -0.595895       -16.2151
 147   2.0000      -0.591138       -16.0857
 148   2.0000      -0.590363       -16.0646
 149   2.0000      -0.583803       -15.8861
 150   2.0000      -0.578776       -15.7493
 151   2.0000      -0.576795       -15.6954
 152   2.0000      -0.572695       -15.5838
 153   2.0000      -0.570180       -15.5154
 154   2.0000      -0.569623       -15.5002
 155   2.0000      -0.568697       -15.4750
 156   2.0000      -0.565726       -15.3942
 157   2.0000      -0.562970       -15.3192
 158   2.0000      -0.562365       -15.3027
 159   2.0000      -0.558285       -15.1917
 160   2.0000      -0.551641       -15.0109
 161   2.0000      -0.548747       -14.9322
 162   2.0000      -0.546254       -14.8643
 163   2.0000      -0.541164       -14.7258
 164   2.0000      -0.537759       -14.6332
 165   2.0000      -0.533191       -14.5089
 166   2.0000      -0.529180       -14.3997
 167   2.0000      -0.527140       -14.3442
 168   2.0000      -0.525200       -14.2914
 169   2.0000      -0.518736       -14.1155
 170   2.0000      -0.511486       -13.9183
 171   2.0000      -0.507512       -13.8101
 172   2.0000      -0.506904       -13.7936
 173   2.0000      -0.504110       -13.7175
 174   2.0000      -0.500855       -13.6290
 175   2.0000      -0.500102       -13.6085
 176   2.0000      -0.498796       -13.5729
 177   2.0000      -0.493190       -13.4204
 178   2.0000      -0.492082       -13.3902
 179   2.0000      -0.491762       -13.3815
 180   2.0000      -0.489876       -13.3302
 181   2.0000      -0.486462       -13.2373
 182   2.0000      -0.484624       -13.1873
 183   2.0000      -0.482899       -13.1404
 184   2.0000      -0.478920       -13.0321
 185   2.0000      -0.476345       -12.9620
 186   2.0000      -0.473187       -12.8761
 187   2.0000      -0.471487       -12.8298
 188   2.0000      -0.469932       -12.7875
 189   2.0000      -0.462202       -12.5772
 190   2.0000      -0.460043       -12.5184
 191   2.0000      -0.458872       -12.4865
 192   2.0000      -0.457130       -12.4391
 193   2.0000      -0.456726       -12.4282
 194   2.0000      -0.453299       -12.3349
 195   2.0000      -0.451008       -12.2725
 196   2.0000      -0.449355       -12.2276
 197   2.0000      -0.448136       -12.1944
 198   2.0000      -0.447921       -12.1885
 199   2.0000      -0.437738       -11.9115
 200   2.0000      -0.434922       -11.8348
 201   2.0000      -0.433200       -11.7880
 202   2.0000      -0.429441       -11.6857
 203   2.0000      -0.428715       -11.6659
 204   2.0000      -0.421926       -11.4812
 205   2.0000      -0.414191       -11.2707
 206   2.0000      -0.411881       -11.2079
 207   2.0000      -0.405318       -11.0293
 208   2.0000      -0.402048       -10.9403
 209   2.0000      -0.398023       -10.8308
 210   2.0000      -0.392211       -10.6726
 211   2.0000      -0.387173       -10.5355
 212   2.0000      -0.385665       -10.4945
 213   2.0000      -0.383313       -10.4305
 214   2.0000      -0.380788       -10.3618
 215   2.0000      -0.379894       -10.3375
 216   2.0000      -0.379005       -10.3133
 217   2.0000      -0.376576       -10.2472
 218   2.0000      -0.374735       -10.1970
 219   2.0000      -0.370129       -10.0717
 220   2.0000      -0.361984        -9.8501
 221   2.0000      -0.359931        -9.7942
 222   2.0000      -0.357946        -9.7402
 223   2.0000      -0.346147        -9.4191
 224   2.0000      -0.340187        -9.2570
 225   2.0000      -0.334432        -9.1004
 226   2.0000      -0.330193        -8.9850
 227   2.0000      -0.320164        -8.7121
 228   2.0000      -0.316751        -8.6192
 229   2.0000      -0.307661        -8.3719
 230   2.0000      -0.287483        -7.8228
 231   2.0000      -0.278056        -7.5663
 232   2.0000      -0.247097        -6.7238
 233   0.0000      -0.136375        -3.7110
 234   0.0000      -0.091656        -2.4941
 235   0.0000      -0.064994        -1.7686
 236   0.0000      -0.046980        -1.2784
 237   0.0000      -0.033763        -0.9187

MULLIKEN ATOMIC CHARGES
-----------------------
   0 C :   -0.117165
   1 S :    0.150414
   2 C :   -0.286998
   3 C :    0.031985
   4 C :   -0.101453
   5 C :    0.150228
   6 C :    0.192003
   7 F :   -0.248986
   8 C :    0.185252
   9 F :   -0.244847
  10 C :    0.141126
  11 C :    0.040452
  12 C :    0.075724
  13 N :    0.267925
  14 O :   -0.248922
  15 O :   -0.251117
  16 C :    0.004368
  17 C :   -0.016651
  18 C :    0.007833
  19 C :    0.021051
  20 C :    0.012529
  21 C :    0.022894
  22 C :    0.062964
  23 N :    0.286430
  24 O :   -0.300719
  25 O :   -0.255042
  26 C :    0.058251
  27 C :   -0.062248
  28 C :    0.084573
  29 C :   -0.195674
  30 S :    0.173786
  31 C :   -0.130412
  32 C :    0.111364
  33 C :    0.114959
  34 N :   -0.017163
  35 C :   -0.090881
  36 C :   -0.146770
  37 N :    0.180260
  38 C :   -0.047765
  39 C :    0.085336
  40 C :    0.006956
  41 C :    0.112419
  42 C :   -0.070278
  43 C :    0.133659
  44 N :    0.251408
  45 O :   -0.227912
  46 O :   -0.234807
  47 C :    0.073750
  48 C :   -0.030930
  49 C :    0.017506
  50 C :   -0.024568
  51 C :    0.046648
  52 C :   -0.161941
  53 S :    0.122580
  54 C :   -0.115598
  55 C :   -0.092932
  56 C :   -0.055102
  57 C :    0.099686
  58 C :    0.208382
  59 F :   -0.242984
  60 C :    0.189364
  61 F :   -0.246014
  62 C :    0.147548
  63 H :    0.016539
  64 H :    0.025348
  65 H :    0.029059
  66 H :    0.012582
  67 H :   -0.000111
  68 H :    0.051240
  69 H :    0.018566
  70 H :   -0.002240
  71 H :    0.000693
  72 H :   -0.007438
  73 H :    0.005802
  74 H :   -0.039650
  75 H :    0.007867
  76 H :    0.164482
  77 H :    0.004238
  78 H :   -0.019566
  79 H :   -0.028225
  80 H :    0.005754
  81 H :   -0.011057
  82 H :   -0.011649
  83 H :    0.005141
  84 H :   -0.011688
  85 H :    0.016810
  86 H :    0.055553
  87 H :    0.040242
  88 H :    0.006656
  89 H :    0.004855
  90 H :    0.031193
  91 H :    0.023269
Sum of atomic charges:   -0.0000000

LOEWDIN ATOMIC CHARGES
----------------------
   0 C :   -0.182473
   1 S :    0.456358
   2 C :   -0.183010
   3 C :   -0.038667
   4 C :   -0.068718
   5 C :   -0.033984
   6 C :    0.095025
   7 F :   -0.125539
   8 C :    0.093100
   9 F :   -0.122738
  10 C :   -0.043258
  11 C :   -0.015268
  12 C :   -0.045236
  13 N :    0.285590
  14 O :   -0.214031
  15 O :   -0.208523
  16 C :   -0.008338
  17 C :   -0.045441
  18 C :    0.006567
  19 C :    0.048442
  20 C :   -0.061017
  21 C :    0.035468
  22 C :   -0.083455
  23 N :    0.290417
  24 O :   -0.261846
  25 O :   -0.219781
  26 C :    0.023722
  27 C :   -0.044712
  28 C :    0.008610
  29 C :   -0.207103
  30 S :    0.473623
  31 C :   -0.135287
  32 C :   -0.071542
  33 C :    0.014452
  34 N :    0.095966
  35 C :   -0.021656
  36 C :   -0.045960
  37 N :   -0.022323
  38 C :   -0.029089
  39 C :   -0.046777
  40 C :    0.009648
  41 C :   -0.034331
  42 C :    0.014218
  43 C :   -0.031116
  44 N :    0.287149
  45 O :   -0.195689
  46 O :   -0.194749
  47 C :    0.008842
  48 C :   -0.007682
  49 C :    0.014201
  50 C :   -0.033018
  51 C :   -0.020052
  52 C :   -0.181157
  53 S :    0.444205
  54 C :   -0.186188
  55 C :   -0.069578
  56 C :   -0.050889
  57 C :   -0.041484
  58 C :    0.096502
  59 F :   -0.121251
  60 C :    0.092724
  61 F :   -0.123790
  62 C :   -0.034311
  63 H :    0.024547
  64 H :    0.040341
  65 H :    0.040528
  66 H :    0.022620
  67 H :    0.016110
  68 H :    0.042253
  69 H :    0.036633
  70 H :    0.035348
  71 H :    0.029565
  72 H :    0.029204
  73 H :    0.039482
  74 H :    0.021421
  75 H :    0.037838
  76 H :    0.106194
  77 H :    0.036753
  78 H :    0.029403
  79 H :    0.033086
  80 H :    0.040307
  81 H :    0.034924
  82 H :    0.032510
  83 H :    0.028329
  84 H :    0.026058
  85 H :    0.024057
  86 H :    0.046900
  87 H :    0.041236
  88 H :    0.020499
  89 H :    0.019352
  90 H :    0.041255
  91 H :    0.039474

  Mayer bond orders larger than 0.100000
B(  0-C ,  1-S ) :   1.1711 B(  0-C ,  2-C ) :   0.1035 B(  0-C ,  4-C ) :   1.5675
B(  0-C , 63-H ) :   0.9725 B(  1-S ,  2-C ) :   1.1459 B(  2-C ,  3-C ) :   1.5407
B(  2-C , 11-C ) :   1.0364 B(  3-C ,  4-C ) :   1.2877 B(  3-C , 10-C ) :   1.0290
B(  4-C ,  5-C ) :   0.9875 B(  5-C ,  6-C ) :   1.0395 B(  5-C , 64-H ) :   0.9174
B(  5-C , 65-H ) :   0.9099 B(  6-C ,  7-F ) :   1.0238 B(  6-C ,  8-C ) :   1.0133
B(  6-C , 66-H ) :   0.9364 B(  8-C ,  9-F ) :   1.0320 B(  8-C , 10-C ) :   1.0305
B(  8-C , 67-H ) :   0.9385 B( 10-C , 68-H ) :   0.8784 B( 10-C , 69-H ) :   0.9049
B( 11-C , 12-C ) :   1.5663 B( 11-C , 18-C ) :   1.0992 B( 12-C , 13-N ) :   0.9517
B( 12-C , 16-C ) :   1.1224 B( 13-N , 14-O ) :   1.5282 B( 13-N , 15-O ) :   1.4845
B( 14-O , 15-O ) :   0.2570 B( 16-C , 17-C ) :   1.5918 B( 16-C , 70-H ) :   1.0126
B( 17-C , 18-C ) :   1.1116 B( 17-C , 71-H ) :   1.0037 B( 18-C , 19-C ) :   1.4522
B( 19-C , 20-C ) :   1.1830 B( 19-C , 26-C ) :   0.9847 B( 20-C , 21-C ) :   1.5183
B( 20-C , 72-H ) :   1.0064 B( 21-C , 22-C ) :   1.1502 B( 21-C , 73-H ) :   1.0127
B( 22-C , 23-N ) :   0.9953 B( 22-C , 26-C ) :   1.3978 B( 23-N , 24-O ) :   1.4454
B( 23-N , 25-O ) :   1.5312 B( 24-O , 25-O ) :   0.2330 B( 26-C , 27-C ) :   1.3363
B( 27-C , 28-C ) :   1.4276 B( 27-C , 74-H ) :   0.9336 B( 28-C , 29-C ) :   1.2777
B( 28-C , 75-H ) :   0.9432 B( 29-C , 30-S ) :   1.0781 B( 29-C , 33-C ) :   1.2802
B( 30-S , 31-C ) :   1.1696 B( 31-C , 32-C ) :   1.2637 B( 31-C , 39-C ) :   1.1767
B( 32-C , 33-C ) :   1.2641 B( 32-C , 38-C ) :   1.1796 B( 33-C , 34-N ) :   1.2290
B( 34-N , 35-C ) :   1.2083 B( 34-N , 76-H ) :   0.9205 B( 35-C , 36-C ) :   1.0503
B( 35-C , 38-C ) :   1.5951 B( 36-C , 37-N ) :   3.0573 B( 38-C , 77-H ) :   1.0081
B( 39-C , 40-C ) :   1.6261 B( 39-C , 78-H ) :   0.9483 B( 40-C , 41-C ) :   1.1105
B( 40-C , 79-H ) :   0.9850 B( 41-C , 42-C ) :   1.2845 B( 41-C , 49-C ) :   1.2892
B( 42-C , 43-C ) :   1.3706 B( 42-C , 80-H ) :   0.9981 B( 43-C , 44-N ) :   0.8823
B( 43-C , 47-C ) :   1.3404 B( 44-N , 45-O ) :   1.5578 B( 44-N , 46-O ) :   1.5093
B( 45-O , 46-O ) :   0.2640 B( 47-C , 48-C ) :   1.3140 B( 47-C , 50-C ) :   1.0848
B( 48-C , 49-C ) :   1.4450 B( 48-C , 81-H ) :   0.9856 B( 49-C , 82-H ) :   0.9891
B( 50-C , 51-C ) :   1.7336 B( 50-C , 83-H ) :   0.9429 B( 51-C , 52-C ) :   1.1191
B( 51-C , 84-H ) :   0.9470 B( 52-C , 53-S ) :   1.1369 B( 52-C , 56-C ) :   1.5198
B( 53-S , 54-C ) :   1.1722 B( 54-C , 55-C ) :   1.5631 B( 54-C , 85-H ) :   0.9719
B( 55-C , 56-C ) :   1.3057 B( 55-C , 62-C ) :   0.9917 B( 56-C , 57-C ) :   1.0196
B( 57-C , 58-C ) :   1.0190 B( 57-C , 86-H ) :   0.9063 B( 57-C , 87-H ) :   0.8982
B( 58-C , 59-F ) :   1.0368 B( 58-C , 60-C ) :   1.0155 B( 58-C , 88-H ) :   0.9366
B( 60-C , 61-F ) :   1.0305 B( 60-C , 62-C ) :   1.0349 B( 60-C , 89-H ) :   0.9389
B( 62-C , 90-H ) :   0.9102 B( 62-C , 91-H ) :   0.9192

-----------------------------------------------------------------------------
         ABSORPTION SPECTRUM VIA TRANSITION ELECTRIC DIPOLE MOMENTS
-----------------------------------------------------------------------------
State   Energy  Wavelength   fosc         T2         TX        TY        TZ
        (cm-1)    (nm)                  (au**2)     (au)      (au)      (au)
-----------------------------------------------------------------------------
   0    7877.3   1269.5   0.357798904  14.95332  -2.33909  -2.32276  -2.02158
   1   14242.8    702.1   0.026848841   0.62059  -0.22725   0.11737  -0.74510
   2   18315.9    546.0   1.203466732  21.63126   0.83513   2.72139   3.67802
   3   19527.7    512.1   0.150112932   2.53071   0.20457  -0.79155  -1.36467
   4   21030.4    475.5   0.080556281   1.26103  -0.35659   0.77701   0.72810
   5   23379.6    427.7   0.044420235   0.62549  -0.09426  -0.75995  -0.19768
   6   23430.5    426.8   0.012769723   0.17942   0.36728   0.14355  -0.15467
   7   24837.1    402.6   0.126641222   1.67861   0.58795  -0.35978  -1.09703
   8   25599.3    390.6   0.053677179   0.69030  -0.69951  -0.40288   0.19666
   9   26897.8    371.8   0.055394584   0.67799   0.15972  -0.63292  -0.50190
  10   27332.5    365.9   0.011840526   0.14262   0.32808   0.17572  -0.06407
  11   27561.7    362.8   0.135850615   1.62267   0.35406  -0.87552  -0.85486
  12   27712.5    360.8   0.180927767   2.14934   1.12413  -0.06709  -0.93870
  13   28012.3    357.0   0.114588547   1.34669  -0.64362   0.38945   0.88361
  14   29133.1    343.3   0.039462859   0.44594  -0.66586  -0.02883  -0.04180
  15   30558.2    327.2   0.009373537   0.10098   0.30972  -0.06951  -0.01499
  16   31309.9    319.4   0.035565726   0.37396  -0.13863   0.34719   0.48395
  17   31741.2    315.0   0.061959471   0.64263   0.67821  -0.29896  -0.30543
  18   32192.3    310.6   0.004545043   0.04648   0.11853  -0.00502  -0.18001
  19   32385.2    308.8   0.154790629   1.57353   1.16209  -0.17467  -0.43881
  20   32644.7    306.3   0.238388998   2.40408  -0.35552   1.07828   1.05594
  21   32696.3    305.8   0.052808293   0.53171  -0.18010  -0.43781  -0.55462
  22   32950.7    303.5   0.013692185   0.13680   0.08201   0.26065   0.24927
  23   33188.6    301.3   0.216391280   2.14648   0.28145  -0.76883  -1.21498
  24   34352.6    291.1   0.059139189   0.56675   0.19745  -0.62014  -0.37840
  25   34554.6    289.4   0.007881842   0.07509   0.21696  -0.11046  -0.12577
  26   34819.3    287.2   0.040567259   0.38356   0.05831   0.60615   0.11285
  27   35253.5    283.7   0.103494887   0.96648   0.81314  -0.02461  -0.55198
  28   35445.5    282.1   0.055461764   0.51512   0.56219  -0.44585  -0.01683
  29   36235.2    276.0   0.042250359   0.38386   0.13803   0.49481   0.34637
  30   36557.0    273.5   0.011553186   0.10404  -0.14950  -0.26741   0.10090
  31   37264.0    268.4   0.520138892   4.59522   1.84910  -0.05287  -1.08316
  32   37593.8    266.0   0.088674789   0.77653  -0.68028   0.13086   0.54464
  33   37860.2    264.1   0.088444068   0.76906  -0.79735  -0.33627   0.14217
  34   38124.1    262.3   0.027136848   0.23433  -0.41456  -0.09973   0.22918
  35   38230.0    261.6   0.011229445   0.09670   0.29309  -0.01769  -0.10240
  36   38656.7    258.7   0.002477725   0.02110  -0.12914  -0.05375   0.03919
  37   38850.7    257.4   0.094855151   0.80378  -0.35518  -0.53377  -0.62667
  38   39247.3    254.8   0.011275820   0.09458  -0.09417  -0.22057  -0.19253
  39   39448.8    253.5   0.030801164   0.25704  -0.47432  -0.07203   0.16394
  40   39609.2    252.5   0.076018146   0.63183  -0.06499   0.67664   0.41202
  41   39732.4    251.7   0.012277553   0.10173  -0.25419  -0.19185  -0.01762
  42   40013.4    249.9   0.017521308   0.14416   0.21702   0.29132   0.11040
  43   40184.9    248.8   0.011949833   0.09790   0.00841   0.27963   0.14012

FINAL SINGLE POINT ENERGY     -4047.075068060022

DIPOLE MOMENT
-------------
                                X             Y             Z
Electronic contribution:     -1.94521      -6.75430     -13.64731
Nuclear contribution   :      1.46017       6.66592      16.83078
                        -----------------------------------------
Total Dipole Moment    :     -0.48504      -0.08838       3.18347
                        -----------------------------------------
Magnitude (a.u.)       :      3.22142
Magnitude (Debye)      :      8.18820

Rotational constants in cm-1:     0.001959     0.000274     0.000245
Rotational constants in MHz :    58.743714     8.206357     7.350110

                             ****ORCA TERMINATED NORMALLY****
TOTAL RUN TIME: 0 days 0 hours 9 minutes 36 seconds 702 msec
