                         Program Version 4.2.0 -  RELEASE  -
|  1> # ORCA input file
|  2> # SCF done       -211.731971640647          0.000554094084
|  3> ! CAM-B3LYP def2-SVP def2/J RIJCOSX Grid4 TightSCF
|  4> %maxcore 5000
|  5> %tddft
|  6>     Mode sTDDFT
|  7>     Ethresh 5.0
|  8>     maxcore 5000
|  9> end
| 10>
| 11> %pal
| 12>   nprocs 6
| 13>   end
| 14> * xyz 0 1
| 15>    C        5.90507         1.42912        -0.13974
| 16>    S        7.00960         2.60288        -0.77746
| 17>    C        5.64171         3.50053        -1.37141
| 18>    C        4.46948         2.81846        -1.03267
| 19>    N        4.66539         1.67466        -0.34413
| 20>    C        3.06637         3.18570        -1.33181
| 21>    O        2.12226         2.72471        -0.75187
| 22>    O        2.97148         4.08526        -2.33129
| 23>    C        1.66063         4.47404        -2.73084
| 24>    C        5.77631         4.72403        -2.07126
| 25>    C        6.96818         5.28428        -2.40940
| 26>    C        7.10638         6.48523        -3.14488
| 27>    C        8.17311         7.37658        -3.10785
| 28>    N        9.39908         7.23422        -2.43294
| 29>    O        9.60294         6.21068        -1.79973
| 30>    O       10.19493         8.15133        -2.52584
| 31>    C        7.83211         8.55715        -3.85025
| 32>    C        6.56074         8.43021        -4.31820
| 33>    C        6.06837         7.12961        -3.97058
| 34>    C        4.94132         6.51768        -4.48922
| 35>    C        4.82161         5.13721        -4.85080
| 36>    C        3.67105         4.96256        -5.55966
| 37>    C        2.97424         6.20839        -5.61757
| 38>    N        1.67272         6.33940        -6.13675
| 39>    O        1.22181         5.39003        -6.75303
| 40>    O        1.06364         7.37349        -5.91963
| 41>    C        3.72722         7.19471        -4.97767
| 42>    C        3.36264         8.53546        -4.76575
| 43>    C        3.78836         9.30048        -3.71060
| 44>    C        3.51480        10.67360        -3.60886
| 45>    N        3.76908        11.43856        -2.50059
| 46>    C        4.35721        10.99410        -1.25858
| 47>    C        5.87973        10.93054        -1.35302
| 48>    C        3.44115        12.79183        -2.70267
| 49>    O        3.51609        13.63944        -1.84378
| 50>    C        2.98353        12.84350        -4.08273
| 51>    C        3.00414        11.54037        -4.59565
| 52>    C        2.55957        11.59059        -5.97818
| 53>    O        2.44757        10.73293        -6.82405
| 54>    N        2.28496        12.95289        -6.20093
| 55>    C        1.75554        13.41043        -7.46458
| 56>    C        0.26239        13.71118        -7.37145
| 57>    C        2.56029        13.72192        -5.09938
| 58>    C        2.50929        15.12697        -5.08247
| 59>    C        2.99507        15.86142        -4.03388
| 60>    C        3.10559        17.26732        -4.02577
| 61>    C        4.16626        17.96886        -3.45723
| 62>    N        5.26901        17.44351        -2.75021
| 63>    O        5.47143        16.24249        -2.79059
| 64>    O        5.96684        18.24094        -2.15120
| 65>    C        4.09375        19.34465        -3.84625
| 66>    C        3.00558        19.51768        -4.64147
| 67>    C        2.27404        18.28295        -4.71294
| 68>    C        0.98133        18.09622        -5.15122
| 69>    C        0.17941        16.91026        -4.93829
| 70>    C       -0.91471        16.96410        -5.72924
| 71>    C       -0.86812        18.19855        -6.47651
| 72>    N       -1.86974        18.58246        -7.38686
| 73>    O       -2.73594        17.76362        -7.63921
| 74>    O       -1.81441        19.70035        -7.87137
| 75>    C        0.21690        18.95448        -6.07626
| 76>    C        0.50707        20.27193        -6.55899
| 77>    C        0.73209        21.34504        -5.76997
| 78>    C        0.99020        22.63603        -6.31117
| 79>    S        1.09283        24.05624        -5.26080
| 80>    C        1.42170        25.02299        -6.65551
| 81>    C        1.42779        24.20458        -7.78689
| 82>    N        1.18933        22.90506        -7.55962
| 83>    C        1.67616        24.66561        -9.17016
| 84>    O        1.88370        25.81205        -9.49187
| 85>    O        1.64474        23.64811       -10.02602
| 86>    C        1.85841        23.97605       -11.39029
| 87>    C        1.64555        26.43689        -6.59830
| 88>    C        1.62384        27.15316        -5.47508
| 89>    H        6.26193         0.56513         0.38468
| 90>    H        1.63402         5.56253        -2.77718
| 91>    H        0.92807         4.10616        -2.01079
| 92>    H        1.45360         4.05305        -3.71536
| 93>    H        4.84975         5.21563        -2.32651
| 94>    H        7.88744         4.83955        -2.04671
| 95>    H        8.50330         9.38313        -3.99143
| 96>    H        6.05058         9.11850        -4.96347
| 97>    H        5.58096         4.39922        -4.68283
| 98>    H        3.31235         4.05648        -6.00989
| 99>    H        2.65456         8.95800        -5.47086
|100>    H        4.34124         8.83428        -2.90703
|101>    H        3.93643        10.02362        -0.98370
|102>    H        4.07003        11.73093        -0.50371
|103>    H        6.19884        10.23841        -2.12993
|104>    H        6.29293        10.60471        -0.40289
|105>    H        6.27666        11.91626        -1.58209
|106>    H        1.92420        12.59604        -8.17423
|107>    H        2.31240        14.29005        -7.79912
|108>    H       -0.27959        12.81584        -7.07760
|109>    H       -0.10768        14.03607        -8.33944
|110>    H        0.06563        14.49391        -6.64235
|111>    H        2.15871        15.63228        -5.97110
|112>    H        3.45891        15.33935        -3.20368
|113>    H        4.82159        20.08059        -3.56103
|114>    H        2.70776        20.43572        -5.10277
|115>    H        0.41193        16.14797        -4.22163
|116>    H       -1.72203        16.26083        -5.80408
|117>    H        0.42137        20.44291        -7.62517
|118>    H        0.66965        21.27495        -4.69216
|119>    H        1.76395        23.04519       -11.94281
|120>    H        2.85333        24.40584       -11.52691
|121>    H        1.11518        24.70128       -11.72822
|122>    H        1.83687        26.89827        -7.55723
|123>    H        1.43146        26.69948        -4.51533
|124>    H        1.79770        28.21421        -5.48463
|125> *
|126>
|127>                          ****END OF INPUT****

CARTESIAN COORDINATES (ANGSTROEM)
---------------------------------
  C      5.905070    1.429120   -0.139740
  S      7.009600    2.602880   -0.777460
  C      5.641710    3.500530   -1.371410
  C      4.469480    2.818460   -1.032670
  N      4.665390    1.674660   -0.344130
  C      3.066370    3.185700   -1.331810
  O      2.122260    2.724710   -0.751870
  O      2.971480    4.085260   -2.331290
  C      1.660630    4.474040   -2.730840
  C      5.776310    4.724030   -2.071260
  C      6.968180    5.284280   -2.409400
  C      7.106380    6.485230   -3.144880
  C      8.173110    7.376580   -3.107850
  N      9.399080    7.234220   -2.432940
  O      9.602940    6.210680   -1.799730
  O     10.194930    8.151330   -2.525840
  C      7.832110    8.557150   -3.850250
  C      6.560740    8.430210   -4.318200
  C      6.068370    7.129610   -3.970580
  C      4.941320    6.517680   -4.489220
  C      4.821610    5.137210   -4.850800
  C      3.671050    4.962560   -5.559660
  C      2.974240    6.208390   -5.617570
  N      1.672720    6.339400   -6.136750
  O      1.221810    5.390030   -6.753030
  O      1.063640    7.373490   -5.919630
  C      3.727220    7.194710   -4.977670
  C      3.362640    8.535460   -4.765750
  C      3.788360    9.300480   -3.710600
  C      3.514800   10.673600   -3.608860
  N      3.769080   11.438560   -2.500590
  C      4.357210   10.994100   -1.258580
  C      5.879730   10.930540   -1.353020
  C      3.441150   12.791830   -2.702670
  O      3.516090   13.639440   -1.843780
  C      2.983530   12.843500   -4.082730
  C      3.004140   11.540370   -4.595650
  C      2.559570   11.590590   -5.978180
  O      2.447570   10.732930   -6.824050
  N      2.284960   12.952890   -6.200930
  C      1.755540   13.410430   -7.464580
  C      0.262390   13.711180   -7.371450
  C      2.560290   13.721920   -5.099380
  C      2.509290   15.126970   -5.082470
  C      2.995070   15.861420   -4.033880
  C      3.105590   17.267320   -4.025770
  C      4.166260   17.968860   -3.457230
  N      5.269010   17.443510   -2.750210
  O      5.471430   16.242490   -2.790590
  O      5.966840   18.240940   -2.151200
  C      4.093750   19.344650   -3.846250
  C      3.005580   19.517680   -4.641470
  C      2.274040   18.282950   -4.712940
  C      0.981330   18.096220   -5.151220
  C      0.179410   16.910260   -4.938290
  C     -0.914710   16.964100   -5.729240
  C     -0.868120   18.198550   -6.476510
  N     -1.869740   18.582460   -7.386860
  O     -2.735940   17.763620   -7.639210
  O     -1.814410   19.700350   -7.871370
  C      0.216900   18.954480   -6.076260
  C      0.507070   20.271930   -6.558990
  C      0.732090   21.345040   -5.769970
  C      0.990200   22.636030   -6.311170
  S      1.092830   24.056240   -5.260800
  C      1.421700   25.022990   -6.655510
  C      1.427790   24.204580   -7.786890
  N      1.189330   22.905060   -7.559620
  C      1.676160   24.665610   -9.170160
  O      1.883700   25.812050   -9.491870
  O      1.644740   23.648110  -10.026020
  C      1.858410   23.976050  -11.390290
  C      1.645550   26.436890   -6.598300
  C      1.623840   27.153160   -5.475080
  H      6.261930    0.565130    0.384680
  H      1.634020    5.562530   -2.777180
  H      0.928070    4.106160   -2.010790
  H      1.453600    4.053050   -3.715360
  H      4.849750    5.215630   -2.326510
  H      7.887440    4.839550   -2.046710
  H      8.503300    9.383130   -3.991430
  H      6.050580    9.118500   -4.963470
  H      5.580960    4.399220   -4.682830
  H      3.312350    4.056480   -6.009890
  H      2.654560    8.958000   -5.470860
  H      4.341240    8.834280   -2.907030
  H      3.936430   10.023620   -0.983700
  H      4.070030   11.730930   -0.503710
  H      6.198840   10.238410   -2.129930
  H      6.292930   10.604710   -0.402890
  H      6.276660   11.916260   -1.582090
  H      1.924200   12.596040   -8.174230
  H      2.312400   14.290050   -7.799120
  H     -0.279590   12.815840   -7.077600
  H     -0.107680   14.036070   -8.339440
  H      0.065630   14.493910   -6.642350
  H      2.158710   15.632280   -5.971100
  H      3.458910   15.339350   -3.203680
  H      4.821590   20.080590   -3.561030
  H      2.707760   20.435720   -5.102770
  H      0.411930   16.147970   -4.221630
  H     -1.722030   16.260830   -5.804080
  H      0.421370   20.442910   -7.625170
  H      0.669650   21.274950   -4.692160
  H      1.763950   23.045190  -11.942810
  H      2.853330   24.405840  -11.526910
  H      1.115180   24.701280  -11.728220
  H      1.836870   26.898270   -7.557230
  H      1.431460   26.699480   -4.515330
  H      1.797700   28.214210   -5.484630

 Total Charge           Charge          ....    0
 Multiplicity           Mult            ....    1
 Number of Electrons    NEL             ....  536
 Basis Dimension        Dim             .... 1224

ORBITAL ENERGIES
----------------

  NO   OCC          E(Eh)            E(eV)
   0   2.0000     -88.984515     -2421.3918
   1   2.0000     -88.975880     -2421.1568
   2   2.0000     -19.271550      -524.4055
   3   2.0000     -19.257554      -524.0247
   4   2.0000     -19.243289      -523.6365
   5   2.0000     -19.242985      -523.6282
   6   2.0000     -19.242846      -523.6244
   7   2.0000     -19.242412      -523.6127
   8   2.0000     -19.241919      -523.5992
   9   2.0000     -19.241887      -523.5984
  10   2.0000     -19.241692      -523.5931
  11   2.0000     -19.241324      -523.5830
  12   2.0000     -19.211296      -522.7659
  13   2.0000     -19.207445      -522.6611
  14   2.0000     -19.207063      -522.6507
  15   2.0000     -19.204471      -522.5802
  16   2.0000     -14.651814      -398.6961
  17   2.0000     -14.651571      -398.6895
  18   2.0000     -14.651019      -398.6745
  19   2.0000     -14.650391      -398.6574
  20   2.0000     -14.468950      -393.7201
  21   2.0000     -14.468362      -393.7042
  22   2.0000     -14.425993      -392.5512
  23   2.0000     -14.419303      -392.3692
  24   2.0000     -10.411396      -283.3085
  25   2.0000     -10.402218      -283.0588
  26   2.0000     -10.389935      -282.7245
  27   2.0000     -10.389704      -282.7182
  28   2.0000     -10.356356      -281.8108
  29   2.0000     -10.355815      -281.7961
  30   2.0000     -10.348429      -281.5951
  31   2.0000     -10.347575      -281.5718
  32   2.0000     -10.341372      -281.4030
  33   2.0000     -10.341348      -281.4024
  34   2.0000     -10.340027      -281.3664
  35   2.0000     -10.339983      -281.3653
  36   2.0000     -10.337926      -281.3093
  37   2.0000     -10.337602      -281.3005
  38   2.0000     -10.336331      -281.2659
  39   2.0000     -10.336094      -281.2594
  40   2.0000     -10.335132      -281.2332
  41   2.0000     -10.332271      -281.1554
  42   2.0000     -10.329685      -281.0850
  43   2.0000     -10.329088      -281.0688
  44   2.0000     -10.328748      -281.0595
  45   2.0000     -10.327580      -281.0277
  46   2.0000     -10.325473      -280.9704
  47   2.0000     -10.325136      -280.9612
  48   2.0000     -10.320145      -280.8254
  49   2.0000     -10.319410      -280.8054
  50   2.0000     -10.319126      -280.7977
  51   2.0000     -10.318519      -280.7812
  52   2.0000     -10.314711      -280.6776
  53   2.0000     -10.314040      -280.6593
  54   2.0000     -10.313224      -280.6371
  55   2.0000     -10.311160      -280.5809
  56   2.0000     -10.310770      -280.5703
  57   2.0000     -10.307896      -280.4921
  58   2.0000     -10.306732      -280.4604
  59   2.0000     -10.306649      -280.4582
  60   2.0000     -10.305923      -280.4384
  61   2.0000     -10.304869      -280.4097
  62   2.0000     -10.303281      -280.3665
  63   2.0000     -10.303000      -280.3589
  64   2.0000     -10.295655      -280.1590
  65   2.0000     -10.295529      -280.1556
  66   2.0000     -10.294286      -280.1218
  67   2.0000     -10.293488      -280.1001
  68   2.0000     -10.284292      -279.8498
  69   2.0000     -10.283203      -279.8202
  70   2.0000     -10.282774      -279.8085
  71   2.0000     -10.279361      -279.7156
  72   2.0000     -10.271853      -279.5113
  73   2.0000     -10.270012      -279.4612
  74   2.0000      -8.080900      -219.8925
  75   2.0000      -8.072121      -219.6536
  76   2.0000      -6.049851      -164.6248
  77   2.0000      -6.045719      -164.5124
  78   2.0000      -6.043431      -164.4501
  79   2.0000      -6.040953      -164.3827
  80   2.0000      -6.037181      -164.2801
  81   2.0000      -6.034600      -164.2098
  82   2.0000      -1.322566       -35.9888
  83   2.0000      -1.322069       -35.9753
  84   2.0000      -1.321971       -35.9727
  85   2.0000      -1.320949       -35.9448
  86   2.0000      -1.199594       -32.6426
  87   2.0000      -1.193440       -32.4751
  88   2.0000      -1.150986       -31.3199
  89   2.0000      -1.144526       -31.1441
  90   2.0000      -1.140292       -31.0289
  91   2.0000      -1.139876       -31.0176
  92   2.0000      -1.139375       -31.0040
  93   2.0000      -1.138687       -30.9852
  94   2.0000      -1.107930       -30.1483
  95   2.0000      -1.097274       -29.8584
  96   2.0000      -1.082615       -29.4595
  97   2.0000      -1.081376       -29.4257
  98   2.0000      -1.077103       -29.3095
  99   2.0000      -1.072571       -29.1861
 100   2.0000      -1.027591       -27.9622
 101   2.0000      -1.026189       -27.9240
 102   2.0000      -1.005850       -27.3706
 103   2.0000      -1.005771       -27.3684
 104   2.0000      -0.947182       -25.7741
 105   2.0000      -0.944729       -25.7074
 106   2.0000      -0.932196       -25.3663
 107   2.0000      -0.930131       -25.3101
 108   2.0000      -0.924892       -25.1676
 109   2.0000      -0.920113       -25.0375
 110   2.0000      -0.917737       -24.9729
 111   2.0000      -0.916748       -24.9460
 112   2.0000      -0.897653       -24.4264
 113   2.0000      -0.888659       -24.1816
 114   2.0000      -0.887421       -24.1480
 115   2.0000      -0.883720       -24.0472
 116   2.0000      -0.879913       -23.9436
 117   2.0000      -0.876953       -23.8631
 118   2.0000      -0.858080       -23.3496
 119   2.0000      -0.852674       -23.2024
 120   2.0000      -0.847880       -23.0720
 121   2.0000      -0.833390       -22.6777
 122   2.0000      -0.833284       -22.6748
 123   2.0000      -0.831038       -22.6137
 124   2.0000      -0.817586       -22.2476
 125   2.0000      -0.814656       -22.1679
 126   2.0000      -0.801136       -21.8000
 127   2.0000      -0.793957       -21.6047
 128   2.0000      -0.782882       -21.3033
 129   2.0000      -0.771585       -20.9959
 130   2.0000      -0.768946       -20.9241
 131   2.0000      -0.741738       -20.1837
 132   2.0000      -0.738902       -20.1066
 133   2.0000      -0.738246       -20.0887
 134   2.0000      -0.735610       -20.0170
 135   2.0000      -0.728606       -19.8264
 136   2.0000      -0.721544       -19.6342
 137   2.0000      -0.721150       -19.6235
 138   2.0000      -0.706096       -19.2138
 139   2.0000      -0.702754       -19.1229
 140   2.0000      -0.690539       -18.7905
 141   2.0000      -0.684121       -18.6159
 142   2.0000      -0.679751       -18.4970
 143   2.0000      -0.674804       -18.3623
 144   2.0000      -0.668094       -18.1798
 145   2.0000      -0.664274       -18.0758
 146   2.0000      -0.662133       -18.0176
 147   2.0000      -0.656864       -17.8742
 148   2.0000      -0.650806       -17.7093
 149   2.0000      -0.647017       -17.6062
 150   2.0000      -0.643299       -17.5051
 151   2.0000      -0.641258       -17.4495
 152   2.0000      -0.638418       -17.3722
 153   2.0000      -0.634160       -17.2564
 154   2.0000      -0.633503       -17.2385
 155   2.0000      -0.633296       -17.2329
 156   2.0000      -0.632558       -17.2128
 157   2.0000      -0.631837       -17.1932
 158   2.0000      -0.626130       -17.0379
 159   2.0000      -0.621861       -16.9217
 160   2.0000      -0.621692       -16.9171
 161   2.0000      -0.618860       -16.8400
 162   2.0000      -0.613009       -16.6808
 163   2.0000      -0.607585       -16.5332
 164   2.0000      -0.606981       -16.5168
 165   2.0000      -0.602183       -16.3862
 166   2.0000      -0.600481       -16.3399
 167   2.0000      -0.594315       -16.1721
 168   2.0000      -0.587362       -15.9829
 169   2.0000      -0.585516       -15.9327
 170   2.0000      -0.584021       -15.8920
 171   2.0000      -0.581990       -15.8368
 172   2.0000      -0.581432       -15.8216
 173   2.0000      -0.580179       -15.7875
 174   2.0000      -0.579266       -15.7626
 175   2.0000      -0.573230       -15.5984
 176   2.0000      -0.572636       -15.5822
 177   2.0000      -0.571187       -15.5428
 178   2.0000      -0.560734       -15.2583
 179   2.0000      -0.554531       -15.0896
 180   2.0000      -0.549666       -14.9572
 181   2.0000      -0.549229       -14.9453
 182   2.0000      -0.545216       -14.8361
 183   2.0000      -0.544490       -14.8163
 184   2.0000      -0.543742       -14.7960
 185   2.0000      -0.542702       -14.7677
 186   2.0000      -0.542029       -14.7494
 187   2.0000      -0.537634       -14.6298
 188   2.0000      -0.537429       -14.6242
 189   2.0000      -0.535079       -14.5603
 190   2.0000      -0.528918       -14.3926
 191   2.0000      -0.526351       -14.3227
 192   2.0000      -0.525924       -14.3111
 193   2.0000      -0.525035       -14.2869
 194   2.0000      -0.522959       -14.2304
 195   2.0000      -0.521011       -14.1774
 196   2.0000      -0.519393       -14.1334
 197   2.0000      -0.516340       -14.0503
 198   2.0000      -0.515157       -14.0181
 199   2.0000      -0.513417       -13.9708
 200   2.0000      -0.506922       -13.7940
 201   2.0000      -0.506333       -13.7780
 202   2.0000      -0.502524       -13.6744
 203   2.0000      -0.498279       -13.5588
 204   2.0000      -0.497289       -13.5319
 205   2.0000      -0.494235       -13.4488
 206   2.0000      -0.493621       -13.4321
 207   2.0000      -0.490993       -13.3606
 208   2.0000      -0.489343       -13.3157
 209   2.0000      -0.488407       -13.2902
 210   2.0000      -0.483573       -13.1587
 211   2.0000      -0.482499       -13.1295
 212   2.0000      -0.481032       -13.0895
 213   2.0000      -0.479359       -13.0440
 214   2.0000      -0.475379       -12.9357
 215   2.0000      -0.473147       -12.8750
 216   2.0000      -0.472424       -12.8553
 217   2.0000      -0.471964       -12.8428
 218   2.0000      -0.465853       -12.6765
 219   2.0000      -0.463016       -12.5993
 220   2.0000      -0.460819       -12.5395
 221   2.0000      -0.459605       -12.5065
 222   2.0000      -0.456632       -12.4256
 223   2.0000      -0.449407       -12.2290
 224   2.0000      -0.445998       -12.1362
 225   2.0000      -0.443282       -12.0623
 226   2.0000      -0.442182       -12.0324
 227   2.0000      -0.436509       -11.8780
 228   2.0000      -0.434687       -11.8284
 229   2.0000      -0.431320       -11.7368
 230   2.0000      -0.429890       -11.6979
 231   2.0000      -0.422886       -11.5073
 232   2.0000      -0.420864       -11.4523
 233   2.0000      -0.397179       -10.8078
 234   2.0000      -0.392887       -10.6910
 235   2.0000      -0.391297       -10.6477
 236   2.0000      -0.389601       -10.6016
 237   2.0000      -0.385390       -10.4870
 238   2.0000      -0.383277       -10.4295
 239   2.0000      -0.382724       -10.4145
 240   2.0000      -0.382300       -10.4029
 241   2.0000      -0.381320       -10.3762
 242   2.0000      -0.380210       -10.3460
 243   2.0000      -0.377711       -10.2780
 244   2.0000      -0.376084       -10.2338
 245   2.0000      -0.372614       -10.1394
 246   2.0000      -0.370706       -10.0874
 247   2.0000      -0.368692       -10.0326
 248   2.0000      -0.368047       -10.0151
 249   2.0000      -0.366884        -9.9834
 250   2.0000      -0.365461        -9.9447
 251   2.0000      -0.364946        -9.9307
 252   2.0000      -0.363955        -9.9037
 253   2.0000      -0.362895        -9.8749
 254   2.0000      -0.359405        -9.7799
 255   2.0000      -0.353076        -9.6077
 256   2.0000      -0.351056        -9.5527
 257   2.0000      -0.349107        -9.4997
 258   2.0000      -0.347159        -9.4467
 259   2.0000      -0.346897        -9.4395
 260   2.0000      -0.343568        -9.3490
 261   2.0000      -0.333288        -9.0692
 262   2.0000      -0.324736        -8.8365
 263   2.0000      -0.314198        -8.5498
 264   2.0000      -0.308444        -8.3932
 265   2.0000      -0.283861        -7.7243
 266   2.0000      -0.279714        -7.6114
 267   2.0000      -0.244599        -6.6559
 268   0.0000      -0.150126        -4.0851
 269   0.0000      -0.134559        -3.6615
 270   0.0000      -0.094725        -2.5776
 271   0.0000      -0.071123        -1.9354
 272   0.0000      -0.058025        -1.5789

MULLIKEN ATOMIC CHARGES
-----------------------
   0 C :    0.012733
   1 S :    0.134125
   2 C :   -0.098414
   3 C :   -0.001125
   4 N :   -0.049886
   5 C :    0.164026
   6 O :   -0.156108
   7 O :   -0.325675
   8 C :    0.157370
   9 C :    0.008466
  10 C :   -0.040626
  11 C :    0.042113
  12 C :    0.081752
  13 N :    0.269205
  14 O :   -0.255745
  15 O :   -0.243196
  16 C :    0.028691
  17 C :    0.000998
  18 C :   -0.002732
  19 C :    0.011083
  20 C :    0.017425
  21 C :    0.013457
  22 C :    0.088273
  23 N :    0.265873
  24 O :   -0.248221
  25 O :   -0.242441
  26 C :    0.042918
  27 C :   -0.014165
  28 C :   -0.058146
  29 C :    0.140468
  30 N :   -0.252763
  31 C :    0.101488
  32 C :    0.004124
  33 C :    0.167410
  34 O :   -0.184248
  35 C :   -0.059030
  36 C :   -0.062147
  37 C :    0.155564
  38 O :   -0.181346
  39 N :   -0.257367
  40 C :    0.095396
  41 C :    0.007388
  42 C :    0.134363
  43 C :   -0.038111
  44 C :   -0.021219
  45 C :    0.017912
  46 C :    0.097459
  47 N :    0.268108
  48 O :   -0.238733
  49 O :   -0.244505
  50 C :    0.023808
  51 C :   -0.003341
  52 C :    0.060948
  53 C :    0.039705
  54 C :   -0.038997
  55 C :    0.029109
  56 C :    0.080495
  57 N :    0.266890
  58 O :   -0.245275
  59 O :   -0.239968
  60 C :    0.025551
  61 C :   -0.018415
  62 C :    0.051939
  63 C :   -0.127362
  64 S :    0.121748
  65 C :   -0.094491
  66 C :    0.007023
  67 N :   -0.012621
  68 C :    0.157259
  69 O :   -0.210474
  70 O :   -0.269340
  71 C :    0.191800
  72 C :   -0.006701
  73 C :   -0.011328
  74 H :    0.053045
  75 H :    0.038580
  76 H :    0.061047
  77 H :    0.043313
  78 H :    0.039202
  79 H :    0.027492
  80 H :    0.010700
  81 H :    0.009698
  82 H :    0.002825
  83 H :    0.007550
  84 H :    0.051494
  85 H :    0.000182
  86 H :    0.022722
  87 H :    0.046736
  88 H :    0.008570
  89 H :    0.027155
  90 H :    0.037710
  91 H :    0.049996
  92 H :    0.026027
  93 H :    0.031864
  94 H :    0.030972
  95 H :    0.001657
  96 H :    0.003823
  97 H :    0.050844
  98 H :    0.009918
  99 H :   -0.007643
 100 H :    0.018967
 101 H :    0.011552
 102 H :    0.054731
 103 H :    0.009031
 104 H :    0.036775
 105 H :    0.029502
 106 H :    0.033142
 107 H :    0.033071
 108 H :    0.021208
 109 H :    0.036344
Sum of atomic charges:   -0.0000000

LOEWDIN ATOMIC CHARGES
----------------------
   0 C :   -0.110934
   1 S :    0.445451
   2 C :   -0.165810
   3 C :   -0.069454
   4 N :   -0.060357
   5 C :    0.079936
   6 O :   -0.141362
   7 O :   -0.099369
   8 C :    0.078815
   9 C :   -0.003589
  10 C :   -0.024456
  11 C :    0.008201
  12 C :   -0.050917
  13 N :    0.284487
  14 O :   -0.218381
  15 O :   -0.208985
  16 C :    0.015475
  17 C :   -0.043898
  18 C :    0.042866
  19 C :    0.041264
  20 C :   -0.030696
  21 C :    0.011901
  22 C :   -0.040577
  23 N :    0.282516
  24 O :   -0.213888
  25 O :   -0.205870
  26 C :   -0.006829
  27 C :    0.033404
  28 C :   -0.028326
  29 C :    0.070404
  30 N :    0.003744
  31 C :    0.038555
  32 C :   -0.062525
  33 C :    0.080815
  34 O :   -0.174471
  35 C :   -0.104175
  36 C :   -0.104395
  37 C :    0.078859
  38 O :   -0.176303
  39 N :    0.002758
  40 C :    0.038135
  41 C :   -0.061729
  42 C :    0.071322
  43 C :   -0.023577
  44 C :    0.031381
  45 C :    0.003678
  46 C :   -0.035233
  47 N :    0.282799
  48 O :   -0.201396
  49 O :   -0.209137
  50 C :    0.021005
  51 C :   -0.039290
  52 C :    0.045350
  53 C :    0.035262
  54 C :   -0.039639
  55 C :    0.000234
  56 C :   -0.035858
  57 N :    0.282883
  58 O :   -0.210674
  59 O :   -0.200940
  60 C :    0.007858
  61 C :    0.011833
  62 C :   -0.043108
  63 C :   -0.133174
  64 S :    0.429205
  65 C :   -0.146299
  66 C :   -0.084138
  67 N :   -0.065421
  68 C :    0.079251
  69 O :   -0.180397
  70 O :   -0.068683
  71 C :    0.082469
  72 C :   -0.040642
  73 C :   -0.025858
  74 H :    0.024965
  75 H :    0.023153
  76 H :    0.028766
  77 H :    0.024641
  78 H :    0.036668
  79 H :    0.031578
  80 H :    0.040365
  81 H :    0.034446
  82 H :    0.033116
  83 H :    0.039260
  84 H :    0.046549
  85 H :    0.031905
  86 H :    0.023693
  87 H :    0.039499
  88 H :    0.019686
  89 H :    0.032982
  90 H :    0.035865
  91 H :    0.039641
  92 H :    0.024038
  93 H :    0.033915
  94 H :    0.034517
  95 H :    0.019506
  96 H :    0.034090
  97 H :    0.044420
  98 H :    0.040786
  99 H :    0.032321
 100 H :    0.033927
 101 H :    0.038354
 102 H :    0.048443
 103 H :    0.031627
 104 H :    0.027184
 105 H :    0.022845
 106 H :    0.024003
 107 H :    0.043360
 108 H :    0.016972
 109 H :    0.031555

  Mayer bond orders larger than 0.100000
B(  0-C ,  1-S ) :   1.1495 B(  0-C ,  4-N ) :   1.7171 B(  0-C , 74-H ) :   0.9650
B(  1-S ,  2-C ) :   1.1412 B(  2-C ,  3-C ) :   1.4438 B(  2-C ,  9-C ) :   1.1967
B(  3-C ,  4-N ) :   1.3996 B(  3-C ,  5-C ) :   0.9247 B(  5-C ,  6-O ) :   2.1964
B(  5-C ,  7-O ) :   1.1807 B(  7-O ,  8-C ) :   0.9054 B(  8-C , 75-H ) :   0.9804
B(  8-C , 76-H ) :   0.9579 B(  8-C , 77-H ) :   0.9776 B(  9-C , 10-C ) :   1.5690
B(  9-C , 78-H ) :   0.9472 B( 10-C , 11-C ) :   1.1972 B( 10-C , 79-H ) :   0.9487
B( 11-C , 12-C ) :   1.4960 B( 11-C , 18-C ) :   1.0144 B( 12-C , 13-N ) :   0.9478
B( 12-C , 16-C ) :   1.1429 B( 13-N , 14-O ) :   1.4931 B( 13-N , 15-O ) :   1.5387
B( 14-O , 15-O ) :   0.2606 B( 16-C , 17-C ) :   1.5398 B( 16-C , 80-H ) :   1.0104
B( 17-C , 18-C ) :   1.1641 B( 17-C , 81-H ) :   0.9983 B( 18-C , 19-C ) :   1.4524
B( 19-C , 20-C ) :   1.1610 B( 19-C , 26-C ) :   1.0207 B( 20-C , 21-C ) :   1.5409
B( 20-C , 82-H ) :   1.0001 B( 21-C , 22-C ) :   1.1527 B( 21-C , 83-H ) :   1.0134
B( 22-C , 23-N ) :   0.9448 B( 22-C , 26-C ) :   1.4651 B( 23-N , 24-O ) :   1.5189
B( 23-N , 25-O ) :   1.5032 B( 24-O , 25-O ) :   0.2619 B( 26-C , 27-C ) :   1.2051
B( 27-C , 28-C ) :   1.5015 B( 27-C , 84-H ) :   0.9283 B( 28-C , 29-C ) :   1.2066
B( 28-C , 85-H ) :   0.9518 B( 29-C , 30-N ) :   1.1719 B( 29-C , 36-C ) :   1.2896
B( 30-N , 31-C ) :   0.9402 B( 30-N , 33-C ) :   1.0508 B( 31-C , 32-C ) :   1.1195
B( 31-C , 86-H ) :   0.9495 B( 31-C , 87-H ) :   0.9279 B( 32-C , 88-H ) :   0.9673
B( 32-C , 89-H ) :   0.9654 B( 32-C , 90-H ) :   0.9607 B( 33-C , 34-O ) :   2.0649
B( 33-C , 35-C ) :   0.9691 B( 35-C , 36-C ) :   1.3086 B( 35-C , 42-C ) :   1.2913
B( 36-C , 37-C ) :   0.9709 B( 37-C , 38-O ) :   2.0818 B( 37-C , 39-N ) :   1.0509
B( 39-N , 40-C ) :   0.9384 B( 39-N , 42-C ) :   1.1680 B( 40-C , 41-C ) :   1.1204
B( 40-C , 91-H ) :   0.9278 B( 40-C , 92-H ) :   0.9489 B( 41-C , 93-H ) :   0.9602
B( 41-C , 94-H ) :   0.9669 B( 41-C , 95-H ) :   0.9653 B( 42-C , 43-C ) :   1.2038
B( 43-C , 44-C ) :   1.5424 B( 43-C , 96-H ) :   0.9509 B( 44-C , 45-C ) :   1.1861
B( 44-C , 97-H ) :   0.9172 B( 45-C , 46-C ) :   1.5203 B( 45-C , 52-C ) :   0.9934
B( 46-C , 47-N ) :   0.9358 B( 46-C , 50-C ) :   1.1376 B( 47-N , 48-O ) :   1.5068
B( 47-N , 49-O ) :   1.5249 B( 48-O , 49-O ) :   0.2658 B( 50-C , 51-C ) :   1.5753
B( 50-C , 98-H ) :   1.0125 B( 51-C , 52-C ) :   1.1108 B( 51-C , 99-H ) :   1.0092
B( 52-C , 53-C ) :   1.5464 B( 53-C , 54-C ) :   1.0932 B( 53-C , 60-C ) :   1.0437
B( 54-C , 55-C ) :   1.6003 B( 54-C ,100-H ) :   0.9915 B( 55-C , 56-C ) :   1.1132
B( 55-C ,101-H ) :   1.0084 B( 56-C , 57-N ) :   0.9399 B( 56-C , 60-C ) :   1.5843
B( 57-N , 58-O ) :   1.5296 B( 57-N , 59-O ) :   1.5060 B( 58-O , 59-O ) :   0.2672
B( 60-C , 61-C ) :   1.0685 B( 61-C , 62-C ) :   1.7506 B( 61-C ,102-H ) :   0.9365
B( 62-C , 63-C ) :   1.0831 B( 62-C ,103-H ) :   0.9510 B( 63-C , 64-S ) :   1.0863
B( 63-C , 67-N ) :   1.7289 B( 64-S , 65-C ) :   1.1442 B( 65-C , 66-C ) :   1.4782
B( 65-C , 72-C ) :   1.1406 B( 66-C , 67-N ) :   1.3717 B( 66-C , 68-C ) :   0.9309
B( 68-C , 69-O ) :   2.0695 B( 68-C , 70-O ) :   1.2924 B( 70-O , 71-C ) :   0.9238
B( 71-C ,104-H ) :   0.9812 B( 71-C ,105-H ) :   0.9765 B( 71-C ,106-H ) :   0.9751
B( 72-C , 73-C ) :   1.8990 B( 72-C ,107-H ) :   0.9423 B( 73-C ,108-H ) :   0.9570
B( 73-C ,109-H ) :   0.9507

-----------------------------------------------------------------------------
         ABSORPTION SPECTRUM VIA TRANSITION ELECTRIC DIPOLE MOMENTS
-----------------------------------------------------------------------------
State   Energy  Wavelength   fosc         T2         TX        TY        TZ
        (cm-1)    (nm)                  (au**2)     (au)      (au)      (au)
-----------------------------------------------------------------------------
   0    5407.9   1849.1   0.315519572  19.20762   1.03911  -4.21067   0.63094
   1    8777.3   1139.3   0.035848625   1.34459  -0.01858   1.15876  -0.03898
   2   11670.5    856.9   0.023756101   0.67013  -0.13068  -0.39565   0.70464
   3   13255.5    754.4   0.043012682   1.06826  -0.15402  -1.00589   0.18088
   4   16469.6    607.2   0.113430140   2.26736   0.09154   1.44576  -0.41080
   5   17231.0    580.3   0.030860171   0.58961  -0.01816   0.74811   0.17208
   6   18034.6    554.5   0.007675721   0.14012  -0.11723   0.26138   0.24094
   7   21111.1    473.7   0.035794364   0.55819  -0.53184   0.14689   0.50374
   8   21112.9    473.6   0.044595584   0.69538   0.04092   0.82661  -0.10205
   9   21676.0    461.3   0.001970122   0.02992  -0.07134  -0.15717   0.01147
  10   22328.5    447.9   0.005700178   0.08404   0.13211   0.10437  -0.23601
  11   23211.3    430.8   0.074704692   1.05956  -0.14299  -0.87607   0.52116
  12   23995.0    416.8   0.018845301   0.25856  -0.14126  -0.41815  -0.25249
  13   24610.3    406.3   0.148330966   1.98423  -0.67635   1.22055  -0.19247
  14   24761.1    403.9   0.084513611   1.12366  -0.24151  -1.01807  -0.16990
  15   25145.9    397.7   0.152826459   2.00081  -0.13975  -1.16820   0.78523
  16   25898.5    386.1   0.024413555   0.31034   0.32909  -0.17714  -0.41311
  17   26091.3    383.3   0.036177263   0.45647   0.19877  -0.19616   0.61521
  18   26253.9    380.9   0.048577304   0.60914   0.19882  -0.62945  -0.41641
  19   26536.9    376.8   0.105187815   1.30494   0.79239   0.72205  -0.39459
  20   26870.5    372.2   0.023290451   0.28535   0.23190   0.44856   0.17425
  21   26979.8    370.6   0.001148397   0.01401   0.04118  -0.09594   0.05579
  22   27055.5    369.6   0.005089560   0.06193   0.03899   0.20824  -0.13056
  23   27128.4    368.6   0.002702198   0.03279  -0.05921   0.16520  -0.04468
  24   27637.7    361.8   0.080672290   0.96094  -0.57691  -0.78414   0.11508
  25   27932.8    358.0   0.091088219   1.07355   0.12235  -0.99255   0.27096
  26   28505.8    350.8   0.167699993   1.93676   1.26598  -0.28812   0.50104
  27   29352.4    340.7   0.011860452   0.13302   0.05097  -0.35909   0.03852
  28   29470.1    339.3   0.008349307   0.09327   0.20210  -0.12002   0.19499
  29   29785.5    335.7   0.032443111   0.35859  -0.09761   0.37810   0.45398
  30   29947.9    333.9   0.008984928   0.09877  -0.02085   0.05855  -0.30807
  31   30023.6    333.1   0.010930962   0.11986  -0.00997   0.21125  -0.27411
  32   30102.9    332.2   0.019426451   0.21245   0.02750  -0.45638  -0.05843
  33   30571.2    327.1   0.014785664   0.15922  -0.06866   0.37090  -0.13016
  34   30577.3    327.0   0.027903889   0.30043  -0.05616   0.51849  -0.16865
  35   30713.7    325.6   0.123981436   1.32892   0.29737  -0.92289   0.62351
  36   30779.5    324.9   0.093834289   1.00363  -0.21425   0.97592  -0.07284
  37   31114.7    321.4   0.227469641   2.40676   1.22993   0.84534   0.42360
  38   31546.4    317.0   0.063643074   0.66417   0.77566   0.13263   0.21197
  39   31716.2    315.3   0.097479017   1.01182   0.55573   0.83808  -0.02469
  40   31777.6    314.7   0.042620862   0.44155   0.24360  -0.41029  -0.46246
  41   31996.7    312.5   0.107100786   1.10195   0.84316   0.47755   0.40371
  42   32047.8    312.0   0.430467215   4.42199   1.63355   0.98222   0.88811
  43   32355.3    309.1   0.212518911   2.16236   0.49783   1.33202   0.37450
  44   32416.6    308.5   0.087551871   0.88915  -0.72464  -0.37683  -0.47122
  45   32714.5    305.7   0.033683106   0.33896   0.36247   0.39095   0.23395
  46   32893.4    304.0   0.362310468   3.62616   1.35204   1.11859   0.73953
  47   33231.6    300.9   0.116941755   1.15850  -0.64169  -0.82804  -0.24714
  48   33297.6    300.3   0.105365879   1.04175   0.85911   0.30393   0.45968
  49   33424.4    299.2   0.026515853   0.26117   0.37804   0.26716   0.21652
  50   33517.1    298.4   0.033279320   0.32688  -0.26769  -0.44884  -0.23187
  51   33737.8    296.4   0.002124935   0.02074   0.05769   0.00369   0.13188
  52   33880.2    295.2   0.268601431   2.60999  -1.32620  -0.87409  -0.29518
  53   34193.7    292.5   0.018626198   0.17933  -0.28523   0.31136   0.03206
  54   34257.1    291.9   0.073435797   0.70572  -0.27523   0.77192  -0.18468
  55   34368.5    291.0   0.010032503   0.09610   0.19974  -0.17689   0.15785
  56   34520.1    289.7   0.005112591   0.04876  -0.15881  -0.05367  -0.14373
  57   34975.1    285.9   0.007770819   0.07314  -0.21707  -0.13359  -0.09043
  58   35085.2    285.0   0.108519339   1.01826  -0.74075  -0.65065  -0.21493
  59   35122.3    284.7   0.134285800   1.25870  -0.97479  -0.05533  -0.55265
  60   35397.5    282.5   0.035549513   0.33063  -0.52603   0.18788  -0.13647
  61   35843.4    279.0   0.023314325   0.21414   0.43037   0.16869   0.02146
  62   36181.4    276.4   0.033878044   0.30825  -0.37009  -0.07783   0.40648
  63   36323.4    275.3   0.050455930   0.45730   0.59078   0.21828   0.24624
  64   36555.6    273.6   0.192916435   1.73736  -0.01445   1.26827   0.35867
  65   36622.1    273.1   0.017206726   0.15468   0.13504   0.22250   0.29485
  66   36851.8    271.4   0.052069179   0.46516   0.52482   0.13403   0.41443
  67   37236.0    268.6   0.176464468   1.56016   1.01920  -0.44210   0.57092
  68   37321.2    267.9   0.028825457   0.25427   0.05989  -0.47129  -0.16902
  69   37607.7    265.9   0.004835031   0.04233  -0.12024  -0.12191  -0.11403
  70   37945.0    263.5   0.001162453   0.01009   0.04092   0.08613  -0.03150
  71   38014.2    263.1   0.002968104   0.02570   0.03540   0.15027  -0.04324
  72   38231.3    261.6   0.131257452   1.13026  -0.17832   0.83901  -0.62812
  73   38268.3    261.3   0.007717457   0.06639   0.13172  -0.20399   0.08620
  74   38463.0    260.0   0.007501785   0.06421  -0.17932   0.16810   0.06162
  75   38590.5    259.1   0.001519453   0.01296  -0.01486   0.09839  -0.05532
  76   38700.0    258.4   0.010096138   0.08589   0.12704  -0.26077   0.04176
  77   38821.4    257.6   0.008565176   0.07263   0.24770   0.10619  -0.00165
  78   39035.9    256.2   0.014071107   0.11867   0.12828  -0.26038  -0.18552
  79   39378.6    253.9   0.010992731   0.09190   0.06007  -0.24044  -0.17460
  80   39521.7    253.0   0.016137997   0.13443   0.02429   0.22650   0.28729
  81   39689.0    252.0   0.019146473   0.15882   0.01632   0.20944   0.33865
  82   39825.7    251.1   0.050692151   0.41904   0.28283  -0.00819   0.58222
  83   39978.7    250.1   0.002896542   0.02385  -0.10839  -0.05016  -0.09791
  84   40068.9    249.6   0.046504719   0.38209   0.46123  -0.41151   0.00384
  85   40271.2    248.3   0.034033149   0.27822  -0.39994   0.33940  -0.05542

FINAL SINGLE POINT ENERGY     -4209.560381153482

DIPOLE MOMENT
-------------
                                X             Y             Z
Electronic contribution:      9.01662     -18.93407      11.95427
Nuclear contribution   :     -8.36992      19.51940     -11.95043
                        -----------------------------------------
Total Dipole Moment    :      0.64670       0.58533       0.00384
                        -----------------------------------------
Magnitude (a.u.)       :      0.87226
Magnitude (Debye)      :      2.21711

Rotational constants in cm-1:     0.002027     0.000264     0.000249
Rotational constants in MHz :    60.777326     7.917235     7.453188

                             ****ORCA TERMINATED NORMALLY****
TOTAL RUN TIME: 0 days 0 hours 13 minutes 42 seconds 580 msec
