                         Program Version 4.2.0 -  RELEASE  -
|  1> # ORCA input file
|  2> # SCF done       -216.705050346209          0.000542853646
|  3> ! CAM-B3LYP def2-SVP def2/J RIJCOSX Grid4 TightSCF
|  4> %maxcore 5000
|  5> %tddft
|  6>     Mode sTDDFT
|  7>     Ethresh 5.0
|  8>     maxcore 5000
|  9> end
| 10>
| 11> %pal
| 12>   nprocs 6
| 13>   end
| 14> * xyz 0 1
| 15>    C       -0.39524         1.48927         1.30798
| 16>    C       -0.48271         0.69194         0.17481
| 17>    C       -0.55976         1.25892        -1.19236
| 18>    O       -0.55628         2.41201        -1.49509
| 19>    S       -0.66731        -0.08740        -2.36579
| 20>    C       -0.63445        -1.35148        -1.08120
| 21>    O       -0.73086        -2.51499        -1.32919
| 22>    C       -0.49933        -0.70032         0.23776
| 23>    C       -0.43484        -1.40723         1.46152
| 24>    C       -0.33099        -0.58355         2.59948
| 25>    C       -0.31166         0.80788         2.50928
| 26>    C       -0.14224         1.35135         3.88174
| 27>    O       -0.09949         2.47903         4.25426
| 28>    O       -0.02648         0.27223         4.72091
| 29>    C       -0.11635        -0.91692         4.03273
| 30>    O       -0.00533        -1.96793         4.58155
| 31>    C       -0.43474        -2.84487         1.49472
| 32>    C       -1.02774        -3.59908         2.44644
| 33>    C       -0.99630        -5.02286         2.46647
| 34>    C       -0.26782        -5.88590         1.67959
| 35>    C       -0.51187        -7.22539         2.10682
| 36>    C       -1.49738        -7.13672         3.20131
| 37>    C       -1.76875        -5.82302         3.40959
| 38>    C       -2.13275        -8.19916         3.85812
| 39>    N       -2.71984        -9.03000         4.39023
| 40>    C        0.07536        -8.37492         1.62796
| 41>    C       -0.07346        -9.69464         2.13261
| 42>    C        0.65596       -10.57013         1.34538
| 43>    C        1.30611        -9.78904         0.30155
| 44>    C        0.98809        -8.47982         0.47529
| 45>    C        1.46395        -7.43281        -0.32331
| 46>    N        1.88586        -6.59918        -0.99110
| 47>    C        0.73564       -11.96313         1.58779
| 48>    N        1.17915       -12.93203         0.72718
| 49>    C        1.61985       -12.77702        -0.63330
| 50>    C        1.08987       -14.22279         1.29317
| 51>    O        1.39799       -15.23168         0.69928
| 52>    C        0.57282       -13.99305         2.62655
| 53>    C        0.35601       -12.61126         2.77477
| 54>    C       -0.11958       -12.37161         4.12700
| 55>    O       -0.39645       -11.36094         4.73012
| 56>    N       -0.19145       -13.65927         4.69380
| 57>    C       -0.64738       -13.85891         6.04283
| 58>    C        0.21980       -14.63568         3.82480
| 59>    C        0.24736       -16.00416         4.15821
| 60>    C        0.70734       -16.96122         3.30108
| 61>    C        0.74431       -18.34978         3.58602
| 62>    C        1.30260       -19.23565         2.62209
| 63>    C        1.34305       -20.65736         2.82223
| 64>    N        1.80647       -21.46841         1.84923
| 65>    C        2.29757       -20.93009         0.76551
| 66>    C        2.33234       -19.50289         0.59854
| 67>    N        1.81664       -18.71117         1.50231
| 68>    C        2.90670       -18.94355        -0.57121
| 69>    N        3.38052       -18.53750        -1.53118
| 70>    C        2.78677       -21.78040        -0.25990
| 71>    N        3.19001       -22.44722        -1.09861
| 72>    C        0.86945       -21.24200         4.00529
| 73>    C        0.34574       -20.38460         4.97682
| 74>    C        0.26980       -18.95445         4.77360
| 75>    N       -0.27124       -18.34837         5.83338
| 76>    S       -0.63075       -19.44444         6.94760
| 77>    N       -0.11967       -20.74760         6.17720
| 78>    C        0.94525       -22.68109         4.20332
| 79>    C       -0.16410       -23.47521         4.51529
| 80>    C       -1.54436       -22.94956         4.57104
| 81>    O       -1.92861       -21.85324         4.29101
| 82>    S       -2.64420       -24.26502         5.08103
| 83>    C       -1.33227       -25.49599         5.10453
| 84>    O       -1.52905       -26.63649         5.39364
| 85>    C       -0.05753       -24.85033         4.72610
| 86>    C        1.15701       -25.55193         4.60403
| 87>    C        2.25146       -24.75427         4.24194
| 88>    C        2.14661       -23.37704         4.06599
| 89>    C        3.50367       -22.85785         3.76606
| 90>    O        3.89247       -21.73553         3.66073
| 91>    O        4.33128       -23.94248         3.66767
| 92>    C        3.66055       -25.11794         3.92860
| 93>    O        4.19872       -26.17629         3.87320
| 94>    C        1.23942       -26.98758         4.82410
| 95>    C        2.21195       -27.58862         5.49759
| 96>    H       -0.37985         2.56527         1.24738
| 97>    H        0.02485        -3.33320         0.64723
| 98>    H       -1.59278        -3.12940         3.23898
| 99>    H        0.40864        -5.61779         0.89276
|100>    H       -2.44656        -5.41766         4.13787
|101>    H       -0.65111        -9.95861         2.99650
|102>    H        1.96402       -10.16734        -0.45597
|103>    H        0.91076       -12.17945        -1.20681
|104>    H        1.67888       -13.77954        -1.05997
|105>    H        2.61284       -12.32543        -0.67796
|106>    H       -0.89599       -12.87466         6.44040
|107>    H        0.13406       -14.30982         6.65681
|108>    H       -1.53674       -14.49064         6.06385
|109>    H       -0.10961       -16.29718         5.13470
|110>    H        1.08225       -16.68079         2.32476
|111>    H        0.40291       -27.56130         4.44946
|112>    H        3.02685       -27.04746         5.94622
|113>    H        2.20761       -28.65471         5.63970
|114> *
|115>
|116>                          ****END OF INPUT****

CARTESIAN COORDINATES (ANGSTROEM)
---------------------------------
  C     -0.395240    1.489270    1.307980
  C     -0.482710    0.691940    0.174810
  C     -0.559760    1.258920   -1.192360
  O     -0.556280    2.412010   -1.495090
  S     -0.667310   -0.087400   -2.365790
  C     -0.634450   -1.351480   -1.081200
  O     -0.730860   -2.514990   -1.329190
  C     -0.499330   -0.700320    0.237760
  C     -0.434840   -1.407230    1.461520
  C     -0.330990   -0.583550    2.599480
  C     -0.311660    0.807880    2.509280
  C     -0.142240    1.351350    3.881740
  O     -0.099490    2.479030    4.254260
  O     -0.026480    0.272230    4.720910
  C     -0.116350   -0.916920    4.032730
  O     -0.005330   -1.967930    4.581550
  C     -0.434740   -2.844870    1.494720
  C     -1.027740   -3.599080    2.446440
  C     -0.996300   -5.022860    2.466470
  C     -0.267820   -5.885900    1.679590
  C     -0.511870   -7.225390    2.106820
  C     -1.497380   -7.136720    3.201310
  C     -1.768750   -5.823020    3.409590
  C     -2.132750   -8.199160    3.858120
  N     -2.719840   -9.030000    4.390230
  C      0.075360   -8.374920    1.627960
  C     -0.073460   -9.694640    2.132610
  C      0.655960  -10.570130    1.345380
  C      1.306110   -9.789040    0.301550
  C      0.988090   -8.479820    0.475290
  C      1.463950   -7.432810   -0.323310
  N      1.885860   -6.599180   -0.991100
  C      0.735640  -11.963130    1.587790
  N      1.179150  -12.932030    0.727180
  C      1.619850  -12.777020   -0.633300
  C      1.089870  -14.222790    1.293170
  O      1.397990  -15.231680    0.699280
  C      0.572820  -13.993050    2.626550
  C      0.356010  -12.611260    2.774770
  C     -0.119580  -12.371610    4.127000
  O     -0.396450  -11.360940    4.730120
  N     -0.191450  -13.659270    4.693800
  C     -0.647380  -13.858910    6.042830
  C      0.219800  -14.635680    3.824800
  C      0.247360  -16.004160    4.158210
  C      0.707340  -16.961220    3.301080
  C      0.744310  -18.349780    3.586020
  C      1.302600  -19.235650    2.622090
  C      1.343050  -20.657360    2.822230
  N      1.806470  -21.468410    1.849230
  C      2.297570  -20.930090    0.765510
  C      2.332340  -19.502890    0.598540
  N      1.816640  -18.711170    1.502310
  C      2.906700  -18.943550   -0.571210
  N      3.380520  -18.537500   -1.531180
  C      2.786770  -21.780400   -0.259900
  N      3.190010  -22.447220   -1.098610
  C      0.869450  -21.242000    4.005290
  C      0.345740  -20.384600    4.976820
  C      0.269800  -18.954450    4.773600
  N     -0.271240  -18.348370    5.833380
  S     -0.630750  -19.444440    6.947600
  N     -0.119670  -20.747600    6.177200
  C      0.945250  -22.681090    4.203320
  C     -0.164100  -23.475210    4.515290
  C     -1.544360  -22.949560    4.571040
  O     -1.928610  -21.853240    4.291010
  S     -2.644200  -24.265020    5.081030
  C     -1.332270  -25.495990    5.104530
  O     -1.529050  -26.636490    5.393640
  C     -0.057530  -24.850330    4.726100
  C      1.157010  -25.551930    4.604030
  C      2.251460  -24.754270    4.241940
  C      2.146610  -23.377040    4.065990
  C      3.503670  -22.857850    3.766060
  O      3.892470  -21.735530    3.660730
  O      4.331280  -23.942480    3.667670
  C      3.660550  -25.117940    3.928600
  O      4.198720  -26.176290    3.873200
  C      1.239420  -26.987580    4.824100
  C      2.211950  -27.588620    5.497590
  H     -0.379850    2.565270    1.247380
  H      0.024850   -3.333200    0.647230
  H     -1.592780   -3.129400    3.238980
  H      0.408640   -5.617790    0.892760
  H     -2.446560   -5.417660    4.137870
  H     -0.651110   -9.958610    2.996500
  H      1.964020  -10.167340   -0.455970
  H      0.910760  -12.179450   -1.206810
  H      1.678880  -13.779540   -1.059970
  H      2.612840  -12.325430   -0.677960
  H     -0.895990  -12.874660    6.440400
  H      0.134060  -14.309820    6.656810
  H     -1.536740  -14.490640    6.063850
  H     -0.109610  -16.297180    5.134700
  H      1.082250  -16.680790    2.324760
  H      0.402910  -27.561300    4.449460
  H      3.026850  -27.047460    5.946220
  H      2.207610  -28.654710    5.639700

 Total Charge           Charge          ....    0
 Multiplicity           Mult            ....    1
 Number of Electrons    NEL             ....  568
 Basis Dimension        Dim             .... 1236

ORBITAL ENERGIES
----------------

  NO   OCC          E(Eh)            E(eV)
   0   2.0000     -89.060166     -2423.4503
   1   2.0000     -88.963275     -2420.8138
   2   2.0000     -88.962890     -2420.8033
   3   2.0000     -19.303914      -525.2862
   4   2.0000     -19.301656      -525.2248
   5   2.0000     -19.256883      -524.0064
   6   2.0000     -19.255789      -523.9767
   7   2.0000     -19.255372      -523.9653
   8   2.0000     -19.255231      -523.9615
   9   2.0000     -19.251539      -523.8610
  10   2.0000     -19.250823      -523.8415
  11   2.0000     -19.249002      -523.7920
  12   2.0000     -19.247333      -523.7466
  13   2.0000     -19.207025      -522.6497
  14   2.0000     -19.203914      -522.5651
  15   2.0000     -14.472001      -393.8032
  16   2.0000     -14.469606      -393.7380
  17   2.0000     -14.468523      -393.7085
  18   2.0000     -14.467182      -393.6720
  19   2.0000     -14.467040      -393.6682
  20   2.0000     -14.465542      -393.6274
  21   2.0000     -14.436110      -392.8265
  22   2.0000     -14.429389      -392.6436
  23   2.0000     -14.415929      -392.2774
  24   2.0000     -14.406360      -392.0170
  25   2.0000     -10.447333      -284.2864
  26   2.0000     -10.443723      -284.1882
  27   2.0000     -10.443586      -284.1844
  28   2.0000     -10.442795      -284.1629
  29   2.0000     -10.419020      -283.5160
  30   2.0000     -10.418089      -283.4906
  31   2.0000     -10.417939      -283.4865
  32   2.0000     -10.416677      -283.4522
  33   2.0000     -10.391002      -282.7535
  34   2.0000     -10.388916      -282.6968
  35   2.0000     -10.387119      -282.6479
  36   2.0000     -10.386047      -282.6187
  37   2.0000     -10.359472      -281.8956
  38   2.0000     -10.357571      -281.8438
  39   2.0000     -10.357429      -281.8400
  40   2.0000     -10.356156      -281.8053
  41   2.0000     -10.355772      -281.7949
  42   2.0000     -10.353629      -281.7366
  43   2.0000     -10.352479      -281.7053
  44   2.0000     -10.349149      -281.6147
  45   2.0000     -10.347640      -281.5736
  46   2.0000     -10.342225      -281.4263
  47   2.0000     -10.342087      -281.4225
  48   2.0000     -10.341981      -281.4196
  49   2.0000     -10.341550      -281.4079
  50   2.0000     -10.341070      -281.3948
  51   2.0000     -10.340264      -281.3729
  52   2.0000     -10.338601      -281.3276
  53   2.0000     -10.338535      -281.3258
  54   2.0000     -10.336955      -281.2828
  55   2.0000     -10.332604      -281.1645
  56   2.0000     -10.331805      -281.1427
  57   2.0000     -10.329589      -281.0824
  58   2.0000     -10.329183      -281.0714
  59   2.0000     -10.328648      -281.0568
  60   2.0000     -10.324490      -280.9436
  61   2.0000     -10.322727      -280.8957
  62   2.0000     -10.320130      -280.8250
  63   2.0000     -10.319560      -280.8095
  64   2.0000     -10.317827      -280.7624
  65   2.0000     -10.317496      -280.7533
  66   2.0000     -10.316591      -280.7287
  67   2.0000     -10.313812      -280.6531
  68   2.0000     -10.312678      -280.6222
  69   2.0000     -10.310428      -280.5610
  70   2.0000     -10.309685      -280.5408
  71   2.0000     -10.307297      -280.4758
  72   2.0000     -10.305638      -280.4307
  73   2.0000     -10.303815      -280.3811
  74   2.0000     -10.302738      -280.3517
  75   2.0000     -10.294295      -280.1220
  76   2.0000     -10.293795      -280.1084
  77   2.0000     -10.293184      -280.0918
  78   2.0000     -10.290032      -280.0060
  79   2.0000     -10.281344      -279.7696
  80   2.0000     -10.280592      -279.7491
  81   2.0000      -8.151350      -221.8095
  82   2.0000      -8.062376      -219.3884
  83   2.0000      -8.062150      -219.3823
  84   2.0000      -6.122361      -166.5979
  85   2.0000      -6.114462      -166.3830
  86   2.0000      -6.114387      -166.3809
  87   2.0000      -6.031216      -164.1177
  88   2.0000      -6.030994      -164.1117
  89   2.0000      -6.027948      -164.0288
  90   2.0000      -6.027731      -164.0229
  91   2.0000      -6.023479      -163.9072
  92   2.0000      -6.023221      -163.9002
  93   2.0000      -1.253504       -34.1096
  94   2.0000      -1.251681       -34.0600
  95   2.0000      -1.181623       -32.1536
  96   2.0000      -1.181332       -32.1457
  97   2.0000      -1.179822       -32.1046
  98   2.0000      -1.177345       -32.0372
  99   2.0000      -1.177085       -32.0301
 100   2.0000      -1.176982       -32.0273
 101   2.0000      -1.155559       -31.4443
 102   2.0000      -1.149402       -31.2768
 103   2.0000      -1.142373       -31.0855
 104   2.0000      -1.141803       -31.0700
 105   2.0000      -1.139339       -31.0030
 106   2.0000      -1.128148       -30.6985
 107   2.0000      -1.079443       -29.3731
 108   2.0000      -1.070197       -29.1215
 109   2.0000      -1.055572       -28.7236
 110   2.0000      -1.031574       -28.0705
 111   2.0000      -1.029153       -28.0047
 112   2.0000      -1.022380       -27.8204
 113   2.0000      -1.017859       -27.6973
 114   2.0000      -1.009934       -27.4817
 115   2.0000      -1.005736       -27.3675
 116   2.0000      -1.005061       -27.3491
 117   2.0000      -0.990624       -26.9563
 118   2.0000      -0.989872       -26.9358
 119   2.0000      -0.983616       -26.7656
 120   2.0000      -0.964894       -26.2561
 121   2.0000      -0.963940       -26.2301
 122   2.0000      -0.942833       -25.6558
 123   2.0000      -0.939769       -25.5724
 124   2.0000      -0.936110       -25.4728
 125   2.0000      -0.922234       -25.0953
 126   2.0000      -0.914811       -24.8933
 127   2.0000      -0.900464       -24.5029
 128   2.0000      -0.896964       -24.4076
 129   2.0000      -0.892239       -24.2791
 130   2.0000      -0.885980       -24.1087
 131   2.0000      -0.879338       -23.9280
 132   2.0000      -0.864599       -23.5269
 133   2.0000      -0.859057       -23.3761
 134   2.0000      -0.852805       -23.2060
 135   2.0000      -0.842765       -22.9328
 136   2.0000      -0.841351       -22.8943
 137   2.0000      -0.820778       -22.3345
 138   2.0000      -0.813753       -22.1433
 139   2.0000      -0.811006       -22.0686
 140   2.0000      -0.809784       -22.0353
 141   2.0000      -0.802073       -21.8255
 142   2.0000      -0.792163       -21.5559
 143   2.0000      -0.783095       -21.3091
 144   2.0000      -0.779302       -21.2059
 145   2.0000      -0.775495       -21.1023
 146   2.0000      -0.772126       -21.0106
 147   2.0000      -0.770536       -20.9674
 148   2.0000      -0.751851       -20.4589
 149   2.0000      -0.743081       -20.2203
 150   2.0000      -0.736420       -20.0390
 151   2.0000      -0.726519       -19.7696
 152   2.0000      -0.723675       -19.6922
 153   2.0000      -0.714151       -19.4330
 154   2.0000      -0.707738       -19.2585
 155   2.0000      -0.705448       -19.1962
 156   2.0000      -0.701285       -19.0829
 157   2.0000      -0.695455       -18.9243
 158   2.0000      -0.685390       -18.6504
 159   2.0000      -0.680678       -18.5222
 160   2.0000      -0.677826       -18.4446
 161   2.0000      -0.674353       -18.3501
 162   2.0000      -0.668380       -18.1875
 163   2.0000      -0.658606       -17.9216
 164   2.0000      -0.654071       -17.7982
 165   2.0000      -0.648786       -17.6544
 166   2.0000      -0.647577       -17.6215
 167   2.0000      -0.641273       -17.4499
 168   2.0000      -0.640394       -17.4260
 169   2.0000      -0.638184       -17.3659
 170   2.0000      -0.634495       -17.2655
 171   2.0000      -0.633715       -17.2443
 172   2.0000      -0.627529       -17.0759
 173   2.0000      -0.620414       -16.8823
 174   2.0000      -0.617485       -16.8026
 175   2.0000      -0.612330       -16.6624
 176   2.0000      -0.611239       -16.6327
 177   2.0000      -0.605071       -16.4648
 178   2.0000      -0.593089       -16.1388
 179   2.0000      -0.589759       -16.0482
 180   2.0000      -0.588469       -16.0131
 181   2.0000      -0.586573       -15.9615
 182   2.0000      -0.580862       -15.8060
 183   2.0000      -0.580502       -15.7963
 184   2.0000      -0.579268       -15.7627
 185   2.0000      -0.578024       -15.7288
 186   2.0000      -0.574047       -15.6206
 187   2.0000      -0.569909       -15.5080
 188   2.0000      -0.568885       -15.4801
 189   2.0000      -0.567746       -15.4492
 190   2.0000      -0.566400       -15.4125
 191   2.0000      -0.563860       -15.3434
 192   2.0000      -0.560800       -15.2601
 193   2.0000      -0.560716       -15.2578
 194   2.0000      -0.559492       -15.2245
 195   2.0000      -0.559173       -15.2159
 196   2.0000      -0.550225       -14.9724
 197   2.0000      -0.549721       -14.9587
 198   2.0000      -0.549014       -14.9394
 199   2.0000      -0.543196       -14.7811
 200   2.0000      -0.542670       -14.7668
 201   2.0000      -0.540500       -14.7077
 202   2.0000      -0.537220       -14.6185
 203   2.0000      -0.532957       -14.5025
 204   2.0000      -0.532529       -14.4908
 205   2.0000      -0.527796       -14.3621
 206   2.0000      -0.526658       -14.3311
 207   2.0000      -0.526050       -14.3145
 208   2.0000      -0.521928       -14.2024
 209   2.0000      -0.521044       -14.1783
 210   2.0000      -0.519711       -14.1421
 211   2.0000      -0.519227       -14.1289
 212   2.0000      -0.517366       -14.0783
 213   2.0000      -0.516800       -14.0628
 214   2.0000      -0.513952       -13.9853
 215   2.0000      -0.509486       -13.8638
 216   2.0000      -0.507127       -13.7996
 217   2.0000      -0.506718       -13.7885
 218   2.0000      -0.505311       -13.7502
 219   2.0000      -0.500790       -13.6272
 220   2.0000      -0.498582       -13.5671
 221   2.0000      -0.495203       -13.4752
 222   2.0000      -0.494522       -13.4566
 223   2.0000      -0.493747       -13.4355
 224   2.0000      -0.491154       -13.3650
 225   2.0000      -0.490209       -13.3393
 226   2.0000      -0.487861       -13.2754
 227   2.0000      -0.485255       -13.2045
 228   2.0000      -0.484462       -13.1829
 229   2.0000      -0.483374       -13.1533
 230   2.0000      -0.480719       -13.0810
 231   2.0000      -0.479271       -13.0416
 232   2.0000      -0.478134       -13.0107
 233   2.0000      -0.476910       -12.9774
 234   2.0000      -0.467536       -12.7223
 235   2.0000      -0.463985       -12.6257
 236   2.0000      -0.460509       -12.5311
 237   2.0000      -0.460326       -12.5261
 238   2.0000      -0.457683       -12.4542
 239   2.0000      -0.454220       -12.3599
 240   2.0000      -0.449053       -12.2194
 241   2.0000      -0.447999       -12.1907
 242   2.0000      -0.444890       -12.1061
 243   2.0000      -0.442582       -12.0433
 244   2.0000      -0.442120       -12.0307
 245   2.0000      -0.438327       -11.9275
 246   2.0000      -0.434332       -11.8188
 247   2.0000      -0.429703       -11.6928
 248   2.0000      -0.428050       -11.6478
 249   2.0000      -0.425919       -11.5898
 250   2.0000      -0.423899       -11.5349
 251   2.0000      -0.422515       -11.4972
 252   2.0000      -0.419788       -11.4230
 253   2.0000      -0.419454       -11.4139
 254   2.0000      -0.415075       -11.2948
 255   2.0000      -0.409676       -11.1478
 256   2.0000      -0.407443       -11.0871
 257   2.0000      -0.406410       -11.0590
 258   2.0000      -0.402138       -10.9427
 259   2.0000      -0.400360       -10.8943
 260   2.0000      -0.395783       -10.7698
 261   2.0000      -0.388026       -10.5587
 262   2.0000      -0.386509       -10.5174
 263   2.0000      -0.384984       -10.4760
 264   2.0000      -0.382696       -10.4137
 265   2.0000      -0.379850       -10.3362
 266   2.0000      -0.379269       -10.3204
 267   2.0000      -0.374790       -10.1986
 268   2.0000      -0.367451        -9.9988
 269   2.0000      -0.367181        -9.9915
 270   2.0000      -0.362358        -9.8603
 271   2.0000      -0.359701        -9.7880
 272   2.0000      -0.359244        -9.7755
 273   2.0000      -0.358057        -9.7432
 274   2.0000      -0.357890        -9.7387
 275   2.0000      -0.352485        -9.5916
 276   2.0000      -0.346535        -9.4297
 277   2.0000      -0.335378        -9.1261
 278   2.0000      -0.334652        -9.1063
 279   2.0000      -0.332239        -9.0407
 280   2.0000      -0.320511        -8.7216
 281   2.0000      -0.304401        -8.2832
 282   2.0000      -0.294761        -8.0208
 283   2.0000      -0.245511        -6.6807
 284   0.0000      -0.147136        -4.0038
 285   0.0000      -0.128517        -3.4971
 286   0.0000      -0.105952        -2.8831
 287   0.0000      -0.103846        -2.8258
 288   0.0000      -0.075086        -2.0432

MULLIKEN ATOMIC CHARGES
-----------------------
   0 C :   -0.063479
   1 C :    0.042119
   2 C :    0.054930
   3 O :   -0.113344
   4 S :    0.025742
   5 C :    0.038692
   6 O :   -0.119128
   7 C :    0.045392
   8 C :    0.068594
   9 C :   -0.085572
  10 C :   -0.021556
  11 C :    0.234858
  12 O :   -0.090377
  13 O :   -0.227737
  14 C :    0.234900
  15 O :   -0.098025
  16 C :   -0.046516
  17 C :    0.068537
  18 C :    0.077623
  19 C :   -0.096409
  20 C :    0.104234
  21 C :   -0.082863
  22 C :    0.004050
  23 C :   -0.184829
  24 N :    0.150405
  25 C :    0.123259
  26 C :   -0.112893
  27 C :    0.042491
  28 C :   -0.028896
  29 C :   -0.094799
  30 C :   -0.174627
  31 N :    0.142581
  32 C :    0.161874
  33 N :   -0.270378
  34 C :    0.113627
  35 C :    0.161201
  36 O :   -0.178803
  37 C :   -0.062471
  38 C :   -0.067645
  39 C :    0.157034
  40 O :   -0.172524
  41 N :   -0.270117
  42 C :    0.116703
  43 C :    0.159555
  44 C :   -0.001366
  45 C :   -0.092065
  46 C :    0.095734
  47 C :   -0.062097
  48 C :   -0.015812
  49 N :    0.043265
  50 C :   -0.117027
  51 C :   -0.139019
  52 N :    0.081219
  53 C :   -0.192703
  54 N :    0.237451
  55 C :   -0.211468
  56 N :    0.249299
  57 C :    0.010296
  58 C :    0.035663
  59 C :    0.034146
  60 N :   -0.292017
  61 S :    0.565456
  62 N :   -0.269678
  63 C :   -0.019787
  64 C :    0.058392
  65 C :    0.043604
  66 O :   -0.128244
  67 S :    0.027157
  68 C :    0.032351
  69 O :   -0.118742
  70 C :    0.028976
  71 C :    0.012437
  72 C :   -0.087422
  73 C :   -0.036916
  74 C :    0.238324
  75 O :   -0.111554
  76 O :   -0.223224
  77 C :    0.227712
  78 O :   -0.085418
  79 C :   -0.046150
  80 C :    0.035033
  81 H :    0.027998
  82 H :    0.040314
  83 H :   -0.005200
  84 H :    0.008368
  85 H :    0.002568
  86 H :    0.030599
  87 H :   -0.010179
  88 H :    0.040958
  89 H :    0.069957
  90 H :    0.044412
  91 H :    0.068569
  92 H :    0.037063
  93 H :    0.040190
  94 H :   -0.009400
  95 H :    0.033154
  96 H :    0.034230
  97 H :    0.032022
  98 H :    0.043156
Sum of atomic charges:   -0.0000000

LOEWDIN ATOMIC CHARGES
----------------------
   0 C :    0.040861
   1 C :   -0.046405
   2 C :   -0.048768
   3 O :   -0.105098
   4 S :    0.311765
   5 C :   -0.041311
   6 O :   -0.101199
   7 C :   -0.055306
   8 C :    0.036538
   9 C :   -0.051597
  10 C :   -0.040010
  11 C :    0.101954
  12 O :   -0.089002
  13 O :   -0.054971
  14 C :    0.107614
  15 O :   -0.093491
  16 C :   -0.011977
  17 C :    0.022910
  18 C :   -0.013132
  19 C :   -0.011918
  20 C :    0.049887
  21 C :   -0.078069
  22 C :    0.056525
  23 C :   -0.036674
  24 N :   -0.047122
  25 C :    0.031855
  26 C :    0.018222
  27 C :   -0.037620
  28 C :    0.046199
  29 C :   -0.077826
  30 C :   -0.031714
  31 N :   -0.058580
  32 C :    0.076344
  33 N :   -0.005093
  34 C :    0.029499
  35 C :    0.081572
  36 O :   -0.173221
  37 C :   -0.106251
  38 C :   -0.101381
  39 C :    0.081760
  40 O :   -0.167803
  41 N :   -0.003732
  42 C :    0.030062
  43 C :    0.075755
  44 C :   -0.018000
  45 C :    0.027542
  46 C :   -0.005466
  47 C :    0.001333
  48 C :    0.010102
  49 N :   -0.008102
  50 C :   -0.012732
  51 C :   -0.023839
  52 N :    0.019876
  53 C :   -0.032954
  54 N :   -0.001138
  55 C :   -0.036093
  56 N :    0.003508
  57 C :   -0.030018
  58 C :   -0.031706
  59 C :   -0.032431
  60 N :   -0.280826
  61 S :    0.696106
  62 N :   -0.287661
  63 C :    0.034721
  64 C :   -0.037304
  65 C :   -0.043529
  66 O :   -0.114629
  67 S :    0.311496
  68 C :   -0.041416
  69 O :   -0.102129
  70 C :   -0.053792
  71 C :    0.040517
  72 C :   -0.045364
  73 C :   -0.028250
  74 C :    0.106519
  75 O :   -0.106916
  76 O :   -0.049604
  77 C :    0.109084
  78 O :   -0.083611
  79 C :   -0.038414
  80 C :    0.018760
  81 H :    0.054749
  82 H :    0.041456
  83 H :    0.031975
  84 H :    0.035167
  85 H :    0.038991
  86 H :    0.039403
  87 H :    0.036143
  88 H :    0.029720
  89 H :    0.046209
  90 H :    0.027242
  91 H :    0.045459
  92 H :    0.028288
  93 H :    0.029520
  94 H :    0.030127
  95 H :    0.040595
  96 H :    0.039984
  97 H :    0.025586
  98 H :    0.035692

  Mayer bond orders larger than 0.100000
B(  0-C ,  1-C ) :   1.3474 B(  0-C , 10-C ) :   1.3227 B(  0-C , 81-H ) :   1.0271
B(  1-C ,  2-C ) :   0.8368 B(  1-C ,  7-C ) :   1.3415 B(  2-C ,  3-O ) :   2.2239
B(  2-C ,  4-S ) :   1.0308 B(  3-O ,  4-S ) :   0.1103 B(  4-S ,  5-C ) :   1.0284
B(  4-S ,  6-O ) :   0.1059 B(  5-C ,  6-O ) :   2.1649 B(  5-C ,  7-C ) :   0.8585
B(  7-C ,  8-C ) :   1.3580 B(  8-C ,  9-C ) :   1.3270 B(  8-C , 16-C ) :   1.1011
B(  9-C , 10-C ) :   1.3746 B(  9-C , 14-C ) :   0.9106 B( 10-C , 11-C ) :   0.8846
B( 11-C , 12-O ) :   2.3102 B( 11-C , 13-O ) :   1.0464 B( 13-O , 14-C ) :   1.0553
B( 14-C , 15-O ) :   2.2522 B( 16-C , 17-C ) :   1.6926 B( 16-C , 82-H ) :   0.9424
B( 17-C , 18-C ) :   1.1228 B( 17-C , 83-H ) :   0.9619 B( 18-C , 19-C ) :   1.5549
B( 18-C , 22-C ) :   1.0284 B( 19-C , 20-C ) :   1.1262 B( 19-C , 84-H ) :   0.9950
B( 20-C , 21-C ) :   1.1031 B( 20-C , 25-C ) :   1.3998 B( 21-C , 22-C ) :   1.6726
B( 21-C , 23-C ) :   1.0872 B( 22-C , 85-H ) :   1.0236 B( 23-C , 24-N ) :   2.9891
B( 25-C , 26-C ) :   1.1205 B( 25-C , 29-C ) :   1.1003 B( 26-C , 27-C ) :   1.5288
B( 26-C , 86-H ) :   0.9894 B( 27-C , 28-C ) :   1.0286 B( 27-C , 32-C ) :   1.0627
B( 28-C , 29-C ) :   1.6643 B( 28-C , 87-H ) :   1.0261 B( 29-C , 30-C ) :   1.0828
B( 30-C , 31-N ) :   2.9717 B( 32-C , 33-N ) :   1.2105 B( 32-C , 38-C ) :   1.3417
B( 33-N , 34-C ) :   0.9587 B( 33-N , 35-C ) :   1.0365 B( 34-C , 88-H ) :   0.9708
B( 34-C , 89-H ) :   0.9452 B( 34-C , 90-H ) :   0.9702 B( 35-C , 36-O ) :   2.0661
B( 35-C , 37-C ) :   0.9839 B( 37-C , 38-C ) :   1.2825 B( 37-C , 43-C ) :   1.2893
B( 38-C , 39-C ) :   0.9704 B( 39-C , 40-O ) :   2.0997 B( 39-C , 41-N ) :   1.0436
B( 41-N , 42-C ) :   0.9617 B( 41-N , 43-C ) :   1.1764 B( 42-C , 91-H ) :   0.9502
B( 42-C , 92-H ) :   0.9727 B( 42-C , 93-H ) :   0.9718 B( 43-C , 44-C ) :   1.1697
B( 44-C , 45-C ) :   1.4959 B( 44-C , 94-H ) :   0.9480 B( 45-C , 46-C ) :   1.2279
B( 45-C , 95-H ) :   0.9463 B( 46-C , 47-C ) :   1.2111 B( 46-C , 57-C ) :   0.1467
B( 46-C , 59-C ) :   1.1547 B( 47-C , 48-C ) :   1.1140 B( 47-C , 52-N ) :   1.4653
B( 48-C , 49-N ) :   1.4241 B( 48-C , 57-C ) :   1.3710 B( 49-N , 50-C ) :   1.7350
B( 50-C , 51-C ) :   1.1900 B( 50-C , 55-C ) :   1.1528 B( 51-C , 52-N ) :   1.7568
B( 51-C , 53-C ) :   1.1504 B( 53-C , 54-N ) :   3.0420 B( 55-C , 56-N ) :   3.0537
B( 57-C , 58-C ) :   1.2941 B( 57-C , 63-C ) :   0.9320 B( 58-C , 59-C ) :   1.1075
B( 58-C , 62-N ) :   1.5126 B( 59-C , 60-N ) :   1.4907 B( 60-N , 61-S ) :   1.2882
B( 60-N , 62-N ) :   0.1532 B( 61-S , 62-N ) :   1.2977 B( 63-C , 64-C ) :   1.4458
B( 63-C , 73-C ) :   1.4136 B( 64-C , 65-C ) :   0.8316 B( 64-C , 70-C ) :   1.3023
B( 65-C , 66-O ) :   2.1777 B( 65-C , 67-S ) :   1.0336 B( 66-O , 67-S ) :   0.1083
B( 67-S , 68-C ) :   1.0299 B( 67-S , 69-O ) :   0.1056 B( 68-C , 69-O ) :   2.1772
B( 68-C , 70-C ) :   0.8442 B( 70-C , 71-C ) :   1.3732 B( 71-C , 72-C ) :   1.3373
B( 71-C , 79-C ) :   1.0788 B( 72-C , 73-C ) :   1.3624 B( 72-C , 77-C ) :   0.8936
B( 73-C , 74-C ) :   0.8856 B( 74-C , 75-O ) :   2.2426 B( 74-C , 76-O ) :   1.0727
B( 76-O , 77-C ) :   1.0401 B( 77-C , 78-O ) :   2.2765 B( 79-C , 80-C ) :   1.9579
B( 79-C , 96-H ) :   0.9383 B( 80-C , 97-H ) :   0.9628 B( 80-C , 98-H ) :   0.9494

-----------------------------------------------------------------------------
         ABSORPTION SPECTRUM VIA TRANSITION ELECTRIC DIPOLE MOMENTS
-----------------------------------------------------------------------------
State   Energy  Wavelength   fosc         T2         TX        TY        TZ
        (cm-1)    (nm)                  (au**2)     (au)      (au)      (au)
-----------------------------------------------------------------------------
   0    7047.6   1418.9   0.626025910  29.24331   0.53436  -5.31538   0.83934
   1   10980.3    910.7   0.011114071   0.33322   0.19506   0.48090  -0.25281
   2   15337.6    652.0   0.056648375   1.21592  -0.31370   1.02869   0.24353
   3   18503.9    540.4   0.008144245   0.14490  -0.31386  -0.21536  -0.00373
   4   19407.2    515.3   0.213221796   3.61696   0.09751  -1.88731   0.21330
   5   19733.8    506.7   0.049918961   0.83278  -0.26169   0.75984   0.43237
   6   20460.4    488.7   0.015212935   0.24478  -0.03772   0.02287  -0.49278
   7   21752.0    459.7   0.202929908   3.07130   0.16141   1.45914  -0.95717
   8   22890.4    436.9   0.000757745   0.01090   0.03404  -0.07217  -0.06730
   9   24339.6    410.9   0.021425805   0.28980  -0.12571   0.51146  -0.11139
  10   24731.5    404.3   0.018364851   0.24446  -0.05776   0.13995  -0.47068
  11   24992.5    400.1   0.299045275   3.93915  -0.20567   1.97388  -0.02523
  12   25129.1    397.9   0.321354691   4.21000  -0.42516   1.96128   0.42733
  13   25258.7    395.9   0.072218002   0.94126  -0.17269   0.95375   0.04241
  14   25648.6    389.9   0.003831985   0.04919  -0.18154   0.09161  -0.08852
  15   25838.1    387.0   0.213640724   2.72207  -0.27288   1.62131   0.13775
  16   26543.5    376.7   0.005098597   0.06324  -0.13742  -0.12369   0.17045
  17   26778.0    373.4   0.123229863   1.51500  -0.35049  -1.04569   0.54652
  18   26897.3    371.8   0.002615286   0.03201  -0.01072   0.16644   0.06475
  19   27148.5    368.3   0.022399376   0.27162  -0.40866  -0.28645   0.15024
  20   27185.9    367.8   0.013610234   0.16482  -0.16192   0.26253  -0.26396
  21   27627.8    362.0   0.014912004   0.17769  -0.39868   0.12953  -0.04434
  22   27763.5    360.2   0.015192905   0.18015  -0.18056   0.13735  -0.35873
  23   28096.3    355.9   0.003827259   0.04485  -0.03065  -0.15954   0.13584
  24   28307.9    353.3   0.033707633   0.39201   0.01631  -0.59017   0.20843
  25   28624.8    349.3   0.003958123   0.04552   0.08070  -0.10122   0.16960
  26   29417.9    339.9   0.058178285   0.65107  -0.22696   0.30413   0.71208
  27   30128.8    331.9   0.434769030   4.75064  -1.04953   0.33363   1.88091
  28   30843.5    324.2   0.029245125   0.31215  -0.25811   0.05715   0.49221
  29   31181.6    320.7   0.141707768   1.49613  -0.06791  -1.21998   0.05634
  30   31228.9    320.2   0.026915012   0.28374  -0.10383   0.17546  -0.49211
  31   31677.1    315.7   0.001486483   0.01545   0.07441  -0.09869  -0.01311
  32   31934.2    313.1   0.027481939   0.28331  -0.14872   0.48906   0.14837
  33   32357.2    309.1   0.039429032   0.40116  -0.05416  -0.61719  -0.13153
  34   32759.6    305.3   0.000506726   0.00509  -0.05452  -0.04604  -0.00031
  35   32874.2    304.2   0.099423121   0.99565   0.36283  -0.89555  -0.24900
  36   33098.4    302.1   0.043917464   0.43682   0.31387  -0.08214  -0.57582
  37   33253.2    300.7   0.011584604   0.11469   0.02723   0.27947  -0.18933
  38   33511.9    298.4   0.021613136   0.21232   0.09162   0.44043   0.09973
  39   33645.3    297.2   0.046434558   0.45435   0.04827   0.66880  -0.06878
  40   33653.4    297.1   0.001617512   0.01582  -0.12157  -0.03223   0.00246
  41   33839.8    295.5   0.000937449   0.00912  -0.04497  -0.01434  -0.08302
  42   33941.3    294.6   0.023911694   0.23193  -0.28204   0.13901   0.36477
  43   34266.9    291.8   0.003616184   0.03474   0.03757   0.18004   0.03025
  44   34360.9    291.0   0.007087029   0.06790  -0.23265   0.07072  -0.09367
  45   34423.3    290.5   0.202607510   1.93766   0.65290  -0.61850  -1.06247
  46   34544.6    289.5   0.010629504   0.10130  -0.23189   0.07454   0.20487
  47   34894.1    286.6   0.031022446   0.29268   0.29380  -0.35214  -0.28699
  48   34986.8    285.8   0.059464994   0.55954  -0.44346   0.34294   0.49526
  49   35361.0    282.8   0.087359474   0.81332  -0.21515   0.28484   0.82819
  50   35390.9    282.6   0.108659406   1.01077   0.23835   0.21551  -0.95264
  51   35463.7    282.0   0.023169789   0.21509  -0.37847  -0.26759  -0.01555
  52   35629.9    280.7   0.006981076   0.06450  -0.11439  -0.19942   0.10795
  53   35748.4    279.7   0.004966309   0.04574  -0.06525  -0.16109   0.12461
  54   35767.1    279.6   0.010503561   0.09668   0.12966   0.11856   0.25653
  55   35998.1    277.8   0.031704399   0.28994  -0.04038   0.52395   0.11744
  56   36198.5    276.3   0.013778326   0.12531   0.13285  -0.32491   0.04576
  57   36344.6    275.1   0.014975888   0.13565   0.23474  -0.27508  -0.06989
  58   36554.6    273.6   0.060194901   0.54212  -0.05296  -0.73398   0.02421
  59   36736.1    272.2   0.020317843   0.18208   0.07342   0.34910  -0.23413
  60   36869.0    271.2   0.011689297   0.10438   0.08188  -0.30881  -0.04802
  61   37078.4    269.7   0.027781341   0.24667  -0.04648  -0.46481   0.16870
  62   37220.3    268.7   0.001031484   0.00912  -0.02058  -0.00007  -0.09327
  63   37307.5    268.0   0.005868495   0.05179   0.14683   0.16796  -0.04489
  64   37451.3    267.0   0.004242927   0.03730   0.19242   0.01372  -0.00914
  65   37606.7    265.9   0.025671218   0.22473  -0.18560   0.40678   0.15751
  66   37912.6    263.8   0.026741709   0.23221   0.07369  -0.47591  -0.01706
  67   38268.0    261.3   0.127379872   1.09582   0.22531  -0.82149   0.60846
  68   38296.5    261.1   0.049500903   0.42553   0.00358   0.60688  -0.23921
  69   38678.5    258.5   0.009066785   0.07717   0.00802   0.26782   0.07333
  70   38822.9    257.6   0.005390112   0.04571  -0.10614   0.18429  -0.02188
  71   38868.9    257.3   0.009289232   0.07868  -0.16046   0.23000  -0.00563
  72   39002.8    256.4   0.002763056   0.02332  -0.04755   0.11691  -0.08598
  73   39062.9    256.0   0.052230801   0.44019   0.05683  -0.65999  -0.03706
  74   39158.7    255.4   0.005781760   0.04861  -0.05609  -0.08521   0.19545
  75   39528.0    253.0   0.001833961   0.01527   0.01943   0.09150  -0.08078
  76   39850.3    250.9   0.520386082   4.29902  -0.92981  -0.02462   1.85307
  77   40045.0    249.7   0.241631617   1.98646   0.55126  -0.12490  -1.29111
  78   40312.8    248.1   0.019086689   0.15587   0.19320  -0.21294  -0.27056

FINAL SINGLE POINT ENERGY     -4784.763807049523

DIPOLE MOMENT
-------------
                                X             Y             Z
Electronic contribution:     -1.11750     -10.93051      -1.32434
Nuclear contribution   :     -0.40162      10.71547       3.61827
                        -----------------------------------------
Total Dipole Moment    :     -1.51911      -0.21504       2.29393
                        -----------------------------------------
Magnitude (a.u.)       :      2.75972
Magnitude (Debye)      :      7.01465

Rotational constants in cm-1:     0.002331     0.000172     0.000165
Rotational constants in MHz :    69.872947     5.143413     4.935334

                             ****ORCA TERMINATED NORMALLY****
TOTAL RUN TIME: 0 days 0 hours 12 minutes 45 seconds 506 msec
