                         Program Version 4.2.0 -  RELEASE  -
|  1> # ORCA input file
|  2> # SCF done       -175.917881700587          0.000963880530
|  3> ! CAM-B3LYP def2-SVP def2/J RIJCOSX Grid4 TightSCF
|  4> %maxcore 5000
|  5> %tddft
|  6>     Mode sTDDFT
|  7>     Ethresh 5.0
|  8>     maxcore 5000
|  9> end
| 10>
| 11> %pal
| 12>   nprocs 6
| 13>   end
| 14> * xyz 0 1
| 15>    C        3.78085         1.29525         1.64617
| 16>    O        4.02121         2.59214         1.42196
| 17>    C        4.57091         2.65112         0.19003
| 18>    N        4.67196         1.47164        -0.36484
| 19>    C        4.18386         0.59584         0.54530
| 20>    C        4.98833         3.93232        -0.31352
| 21>    C        5.40624         4.97344         0.49107
| 22>    N        5.74688         4.94019         1.86773
| 23>    O        5.69411         5.99710         2.46700
| 24>    O        6.10223         3.88501         2.35227
| 25>    C        5.57527         6.16534        -0.30114
| 26>    C        5.22542         5.87869        -1.57478
| 27>    C        4.84281         4.48455        -1.66378
| 28>    C        4.47170         3.83679        -2.82222
| 29>    C        4.62953         2.44444        -3.10927
| 30>    C        4.47410         2.25138        -4.44977
| 31>    C        4.12927         3.49672        -5.06387
| 32>    N        3.77790         3.60721        -6.42489
| 33>    O        3.21115         4.62004        -6.80018
| 34>    O        4.05518         2.66646        -7.14592
| 35>    C        4.07877         4.49652        -4.09179
| 36>    C        3.64274         5.81470        -4.29393
| 37>    C        3.00879         6.59507        -3.35802
| 38>    C        2.62413         7.91520        -3.63134
| 39>    N        1.78011         8.66742        -2.85136
| 40>    C        1.09243         8.22684        -1.66020
| 41>    C       -0.09285         7.32384        -1.98876
| 42>    C        1.55798         9.94252        -3.39278
| 43>    O        0.82147        10.76833        -2.89437
| 44>    C        2.38813         9.97825        -4.58549
| 45>    C        3.02043         8.73705        -4.70588
| 46>    C        3.91546         8.79035        -5.85357
| 47>    O        4.68796         7.97907        -6.30908
| 48>    N        3.73976        10.08654        -6.36374
| 49>    C        4.42244        10.51451        -7.56441
| 50>    C        3.51276        10.43829        -8.78685
| 51>    C        2.83772        10.81642        -5.63403
| 52>    C        2.50546        12.14431        -5.92924
| 53>    C        1.57588        12.85449        -5.20594
| 54>    C        1.12418        14.16299        -5.44051
| 55>    C        1.26869        15.05510        -6.52309
| 56>    N        2.13994        15.05565        -7.62760
| 57>    O        1.86428        15.80555        -8.54738
| 58>    O        3.13213        14.34078        -7.61910
| 59>    C        0.31433        16.10572        -6.38827
| 60>    C       -0.43413        15.89905        -5.26494
| 61>    C        0.05812        14.74042        -4.59768
| 62>    C       -0.30109        14.32166        -3.32713
| 63>    C        0.54798        13.70889        -2.36488
| 64>    C       -0.10526        13.68193        -1.17058
| 65>    C       -1.42660        14.22487        -1.33233
| 66>    N       -2.30511        14.24615        -0.23443
| 67>    O       -3.31032        14.93832        -0.27814
| 68>    O       -1.99495        13.57138         0.73143
| 69>    C       -1.59991        14.60863        -2.66125
| 70>    C       -2.72893        14.95343        -3.44032
| 71>    C       -3.96022        15.35453        -3.01784
| 72>    C       -5.01405        15.65389        -3.91870
| 73>    O       -6.21601        16.07202        -3.43589
| 74>    C       -6.97638        16.27296        -4.50594
| 75>    N       -6.38597        16.02842        -5.63642
| 76>    C       -5.13817        15.63370        -5.30155
| 77>    H        3.34071         1.01302         2.57975
| 78>    H        4.15979        -0.45536         0.34917
| 79>    H        5.94866         7.09024         0.09470
| 80>    H        5.32087         6.52918        -2.42105
| 81>    H        4.91094         1.71634        -2.37310
| 82>    H        4.57365         1.33057        -4.99314
| 83>    H        3.73682         6.19495        -5.30524
| 84>    H        2.74226         6.17097        -2.39975
| 85>    H        0.73753         9.13302        -1.16175
| 86>    H        1.80149         7.71681        -1.00217
| 87>    H       -0.80888         7.85978        -2.60684
| 88>    H       -0.58721         7.02187        -1.07006
| 89>    H        0.22924         6.43303        -2.52377
| 90>    H        5.26706         9.83218        -7.69086
| 91>    H        4.80060        11.53027        -7.42798
| 92>    H        3.15631         9.42071        -8.92762
| 93>    H        4.06778        10.73805        -9.67064
| 94>    H        2.65609        11.09864        -8.67617
| 95>    H        3.02004        12.61762        -6.75092
| 96>    H        1.09967        12.34735        -4.37682
| 97>    H        0.23711        16.92413        -7.07935
| 98>    H       -1.17200        16.57109        -4.87162
| 99>    H        1.57146        13.43593        -2.52602
|100>    H        0.27190        13.33110        -0.22857
|101>    H       -2.57468        14.87598        -4.50837
|102>    H       -4.18186        15.47884        -1.96765
|103>    H       -7.98656        16.60908        -4.38139
|104>    H       -4.42154        15.36622        -6.05006
|105> *
|106>
|107>                          ****END OF INPUT****

CARTESIAN COORDINATES (ANGSTROEM)
---------------------------------
  C      3.780850    1.295250    1.646170
  O      4.021210    2.592140    1.421960
  C      4.570910    2.651120    0.190030
  N      4.671960    1.471640   -0.364840
  C      4.183860    0.595840    0.545300
  C      4.988330    3.932320   -0.313520
  C      5.406240    4.973440    0.491070
  N      5.746880    4.940190    1.867730
  O      5.694110    5.997100    2.467000
  O      6.102230    3.885010    2.352270
  C      5.575270    6.165340   -0.301140
  C      5.225420    5.878690   -1.574780
  C      4.842810    4.484550   -1.663780
  C      4.471700    3.836790   -2.822220
  C      4.629530    2.444440   -3.109270
  C      4.474100    2.251380   -4.449770
  C      4.129270    3.496720   -5.063870
  N      3.777900    3.607210   -6.424890
  O      3.211150    4.620040   -6.800180
  O      4.055180    2.666460   -7.145920
  C      4.078770    4.496520   -4.091790
  C      3.642740    5.814700   -4.293930
  C      3.008790    6.595070   -3.358020
  C      2.624130    7.915200   -3.631340
  N      1.780110    8.667420   -2.851360
  C      1.092430    8.226840   -1.660200
  C     -0.092850    7.323840   -1.988760
  C      1.557980    9.942520   -3.392780
  O      0.821470   10.768330   -2.894370
  C      2.388130    9.978250   -4.585490
  C      3.020430    8.737050   -4.705880
  C      3.915460    8.790350   -5.853570
  O      4.687960    7.979070   -6.309080
  N      3.739760   10.086540   -6.363740
  C      4.422440   10.514510   -7.564410
  C      3.512760   10.438290   -8.786850
  C      2.837720   10.816420   -5.634030
  C      2.505460   12.144310   -5.929240
  C      1.575880   12.854490   -5.205940
  C      1.124180   14.162990   -5.440510
  C      1.268690   15.055100   -6.523090
  N      2.139940   15.055650   -7.627600
  O      1.864280   15.805550   -8.547380
  O      3.132130   14.340780   -7.619100
  C      0.314330   16.105720   -6.388270
  C     -0.434130   15.899050   -5.264940
  C      0.058120   14.740420   -4.597680
  C     -0.301090   14.321660   -3.327130
  C      0.547980   13.708890   -2.364880
  C     -0.105260   13.681930   -1.170580
  C     -1.426600   14.224870   -1.332330
  N     -2.305110   14.246150   -0.234430
  O     -3.310320   14.938320   -0.278140
  O     -1.994950   13.571380    0.731430
  C     -1.599910   14.608630   -2.661250
  C     -2.728930   14.953430   -3.440320
  C     -3.960220   15.354530   -3.017840
  C     -5.014050   15.653890   -3.918700
  O     -6.216010   16.072020   -3.435890
  C     -6.976380   16.272960   -4.505940
  N     -6.385970   16.028420   -5.636420
  C     -5.138170   15.633700   -5.301550
  H      3.340710    1.013020    2.579750
  H      4.159790   -0.455360    0.349170
  H      5.948660    7.090240    0.094700
  H      5.320870    6.529180   -2.421050
  H      4.910940    1.716340   -2.373100
  H      4.573650    1.330570   -4.993140
  H      3.736820    6.194950   -5.305240
  H      2.742260    6.170970   -2.399750
  H      0.737530    9.133020   -1.161750
  H      1.801490    7.716810   -1.002170
  H     -0.808880    7.859780   -2.606840
  H     -0.587210    7.021870   -1.070060
  H      0.229240    6.433030   -2.523770
  H      5.267060    9.832180   -7.690860
  H      4.800600   11.530270   -7.427980
  H      3.156310    9.420710   -8.927620
  H      4.067780   10.738050   -9.670640
  H      2.656090   11.098640   -8.676170
  H      3.020040   12.617620   -6.750920
  H      1.099670   12.347350   -4.376820
  H      0.237110   16.924130   -7.079350
  H     -1.172000   16.571090   -4.871620
  H      1.571460   13.435930   -2.526020
  H      0.271900   13.331100   -0.228570
  H     -2.574680   14.875980   -4.508370
  H     -4.181860   15.478840   -1.967650
  H     -7.986560   16.609080   -4.381390
  H     -4.421540   15.366220   -6.050060

 Total Charge           Charge          ....    0
 Multiplicity           Mult            ....    1
 Number of Electrons    NEL             ....  432
 Basis Dimension        Dim             .... 1008

ORBITAL ENERGIES
----------------

  NO   OCC          E(Eh)            E(eV)
   0   2.0000     -19.317379      -525.6526
   1   2.0000     -19.315170      -525.5925
   2   2.0000     -19.247607      -523.7540
   3   2.0000     -19.247188      -523.7426
   4   2.0000     -19.243577      -523.6443
   5   2.0000     -19.241861      -523.5977
   6   2.0000     -19.237301      -523.4736
   7   2.0000     -19.236926      -523.4634
   8   2.0000     -19.236641      -523.4556
   9   2.0000     -19.234417      -523.3951
  10   2.0000     -19.210401      -522.7416
  11   2.0000     -19.207041      -522.6502
  12   2.0000     -14.655146      -398.7868
  13   2.0000     -14.651935      -398.6994
  14   2.0000     -14.646030      -398.5387
  15   2.0000     -14.645074      -398.5127
  16   2.0000     -14.470594      -393.7649
  17   2.0000     -14.466915      -393.6648
  18   2.0000     -14.423755      -392.4903
  19   2.0000     -14.419204      -392.3665
  20   2.0000     -10.392809      -282.8027
  21   2.0000     -10.389562      -282.7143
  22   2.0000     -10.380727      -282.4739
  23   2.0000     -10.372021      -282.2370
  24   2.0000     -10.355268      -281.7812
  25   2.0000     -10.355215      -281.7797
  26   2.0000     -10.348330      -281.5924
  27   2.0000     -10.345158      -281.5060
  28   2.0000     -10.343577      -281.4630
  29   2.0000     -10.336708      -281.2761
  30   2.0000     -10.335751      -281.2501
  31   2.0000     -10.333725      -281.1949
  32   2.0000     -10.332632      -281.1652
  33   2.0000     -10.329729      -281.0862
  34   2.0000     -10.327514      -281.0260
  35   2.0000     -10.326474      -280.9976
  36   2.0000     -10.325884      -280.9816
  37   2.0000     -10.325229      -280.9638
  38   2.0000     -10.324759      -280.9510
  39   2.0000     -10.323650      -280.9208
  40   2.0000     -10.321428      -280.8603
  41   2.0000     -10.316874      -280.7364
  42   2.0000     -10.313530      -280.6454
  43   2.0000     -10.312854      -280.6270
  44   2.0000     -10.309287      -280.5300
  45   2.0000     -10.309249      -280.5289
  46   2.0000     -10.308011      -280.4952
  47   2.0000     -10.307249      -280.4745
  48   2.0000     -10.302130      -280.3352
  49   2.0000     -10.301759      -280.3251
  50   2.0000     -10.301022      -280.3051
  51   2.0000     -10.300811      -280.2993
  52   2.0000     -10.300297      -280.2853
  53   2.0000     -10.297822      -280.2180
  54   2.0000     -10.295735      -280.1612
  55   2.0000     -10.289876      -280.0017
  56   2.0000     -10.284855      -279.8651
  57   2.0000     -10.284466      -279.8545
  58   2.0000     -10.281151      -279.7643
  59   2.0000     -10.278867      -279.7022
  60   2.0000     -10.274359      -279.5795
  61   2.0000     -10.264793      -279.3192
  62   2.0000      -1.327883       -36.1335
  63   2.0000      -1.321943       -35.9719
  64   2.0000      -1.316690       -35.8289
  65   2.0000      -1.315491       -35.7963
  66   2.0000      -1.249084       -33.9893
  67   2.0000      -1.247894       -33.9569
  68   2.0000      -1.151966       -31.3466
  69   2.0000      -1.145703       -31.1762
  70   2.0000      -1.144970       -31.1562
  71   2.0000      -1.138256       -30.9735
  72   2.0000      -1.134409       -30.8688
  73   2.0000      -1.132006       -30.8035
  74   2.0000      -1.081791       -29.4370
  75   2.0000      -1.072485       -29.1838
  76   2.0000      -1.030665       -28.0458
  77   2.0000      -1.027342       -27.9554
  78   2.0000      -1.020751       -27.7760
  79   2.0000      -1.018464       -27.7138
  80   2.0000      -1.002645       -27.2834
  81   2.0000      -0.997269       -27.1371
  82   2.0000      -0.944184       -25.6926
  83   2.0000      -0.928409       -25.2633
  84   2.0000      -0.926971       -25.2242
  85   2.0000      -0.919475       -25.0202
  86   2.0000      -0.914642       -24.8887
  87   2.0000      -0.912676       -24.8352
  88   2.0000      -0.897711       -24.4280
  89   2.0000      -0.883586       -24.0436
  90   2.0000      -0.882140       -24.0043
  91   2.0000      -0.881434       -23.9850
  92   2.0000      -0.869789       -23.6682
  93   2.0000      -0.855404       -23.2767
  94   2.0000      -0.849021       -23.1030
  95   2.0000      -0.831636       -22.6300
  96   2.0000      -0.830072       -22.5874
  97   2.0000      -0.821402       -22.3515
  98   2.0000      -0.802785       -21.8449
  99   2.0000      -0.795752       -21.6535
 100   2.0000      -0.777829       -21.1658
 101   2.0000      -0.770614       -20.9695
 102   2.0000      -0.764697       -20.8085
 103   2.0000      -0.744635       -20.2625
 104   2.0000      -0.737624       -20.0718
 105   2.0000      -0.732046       -19.9200
 106   2.0000      -0.731358       -19.9013
 107   2.0000      -0.727048       -19.7840
 108   2.0000      -0.719892       -19.5893
 109   2.0000      -0.715567       -19.4716
 110   2.0000      -0.710336       -19.3292
 111   2.0000      -0.700074       -19.0500
 112   2.0000      -0.687269       -18.7016
 113   2.0000      -0.682076       -18.5602
 114   2.0000      -0.677835       -18.4448
 115   2.0000      -0.674469       -18.3532
 116   2.0000      -0.662966       -18.0402
 117   2.0000      -0.661142       -17.9906
 118   2.0000      -0.659225       -17.9384
 119   2.0000      -0.654824       -17.8187
 120   2.0000      -0.647477       -17.6188
 121   2.0000      -0.640116       -17.4184
 122   2.0000      -0.634636       -17.2693
 123   2.0000      -0.633901       -17.2493
 124   2.0000      -0.632293       -17.2056
 125   2.0000      -0.627554       -17.0766
 126   2.0000      -0.626966       -17.0606
 127   2.0000      -0.625318       -17.0158
 128   2.0000      -0.622453       -16.9378
 129   2.0000      -0.618904       -16.8412
 130   2.0000      -0.608192       -16.5497
 131   2.0000      -0.605839       -16.4857
 132   2.0000      -0.601810       -16.3761
 133   2.0000      -0.600632       -16.3440
 134   2.0000      -0.598590       -16.2885
 135   2.0000      -0.595342       -16.2001
 136   2.0000      -0.591041       -16.0830
 137   2.0000      -0.589251       -16.0343
 138   2.0000      -0.587652       -15.9908
 139   2.0000      -0.586468       -15.9586
 140   2.0000      -0.582252       -15.8439
 141   2.0000      -0.578510       -15.7421
 142   2.0000      -0.576860       -15.6972
 143   2.0000      -0.564341       -15.3565
 144   2.0000      -0.563203       -15.3255
 145   2.0000      -0.560511       -15.2523
 146   2.0000      -0.554046       -15.0764
 147   2.0000      -0.553474       -15.0608
 148   2.0000      -0.544255       -14.8099
 149   2.0000      -0.542576       -14.7643
 150   2.0000      -0.539829       -14.6895
 151   2.0000      -0.538534       -14.6543
 152   2.0000      -0.532006       -14.4766
 153   2.0000      -0.528661       -14.3856
 154   2.0000      -0.525880       -14.3099
 155   2.0000      -0.523267       -14.2388
 156   2.0000      -0.520522       -14.1641
 157   2.0000      -0.518027       -14.0962
 158   2.0000      -0.514540       -14.0014
 159   2.0000      -0.511312       -13.9135
 160   2.0000      -0.509072       -13.8525
 161   2.0000      -0.505526       -13.7560
 162   2.0000      -0.504194       -13.7198
 163   2.0000      -0.498806       -13.5732
 164   2.0000      -0.497895       -13.5484
 165   2.0000      -0.491472       -13.3736
 166   2.0000      -0.490635       -13.3509
 167   2.0000      -0.489552       -13.3214
 168   2.0000      -0.486844       -13.2477
 169   2.0000      -0.485105       -13.2004
 170   2.0000      -0.484491       -13.1837
 171   2.0000      -0.477626       -12.9969
 172   2.0000      -0.477328       -12.9888
 173   2.0000      -0.472521       -12.8579
 174   2.0000      -0.471568       -12.8320
 175   2.0000      -0.469886       -12.7862
 176   2.0000      -0.464217       -12.6320
 177   2.0000      -0.464113       -12.6292
 178   2.0000      -0.455471       -12.3940
 179   2.0000      -0.450758       -12.2657
 180   2.0000      -0.449470       -12.2307
 181   2.0000      -0.447477       -12.1765
 182   2.0000      -0.443974       -12.0811
 183   2.0000      -0.435293       -11.8449
 184   2.0000      -0.429659       -11.6916
 185   2.0000      -0.420775       -11.4499
 186   2.0000      -0.418825       -11.3968
 187   2.0000      -0.414302       -11.2737
 188   2.0000      -0.394567       -10.7367
 189   2.0000      -0.392775       -10.6879
 190   2.0000      -0.391644       -10.6572
 191   2.0000      -0.386984       -10.5304
 192   2.0000      -0.385355       -10.4861
 193   2.0000      -0.383451       -10.4342
 194   2.0000      -0.380499       -10.3539
 195   2.0000      -0.378727       -10.3057
 196   2.0000      -0.377745       -10.2790
 197   2.0000      -0.376953       -10.2574
 198   2.0000      -0.376275       -10.2390
 199   2.0000      -0.374859       -10.2004
 200   2.0000      -0.370403       -10.0792
 201   2.0000      -0.368672       -10.0321
 202   2.0000      -0.363938        -9.9033
 203   2.0000      -0.362622        -9.8674
 204   2.0000      -0.360598        -9.8124
 205   2.0000      -0.356777        -9.7084
 206   2.0000      -0.349032        -9.4976
 207   2.0000      -0.343559        -9.3487
 208   2.0000      -0.343114        -9.3366
 209   2.0000      -0.333816        -9.0836
 210   2.0000      -0.333500        -9.0750
 211   2.0000      -0.310199        -8.4409
 212   2.0000      -0.304137        -8.2760
 213   2.0000      -0.297939        -8.1073
 214   2.0000      -0.272573        -7.4171
 215   2.0000      -0.241539        -6.5726
 216   0.0000      -0.152439        -4.1481
 217   0.0000      -0.133038        -3.6201
 218   0.0000      -0.090585        -2.4649
 219   0.0000      -0.061117        -1.6631
 220   0.0000      -0.040594        -1.1046

MULLIKEN ATOMIC CHARGES
-----------------------
   0 C :    0.145002
   1 O :   -0.166346
   2 C :    0.017634
   3 N :   -0.096033
   4 C :    0.025961
   5 C :    0.080245
   6 C :    0.073685
   7 N :    0.260429
   8 O :   -0.239676
   9 O :   -0.228011
  10 C :    0.017492
  11 C :   -0.008669
  12 C :    0.027346
  13 C :    0.035512
  14 C :    0.006666
  15 C :    0.027397
  16 C :    0.095411
  17 N :    0.269716
  18 O :   -0.244170
  19 O :   -0.245948
  20 C :    0.031539
  21 C :   -0.023076
  22 C :   -0.052696
  23 C :    0.132543
  24 N :   -0.249426
  25 C :    0.094296
  26 C :    0.002905
  27 C :    0.164160
  28 O :   -0.199484
  29 C :   -0.068363
  30 C :   -0.057306
  31 C :    0.163145
  32 O :   -0.181185
  33 N :   -0.253205
  34 C :    0.092113
  35 C :    0.007765
  36 C :    0.147988
  37 C :   -0.012593
  38 C :   -0.068800
  39 C :    0.095890
  40 C :    0.058223
  41 N :    0.281019
  42 O :   -0.244845
  43 O :   -0.258575
  44 C :    0.017952
  45 C :   -0.012636
  46 C :    0.004348
  47 C :    0.023826
  48 C :    0.046099
  49 C :    0.029666
  50 C :    0.052418
  51 N :    0.279899
  52 O :   -0.261504
  53 O :   -0.251635
  54 C :    0.093992
  55 C :   -0.094630
  56 C :    0.061325
  57 C :    0.112200
  58 O :   -0.166499
  59 C :    0.169467
  60 N :   -0.103722
  61 C :   -0.035331
  62 H :    0.027012
  63 H :    0.010914
  64 H :    0.001064
  65 H :    0.018390
  66 H :    0.005377
  67 H :    0.007851
  68 H :    0.053101
  69 H :    0.005138
  70 H :    0.047435
  71 H :    0.028581
  72 H :    0.031276
  73 H :    0.028699
  74 H :    0.019984
  75 H :    0.044693
  76 H :    0.042758
  77 H :    0.030287
  78 H :    0.030772
  79 H :    0.017628
  80 H :   -0.004594
  81 H :    0.024428
  82 H :    0.006441
  83 H :    0.002576
  84 H :   -0.008854
  85 H :    0.003747
  86 H :    0.006678
  87 H :    0.040496
  88 H :    0.038893
  89 H :    0.018318
Sum of atomic charges:   -0.0000000

LOEWDIN ATOMIC CHARGES
----------------------
   0 C :    0.035334
   1 O :    0.035611
   2 C :    0.037503
   3 N :   -0.082248
   4 C :   -0.035776
   5 C :   -0.033983
   6 C :   -0.011486
   7 N :    0.279935
   8 O :   -0.202677
   9 O :   -0.195659
  10 C :   -0.012014
  11 C :   -0.025254
  12 C :    0.033313
  13 C :    0.054136
  14 C :   -0.032062
  15 C :    0.024920
  16 C :   -0.036366
  17 N :    0.283159
  18 O :   -0.207566
  19 O :   -0.210176
  20 C :    0.000176
  21 C :    0.033447
  22 C :   -0.025011
  23 C :    0.067319
  24 N :    0.003640
  25 C :    0.037783
  26 C :   -0.059645
  27 C :    0.079546
  28 O :   -0.187616
  29 C :   -0.106069
  30 C :   -0.098509
  31 C :    0.079722
  32 O :   -0.173346
  33 N :    0.006817
  34 C :    0.038825
  35 C :   -0.057964
  36 C :    0.077049
  37 C :   -0.016397
  38 C :    0.016888
  39 C :    0.002136
  40 C :   -0.050710
  41 N :    0.287829
  42 O :   -0.208224
  43 O :   -0.220536
  44 C :    0.015572
  45 C :   -0.048344
  46 C :    0.024765
  47 C :    0.057174
  48 C :   -0.039163
  49 C :    0.037226
  50 C :   -0.059038
  51 N :    0.287005
  52 O :   -0.217748
  53 O :   -0.214599
  54 C :    0.018383
  55 C :   -0.034583
  56 C :    0.021216
  57 C :   -0.005262
  58 O :    0.031226
  59 C :    0.074322
  60 N :   -0.093932
  61 C :   -0.011426
  62 H :    0.031266
  63 H :    0.028161
  64 H :    0.037899
  65 H :    0.035782
  66 H :    0.026413
  67 H :    0.040033
  68 H :    0.046133
  69 H :    0.033644
  70 H :    0.039262
  71 H :    0.025325
  72 H :    0.033056
  73 H :    0.033302
  74 H :    0.023500
  75 H :    0.038532
  76 H :    0.030851
  77 H :    0.032075
  78 H :    0.034880
  79 H :    0.023198
  80 H :    0.027679
  81 H :    0.040514
  82 H :    0.038671
  83 H :    0.031670
  84 H :    0.029737
  85 H :    0.038146
  86 H :    0.034817
  87 H :    0.041406
  88 H :    0.027906
  89 H :    0.027552

  Mayer bond orders larger than 0.100000
B(  0-C ,  1-O ) :   1.1467 B(  0-C ,  4-C ) :   1.5568 B(  0-C , 62-H ) :   0.9927
B(  1-O ,  2-C ) :   1.2210 B(  2-C ,  3-N ) :   1.6915 B(  2-C ,  5-C ) :   0.9911
B(  3-N ,  4-C ) :   1.3205 B(  3-N , 66-H ) :   0.1164 B(  4-C , 63-H ) :   0.9918
B(  5-C ,  6-C ) :   1.5759 B(  5-C , 12-C ) :   1.1038 B(  6-C ,  7-N ) :   0.9089
B(  6-C , 10-C ) :   1.1298 B(  7-N ,  8-O ) :   1.5267 B(  7-N ,  9-O ) :   1.5370
B(  8-O ,  9-O ) :   0.2799 B( 10-C , 11-C ) :   1.6003 B( 10-C , 64-H ) :   1.0193
B( 11-C , 12-C ) :   1.1036 B( 11-C , 65-H ) :   0.9892 B( 12-C , 13-C ) :   1.5020
B( 13-C , 14-C ) :   1.1631 B( 13-C , 20-C ) :   0.9800 B( 14-C , 15-C ) :   1.5311
B( 14-C , 66-H ) :   0.9742 B( 15-C , 16-C ) :   1.1397 B( 15-C , 67-H ) :   1.0137
B( 16-C , 17-N ) :   0.9433 B( 16-C , 20-C ) :   1.4888 B( 17-N , 18-O ) :   1.4988
B( 17-N , 19-O ) :   1.5264 B( 18-O , 19-O ) :   0.2633 B( 20-C , 21-C ) :   1.2194
B( 21-C , 22-C ) :   1.4918 B( 21-C , 68-H ) :   0.9242 B( 22-C , 23-C ) :   1.2155
B( 22-C , 69-H ) :   0.9504 B( 23-C , 24-N ) :   1.1620 B( 23-C , 30-C ) :   1.2900
B( 24-N , 25-C ) :   0.9406 B( 24-N , 27-C ) :   1.0679 B( 25-C , 26-C ) :   1.1201
B( 25-C , 70-H ) :   0.9291 B( 25-C , 71-H ) :   0.9500 B( 26-C , 72-H ) :   0.9639
B( 26-C , 73-H ) :   0.9676 B( 26-C , 74-H ) :   0.9682 B( 27-C , 28-O ) :   2.0257
B( 27-C , 29-C ) :   0.9818 B( 29-C , 30-C ) :   1.3255 B( 29-C , 36-C ) :   1.2457
B( 30-C , 31-C ) :   0.9622 B( 31-C , 32-O ) :   2.0913 B( 31-C , 33-N ) :   1.0551
B( 33-N , 34-C ) :   0.9334 B( 33-N , 36-C ) :   1.1758 B( 34-C , 35-C ) :   1.1251
B( 34-C , 75-H ) :   0.9275 B( 34-C , 76-H ) :   0.9484 B( 35-C , 77-H ) :   0.9637
B( 35-C , 78-H ) :   0.9679 B( 35-C , 79-H ) :   0.9667 B( 36-C , 37-C ) :   1.2043
B( 37-C , 38-C ) :   1.5007 B( 37-C , 80-H ) :   0.9379 B( 38-C , 39-C ) :   1.2139
B( 38-C , 81-H ) :   0.9479 B( 39-C , 40-C ) :   1.3885 B( 39-C , 46-C ) :   1.0370
B( 40-C , 41-N ) :   0.9618 B( 40-C , 44-C ) :   1.1917 B( 41-N , 42-O ) :   1.5385
B( 41-N , 43-O ) :   1.4590 B( 42-O , 43-O ) :   0.2471 B( 43-O , 80-H ) :   0.1113
B( 44-C , 45-C ) :   1.5203 B( 44-C , 82-H ) :   1.0062 B( 45-C , 46-C ) :   1.1561
B( 45-C , 83-H ) :   1.0053 B( 46-C , 47-C ) :   1.4596 B( 47-C , 48-C ) :   1.1688
B( 47-C , 54-C ) :   1.0061 B( 48-C , 49-C ) :   1.5501 B( 48-C , 84-H ) :   1.0003
B( 49-C , 50-C ) :   1.1401 B( 49-C , 85-H ) :   1.0054 B( 50-C , 51-N ) :   0.9628
B( 50-C , 54-C ) :   1.4677 B( 51-N , 52-O ) :   1.4685 B( 51-N , 53-O ) :   1.5346
B( 52-O , 53-O ) :   0.2486 B( 54-C , 55-C ) :   1.1950 B( 55-C , 56-C ) :   1.5981
B( 55-C , 86-H ) :   0.9591 B( 56-C , 57-C ) :   1.1168 B( 56-C , 87-H ) :   0.9499
B( 57-C , 58-O ) :   1.1223 B( 57-C , 61-C ) :   1.4728 B( 58-O , 59-C ) :   1.1978
B( 59-C , 60-N ) :   1.6922 B( 59-C , 88-H ) :   0.9845 B( 60-N , 61-C ) :   1.3988
B( 61-C , 89-H ) :   0.9935

-----------------------------------------------------------------------------
         ABSORPTION SPECTRUM VIA TRANSITION ELECTRIC DIPOLE MOMENTS
-----------------------------------------------------------------------------
State   Energy  Wavelength   fosc         T2         TX        TY        TZ
        (cm-1)    (nm)                  (au**2)     (au)      (au)      (au)
-----------------------------------------------------------------------------
   0    4501.3   2221.6   0.251805554  18.41616   1.93000  -3.76441   0.72147
   1    8548.1   1169.9   0.044352285   1.70813  -0.48485  -0.53879   1.08755
   2    9599.6   1041.7   0.045605536   1.56400   1.22787   0.20945  -0.11164
   3   14671.0    681.6   0.006569954   0.14743  -0.07434  -0.24652   0.28483
   4   16199.2    617.3   0.014067044   0.28588   0.17980  -0.19351  -0.46487
   5   16677.0    599.6   0.131001414   2.58603  -0.76720  -1.32681   0.48684
   6   17373.7    575.6   0.074930560   1.41985   0.00909   1.17445  -0.20105
   7   19205.4    520.7   0.007639062   0.13095   0.13079  -0.03226   0.33586
   8   21966.6    455.2   0.000484105   0.00726   0.04978   0.05461   0.04237
   9   22462.0    445.2   0.142461778   2.08798   0.96784  -1.04357   0.24943
  10   23188.3    431.3   0.059141442   0.83965   0.72700  -0.21529  -0.51456
  11   23432.6    426.8   0.053325614   0.74919  -0.08237   0.11029   0.85454
  12   23835.3    419.5   0.070410150   0.97250  -0.87884   0.42044   0.15286
  13   24166.6    413.8   0.210501065   2.86757   1.25535  -0.97890   0.57741
  14   24503.2    408.1   0.076608972   1.02928   0.31915   0.69751  -0.66400
  15   24779.1    403.6   0.085627940   1.13764  -0.42563  -0.72097   0.66082
  16   25227.7    396.4   0.020814881   0.27163   0.37374   0.13893   0.33562
  17   25487.5    392.3   0.112474123   1.45278   0.15930   0.05746   1.19336
  18   25751.0    388.3   0.001632650   0.02087   0.02653   0.13549   0.04257
  19   26332.8    379.8   0.018055098   0.22572   0.45052   0.07004   0.13362
  20   26429.2    378.4   0.131140820   1.63354  -0.17632   0.13677   1.25847
  21   26767.4    373.6   0.066699477   0.82034   0.67710   0.05785  -0.59877
  22   27180.9    367.9   0.052381286   0.63444  -0.33383  -0.69375  -0.20421
  23   27289.8    366.4   0.057443813   0.69298  -0.49570  -0.49486  -0.44986
  24   28500.6    350.9   0.010306677   0.11905   0.15966   0.25380  -0.17072
  25   29074.7    343.9   0.198003811   2.24199  -0.09957   0.26271   1.47074
  26   29614.6    337.7   0.004056259   0.04509  -0.20039   0.00247   0.07020
  27   30018.7    333.1   0.026039802   0.28558  -0.26118   0.37828  -0.27251
  28   30325.9    329.8   0.197280039   2.14163  -0.11429  -0.19150   1.44634
  29   30566.3    327.2   0.108344013   1.16691  -0.42967   0.98651   0.09530
  30   30675.3    326.0   0.023251685   0.24954  -0.01521   0.20976   0.45311
  31   30826.2    324.4   0.035700774   0.38127   0.02911  -0.43204  -0.44019
  32   30956.0    323.0   0.212984514   2.26506   0.06369   0.39211  -1.45164
  33   31172.9    320.8   0.123309722   1.30226   0.63644  -0.83559   0.44608
  34   31490.9    317.6   0.108318385   1.13238  -0.15420   0.63701  -0.83835
  35   31620.6    316.2   0.018180145   0.18928  -0.26614   0.33813   0.06413
  36   31703.7    315.4   0.038030254   0.39491   0.19958  -0.48224   0.35003
  37   31844.3    314.0   0.136007679   1.40607   0.05478   0.67632   0.97245
  38   32127.5    311.3   0.007401895   0.07585  -0.07865  -0.26393   0.00211
  39   32197.3    310.6   0.058361315   0.59673   0.14389  -0.75874   0.01851
  40   32286.2    309.7   0.200171635   2.04109   0.13396   0.65790  -1.26107
  41   32334.2    309.3   0.113690946   1.15755   0.04481   0.20712  -1.05482
  42   33000.4    303.0   0.054778524   0.54647   0.01730   0.68643   0.27382
  43   33211.8    301.1   0.006486953   0.06430   0.14858  -0.06989  -0.19324
  44   33535.2    298.2   0.005990724   0.05881  -0.01123  -0.15748   0.18408
  45   33635.7    297.3   0.004853969   0.04751  -0.05903  -0.00236   0.20981
  46   33721.9    296.5   0.320216494   3.12613   0.30271   0.69175   1.59874
  47   34063.1    293.6   0.007273157   0.07029   0.11345   0.15814   0.18004
  48   34256.0    291.9   0.003419755   0.03287  -0.06011   0.17094   0.00546
  49   34630.3    288.8   0.060456102   0.57472   0.32289  -0.00224  -0.68590
  50   34776.5    287.6   0.011996567   0.11357   0.03144   0.12774   0.31026
  51   35511.6    281.6   0.057837576   0.53619  -0.20034   0.06602   0.70121
  52   35742.9    279.8   0.082904054   0.76359   0.19985   0.66472   0.53085
  53   35915.3    278.4   0.022780019   0.20881   0.22423  -0.22789   0.32649
  54   36005.7    277.7   0.046206257   0.42248   0.40824   0.32079   0.39104
  55   36640.1    272.9   0.123674867   1.11122  -0.95563   0.37631  -0.23745
  56   36691.2    272.5   0.022147679   0.19872   0.03380   0.19104   0.40135
  57   37115.1    269.4   0.079397005   0.70425  -0.52525   0.36871  -0.54076
  58   37241.3    268.5   0.020539259   0.18157   0.25972  -0.23984   0.23789
  59   37528.4    266.5   0.017375408   0.15242   0.32491  -0.17439   0.12823
  60   38011.6    263.1   0.069745306   0.60405  -0.16347   0.13850   0.74709
  61   38202.4    261.8   0.022703191   0.19565  -0.20139   0.39280   0.02816
  62   38448.2    260.1   0.057759111   0.49456   0.23777  -0.08698   0.65610
  63   38513.6    259.6   0.005457786   0.04665   0.06167  -0.02715  -0.20521
  64   38908.8    257.0   0.026970861   0.22820  -0.31511   0.22268  -0.28164
  65   39117.8    255.6   0.005319818   0.04477  -0.00648   0.06494  -0.20128
  66   39451.0    253.5   0.024939533   0.20812   0.15607   0.15115   0.40114
  67   39603.2    252.5   0.042265681   0.35134   0.46234  -0.36679   0.05523
  68   39928.7    250.4   0.041796586   0.34461  -0.20240  -0.17772  -0.52160
  69   40107.6    249.3   0.013987805   0.11481   0.02087  -0.07281  -0.33027
  70   40296.5    248.2   0.027940051   0.22826  -0.37047  -0.22230  -0.20397

FINAL SINGLE POINT ENERGY     -2953.855260907496

DIPOLE MOMENT
-------------
                                X             Y             Z
Electronic contribution:      4.99434      -2.58091      12.98506
Nuclear contribution   :     -6.00725       2.20694     -12.35698
                        -----------------------------------------
Total Dipole Moment    :     -1.01291      -0.37396       0.62808
                        -----------------------------------------
Magnitude (a.u.)       :      1.24913
Magnitude (Debye)      :      3.17504

Rotational constants in cm-1:     0.001845     0.000552     0.000478
Rotational constants in MHz :    55.308872    16.535639    14.340946

                             ****ORCA TERMINATED NORMALLY****
TOTAL RUN TIME: 0 days 0 hours 9 minutes 10 seconds 871 msec
