                         Program Version 4.2.0 -  RELEASE  -
|  1> # ORCA input file
|  2> # SCF done       -110.862110909031          0.000504982649
|  3> ! CAM-B3LYP def2-SVP def2/J RIJCOSX Grid4 TightSCF
|  4> %maxcore 5000
|  5> %tddft
|  6>     Mode sTDDFT
|  7>     Ethresh 5.0
|  8>     maxcore 5000
|  9> end
| 10>
| 11> %pal
| 12>   nprocs 6
| 13>   end
| 14> * xyz 0 1
| 15>    C       -0.64049        -0.64519         1.34929
| 16>    O       -0.34440         0.63529         1.63725
| 17>    C       -0.51928         1.30302         0.47713
| 18>    N       -0.90060         0.52970        -0.50281
| 19>    C       -0.98350        -0.71426         0.03264
| 20>    C       -0.28757         2.72040         0.39783
| 21>    C        0.11646         3.49375         1.49646
| 22>    N        0.33279         4.78115         1.39783
| 23>    C        0.14926         5.36023         0.20871
| 24>    N       -0.24053         4.71339        -0.89643
| 25>    C       -0.45087         3.42098        -0.80387
| 26>    C        0.40785         6.77900         0.16118
| 27>    N        0.44745         7.54733        -0.97387
| 28>    C        0.16238         7.14442        -2.32992
| 29>    C       -1.33897         7.11219        -2.59793
| 30>    C        0.76611         8.88655        -0.68165
| 31>    O        0.87530         9.74781        -1.53273
| 32>    C        0.92274         8.91342         0.75368
| 33>    C        0.69749         7.59675         1.24287
| 34>    C        0.83186         7.62815         2.68844
| 35>    O        0.72183         6.79421         3.55458
| 36>    N        1.13610         8.98401         2.96823
| 37>    C        1.40937         9.42021         4.31528
| 38>    C        2.90783         9.56163         4.57212
| 39>    C        1.19701         9.74826         1.83140
| 40>    C        1.48406        11.14404         1.83894
| 41>    C        1.60147        11.87885         0.71523
| 42>    C        1.90393        13.29508         0.74707
| 43>    N        2.01614        13.90296         1.93458
| 44>    C        2.28666        15.19467         1.91987
| 45>    C        2.45836        15.91008         0.74592
| 46>    C        2.33444        15.19133        -0.45142
| 47>    N        2.05389        13.88947        -0.42936
| 48>    C        2.50936        15.82490        -1.74169
| 49>    C        2.41821        15.13541        -2.89085
| 50>    C        2.58876        15.70227        -4.19030
| 51>    O        2.85131        17.02790        -4.37059
| 52>    C        2.94643        17.18410        -5.69151
| 53>    N        2.77343        16.09871        -6.37384
| 54>    C        2.54302        15.13558        -5.44433
| 55>    H       -0.56928        -1.36959         2.13361
| 56>    H       -1.27875        -1.55717        -0.55631
| 57>    H        0.26955         3.05406         2.47320
| 58>    H       -0.76122         2.90714        -1.70321
| 59>    H        0.59710         6.16104        -2.51186
| 60>    H        0.63794         7.89147        -2.97184
| 61>    H       -1.81369         6.36422        -1.96882
| 62>    H       -1.51984         6.86015        -3.63873
| 63>    H       -1.77753         8.08567        -2.39159
| 64>    H        0.99577         8.64809         4.97038
| 65>    H        0.89183        10.36377         4.50868
| 66>    H        3.40281         8.60737         4.40930
| 67>    H        3.07805         9.87097         5.59963
| 68>    H        3.34861        10.29975         3.90583
| 69>    H        1.61705        11.63789         2.79098
| 70>    H        1.48350        11.44473        -0.26728
| 71>    H        2.36955        15.66948         2.89020
| 72>    H        2.67984        16.96496         0.75038
| 73>    H        2.72401        16.88442        -1.74327
| 74>    H        2.20410        14.07726        -2.85630
| 75>    H        3.15145        18.15771        -6.08990
| 76>    H        2.36321        14.11779        -5.72070
| 77> *
| 78>
| 79>                          ****END OF INPUT****

CARTESIAN COORDINATES (ANGSTROEM)
---------------------------------
  C     -0.640490   -0.645190    1.349290
  O     -0.344400    0.635290    1.637250
  C     -0.519280    1.303020    0.477130
  N     -0.900600    0.529700   -0.502810
  C     -0.983500   -0.714260    0.032640
  C     -0.287570    2.720400    0.397830
  C      0.116460    3.493750    1.496460
  N      0.332790    4.781150    1.397830
  C      0.149260    5.360230    0.208710
  N     -0.240530    4.713390   -0.896430
  C     -0.450870    3.420980   -0.803870
  C      0.407850    6.779000    0.161180
  N      0.447450    7.547330   -0.973870
  C      0.162380    7.144420   -2.329920
  C     -1.338970    7.112190   -2.597930
  C      0.766110    8.886550   -0.681650
  O      0.875300    9.747810   -1.532730
  C      0.922740    8.913420    0.753680
  C      0.697490    7.596750    1.242870
  C      0.831860    7.628150    2.688440
  O      0.721830    6.794210    3.554580
  N      1.136100    8.984010    2.968230
  C      1.409370    9.420210    4.315280
  C      2.907830    9.561630    4.572120
  C      1.197010    9.748260    1.831400
  C      1.484060   11.144040    1.838940
  C      1.601470   11.878850    0.715230
  C      1.903930   13.295080    0.747070
  N      2.016140   13.902960    1.934580
  C      2.286660   15.194670    1.919870
  C      2.458360   15.910080    0.745920
  C      2.334440   15.191330   -0.451420
  N      2.053890   13.889470   -0.429360
  C      2.509360   15.824900   -1.741690
  C      2.418210   15.135410   -2.890850
  C      2.588760   15.702270   -4.190300
  O      2.851310   17.027900   -4.370590
  C      2.946430   17.184100   -5.691510
  N      2.773430   16.098710   -6.373840
  C      2.543020   15.135580   -5.444330
  H     -0.569280   -1.369590    2.133610
  H     -1.278750   -1.557170   -0.556310
  H      0.269550    3.054060    2.473200
  H     -0.761220    2.907140   -1.703210
  H      0.597100    6.161040   -2.511860
  H      0.637940    7.891470   -2.971840
  H     -1.813690    6.364220   -1.968820
  H     -1.519840    6.860150   -3.638730
  H     -1.777530    8.085670   -2.391590
  H      0.995770    8.648090    4.970380
  H      0.891830   10.363770    4.508680
  H      3.402810    8.607370    4.409300
  H      3.078050    9.870970    5.599630
  H      3.348610   10.299750    3.905830
  H      1.617050   11.637890    2.790980
  H      1.483500   11.444730   -0.267280
  H      2.369550   15.669480    2.890200
  H      2.679840   16.964960    0.750380
  H      2.724010   16.884420   -1.743270
  H      2.204100   14.077260   -2.856300
  H      3.151450   18.157710   -6.089900
  H      2.363210   14.117790   -5.720700

 Total Charge           Charge          ....    0
 Multiplicity           Mult            ....    1
 Number of Electrons    NEL             ....  278
 Basis Dimension        Dim             ....  670

ORBITAL ENERGIES
----------------

  NO   OCC          E(Eh)            E(eV)
   0   2.0000     -19.309400      -525.4355
   1   2.0000     -19.301885      -525.2310
   2   2.0000     -19.178953      -521.8858
   3   2.0000     -19.175167      -521.7828
   4   2.0000     -14.442137      -392.9905
   5   2.0000     -14.439535      -392.9197
   6   2.0000     -14.418389      -392.3443
   7   2.0000     -14.411489      -392.1565
   8   2.0000     -14.409881      -392.1128
   9   2.0000     -14.405978      -392.0066
  10   2.0000     -14.404417      -391.9641
  11   2.0000     -14.403403      -391.9365
  12   2.0000     -10.367526      -282.1147
  13   2.0000     -10.363613      -282.0082
  14   2.0000     -10.358436      -281.8674
  15   2.0000     -10.356447      -281.8133
  16   2.0000     -10.351833      -281.6877
  17   2.0000     -10.338556      -281.3264
  18   2.0000     -10.333886      -281.1993
  19   2.0000     -10.332935      -281.1735
  20   2.0000     -10.331531      -281.1352
  21   2.0000     -10.327192      -281.0172
  22   2.0000     -10.326036      -280.9857
  23   2.0000     -10.325595      -280.9737
  24   2.0000     -10.322137      -280.8796
  25   2.0000     -10.319195      -280.7996
  26   2.0000     -10.302935      -280.3571
  27   2.0000     -10.300539      -280.2919
  28   2.0000     -10.298496      -280.2363
  29   2.0000     -10.297187      -280.2007
  30   2.0000     -10.288892      -279.9750
  31   2.0000     -10.282770      -279.8084
  32   2.0000     -10.281866      -279.7838
  33   2.0000     -10.280166      -279.7375
  34   2.0000     -10.275959      -279.6231
  35   2.0000     -10.274290      -279.5777
  36   2.0000     -10.255947      -279.0785
  37   2.0000     -10.255385      -279.0632
  38   2.0000     -10.249197      -278.8948
  39   2.0000     -10.239552      -278.6324
  40   2.0000      -1.238320       -33.6964
  41   2.0000      -1.231565       -33.5126
  42   2.0000      -1.121717       -30.5235
  43   2.0000      -1.113773       -30.3073
  44   2.0000      -1.090294       -29.6684
  45   2.0000      -1.079160       -29.3654
  46   2.0000      -1.051409       -28.6103
  47   2.0000      -1.040154       -28.3040
  48   2.0000      -1.017309       -27.6824
  49   2.0000      -1.010851       -27.5067
  50   2.0000      -0.984044       -26.7772
  51   2.0000      -0.978602       -26.6291
  52   2.0000      -0.923180       -25.1210
  53   2.0000      -0.918492       -24.9934
  54   2.0000      -0.913273       -24.8514
  55   2.0000      -0.899320       -24.4717
  56   2.0000      -0.873263       -23.7627
  57   2.0000      -0.860931       -23.4271
  58   2.0000      -0.852291       -23.1920
  59   2.0000      -0.831231       -22.6189
  60   2.0000      -0.806948       -21.9582
  61   2.0000      -0.805513       -21.9191
  62   2.0000      -0.789298       -21.4779
  63   2.0000      -0.757459       -20.6115
  64   2.0000      -0.756396       -20.5826
  65   2.0000      -0.745961       -20.2986
  66   2.0000      -0.739408       -20.1203
  67   2.0000      -0.723500       -19.6874
  68   2.0000      -0.717245       -19.5172
  69   2.0000      -0.716195       -19.4887
  70   2.0000      -0.702221       -19.1084
  71   2.0000      -0.693765       -18.8783
  72   2.0000      -0.677406       -18.4332
  73   2.0000      -0.674620       -18.3573
  74   2.0000      -0.655854       -17.8467
  75   2.0000      -0.643977       -17.5235
  76   2.0000      -0.639199       -17.3935
  77   2.0000      -0.634499       -17.2656
  78   2.0000      -0.627785       -17.0829
  79   2.0000      -0.622713       -16.9449
  80   2.0000      -0.610729       -16.6188
  81   2.0000      -0.603383       -16.4189
  82   2.0000      -0.583313       -15.8728
  83   2.0000      -0.579879       -15.7793
  84   2.0000      -0.576281       -15.6814
  85   2.0000      -0.570935       -15.5359
  86   2.0000      -0.570564       -15.5258
  87   2.0000      -0.558620       -15.2008
  88   2.0000      -0.557921       -15.1818
  89   2.0000      -0.554713       -15.0945
  90   2.0000      -0.543541       -14.7905
  91   2.0000      -0.535098       -14.5608
  92   2.0000      -0.528702       -14.3867
  93   2.0000      -0.525579       -14.3017
  94   2.0000      -0.521425       -14.1887
  95   2.0000      -0.518975       -14.1220
  96   2.0000      -0.514659       -14.0046
  97   2.0000      -0.512531       -13.9467
  98   2.0000      -0.510833       -13.9005
  99   2.0000      -0.508340       -13.8326
 100   2.0000      -0.504535       -13.7291
 101   2.0000      -0.503220       -13.6933
 102   2.0000      -0.497581       -13.5399
 103   2.0000      -0.492068       -13.3899
 104   2.0000      -0.490068       -13.3354
 105   2.0000      -0.485712       -13.2169
 106   2.0000      -0.482861       -13.1393
 107   2.0000      -0.471018       -12.8171
 108   2.0000      -0.461289       -12.5523
 109   2.0000      -0.455749       -12.4016
 110   2.0000      -0.452092       -12.3020
 111   2.0000      -0.450740       -12.2652
 112   2.0000      -0.445121       -12.1124
 113   2.0000      -0.438073       -11.9206
 114   2.0000      -0.433139       -11.7863
 115   2.0000      -0.428770       -11.6674
 116   2.0000      -0.422428       -11.4949
 117   2.0000      -0.421161       -11.4604
 118   2.0000      -0.412970       -11.2375
 119   2.0000      -0.410863       -11.1802
 120   2.0000      -0.402512       -10.9529
 121   2.0000      -0.401571       -10.9273
 122   2.0000      -0.393733       -10.7140
 123   2.0000      -0.383695       -10.4409
 124   2.0000      -0.382498       -10.4083
 125   2.0000      -0.376110       -10.2345
 126   2.0000      -0.371448       -10.1076
 127   2.0000      -0.369548       -10.0559
 128   2.0000      -0.366728        -9.9792
 129   2.0000      -0.361714        -9.8427
 130   2.0000      -0.335805        -9.1377
 131   2.0000      -0.323570        -8.8048
 132   2.0000      -0.321408        -8.7460
 133   2.0000      -0.318482        -8.6663
 134   2.0000      -0.312122        -8.4933
 135   2.0000      -0.302448        -8.2300
 136   2.0000      -0.302099        -8.2205
 137   2.0000      -0.278977        -7.5913
 138   2.0000      -0.234739        -6.3876
 139   0.0000      -0.078406        -2.1335
 140   0.0000      -0.042078        -1.1450
 141   0.0000      -0.026730        -0.7273
 142   0.0000      -0.001457        -0.0396
 143   0.0000       0.015208         0.4138

MULLIKEN ATOMIC CHARGES
-----------------------
   0 C :    0.131924
   1 O :   -0.178973
   2 C :    0.081502
   3 N :   -0.094860
   4 C :    0.019410
   5 C :   -0.014783
   6 C :    0.049126
   7 N :    0.002821
   8 C :   -0.183009
   9 N :   -0.060585
  10 C :    0.059727
  11 C :    0.193005
  12 N :   -0.256922
  13 C :    0.144330
  14 C :    0.005790
  15 C :    0.153681
  16 O :   -0.209424
  17 C :   -0.068385
  18 C :   -0.057356
  19 C :    0.146876
  20 O :   -0.156024
  21 N :   -0.266958
  22 C :    0.102814
  23 C :    0.002322
  24 C :    0.153651
  25 C :    0.000337
  26 C :    0.048624
  27 C :   -0.080042
  28 N :   -0.078695
  29 C :    0.081271
  30 C :   -0.044717
  31 C :    0.050932
  32 N :   -0.039710
  33 C :   -0.018289
  34 C :    0.048268
  35 C :    0.130660
  36 O :   -0.187626
  37 C :    0.162027
  38 N :   -0.108105
  39 C :   -0.023315
  40 H :    0.023332
  41 H :    0.008709
  42 H :    0.019665
  43 H :    0.020554
  44 H :    0.021050
  45 H :    0.028017
  46 H :    0.014710
  47 H :    0.010902
  48 H :    0.015920
  49 H :    0.040484
  50 H :    0.023631
  51 H :    0.026852
  52 H :    0.019597
  53 H :    0.019870
  54 H :   -0.008179
  55 H :    0.015113
  56 H :    0.004517
  57 H :   -0.006144
  58 H :   -0.010791
  59 H :    0.031397
  60 H :    0.028771
  61 H :    0.010708
Sum of atomic charges:   -0.0000000

LOEWDIN ATOMIC CHARGES
----------------------
   0 C :    0.020943
   1 O :    0.021044
   2 C :    0.034896
   3 N :   -0.102060
   4 C :   -0.035799
   5 C :   -0.090362
   6 C :    0.064563
   7 N :   -0.043106
   8 C :    0.021469
   9 N :   -0.069190
  10 C :    0.073596
  11 C :    0.047311
  12 N :    0.010200
  13 C :    0.035690
  14 C :   -0.061524
  15 C :    0.076463
  16 O :   -0.202791
  17 C :   -0.126433
  18 C :   -0.095379
  19 C :    0.084088
  20 O :   -0.165985
  21 N :   -0.005923
  22 C :    0.035495
  23 C :   -0.061381
  24 C :    0.088629
  25 C :   -0.024429
  26 C :    0.024279
  27 C :    0.024395
  28 N :   -0.094551
  29 C :    0.049389
  30 C :   -0.065275
  31 C :    0.037479
  32 N :   -0.078694
  33 C :   -0.044255
  34 C :    0.011574
  35 C :    0.000126
  36 O :    0.015261
  37 C :    0.064248
  38 N :   -0.098322
  39 C :   -0.020307
  40 H :    0.027952
  41 H :    0.026887
  42 H :    0.031998
  43 H :    0.032992
  44 H :    0.021927
  45 H :    0.028745
  46 H :    0.018687
  47 H :    0.026465
  48 H :    0.024927
  49 H :    0.035916
  50 H :    0.023565
  51 H :    0.030995
  52 H :    0.029258
  53 H :    0.023574
  54 H :    0.031810
  55 H :    0.040017
  56 H :    0.025656
  57 H :    0.033220
  58 H :    0.029106
  59 H :    0.048629
  60 H :    0.023591
  61 H :    0.028711

  Mayer bond orders larger than 0.100000
B(  0-C ,  1-O ) :   1.1223 B(  0-C ,  4-C ) :   1.5773 B(  0-C , 40-H ) :   0.9930
B(  1-O ,  2-C ) :   1.2184 B(  2-C ,  3-N ) :   1.7570 B(  2-C ,  5-C ) :   1.0133
B(  3-N ,  4-C ) :   1.3286 B(  4-C , 41-H ) :   0.9919 B(  5-C ,  6-C ) :   1.2892
B(  5-C , 10-C ) :   1.3380 B(  6-C ,  7-N ) :   1.5792 B(  6-C , 42-H ) :   0.9916
B(  7-N ,  8-C ) :   1.6472 B(  7-N , 11-C ) :  -0.1292 B(  8-C ,  9-N ) :   1.4875
B(  8-C , 11-C ) :   0.9836 B(  9-N , 10-C ) :   1.5436 B( 10-C , 43-H ) :   0.9828
B( 11-C , 12-N ) :   1.2001 B( 11-C , 18-C ) :   1.4011 B( 12-N , 13-C ) :   0.9410
B( 12-N , 15-C ) :   1.0596 B( 13-C , 14-C ) :   1.1230 B( 13-C , 44-H ) :   0.9361
B( 13-C , 45-H ) :   0.9271 B( 14-C , 46-H ) :   0.9647 B( 14-C , 47-H ) :   0.9682
B( 14-C , 48-H ) :   0.9656 B( 15-C , 16-O ) :   2.0395 B( 15-C , 17-C ) :   0.9866
B( 17-C , 18-C ) :   1.2382 B( 17-C , 24-C ) :   1.3436 B( 18-C , 19-C ) :   0.9422
B( 19-C , 20-O ) :   2.1862 B( 19-C , 21-N ) :   1.0114 B( 21-N , 22-C ) :   0.9498
B( 21-N , 24-C ) :   1.1825 B( 22-C , 23-C ) :   1.1193 B( 22-C , 49-H ) :   0.9271
B( 22-C , 50-H ) :   0.9500 B( 23-C , 51-H ) :   0.9641 B( 23-C , 52-H ) :   0.9682
B( 23-C , 53-H ) :   0.9685 B( 24-C , 25-C ) :   1.1022 B( 25-C , 26-C ) :   1.6437
B( 25-C , 54-H ) :   0.9633 B( 26-C , 27-C ) :   1.0169 B( 26-C , 55-H ) :   0.9559
B( 27-C , 28-N ) :   1.5136 B( 27-C , 32-N ) :   1.5612 B( 28-N , 29-C ) :   1.5514
B( 29-C , 30-C ) :   1.3666 B( 29-C , 56-H ) :   0.9804 B( 30-C , 31-C ) :   1.3354
B( 30-C , 57-H ) :   0.9760 B( 31-C , 32-N ) :   1.5134 B( 31-C , 33-C ) :   1.0614
B( 33-C , 34-C ) :   1.7143 B( 33-C , 58-H ) :   0.9823 B( 34-C , 35-C ) :   1.0936
B( 34-C , 59-H ) :   0.9572 B( 35-C , 36-O ) :   1.1251 B( 35-C , 39-C ) :   1.5092
B( 36-O , 37-C ) :   1.1780 B( 37-C , 38-N ) :   1.7291 B( 37-C , 60-H ) :   0.9853
B( 38-N , 39-C ) :   1.3579 B( 39-C , 61-H ) :   0.9995

-----------------------------------------------------------------------------
         ABSORPTION SPECTRUM VIA TRANSITION ELECTRIC DIPOLE MOMENTS
-----------------------------------------------------------------------------
State   Energy  Wavelength   fosc         T2         TX        TY        TZ
        (cm-1)    (nm)                  (au**2)     (au)      (au)      (au)
-----------------------------------------------------------------------------
   0   17363.0    575.9   0.587988771  11.14858  -0.74585  -3.07150  -1.07620
   1   25899.9    386.1   0.010090400   0.12826  -0.04233  -0.35311  -0.04221
   2   26785.5    373.3   0.001259503   0.01548  -0.09660  -0.07799   0.00814
   3   27396.4    365.0   0.005731688   0.06888   0.04333   0.25788  -0.02231
   4   28785.6    347.4   0.007360759   0.08418  -0.03813   0.08817   0.27378
   5   29296.6    341.3   0.006524244   0.07331  -0.08096  -0.25833  -0.00516
   6   30152.7    331.6   0.053276841   0.58168   0.11496   0.70548   0.26601
   7   30989.2    322.7   0.000526041   0.00559   0.02614  -0.04253   0.05564
   8   31135.8    321.2   0.009733176   0.10291   0.09960   0.23446   0.19499
   9   31844.3    314.0   0.011368532   0.11753   0.06614   0.27279  -0.19683
  10   33298.7    300.3   1.061142228  10.49112  -0.55735  -2.93198   1.25855
  11   34408.9    290.6   0.300615562   2.87618   0.34078   0.29448  -1.63503
  12   34471.9    290.1   0.434576590   4.15027  -0.02918  -0.48797   1.97770
  13   36090.4    277.1   0.440158327   4.01507  -0.05596  -0.34861   1.97241
  14   38029.6    263.0   0.580823224   5.02803  -0.32601  -2.20712   0.22442

FINAL SINGLE POINT ENERGY     -1816.896196263592

DIPOLE MOMENT
-------------
                                X             Y             Z
Electronic contribution:     -0.64766      -4.96106      -3.49461
Nuclear contribution   :      0.89574       4.92931       4.40734
                        -----------------------------------------
Total Dipole Moment    :      0.24808      -0.03175       0.91273
                        -----------------------------------------
Magnitude (a.u.)       :      0.94637
Magnitude (Debye)      :      2.40549

Rotational constants in cm-1:     0.005448     0.001018     0.000868
Rotational constants in MHz :   163.332667    30.530225    26.010035

                             ****ORCA TERMINATED NORMALLY****
TOTAL RUN TIME: 0 days 0 hours 3 minutes 16 seconds 736 msec
