                         Program Version 4.2.0 -  RELEASE  -
|  1> # ORCA input file
|  2> # SCF done       -186.370495877394          0.000485162548
|  3> ! CAM-B3LYP def2-SVP def2/J RIJCOSX Grid4 TightSCF
|  4> %maxcore 5000
|  5> %tddft
|  6>     Mode sTDDFT
|  7>     Ethresh 5.0
|  8>     maxcore 5000
|  9> end
| 10>
| 11> %pal
| 12>   nprocs 6
| 13>   end
| 14> * xyz 0 1
| 15>    C        0.36081         1.79118        -0.08532
| 16>    S       -0.79052         2.93717         0.42959
| 17>    C       -1.53727         2.98769        -1.15151
| 18>    C       -0.89169         2.12128        -2.02500
| 19>    C        0.20330         1.45209        -1.39843
| 20>    C        1.08917         0.49904        -2.08203
| 21>    O        2.00168        -0.06868        -1.51100
| 22>    C        0.79058         0.30730        -3.51203
| 23>    C        1.62693        -0.50819        -4.27106
| 24>    C        1.38493        -0.71268        -5.61453
| 25>    C        0.29289        -0.11392        -6.23719
| 26>    C        0.05168        -0.29235        -7.70590
| 27>    C        0.76639         0.80823        -8.49428
| 28>    C       -0.54341         0.69375        -5.47940
| 29>    C       -0.31190         0.91617        -4.12599
| 30>    C       -1.26814         1.79111        -3.40290
| 31>    O       -2.29314         2.17067        -3.93904
| 32>    C       -2.61559         3.90677        -1.32630
| 33>    S       -3.34092         4.61580         0.09907
| 34>    C       -4.40246         5.61166        -0.85368
| 35>    C       -4.18658         5.38216        -2.21650
| 36>    C       -3.18616         4.42576        -2.46298
| 37>    C       -4.89057         6.06088        -3.30512
| 38>    O       -4.63375         5.90372        -4.47279
| 39>    C       -5.30005         6.52133        -0.25677
| 40>    C       -5.41577         6.71294         1.08596
| 41>    C       -6.28869         7.67662         1.63898
| 42>    N       -6.40982         7.92457         2.98848
| 43>    C       -5.67473         7.28227         4.05033
| 44>    C       -4.26264         7.84702         4.18704
| 45>    C       -7.31630         8.96273         3.25547
| 46>    O       -7.57777         9.35170         4.37847
| 47>    C       -7.79362         9.36630         1.95274
| 48>    C       -7.15194         8.55501         0.98418
| 49>    C       -7.62530         8.95920        -0.31904
| 50>    O       -7.36327         8.56238        -1.43999
| 51>    N       -8.52294        10.00389        -0.05598
| 52>    C       -9.25045        10.64873        -1.12207
| 53>    C      -10.68899        10.14575        -1.21340
| 54>    C       -8.63326        10.26429         1.29272
| 55>    C       -9.42999        11.30367         1.82824
| 56>    C       -9.50657        11.54662         3.16372
| 57>    C      -10.24039        12.61103         3.74449
| 58>    S      -10.20788        12.82022         5.47640
| 59>    C      -11.20562        14.24040         5.39132
| 60>    C      -11.54909        14.51764         4.06156
| 61>    C      -11.00355        13.59653         3.15451
| 62>    C      -12.38111        15.63201         3.61577
| 63>    O      -12.67117        15.83412         2.46142
| 64>    C      -11.56182        14.98083         6.54317
| 65>    C      -11.22431        14.61338         7.80302
| 66>    C      -11.48662        15.29634         9.02289
| 67>    S      -10.97627        14.41417        10.44891
| 68>    C      -11.46532        15.67234        11.48234
| 69>    C      -11.98377        16.73478        10.79573
| 70>    C      -12.01594        16.53727         9.38099
| 71>    C      -12.56590        17.58305         8.51517
| 72>    O      -12.77098        17.45398         7.31767
| 73>    C      -12.88732        18.86377         9.18570
| 74>    C      -13.27781        19.93652         8.38568
| 75>    C      -13.59021        21.16071         8.94180
| 76>    C      -13.53045        21.35425        10.31943
| 77>    C      -13.90905        22.67041        10.92914
| 78>    C      -15.40461        22.69237        11.25483
| 79>    C      -13.15717        20.28456        11.12018
| 80>    C      -12.83094        19.04871        10.57284
| 81>    C      -12.42833        17.95637        11.47874
| 82>    O      -12.43921        18.06132        12.69091
| 83>    H        1.10634         1.41619         0.58803
| 84>    H        2.46769        -0.97289        -3.77753
| 85>    H        2.04506        -1.34620        -6.18919
| 86>    H       -1.01851        -0.24458        -7.91332
| 87>    H        0.42367        -1.26669        -8.02809
| 88>    H        0.39773         1.78689        -8.19648
| 89>    H        0.59389         0.68157        -9.56006
| 90>    H        1.83769         0.77386        -8.30871
| 91>    H       -1.40225         1.16975        -5.93081
| 92>    H       -2.91309         4.13245        -3.45968
| 93>    H       -5.69080         6.74966        -2.98430
| 94>    H       -5.91455         7.11081        -0.92330
| 95>    H       -4.80914         6.12209         1.75906
| 96>    H       -5.64751         6.20329         3.87502
| 97>    H       -6.23682         7.47732         4.96806
| 98>    H       -3.69547         7.70711         3.26947
| 99>    H       -3.74317         7.34684         4.99960
|100>    H       -4.30978         8.91079         4.40650
|101>    H       -8.71614        10.40137        -2.04370
|102>    H       -9.22449        11.73306        -0.98156
|103>    H      -10.69605         9.07487        -1.40112
|104>    H      -11.20197        10.64496        -2.03066
|105>    H      -11.22993        10.33839        -0.28944
|106>    H       -9.97235        11.92957         1.13542
|107>    H       -8.96394        10.90662         3.84730
|108>    H      -11.17688        13.67834         2.09684
|109>    H      -12.74065        16.29806         4.41858
|110>    H      -12.12514        15.88881         6.39076
|111>    H      -10.68677        13.67946         7.93303
|112>    H      -11.35002        15.59719        12.54601
|113>    H      -13.32489        19.78565         7.31736
|114>    H      -13.88210        21.98047         8.30138
|115>    H      -13.67931        23.48062        10.23451
|116>    H      -13.33963        22.82982        11.84638
|117>    H      -15.99232        22.54657        10.35127
|118>    H      -15.67983        23.64591        11.69848
|119>    H      -15.65069        21.89839        11.95605
|120>    H      -13.10495        20.39076        12.19436
|121> *
|122>
|123>                          ****END OF INPUT****

CARTESIAN COORDINATES (ANGSTROEM)
---------------------------------
  C      0.360810    1.791180   -0.085320
  S     -0.790520    2.937170    0.429590
  C     -1.537270    2.987690   -1.151510
  C     -0.891690    2.121280   -2.025000
  C      0.203300    1.452090   -1.398430
  C      1.089170    0.499040   -2.082030
  O      2.001680   -0.068680   -1.511000
  C      0.790580    0.307300   -3.512030
  C      1.626930   -0.508190   -4.271060
  C      1.384930   -0.712680   -5.614530
  C      0.292890   -0.113920   -6.237190
  C      0.051680   -0.292350   -7.705900
  C      0.766390    0.808230   -8.494280
  C     -0.543410    0.693750   -5.479400
  C     -0.311900    0.916170   -4.125990
  C     -1.268140    1.791110   -3.402900
  O     -2.293140    2.170670   -3.939040
  C     -2.615590    3.906770   -1.326300
  S     -3.340920    4.615800    0.099070
  C     -4.402460    5.611660   -0.853680
  C     -4.186580    5.382160   -2.216500
  C     -3.186160    4.425760   -2.462980
  C     -4.890570    6.060880   -3.305120
  O     -4.633750    5.903720   -4.472790
  C     -5.300050    6.521330   -0.256770
  C     -5.415770    6.712940    1.085960
  C     -6.288690    7.676620    1.638980
  N     -6.409820    7.924570    2.988480
  C     -5.674730    7.282270    4.050330
  C     -4.262640    7.847020    4.187040
  C     -7.316300    8.962730    3.255470
  O     -7.577770    9.351700    4.378470
  C     -7.793620    9.366300    1.952740
  C     -7.151940    8.555010    0.984180
  C     -7.625300    8.959200   -0.319040
  O     -7.363270    8.562380   -1.439990
  N     -8.522940   10.003890   -0.055980
  C     -9.250450   10.648730   -1.122070
  C    -10.688990   10.145750   -1.213400
  C     -8.633260   10.264290    1.292720
  C     -9.429990   11.303670    1.828240
  C     -9.506570   11.546620    3.163720
  C    -10.240390   12.611030    3.744490
  S    -10.207880   12.820220    5.476400
  C    -11.205620   14.240400    5.391320
  C    -11.549090   14.517640    4.061560
  C    -11.003550   13.596530    3.154510
  C    -12.381110   15.632010    3.615770
  O    -12.671170   15.834120    2.461420
  C    -11.561820   14.980830    6.543170
  C    -11.224310   14.613380    7.803020
  C    -11.486620   15.296340    9.022890
  S    -10.976270   14.414170   10.448910
  C    -11.465320   15.672340   11.482340
  C    -11.983770   16.734780   10.795730
  C    -12.015940   16.537270    9.380990
  C    -12.565900   17.583050    8.515170
  O    -12.770980   17.453980    7.317670
  C    -12.887320   18.863770    9.185700
  C    -13.277810   19.936520    8.385680
  C    -13.590210   21.160710    8.941800
  C    -13.530450   21.354250   10.319430
  C    -13.909050   22.670410   10.929140
  C    -15.404610   22.692370   11.254830
  C    -13.157170   20.284560   11.120180
  C    -12.830940   19.048710   10.572840
  C    -12.428330   17.956370   11.478740
  O    -12.439210   18.061320   12.690910
  H      1.106340    1.416190    0.588030
  H      2.467690   -0.972890   -3.777530
  H      2.045060   -1.346200   -6.189190
  H     -1.018510   -0.244580   -7.913320
  H      0.423670   -1.266690   -8.028090
  H      0.397730    1.786890   -8.196480
  H      0.593890    0.681570   -9.560060
  H      1.837690    0.773860   -8.308710
  H     -1.402250    1.169750   -5.930810
  H     -2.913090    4.132450   -3.459680
  H     -5.690800    6.749660   -2.984300
  H     -5.914550    7.110810   -0.923300
  H     -4.809140    6.122090    1.759060
  H     -5.647510    6.203290    3.875020
  H     -6.236820    7.477320    4.968060
  H     -3.695470    7.707110    3.269470
  H     -3.743170    7.346840    4.999600
  H     -4.309780    8.910790    4.406500
  H     -8.716140   10.401370   -2.043700
  H     -9.224490   11.733060   -0.981560
  H    -10.696050    9.074870   -1.401120
  H    -11.201970   10.644960   -2.030660
  H    -11.229930   10.338390   -0.289440
  H     -9.972350   11.929570    1.135420
  H     -8.963940   10.906620    3.847300
  H    -11.176880   13.678340    2.096840
  H    -12.740650   16.298060    4.418580
  H    -12.125140   15.888810    6.390760
  H    -10.686770   13.679460    7.933030
  H    -11.350020   15.597190   12.546010
  H    -13.324890   19.785650    7.317360
  H    -13.882100   21.980470    8.301380
  H    -13.679310   23.480620   10.234510
  H    -13.339630   22.829820   11.846380
  H    -15.992320   22.546570   10.351270
  H    -15.679830   23.645910   11.698480
  H    -15.650690   21.898390   11.956050
  H    -13.104950   20.390760   12.194360

 Total Charge           Charge          ....    0
 Multiplicity           Mult            ....    1
 Number of Electrons    NEL             ....  504
 Basis Dimension        Dim             .... 1158

ORBITAL ENERGIES
----------------

  NO   OCC          E(Eh)            E(eV)
   0   2.0000     -88.978563     -2421.2298
   1   2.0000     -88.977865     -2421.2108
   2   2.0000     -88.967593     -2420.9313
   3   2.0000     -88.967319     -2420.9238
   4   2.0000     -19.215282      -522.8744
   5   2.0000     -19.209448      -522.7157
   6   2.0000     -19.208608      -522.6928
   7   2.0000     -19.207873      -522.6728
   8   2.0000     -19.204454      -522.5798
   9   2.0000     -19.201323      -522.4946
  10   2.0000     -19.192575      -522.2565
  11   2.0000     -19.189220      -522.1652
  12   2.0000     -14.453383      -393.2966
  13   2.0000     -14.452778      -393.2801
  14   2.0000     -10.374181      -282.2958
  15   2.0000     -10.372226      -282.2426
  16   2.0000     -10.371502      -282.2229
  17   2.0000     -10.364896      -282.0432
  18   2.0000     -10.364138      -282.0225
  19   2.0000     -10.359797      -281.9044
  20   2.0000     -10.353675      -281.7378
  21   2.0000     -10.345906      -281.5264
  22   2.0000     -10.338279      -281.3189
  23   2.0000     -10.337178      -281.2889
  24   2.0000     -10.332825      -281.1705
  25   2.0000     -10.331960      -281.1469
  26   2.0000     -10.322231      -280.8822
  27   2.0000     -10.321311      -280.8571
  28   2.0000     -10.318896      -280.7914
  29   2.0000     -10.314818      -280.6805
  30   2.0000     -10.313400      -280.6419
  31   2.0000     -10.312278      -280.6113
  32   2.0000     -10.309132      -280.5258
  33   2.0000     -10.307568      -280.4832
  34   2.0000     -10.298775      -280.2439
  35   2.0000     -10.296856      -280.1917
  36   2.0000     -10.296217      -280.1743
  37   2.0000     -10.296146      -280.1724
  38   2.0000     -10.295031      -280.1420
  39   2.0000     -10.292971      -280.0860
  40   2.0000     -10.291043      -280.0335
  41   2.0000     -10.290547      -280.0200
  42   2.0000     -10.289872      -280.0017
  43   2.0000     -10.288643      -279.9682
  44   2.0000     -10.288048      -279.9520
  45   2.0000     -10.287666      -279.9416
  46   2.0000     -10.287483      -279.9366
  47   2.0000     -10.286826      -279.9188
  48   2.0000     -10.286250      -279.9031
  49   2.0000     -10.285077      -279.8712
  50   2.0000     -10.284340      -279.8511
  51   2.0000     -10.283089      -279.8171
  52   2.0000     -10.281770      -279.7812
  53   2.0000     -10.281540      -279.7749
  54   2.0000     -10.281314      -279.7688
  55   2.0000     -10.278789      -279.7001
  56   2.0000     -10.278037      -279.6796
  57   2.0000     -10.277743      -279.6716
  58   2.0000     -10.277509      -279.6652
  59   2.0000     -10.273704      -279.5617
  60   2.0000     -10.273468      -279.5553
  61   2.0000     -10.269417      -279.4450
  62   2.0000     -10.264868      -279.3212
  63   2.0000     -10.262826      -279.2657
  64   2.0000     -10.262067      -279.2450
  65   2.0000     -10.260616      -279.2056
  66   2.0000     -10.259120      -279.1648
  67   2.0000     -10.258240      -279.1409
  68   2.0000      -8.074884      -219.7288
  69   2.0000      -8.074034      -219.7056
  70   2.0000      -8.063256      -219.4124
  71   2.0000      -8.062945      -219.4039
  72   2.0000      -6.043911      -164.4632
  73   2.0000      -6.043181      -164.4433
  74   2.0000      -6.039592      -164.3456
  75   2.0000      -6.038778      -164.3235
  76   2.0000      -6.037508      -164.2889
  77   2.0000      -6.036532      -164.2624
  78   2.0000      -6.032480      -164.1521
  79   2.0000      -6.032029      -164.1399
  80   2.0000      -6.028467      -164.0429
  81   2.0000      -6.027988      -164.0299
  82   2.0000      -6.025363      -163.9585
  83   2.0000      -6.025319      -163.9573
  84   2.0000      -1.133356       -30.8402
  85   2.0000      -1.131648       -30.7937
  86   2.0000      -1.126437       -30.6519
  87   2.0000      -1.126007       -30.6402
  88   2.0000      -1.124983       -30.6123
  89   2.0000      -1.120834       -30.4995
  90   2.0000      -1.119951       -30.4754
  91   2.0000      -1.113752       -30.3067
  92   2.0000      -1.063184       -28.9307
  93   2.0000      -1.055055       -28.7095
  94   2.0000      -1.010283       -27.4912
  95   2.0000      -1.005035       -27.3484
  96   2.0000      -0.996930       -27.1278
  97   2.0000      -0.987988       -26.8845
  98   2.0000      -0.969124       -26.3712
  99   2.0000      -0.964557       -26.2469
 100   2.0000      -0.929499       -25.2930
 101   2.0000      -0.922506       -25.1027
 102   2.0000      -0.915108       -24.9013
 103   2.0000      -0.908443       -24.7200
 104   2.0000      -0.902832       -24.5673
 105   2.0000      -0.897952       -24.4345
 106   2.0000      -0.877903       -23.8890
 107   2.0000      -0.872455       -23.7407
 108   2.0000      -0.871129       -23.7046
 109   2.0000      -0.866488       -23.5783
 110   2.0000      -0.858518       -23.3615
 111   2.0000      -0.851823       -23.1793
 112   2.0000      -0.849237       -23.1089
 113   2.0000      -0.847348       -23.0575
 114   2.0000      -0.841807       -22.9067
 115   2.0000      -0.828311       -22.5395
 116   2.0000      -0.823033       -22.3959
 117   2.0000      -0.820312       -22.3218
 118   2.0000      -0.818313       -22.2674
 119   2.0000      -0.814679       -22.1685
 120   2.0000      -0.787044       -21.4166
 121   2.0000      -0.775525       -21.1031
 122   2.0000      -0.760778       -20.7018
 123   2.0000      -0.757334       -20.6081
 124   2.0000      -0.753958       -20.5162
 125   2.0000      -0.741464       -20.1763
 126   2.0000      -0.737719       -20.0744
 127   2.0000      -0.731776       -19.9126
 128   2.0000      -0.727772       -19.8037
 129   2.0000      -0.723325       -19.6827
 130   2.0000      -0.712321       -19.3832
 131   2.0000      -0.707198       -19.2438
 132   2.0000      -0.701440       -19.0871
 133   2.0000      -0.695936       -18.9374
 134   2.0000      -0.691324       -18.8119
 135   2.0000      -0.679395       -18.4873
 136   2.0000      -0.673087       -18.3156
 137   2.0000      -0.671229       -18.2651
 138   2.0000      -0.668462       -18.1898
 139   2.0000      -0.664181       -18.0733
 140   2.0000      -0.652545       -17.7566
 141   2.0000      -0.648533       -17.6475
 142   2.0000      -0.642506       -17.4835
 143   2.0000      -0.635758       -17.2998
 144   2.0000      -0.631053       -17.1718
 145   2.0000      -0.621355       -16.9079
 146   2.0000      -0.620340       -16.8803
 147   2.0000      -0.616821       -16.7846
 148   2.0000      -0.613205       -16.6862
 149   2.0000      -0.603638       -16.4258
 150   2.0000      -0.592264       -16.1163
 151   2.0000      -0.590521       -16.0689
 152   2.0000      -0.586081       -15.9481
 153   2.0000      -0.578651       -15.7459
 154   2.0000      -0.573292       -15.6001
 155   2.0000      -0.572599       -15.5812
 156   2.0000      -0.570178       -15.5153
 157   2.0000      -0.568684       -15.4747
 158   2.0000      -0.564598       -15.3635
 159   2.0000      -0.558831       -15.2066
 160   2.0000      -0.556324       -15.1383
 161   2.0000      -0.543301       -14.7840
 162   2.0000      -0.542008       -14.7488
 163   2.0000      -0.537198       -14.6179
 164   2.0000      -0.536127       -14.5887
 165   2.0000      -0.533473       -14.5165
 166   2.0000      -0.533061       -14.5053
 167   2.0000      -0.531845       -14.4722
 168   2.0000      -0.531110       -14.4522
 169   2.0000      -0.530691       -14.4408
 170   2.0000      -0.529112       -14.3979
 171   2.0000      -0.525767       -14.3068
 172   2.0000      -0.525618       -14.3028
 173   2.0000      -0.521163       -14.1816
 174   2.0000      -0.517317       -14.0769
 175   2.0000      -0.516217       -14.0470
 176   2.0000      -0.515383       -14.0243
 177   2.0000      -0.512761       -13.9529
 178   2.0000      -0.511862       -13.9285
 179   2.0000      -0.510181       -13.8827
 180   2.0000      -0.507567       -13.8116
 181   2.0000      -0.507044       -13.7974
 182   2.0000      -0.505029       -13.7425
 183   2.0000      -0.504606       -13.7310
 184   2.0000      -0.503074       -13.6893
 185   2.0000      -0.500625       -13.6227
 186   2.0000      -0.500129       -13.6092
 187   2.0000      -0.495349       -13.4791
 188   2.0000      -0.493170       -13.4199
 189   2.0000      -0.489791       -13.3279
 190   2.0000      -0.485994       -13.2246
 191   2.0000      -0.483151       -13.1472
 192   2.0000      -0.481089       -13.0911
 193   2.0000      -0.479380       -13.0446
 194   2.0000      -0.478933       -13.0324
 195   2.0000      -0.474569       -12.9137
 196   2.0000      -0.471088       -12.8190
 197   2.0000      -0.469994       -12.7892
 198   2.0000      -0.469302       -12.7704
 199   2.0000      -0.467539       -12.7224
 200   2.0000      -0.466424       -12.6920
 201   2.0000      -0.463706       -12.6181
 202   2.0000      -0.461834       -12.5671
 203   2.0000      -0.459331       -12.4990
 204   2.0000      -0.458300       -12.4710
 205   2.0000      -0.456205       -12.4140
 206   2.0000      -0.455746       -12.4015
 207   2.0000      -0.453136       -12.3304
 208   2.0000      -0.450260       -12.2522
 209   2.0000      -0.448897       -12.2151
 210   2.0000      -0.448453       -12.2030
 211   2.0000      -0.444778       -12.1030
 212   2.0000      -0.442335       -12.0365
 213   2.0000      -0.438359       -11.9283
 214   2.0000      -0.436653       -11.8819
 215   2.0000      -0.435463       -11.8495
 216   2.0000      -0.433270       -11.7899
 217   2.0000      -0.428054       -11.6479
 218   2.0000      -0.426123       -11.5954
 219   2.0000      -0.424719       -11.5572
 220   2.0000      -0.424160       -11.5420
 221   2.0000      -0.421892       -11.4803
 222   2.0000      -0.420909       -11.4535
 223   2.0000      -0.418296       -11.3824
 224   2.0000      -0.416042       -11.3211
 225   2.0000      -0.415368       -11.3027
 226   2.0000      -0.411441       -11.1959
 227   2.0000      -0.409210       -11.1352
 228   2.0000      -0.388230       -10.5643
 229   2.0000      -0.369274       -10.0485
 230   2.0000      -0.348517        -9.4836
 231   2.0000      -0.344434        -9.3725
 232   2.0000      -0.344197        -9.3661
 233   2.0000      -0.342825        -9.3288
 234   2.0000      -0.339237        -9.2311
 235   2.0000      -0.336314        -9.1516
 236   2.0000      -0.336107        -9.1459
 237   2.0000      -0.333005        -9.0615
 238   2.0000      -0.332379        -9.0445
 239   2.0000      -0.331524        -9.0212
 240   2.0000      -0.330776        -9.0009
 241   2.0000      -0.327299        -8.9062
 242   2.0000      -0.327179        -8.9030
 243   2.0000      -0.325665        -8.8618
 244   2.0000      -0.322781        -8.7833
 245   2.0000      -0.321422        -8.7463
 246   2.0000      -0.319645        -8.6980
 247   2.0000      -0.316673        -8.6171
 248   2.0000      -0.314957        -8.5704
 249   2.0000      -0.282212        -7.6794
 250   2.0000      -0.269341        -7.3291
 251   2.0000      -0.228845        -6.2272
 252   0.0000      -0.097778        -2.6607
 253   0.0000      -0.076249        -2.0748
 254   0.0000      -0.059198        -1.6109
 255   0.0000      -0.052505        -1.4287
 256   0.0000      -0.041511        -1.1296

MULLIKEN ATOMIC CHARGES
-----------------------
   0 C :   -0.102249
   1 S :    0.151878
   2 C :   -0.112100
   3 C :    0.071376
   4 C :   -0.014526
   5 C :    0.140774
   6 O :   -0.155082
   7 C :   -0.033696
   8 C :   -0.012057
   9 C :    0.013340
  10 C :    0.000670
  11 C :    0.066960
  12 C :    0.019992
  13 C :   -0.069463
  14 C :    0.008908
  15 C :    0.117193
  16 O :   -0.161822
  17 C :   -0.050073
  18 S :    0.100818
  19 C :   -0.045648
  20 C :    0.005109
  21 C :   -0.000014
  22 C :    0.135365
  23 O :   -0.177918
  24 C :    0.009222
  25 C :   -0.033001
  26 C :    0.134676
  27 N :   -0.255596
  28 C :    0.099257
  29 C :    0.002556
  30 C :    0.159608
  31 O :   -0.216423
  32 C :   -0.069120
  33 C :   -0.065223
  34 C :    0.160908
  35 O :   -0.215801
  36 N :   -0.255666
  37 C :    0.097389
  38 C :    0.002512
  39 C :    0.137758
  40 C :   -0.028208
  41 C :    0.078688
  42 C :   -0.062487
  43 S :    0.150145
  44 C :   -0.058401
  45 C :    0.007996
  46 C :   -0.014621
  47 C :    0.140698
  48 O :   -0.185227
  49 C :   -0.003903
  50 C :    0.031267
  51 C :   -0.162396
  52 S :    0.159805
  53 C :   -0.097028
  54 C :   -0.026796
  55 C :    0.080074
  56 C :    0.133358
  57 O :   -0.182178
  58 C :   -0.010622
  59 C :   -0.016913
  60 C :    0.016265
  61 C :    0.003731
  62 C :    0.066035
  63 C :    0.021469
  64 C :   -0.071495
  65 C :   -0.004282
  66 C :    0.139644
  67 O :   -0.153935
  68 H :    0.040666
  69 H :   -0.004732
  70 H :   -0.019525
  71 H :    0.013967
  72 H :    0.004846
  73 H :    0.016467
  74 H :    0.022129
  75 H :    0.011150
  76 H :   -0.007907
  77 H :    0.017739
  78 H :    0.009704
  79 H :    0.019157
  80 H :   -0.019799
  81 H :    0.024199
  82 H :    0.041982
  83 H :    0.016381
  84 H :    0.023076
  85 H :    0.030376
  86 H :    0.044647
  87 H :    0.026383
  88 H :    0.029599
  89 H :    0.025981
  90 H :    0.017255
  91 H :   -0.025345
  92 H :    0.007531
  93 H :   -0.003130
  94 H :    0.003032
  95 H :    0.023290
  96 H :   -0.008353
  97 H :    0.042561
  98 H :   -0.001401
  99 H :   -0.019097
 100 H :    0.006916
 101 H :    0.012318
 102 H :    0.011592
 103 H :    0.021162
 104 H :    0.015785
 105 H :   -0.012074
Sum of atomic charges:   -0.0000000

LOEWDIN ATOMIC CHARGES
----------------------
   0 C :   -0.137782
   1 S :    0.467919
   2 C :   -0.141554
   3 C :   -0.091957
   4 C :   -0.093569
   5 C :    0.081457
   6 O :   -0.151393
   7 C :   -0.061618
   8 C :    0.018576
   9 C :   -0.011422
  10 C :    0.000291
  11 C :   -0.026826
  12 C :   -0.046718
  13 C :    0.009584
  14 C :   -0.046146
  15 C :    0.087761
  16 O :   -0.138516
  17 C :   -0.181285
  18 S :    0.424700
  19 C :   -0.141962
  20 C :   -0.103124
  21 C :    0.002804
  22 C :    0.107455
  23 O :   -0.129944
  24 C :    0.003339
  25 C :   -0.047381
  26 C :    0.069309
  27 N :    0.000464
  28 C :    0.036241
  29 C :   -0.061248
  30 C :    0.078207
  31 O :   -0.208289
  32 C :   -0.124353
  33 C :   -0.118745
  34 C :    0.080590
  35 O :   -0.205744
  36 N :    0.001596
  37 C :    0.036315
  38 C :   -0.060743
  39 C :    0.077483
  40 C :   -0.046347
  41 C :    0.012538
  42 C :   -0.167600
  43 S :    0.463033
  44 C :   -0.141598
  45 C :   -0.107983
  46 C :   -0.013268
  47 C :    0.108733
  48 O :   -0.137814
  49 C :   -0.017874
  50 C :   -0.054034
  51 C :   -0.120823
  52 S :    0.484080
  53 C :   -0.138187
  54 C :   -0.094832
  55 C :   -0.094517
  56 C :    0.093880
  57 O :   -0.152643
  58 C :   -0.056858
  59 C :    0.017708
  60 C :   -0.010477
  61 C :    0.000344
  62 C :   -0.027052
  63 C :   -0.046400
  64 C :    0.009654
  65 C :   -0.049261
  66 C :    0.082386
  67 O :   -0.148591
  68 H :    0.036130
  69 H :    0.036451
  70 H :    0.029434
  71 H :    0.031139
  72 H :    0.027606
  73 H :    0.026090
  74 H :    0.025840
  75 H :    0.023924
  76 H :    0.034184
  77 H :    0.039086
  78 H :    0.006501
  79 H :    0.039785
  80 H :    0.021909
  81 H :    0.023297
  82 H :    0.037382
  83 H :    0.022102
  84 H :    0.030395
  85 H :    0.032527
  86 H :    0.038164
  87 H :    0.023725
  88 H :    0.032294
  89 H :    0.031708
  90 H :    0.022591
  91 H :    0.029073
  92 H :    0.036020
  93 H :    0.035077
  94 H :    0.004907
  95 H :    0.031767
  96 H :    0.019885
  97 H :    0.036289
  98 H :    0.035963
  99 H :    0.030019
 100 H :    0.028345
 101 H :    0.030597
 102 H :    0.024282
 103 H :    0.025781
 104 H :    0.025880
 105 H :    0.033884

  Mayer bond orders larger than 0.100000
B(  0-C ,  1-S ) :   1.1653 B(  0-C ,  4-C ) :   1.5596 B(  0-C , 68-H ) :   0.9666
B(  1-S ,  2-C ) :   1.1626 B(  2-C ,  3-C ) :   1.5015 B(  2-C , 17-C ) :   1.1247
B(  3-C ,  4-C ) :   1.2064 B(  3-C , 15-C ) :   0.9648 B(  4-C ,  5-C ) :   0.9461
B(  5-C ,  6-O ) :   2.2571 B(  5-C ,  7-C ) :   0.9409 B(  7-C ,  8-C ) :   1.3937
B(  7-C , 14-C ) :   1.3373 B(  8-C ,  9-C ) :   1.3555 B(  8-C , 69-H ) :   0.9957
B(  9-C , 10-C ) :   1.3639 B(  9-C , 70-H ) :   0.9963 B( 10-C , 11-C ) :   1.0364
B( 10-C , 13-C ) :   1.3332 B( 11-C , 12-C ) :   1.0963 B( 11-C , 71-H ) :   0.9357
B( 11-C , 72-H ) :   0.9342 B( 12-C , 73-H ) :   0.9710 B( 12-C , 74-H ) :   0.9695
B( 12-C , 75-H ) :   0.9698 B( 13-C , 14-C ) :   1.3883 B( 13-C , 76-H ) :   1.0003
B( 14-C , 15-C ) :   0.9304 B( 15-C , 16-O ) :   2.1732 B( 17-C , 18-S ) :   1.0867
B( 17-C , 21-C ) :   1.5137 B( 18-S , 19-C ) :   1.1264 B( 19-C , 20-C ) :   1.3863
B( 19-C , 24-C ) :   1.1819 B( 20-C , 21-C ) :   1.2316 B( 20-C , 22-C ) :   0.9778
B( 21-C , 77-H ) :   0.9906 B( 22-C , 23-O ) :   2.1781 B( 22-C , 78-H ) :   0.9657
B( 24-C , 25-C ) :   1.5767 B( 24-C , 79-H ) :   0.9483 B( 25-C , 26-C ) :   1.1745
B( 25-C , 80-H ) :   0.9614 B( 26-C , 27-N ) :   1.1525 B( 26-C , 33-C ) :   1.3404
B( 27-N , 28-C ) :   0.9486 B( 27-N , 30-C ) :   1.0653 B( 28-C , 29-C ) :   1.1195
B( 28-C , 81-H ) :   0.9502 B( 28-C , 82-H ) :   0.9283 B( 29-C , 83-H ) :   0.9688
B( 29-C , 84-H ) :   0.9679 B( 29-C , 85-H ) :   0.9639 B( 30-C , 31-O ) :   2.0170
B( 30-C , 32-C ) :   0.9916 B( 31-O , 92-H ) :   0.1176 B( 32-C , 33-C ) :   1.2552
B( 32-C , 39-C ) :   1.3301 B( 33-C , 34-C ) :   0.9911 B( 34-C , 35-O ) :   2.0152
B( 34-C , 36-N ) :   1.0690 B( 35-O , 79-H ) :   0.1023 B( 36-N , 37-C ) :   0.9450
B( 36-N , 39-C ) :   1.1530 B( 37-C , 38-C ) :   1.1201 B( 37-C , 86-H ) :   0.9279
B( 37-C , 87-H ) :   0.9495 B( 38-C , 88-H ) :   0.9640 B( 38-C , 89-H ) :   0.9681
B( 38-C , 90-H ) :   0.9688 B( 39-C , 40-C ) :   1.1743 B( 40-C , 41-C ) :   1.6146
B( 40-C , 91-H ) :   0.9630 B( 41-C , 42-C ) :   1.1295 B( 41-C , 92-H ) :   0.9377
B( 42-C , 43-S ) :   1.1095 B( 42-C , 46-C ) :   1.4641 B( 43-S , 44-C ) :   1.1432
B( 44-C , 45-C ) :   1.3771 B( 44-C , 49-C ) :   1.1638 B( 45-C , 46-C ) :   1.2668
B( 45-C , 47-C ) :   0.9878 B( 46-C , 93-H ) :   0.9989 B( 47-C , 48-O ) :   2.1721
B( 47-C , 94-H ) :   0.9666 B( 49-C , 50-C ) :   1.6700 B( 49-C , 95-H ) :   0.9370
B( 50-C , 51-C ) :   1.1573 B( 50-C , 96-H ) :   0.9415 B( 51-C , 52-S ) :   1.1710
B( 51-C , 55-C ) :   1.4292 B( 52-S , 53-C ) :   1.1743 B( 53-C , 54-C ) :   1.5528
B( 53-C , 97-H ) :   0.9655 B( 54-C , 55-C ) :   1.2106 B( 54-C , 66-C ) :   0.9495
B( 55-C , 56-C ) :   0.9771 B( 56-C , 57-O ) :   2.1006 B( 56-C , 58-C ) :   0.9623
B( 57-O , 95-H ) :   0.1121 B( 58-C , 59-C ) :   1.3913 B( 58-C , 65-C ) :   1.3409
B( 59-C , 60-C ) :   1.3594 B( 59-C , 98-H ) :   0.9932 B( 60-C , 61-C ) :   1.3638
B( 60-C , 99-H ) :   0.9954 B( 61-C , 62-C ) :   1.0344 B( 61-C , 64-C ) :   1.3337
B( 62-C , 63-C ) :   1.0974 B( 62-C ,100-H ) :   0.9344 B( 62-C ,101-H ) :   0.9356
B( 63-C ,102-H ) :   0.9699 B( 63-C ,103-H ) :   0.9695 B( 63-C ,104-H ) :   0.9707
B( 64-C , 65-C ) :   1.3861 B( 64-C ,105-H ) :   1.0033 B( 65-C , 66-C ) :   0.9265
B( 66-C , 67-O ) :   2.2548

-----------------------------------------------------------------------------
         ABSORPTION SPECTRUM VIA TRANSITION ELECTRIC DIPOLE MOMENTS
-----------------------------------------------------------------------------
State   Energy  Wavelength   fosc         T2         TX        TY        TZ
        (cm-1)    (nm)                  (au**2)     (au)      (au)      (au)
-----------------------------------------------------------------------------
   0   13708.3    729.5   1.380222737  33.14679  -3.30251   4.06728   2.38694
   1   20130.3    496.8   0.126878324   2.07498   0.35625   0.32722   1.35683
   2   23204.8    430.9   0.401461953   5.69563  -0.18689   1.05825   2.13091
   3   24209.2    413.1   0.284310591   3.86623   0.96072  -1.14651  -1.27623
   4   24684.3    405.1   0.390214166   5.20425   1.24991  -1.45925  -1.22985
   5   26562.2    376.5   0.006694058   0.08297  -0.23990   0.15353   0.04293
   6   27168.1    368.1   0.004979117   0.06033   0.01402  -0.03146   0.24320
   7   28109.1    355.8   0.103739316   1.21499   0.15545   0.06179  -1.08950
   8   28391.9    352.2   0.003931706   0.04559  -0.09192   0.04935   0.18629
   9   29165.0    342.9   0.055761296   0.62943   0.17936   0.11917   0.76358
  10   29280.9    341.5   0.007453379   0.08380   0.00355   0.01512   0.28907
  11   29971.5    333.6   0.002640675   0.02901   0.01986   0.04146   0.16399
  12   30226.3    330.8   0.028968464   0.31551   0.29168  -0.31751  -0.36003
  13   30460.2    328.3   0.051459306   0.55617  -0.50490   0.48448  -0.25792
  14   31078.8    321.8   0.000126265   0.00134  -0.02005   0.03034  -0.00389
  15   31595.1    316.5   0.002205467   0.02298  -0.04477   0.08810  -0.11496
  16   32301.9    309.6   0.025276581   0.25761  -0.32265   0.37931   0.09816
  17   32643.5    306.3   0.001252946   0.01264  -0.03642   0.06365   0.08520
  18   33345.6    299.9   0.001302396   0.01286  -0.05885   0.07214   0.06474
  19   33710.9    296.6   0.089666702   0.87566   0.18158  -0.24862   0.88367
  20   34020.1    293.9   0.063130563   0.61091  -0.31872   0.65751   0.27751
  21   34375.0    290.9   0.044921071   0.43021  -0.39632   0.29479  -0.43156
  22   34708.0    288.1   0.072010169   0.68303   0.22566  -0.79128  -0.07733
  23   35138.6    284.6   0.004045385   0.03790  -0.16020   0.05523   0.09585
  24   35247.5    283.7   0.021836051   0.20395  -0.18773   0.36354   0.19116
  25   35494.1    281.7   0.088771758   0.82337   0.14589  -0.29981  -0.84392
  26   35623.6    280.7   0.038916209   0.35964   0.04542  -0.26197  -0.53754
  27   36078.4    277.2   0.086726640   0.79137  -0.38158   0.37655   0.70991
  28   36575.0    273.4   0.055897545   0.50313   0.41834  -0.46796   0.33037
  29   36715.2    272.4   0.234540592   2.10304  -0.05354   0.14394   1.44203
  30   36721.6    272.3   0.135839292   1.21781   0.18776  -0.24359  -1.05982
  31   37215.3    268.7   0.000538280   0.00476  -0.04472   0.05198  -0.00771
  32   37383.3    267.5   0.011391580   0.10032   0.05035  -0.28258  -0.13390
  33   37986.5    263.3   0.002196341   0.01903   0.11284  -0.07172   0.03404
  34   38116.6    262.4   0.002057350   0.01777   0.11656  -0.05548  -0.03326
  35   38417.5    260.3   0.040723561   0.34897  -0.16608   0.06412  -0.56327
  36   38738.5    258.1   0.102112834   0.86779   0.14284  -0.10236   0.91483
  37   38915.5    257.0   0.000892467   0.00755  -0.07167   0.03908  -0.02976
  38   39727.7    251.7   0.132959838   1.10180   0.50569  -0.79165  -0.46837
  39   39963.8    250.2   0.006026271   0.04964   0.00173   0.05611  -0.21562
  40   40079.7    249.5   0.038440519   0.31575  -0.38995   0.20407  -0.34934
  41   40316.5    248.0   0.110839985   0.90509   0.67239  -0.61065  -0.28300

FINAL SINGLE POINT ENERGY     -4380.789370319977

DIPOLE MOMENT
-------------
                                X             Y             Z
Electronic contribution:     12.43613     -22.57438      22.56805
Nuclear contribution   :    -12.24266      23.25144     -20.97308
                        -----------------------------------------
Total Dipole Moment    :      0.19347       0.67706       1.59497
                        -----------------------------------------
Magnitude (a.u.)       :      1.74349
Magnitude (Debye)      :      4.43161

Rotational constants in cm-1:     0.003155     0.000182     0.000174
Rotational constants in MHz :    94.584286     5.469607     5.228542

                             ****ORCA TERMINATED NORMALLY****
TOTAL RUN TIME: 0 days 0 hours 9 minutes 10 seconds 32 msec
