                         Program Version 4.2.0 -  RELEASE  -
|  1> # ORCA input file
|  2> # SCF done       -179.044509279482          0.000493977607
|  3> ! CAM-B3LYP def2-SVP def2/J RIJCOSX Grid4 TightSCF
|  4> %maxcore 5000
|  5> %tddft
|  6>     Mode sTDDFT
|  7>     Ethresh 5.0
|  8>     maxcore 5000
|  9> end
| 10>
| 11> %pal
| 12>   nprocs 6
| 13>   end
| 14> * xyz 0 1
| 15>    C       -1.10892         0.25281         0.34365
| 16>    S       -2.31707         1.39616         0.72038
| 17>    C       -1.87723         2.39285        -0.64561
| 18>    C       -0.81318         1.83681        -1.33988
| 19>    C       -0.38771         0.60329        -0.76115
| 20>    C        0.72206        -0.20608        -1.28388
| 21>    O        1.03332        -1.27821        -0.80015
| 22>    C        1.42614         0.39524        -2.43033
| 23>    C        2.50469        -0.28856        -2.98876
| 24>    C        3.20479         0.24435        -4.05017
| 25>    C        2.85421         1.48129        -4.59328
| 26>    C        3.64320         2.01633        -5.75555
| 27>    C        3.45691         3.50201        -6.03835
| 28>    C        1.77646         2.15714        -4.04079
| 29>    C        1.05689         1.63416        -2.96926
| 30>    C       -0.08453         2.43488        -2.46198
| 31>    O       -0.36113         3.51699        -2.94941
| 32>    C       -2.63959         3.58068        -0.86817
| 33>    S       -3.42822         4.33897         0.49228
| 34>    C       -4.14377         5.55770        -0.52189
| 35>    C       -3.77562         5.34784        -1.85175
| 36>    C       -2.93008         4.24079        -2.03754
| 37>    C       -4.20180         6.16148        -2.91777
| 38>    N       -4.53272         6.79775        -3.81199
| 39>    C       -4.95491         6.59633        -0.01187
| 40>    C       -5.18358         6.77233         1.31737
| 41>    C       -5.96635         7.82630         1.84104
| 42>    N       -6.14488         8.04848         3.18945
| 43>    C       -5.65583         7.22813         4.27042
| 44>    C       -6.49415         5.96460         4.45021
| 45>    C       -6.93022         9.18599         3.43694
| 46>    O       -7.20945         9.57792         4.55334
| 47>    C       -7.25522         9.68969         2.12104
| 48>    C       -6.65415         8.83239         1.16618
| 49>    C       -6.98213         9.33119        -0.15072
| 50>    O       -6.69759         8.93674        -1.26349
| 51>    N       -7.76252        10.47389         0.09658
| 52>    C       -8.33251        11.23820        -0.98660
| 53>    C       -9.81015        10.91464        -1.19276
| 54>    C       -7.93164        10.70262         1.44241
| 55>    C       -8.64541        11.80845         1.96791
| 56>    C       -8.76713        12.04054         3.29888
| 57>    C       -9.46333        13.17353         3.79636
| 58>    S       -9.54306        13.54834         5.51311
| 59>    C      -10.48508        14.95259         5.02495
| 60>    N      -10.65292        15.01573         3.73134
| 61>    N      -10.09608        14.05124         3.06252
| 62>    C      -11.00425        15.92218         5.92388
| 63>    C      -10.79651        15.90769         7.25732
| 64>    C      -11.30395        16.88437         8.15584
| 65>    S      -12.31935        18.19986         7.61233
| 66>    C      -12.44355        18.82215         9.19625
| 67>    C      -11.74943        18.08006        10.11216
| 68>    C      -11.09185        16.96302         9.52491
| 69>    C      -10.28756        16.03243        10.32078
| 70>    O       -9.71584        15.06242         9.85249
| 71>    C      -10.21124        16.35800        11.76311
| 72>    C       -9.45373        15.52364        12.58247
| 73>    C       -9.33700        15.77112        13.93584
| 74>    C       -9.97817        16.86163        14.51669
| 75>    C       -9.81587        17.16592        15.97570
| 76>    C       -8.64631        18.13156        16.18493
| 77>    C      -10.73322        17.69481        13.70321
| 78>    C      -10.85999        17.46065        12.33844
| 79>    C      -11.68300        18.39822        11.54308
| 80>    O      -12.25451        19.35380        12.03285
| 81>    H       -0.97395        -0.62404         0.94607
| 82>    H        2.77663        -1.24306        -2.56291
| 83>    H        4.03982        -0.29992        -4.46775
| 84>    H        3.36292         1.44358        -6.64597
| 85>    H        4.70196         1.81437        -5.57093
| 86>    H        2.44361         3.71696        -6.36743
| 87>    H        4.13877         3.81248        -6.82664
| 88>    H        3.66974         4.09171        -5.14971
| 89>    H        1.46038         3.11492        -4.42395
| 90>    H       -2.55106         3.94485        -2.99751
| 91>    H       -5.38986         7.27410        -0.73680
| 92>    H       -4.72706         6.08599         2.01881
| 93>    H       -5.72522         7.84487         5.17096
| 94>    H       -4.60561         6.97743         4.09541
| 95>    H       -7.52500         6.23235         4.66851
| 96>    H       -6.10428         5.37909         5.27822
| 97>    H       -6.47870         5.35319         3.55066
| 98>    H       -7.76717        10.95979        -1.88052
| 99>    H       -8.19164        12.30548        -0.79567
|100>    H       -9.93067         9.85795        -1.41890
|101>    H      -10.19962        11.49431        -2.02485
|102>    H      -10.38899        11.14841        -0.30204
|103>    H       -9.09888        12.50890         1.28212
|104>    H       -8.32527        11.37086         4.02345
|105>    H      -11.58680        16.70697         5.45876
|106>    H      -10.20298        15.12567         7.71500
|107>    H      -13.01790        19.70648         9.39252
|108>    H       -8.95994        14.67757        12.12753
|109>    H       -8.74431        15.11073        14.55236
|110>    H       -9.62700        16.24421        16.52928
|111>    H      -10.72993        17.62034        16.36213
|112>    H       -7.72158        17.69390        15.81488
|113>    H       -8.52615        18.35578        17.24190
|114>    H       -8.82347        19.06189        15.65016
|115>    H      -11.24571        18.55132        14.11779
|116> *
|117>
|118>                          ****END OF INPUT****

CARTESIAN COORDINATES (ANGSTROEM)
---------------------------------
  C     -1.108920    0.252810    0.343650
  S     -2.317070    1.396160    0.720380
  C     -1.877230    2.392850   -0.645610
  C     -0.813180    1.836810   -1.339880
  C     -0.387710    0.603290   -0.761150
  C      0.722060   -0.206080   -1.283880
  O      1.033320   -1.278210   -0.800150
  C      1.426140    0.395240   -2.430330
  C      2.504690   -0.288560   -2.988760
  C      3.204790    0.244350   -4.050170
  C      2.854210    1.481290   -4.593280
  C      3.643200    2.016330   -5.755550
  C      3.456910    3.502010   -6.038350
  C      1.776460    2.157140   -4.040790
  C      1.056890    1.634160   -2.969260
  C     -0.084530    2.434880   -2.461980
  O     -0.361130    3.516990   -2.949410
  C     -2.639590    3.580680   -0.868170
  S     -3.428220    4.338970    0.492280
  C     -4.143770    5.557700   -0.521890
  C     -3.775620    5.347840   -1.851750
  C     -2.930080    4.240790   -2.037540
  C     -4.201800    6.161480   -2.917770
  N     -4.532720    6.797750   -3.811990
  C     -4.954910    6.596330   -0.011870
  C     -5.183580    6.772330    1.317370
  C     -5.966350    7.826300    1.841040
  N     -6.144880    8.048480    3.189450
  C     -5.655830    7.228130    4.270420
  C     -6.494150    5.964600    4.450210
  C     -6.930220    9.185990    3.436940
  O     -7.209450    9.577920    4.553340
  C     -7.255220    9.689690    2.121040
  C     -6.654150    8.832390    1.166180
  C     -6.982130    9.331190   -0.150720
  O     -6.697590    8.936740   -1.263490
  N     -7.762520   10.473890    0.096580
  C     -8.332510   11.238200   -0.986600
  C     -9.810150   10.914640   -1.192760
  C     -7.931640   10.702620    1.442410
  C     -8.645410   11.808450    1.967910
  C     -8.767130   12.040540    3.298880
  C     -9.463330   13.173530    3.796360
  S     -9.543060   13.548340    5.513110
  C    -10.485080   14.952590    5.024950
  N    -10.652920   15.015730    3.731340
  N    -10.096080   14.051240    3.062520
  C    -11.004250   15.922180    5.923880
  C    -10.796510   15.907690    7.257320
  C    -11.303950   16.884370    8.155840
  S    -12.319350   18.199860    7.612330
  C    -12.443550   18.822150    9.196250
  C    -11.749430   18.080060   10.112160
  C    -11.091850   16.963020    9.524910
  C    -10.287560   16.032430   10.320780
  O     -9.715840   15.062420    9.852490
  C    -10.211240   16.358000   11.763110
  C     -9.453730   15.523640   12.582470
  C     -9.337000   15.771120   13.935840
  C     -9.978170   16.861630   14.516690
  C     -9.815870   17.165920   15.975700
  C     -8.646310   18.131560   16.184930
  C    -10.733220   17.694810   13.703210
  C    -10.859990   17.460650   12.338440
  C    -11.683000   18.398220   11.543080
  O    -12.254510   19.353800   12.032850
  H     -0.973950   -0.624040    0.946070
  H      2.776630   -1.243060   -2.562910
  H      4.039820   -0.299920   -4.467750
  H      3.362920    1.443580   -6.645970
  H      4.701960    1.814370   -5.570930
  H      2.443610    3.716960   -6.367430
  H      4.138770    3.812480   -6.826640
  H      3.669740    4.091710   -5.149710
  H      1.460380    3.114920   -4.423950
  H     -2.551060    3.944850   -2.997510
  H     -5.389860    7.274100   -0.736800
  H     -4.727060    6.085990    2.018810
  H     -5.725220    7.844870    5.170960
  H     -4.605610    6.977430    4.095410
  H     -7.525000    6.232350    4.668510
  H     -6.104280    5.379090    5.278220
  H     -6.478700    5.353190    3.550660
  H     -7.767170   10.959790   -1.880520
  H     -8.191640   12.305480   -0.795670
  H     -9.930670    9.857950   -1.418900
  H    -10.199620   11.494310   -2.024850
  H    -10.388990   11.148410   -0.302040
  H     -9.098880   12.508900    1.282120
  H     -8.325270   11.370860    4.023450
  H    -11.586800   16.706970    5.458760
  H    -10.202980   15.125670    7.715000
  H    -13.017900   19.706480    9.392520
  H     -8.959940   14.677570   12.127530
  H     -8.744310   15.110730   14.552360
  H     -9.627000   16.244210   16.529280
  H    -10.729930   17.620340   16.362130
  H     -7.721580   17.693900   15.814880
  H     -8.526150   18.355780   17.241900
  H     -8.823470   19.061890   15.650160
  H    -11.245710   18.551320   14.117790

 Total Charge           Charge          ....    0
 Multiplicity           Mult            ....    1
 Number of Electrons    NEL             ....  488
 Basis Dimension        Dim             .... 1115

ORBITAL ENERGIES
----------------

  NO   OCC          E(Eh)            E(eV)
   0   2.0000     -88.983883     -2421.3746
   1   2.0000     -88.977602     -2421.2036
   2   2.0000     -88.977001     -2421.1873
   3   2.0000     -88.968806     -2420.9643
   4   2.0000     -19.213264      -522.8195
   5   2.0000     -19.210866      -522.7542
   6   2.0000     -19.209068      -522.7053
   7   2.0000     -19.208664      -522.6943
   8   2.0000     -19.191070      -522.2156
   9   2.0000     -19.189288      -522.1671
  10   2.0000     -14.453214      -393.2919
  11   2.0000     -14.451265      -393.2389
  12   2.0000     -14.434546      -392.7840
  13   2.0000     -14.434140      -392.7729
  14   2.0000     -14.399235      -391.8231
  15   2.0000     -10.373715      -282.2831
  16   2.0000     -10.371501      -282.2229
  17   2.0000     -10.370304      -282.1903
  18   2.0000     -10.366844      -282.0962
  19   2.0000     -10.364434      -282.0306
  20   2.0000     -10.363517      -282.0056
  21   2.0000     -10.338489      -281.3246
  22   2.0000     -10.338468      -281.3240
  23   2.0000     -10.338018      -281.3118
  24   2.0000     -10.337877      -281.3079
  25   2.0000     -10.337837      -281.3068
  26   2.0000     -10.328887      -281.0633
  27   2.0000     -10.327071      -281.0139
  28   2.0000     -10.325291      -280.9655
  29   2.0000     -10.317651      -280.7575
  30   2.0000     -10.316597      -280.7289
  31   2.0000     -10.315930      -280.7107
  32   2.0000     -10.309771      -280.5431
  33   2.0000     -10.302887      -280.3558
  34   2.0000     -10.299122      -280.2534
  35   2.0000     -10.298669      -280.2410
  36   2.0000     -10.298314      -280.2314
  37   2.0000     -10.297550      -280.2106
  38   2.0000     -10.295937      -280.1667
  39   2.0000     -10.294381      -280.1244
  40   2.0000     -10.294155      -280.1182
  41   2.0000     -10.293636      -280.1041
  42   2.0000     -10.292882      -280.0836
  43   2.0000     -10.292286      -280.0673
  44   2.0000     -10.291867      -280.0559
  45   2.0000     -10.289370      -279.9880
  46   2.0000     -10.289080      -279.9801
  47   2.0000     -10.288982      -279.9774
  48   2.0000     -10.287483      -279.9367
  49   2.0000     -10.287409      -279.9346
  50   2.0000     -10.285966      -279.8954
  51   2.0000     -10.285730      -279.8889
  52   2.0000     -10.281449      -279.7725
  53   2.0000     -10.280655      -279.7509
  54   2.0000     -10.280655      -279.7508
  55   2.0000     -10.280219      -279.7390
  56   2.0000     -10.277299      -279.6595
  57   2.0000     -10.276940      -279.6497
  58   2.0000     -10.274178      -279.5746
  59   2.0000     -10.272717      -279.5349
  60   2.0000     -10.265913      -279.3497
  61   2.0000     -10.261563      -279.2313
  62   2.0000     -10.261446      -279.2281
  63   2.0000     -10.261093      -279.2185
  64   2.0000     -10.259164      -279.1660
  65   2.0000     -10.257791      -279.1287
  66   2.0000      -8.079926      -219.8660
  67   2.0000      -8.073500      -219.6911
  68   2.0000      -8.072548      -219.6652
  69   2.0000      -8.064925      -219.4578
  70   2.0000      -6.049057      -164.6032
  71   2.0000      -6.044642      -164.4831
  72   2.0000      -6.042489      -164.4245
  73   2.0000      -6.042487      -164.4244
  74   2.0000      -6.041739      -164.4041
  75   2.0000      -6.038293      -164.3103
  76   2.0000      -6.037761      -164.2958
  77   2.0000      -6.036163      -164.2523
  78   2.0000      -6.034666      -164.2116
  79   2.0000      -6.033534      -164.1808
  80   2.0000      -6.030239      -164.0911
  81   2.0000      -6.027313      -164.0115
  82   2.0000      -1.138544       -30.9814
  83   2.0000      -1.132908       -30.8280
  84   2.0000      -1.130768       -30.7698
  85   2.0000      -1.127459       -30.6797
  86   2.0000      -1.125992       -30.6398
  87   2.0000      -1.124601       -30.6019
  88   2.0000      -1.123738       -30.5785
  89   2.0000      -1.063083       -28.9280
  90   2.0000      -1.054595       -28.6970
  91   2.0000      -1.019357       -27.7381
  92   2.0000      -1.003313       -27.3015
  93   2.0000      -1.000795       -27.2330
  94   2.0000      -0.977708       -26.6048
  95   2.0000      -0.968152       -26.3448
  96   2.0000      -0.967626       -26.3304
  97   2.0000      -0.945559       -25.7300
  98   2.0000      -0.929867       -25.3030
  99   2.0000      -0.926685       -25.2164
 100   2.0000      -0.918161       -24.9844
 101   2.0000      -0.906656       -24.6714
 102   2.0000      -0.905859       -24.6497
 103   2.0000      -0.887617       -24.1533
 104   2.0000      -0.884628       -24.0720
 105   2.0000      -0.880709       -23.9653
 106   2.0000      -0.872123       -23.7317
 107   2.0000      -0.870010       -23.6742
 108   2.0000      -0.867824       -23.6147
 109   2.0000      -0.856935       -23.3184
 110   2.0000      -0.848182       -23.0802
 111   2.0000      -0.847784       -23.0694
 112   2.0000      -0.833050       -22.6684
 113   2.0000      -0.825711       -22.4687
 114   2.0000      -0.822703       -22.3869
 115   2.0000      -0.821821       -22.3629
 116   2.0000      -0.819037       -22.2871
 117   2.0000      -0.799792       -21.7635
 118   2.0000      -0.781505       -21.2658
 119   2.0000      -0.760611       -20.6973
 120   2.0000      -0.759343       -20.6628
 121   2.0000      -0.756776       -20.5929
 122   2.0000      -0.748077       -20.3562
 123   2.0000      -0.740449       -20.1486
 124   2.0000      -0.735320       -20.0091
 125   2.0000      -0.726496       -19.7690
 126   2.0000      -0.721005       -19.6195
 127   2.0000      -0.711388       -19.3579
 128   2.0000      -0.705479       -19.1971
 129   2.0000      -0.702224       -19.1085
 130   2.0000      -0.697661       -18.9843
 131   2.0000      -0.690157       -18.7801
 132   2.0000      -0.681917       -18.5559
 133   2.0000      -0.677557       -18.4373
 134   2.0000      -0.673780       -18.3345
 135   2.0000      -0.667765       -18.1708
 136   2.0000      -0.667228       -18.1562
 137   2.0000      -0.656030       -17.8515
 138   2.0000      -0.647969       -17.6321
 139   2.0000      -0.638133       -17.3645
 140   2.0000      -0.630128       -17.1467
 141   2.0000      -0.621248       -16.9050
 142   2.0000      -0.619973       -16.8703
 143   2.0000      -0.614211       -16.7135
 144   2.0000      -0.611072       -16.6281
 145   2.0000      -0.594980       -16.1902
 146   2.0000      -0.593878       -16.1602
 147   2.0000      -0.588675       -16.0187
 148   2.0000      -0.584802       -15.9133
 149   2.0000      -0.578899       -15.7527
 150   2.0000      -0.577055       -15.7025
 151   2.0000      -0.568083       -15.4583
 152   2.0000      -0.567416       -15.4402
 153   2.0000      -0.566934       -15.4271
 154   2.0000      -0.549471       -14.9519
 155   2.0000      -0.548434       -14.9237
 156   2.0000      -0.547256       -14.8916
 157   2.0000      -0.546876       -14.8813
 158   2.0000      -0.541329       -14.7303
 159   2.0000      -0.538178       -14.6446
 160   2.0000      -0.537389       -14.6231
 161   2.0000      -0.535480       -14.5711
 162   2.0000      -0.535047       -14.5594
 163   2.0000      -0.533165       -14.5082
 164   2.0000      -0.532341       -14.4857
 165   2.0000      -0.530771       -14.4430
 166   2.0000      -0.530245       -14.4287
 167   2.0000      -0.526337       -14.3224
 168   2.0000      -0.524878       -14.2826
 169   2.0000      -0.522361       -14.2142
 170   2.0000      -0.518767       -14.1164
 171   2.0000      -0.515823       -14.0363
 172   2.0000      -0.515331       -14.0229
 173   2.0000      -0.513994       -13.9865
 174   2.0000      -0.512261       -13.9393
 175   2.0000      -0.510790       -13.8993
 176   2.0000      -0.509063       -13.8523
 177   2.0000      -0.503720       -13.7069
 178   2.0000      -0.501841       -13.6558
 179   2.0000      -0.497528       -13.5384
 180   2.0000      -0.496045       -13.4981
 181   2.0000      -0.492535       -13.4026
 182   2.0000      -0.492316       -13.3966
 183   2.0000      -0.488844       -13.3021
 184   2.0000      -0.485745       -13.2178
 185   2.0000      -0.483313       -13.1516
 186   2.0000      -0.483113       -13.1462
 187   2.0000      -0.478798       -13.0288
 188   2.0000      -0.477460       -12.9924
 189   2.0000      -0.474812       -12.9203
 190   2.0000      -0.472691       -12.8626
 191   2.0000      -0.470473       -12.8022
 192   2.0000      -0.468040       -12.7360
 193   2.0000      -0.464967       -12.6524
 194   2.0000      -0.463287       -12.6067
 195   2.0000      -0.461857       -12.5678
 196   2.0000      -0.458806       -12.4848
 197   2.0000      -0.457033       -12.4365
 198   2.0000      -0.454721       -12.3736
 199   2.0000      -0.452825       -12.3220
 200   2.0000      -0.449650       -12.2356
 201   2.0000      -0.445273       -12.1165
 202   2.0000      -0.444681       -12.1004
 203   2.0000      -0.441747       -12.0206
 204   2.0000      -0.437212       -11.8971
 205   2.0000      -0.436663       -11.8822
 206   2.0000      -0.435208       -11.8426
 207   2.0000      -0.431510       -11.7420
 208   2.0000      -0.428975       -11.6730
 209   2.0000      -0.427047       -11.6205
 210   2.0000      -0.425703       -11.5840
 211   2.0000      -0.423801       -11.5322
 212   2.0000      -0.422985       -11.5100
 213   2.0000      -0.421883       -11.4800
 214   2.0000      -0.420611       -11.4454
 215   2.0000      -0.420307       -11.4371
 216   2.0000      -0.416106       -11.3228
 217   2.0000      -0.414386       -11.2760
 218   2.0000      -0.413667       -11.2564
 219   2.0000      -0.402198       -10.9444
 220   2.0000      -0.391058       -10.6412
 221   2.0000      -0.386348       -10.5131
 222   2.0000      -0.381872       -10.3913
 223   2.0000      -0.362286        -9.8583
 224   2.0000      -0.347823        -9.4647
 225   2.0000      -0.347360        -9.4522
 226   2.0000      -0.345148        -9.3919
 227   2.0000      -0.342325        -9.3151
 228   2.0000      -0.341294        -9.2871
 229   2.0000      -0.338494        -9.2109
 230   2.0000      -0.336094        -9.1456
 231   2.0000      -0.332773        -9.0552
 232   2.0000      -0.331483        -9.0201
 233   2.0000      -0.331047        -9.0083
 234   2.0000      -0.330002        -8.9798
 235   2.0000      -0.329705        -8.9717
 236   2.0000      -0.326789        -8.8924
 237   2.0000      -0.320778        -8.7288
 238   2.0000      -0.320668        -8.7258
 239   2.0000      -0.319999        -8.7076
 240   2.0000      -0.314711        -8.5637
 241   2.0000      -0.287520        -7.8238
 242   2.0000      -0.277588        -7.5536
 243   2.0000      -0.233539        -6.3549
 244   0.0000      -0.099163        -2.6984
 245   0.0000      -0.074890        -2.0379
 246   0.0000      -0.063126        -1.7178
 247   0.0000      -0.052897        -1.4394
 248   0.0000      -0.043646        -1.1877

MULLIKEN ATOMIC CHARGES
-----------------------
   0 C :   -0.103139
   1 S :    0.165270
   2 C :   -0.141537
   3 C :    0.098339
   4 C :   -0.021428
   5 C :    0.137700
   6 O :   -0.152114
   7 C :   -0.035239
   8 C :   -0.011811
   9 C :    0.004592
  10 C :    0.007597
  11 C :    0.046172
  12 C :    0.009412
  13 C :   -0.076364
  14 C :    0.015399
  15 C :    0.115323
  16 O :   -0.164892
  17 C :   -0.082056
  18 S :    0.118096
  19 C :   -0.043778
  20 C :   -0.071177
  21 C :    0.067996
  22 C :   -0.181411
  23 N :    0.149307
  24 C :    0.006722
  25 C :   -0.038177
  26 C :    0.136954
  27 N :   -0.259289
  28 C :    0.099856
  29 C :    0.002121
  30 C :    0.163485
  31 O :   -0.211554
  32 C :   -0.062372
  33 C :   -0.058918
  34 C :    0.161066
  35 O :   -0.194393
  36 N :   -0.257639
  37 C :    0.095190
  38 C :    0.002995
  39 C :    0.141568
  40 C :   -0.024685
  41 C :    0.072291
  42 C :   -0.101820
  43 S :    0.121816
  44 C :   -0.087593
  45 N :   -0.042431
  46 N :   -0.053099
  47 C :    0.053319
  48 C :   -0.008334
  49 C :   -0.156085
  50 S :    0.158275
  51 C :   -0.097015
  52 C :   -0.010048
  53 C :    0.082615
  54 C :    0.127736
  55 O :   -0.168913
  56 C :   -0.022449
  57 C :   -0.013786
  58 C :    0.015804
  59 C :    0.003791
  60 C :    0.065905
  61 C :    0.021265
  62 C :   -0.070719
  63 C :   -0.007362
  64 C :    0.136893
  65 O :   -0.150847
  66 H :    0.041886
  67 H :   -0.003860
  68 H :   -0.018814
  69 H :    0.028696
  70 H :    0.016707
  71 H :    0.028019
  72 H :    0.016109
  73 H :    0.021600
  74 H :   -0.009594
  75 H :    0.011555
  76 H :    0.042168
  77 H :   -0.020200
  78 H :    0.044276
  79 H :    0.023075
  80 H :    0.030776
  81 H :    0.023444
  82 H :    0.015740
  83 H :    0.048231
  84 H :    0.029268
  85 H :    0.027999
  86 H :    0.025875
  87 H :    0.019951
  88 H :    0.004018
  89 H :    0.012929
  90 H :    0.012449
  91 H :    0.031028
  92 H :    0.040264
  93 H :   -0.002205
  94 H :   -0.018737
  95 H :    0.004934
  96 H :    0.013739
  97 H :    0.010647
  98 H :    0.021866
  99 H :    0.015417
 100 H :   -0.011650
Sum of atomic charges:   -0.0000000

LOEWDIN ATOMIC CHARGES
----------------------
   0 C :   -0.136247
   1 S :    0.473457
   2 C :   -0.146521
   3 C :   -0.090946
   4 C :   -0.092748
   5 C :    0.081206
   6 O :   -0.148929
   7 C :   -0.060803
   8 C :    0.018048
   9 C :   -0.007708
  10 C :   -0.001193
  11 C :   -0.031177
  12 C :   -0.054613
  13 C :    0.005155
  14 C :   -0.046587
  15 C :    0.087473
  16 O :   -0.143628
  17 C :   -0.182566
  18 S :    0.439789
  19 C :   -0.138945
  20 C :   -0.092035
  21 C :    0.003572
  22 C :   -0.031906
  23 N :   -0.038772
  24 C :    0.009465
  25 C :   -0.045482
  26 C :    0.070177
  27 N :   -0.001393
  28 C :    0.036138
  29 C :   -0.061327
  30 C :    0.079873
  31 O :   -0.202650
  32 C :   -0.118373
  33 C :   -0.114676
  34 C :    0.079238
  35 O :   -0.187390
  36 N :    0.002512
  37 C :    0.036878
  38 C :   -0.060232
  39 C :    0.074826
  40 C :   -0.013301
  41 C :   -0.007564
  42 C :   -0.150152
  43 S :    0.410260
  44 C :   -0.148191
  45 N :   -0.072586
  46 N :   -0.077595
  47 C :   -0.037548
  48 C :   -0.024993
  49 C :   -0.131689
  50 S :    0.480672
  51 C :   -0.129477
  52 C :   -0.097681
  53 C :   -0.087508
  54 C :    0.087242
  55 O :   -0.152397
  56 C :   -0.058555
  57 C :    0.018658
  58 C :   -0.011201
  59 C :    0.000148
  60 C :   -0.026867
  61 C :   -0.046504
  62 C :    0.009966
  63 C :   -0.049004
  64 C :    0.082682
  65 O :   -0.147425
  66 H :    0.036779
  67 H :    0.036719
  68 H :    0.030070
  69 H :    0.038974
  70 H :    0.032809
  71 H :    0.026622
  72 H :    0.028954
  73 H :    0.027211
  74 H :    0.032797
  75 H :    0.042547
  76 H :    0.048578
  77 H :    0.021402
  78 H :    0.038058
  79 H :    0.022675
  80 H :    0.032792
  81 H :    0.030599
  82 H :    0.021601
  83 H :    0.039387
  84 H :    0.025714
  85 H :    0.031497
  86 H :    0.032030
  87 H :    0.023906
  88 H :    0.037820
  89 H :    0.037639
  90 H :    0.036351
  91 H :    0.035733
  92 H :    0.036183
  93 H :    0.036425
  94 H :    0.029831
  95 H :    0.027743
  96 H :    0.030979
  97 H :    0.024171
  98 H :    0.025811
  99 H :    0.025625
 100 H :    0.033617

  Mayer bond orders larger than 0.100000
B(  0-C ,  1-S ) :   1.1663 B(  0-C ,  4-C ) :   1.5613 B(  0-C , 66-H ) :   0.9667
B(  1-S ,  2-C ) :   1.1706 B(  2-C ,  3-C ) :   1.5067 B(  2-C , 17-C ) :   1.0888
B(  3-C ,  4-C ) :   1.1969 B(  3-C , 15-C ) :   0.9679 B(  4-C ,  5-C ) :   0.9457
B(  5-C ,  6-O ) :   2.2622 B(  5-C ,  7-C ) :   0.9361 B(  7-C ,  8-C ) :   1.3900
B(  7-C , 14-C ) :   1.3392 B(  8-C ,  9-C ) :   1.3665 B(  8-C , 67-H ) :   0.9936
B(  9-C , 10-C ) :   1.3650 B(  9-C , 68-H ) :   0.9990 B( 10-C , 11-C ) :   1.0099
B( 10-C , 13-C ) :   1.3495 B( 11-C , 12-C ) :   1.1311 B( 11-C , 69-H ) :   0.9229
B( 11-C , 70-H ) :   0.9362 B( 12-C , 71-H ) :   0.9580 B( 12-C , 72-H ) :   0.9617
B( 12-C , 73-H ) :   0.9716 B( 13-C , 14-C ) :   1.3643 B( 13-C , 74-H ) :   0.9935
B( 14-C , 15-C ) :   0.9367 B( 15-C , 16-O ) :   2.1714 B( 17-C , 18-S ) :   1.1094
B( 17-C , 21-C ) :   1.5257 B( 18-S , 19-C ) :   1.1138 B( 19-C , 20-C ) :   1.4314
B( 19-C , 24-C ) :   1.1934 B( 20-C , 21-C ) :   1.2737 B( 20-C , 22-C ) :   1.1075
B( 21-C , 75-H ) :   0.9925 B( 22-C , 23-N ) :   3.0234 B( 24-C , 25-C ) :   1.5721
B( 24-C , 76-H ) :   0.9436 B( 25-C , 26-C ) :   1.1702 B( 25-C , 77-H ) :   0.9585
B( 26-C , 27-N ) :   1.1522 B( 26-C , 33-C ) :   1.3467 B( 27-N , 28-C ) :   0.9473
B( 27-N , 30-C ) :   1.0614 B( 28-C , 29-C ) :   1.1190 B( 28-C , 78-H ) :   0.9281
B( 28-C , 79-H ) :   0.9495 B( 29-C , 80-H ) :   0.9636 B( 29-C , 81-H ) :   0.9682
B( 29-C , 82-H ) :   0.9688 B( 30-C , 31-O ) :   2.0296 B( 30-C , 32-C ) :   0.9859
B( 31-O , 89-H ) :   0.1086 B( 32-C , 33-C ) :   1.2575 B( 32-C , 39-C ) :   1.3340
B( 33-C , 34-C ) :   0.9795 B( 34-C , 35-O ) :   2.0464 B( 34-C , 36-N ) :   1.0561
B( 35-O , 76-H ) :   0.1060 B( 36-N , 37-C ) :   0.9422 B( 36-N , 39-C ) :   1.1652
B( 37-C , 38-C ) :   1.1212 B( 37-C , 83-H ) :   0.9285 B( 37-C , 84-H ) :   0.9500
B( 38-C , 85-H ) :   0.9639 B( 38-C , 86-H ) :   0.9679 B( 38-C , 87-H ) :   0.9689
B( 39-C , 40-C ) :   1.1338 B( 40-C , 41-C ) :   1.6525 B( 40-C , 88-H ) :   0.9711
B( 41-C , 42-C ) :   1.1097 B( 41-C , 89-H ) :   0.9272 B( 42-C , 43-S ) :   1.0994
B( 42-C , 46-N ) :   1.6576 B( 43-S , 44-C ) :   1.0996 B( 44-C , 45-N ) :   1.6456
B( 44-C , 47-C ) :   1.1336 B( 45-N , 46-N ) :   1.2390 B( 47-C , 48-C ) :   1.6100
B( 47-C , 90-H ) :   0.9770 B( 48-C , 49-C ) :   1.1776 B( 48-C , 91-H ) :   0.9530
B( 49-C , 50-S ) :   1.1400 B( 49-C , 53-C ) :   1.4730 B( 50-S , 51-C ) :   1.1831
B( 51-C , 52-C ) :   1.5520 B( 51-C , 92-H ) :   0.9656 B( 52-C , 53-C ) :   1.2046
B( 52-C , 64-C ) :   0.9481 B( 53-C , 54-C ) :   0.9696 B( 54-C , 55-O ) :   2.1633
B( 54-C , 56-C ) :   0.9552 B( 56-C , 57-C ) :   1.3956 B( 56-C , 63-C ) :   1.3325
B( 57-C , 58-C ) :   1.3554 B( 57-C , 93-H ) :   0.9931 B( 58-C , 59-C ) :   1.3658
B( 58-C , 94-H ) :   0.9964 B( 59-C , 60-C ) :   1.0351 B( 59-C , 62-C ) :   1.3287
B( 60-C , 61-C ) :   1.0992 B( 60-C , 95-H ) :   0.9341 B( 60-C , 96-H ) :   0.9357
B( 61-C , 97-H ) :   0.9693 B( 61-C , 98-H ) :   0.9690 B( 61-C , 99-H ) :   0.9710
B( 62-C , 63-C ) :   1.3950 B( 62-C ,100-H ) :   1.0014 B( 63-C , 64-C ) :   0.9220
B( 64-C , 65-O ) :   2.2619

-----------------------------------------------------------------------------
         ABSORPTION SPECTRUM VIA TRANSITION ELECTRIC DIPOLE MOMENTS
-----------------------------------------------------------------------------
State   Energy  Wavelength   fosc         T2         TX        TY        TZ
        (cm-1)    (nm)                  (au**2)     (au)      (au)      (au)
-----------------------------------------------------------------------------
   0   14088.6    709.8   1.162413193  27.16240  -2.82430   4.02334   1.73162
   1   21351.3    468.4   0.062233966   0.95958  -0.32890  -0.17790  -0.90540
   2   24545.1    407.4   0.497073722   6.66700  -1.25468   1.35452   1.80501
   3   24825.1    402.8   0.399228718   5.29427  -0.00177  -0.71958  -2.18552
   4   25560.0    391.2   0.346100184   4.45777   1.03237  -1.51928  -1.04104
   5   26443.7    378.2   0.017663771   0.21991  -0.26147   0.29251   0.25686
   6   27197.3    367.7   0.001207804   0.01462   0.03136   0.07769   0.08718
   7   27648.0    361.7   0.047725720   0.56828   0.07106  -0.25328  -0.70646
   8   28229.8    354.2   0.001448987   0.01690   0.12058  -0.00758   0.04797
   9   29595.3    337.9   0.000230043   0.00256  -0.02440   0.01885   0.04010
  10   29623.4    337.6   0.102860964   1.14312  -0.64219   0.83155   0.19808
  11   29857.1    334.9   0.012024870   0.13259   0.05824   0.05997  -0.35440
  12   30658.3    326.2   0.056781711   0.60973  -0.04450   0.38041   0.68047
  13   31309.5    319.4   0.029607613   0.31132   0.03686  -0.04261  -0.55511
  14   31328.1    319.2   0.060715156   0.63803   0.07691  -0.11589  -0.78656
  15   31831.4    314.2   0.000819179   0.00847  -0.01046  -0.01708  -0.08984
  16   32630.6    306.5   0.033984635   0.34287  -0.57021   0.13115  -0.02301
  17   33728.2    296.5   0.016271699   0.15882   0.04501  -0.11195   0.37982
  18   34459.3    290.2   0.029503979   0.28187  -0.11191   0.42904   0.29202
  19   34623.5    288.8   0.047020322   0.44709   0.21089  -0.44524   0.45208
  20   34772.3    287.6   0.037693143   0.35687  -0.16242   0.39951   0.41338
  21   35103.2    284.9   0.004365128   0.04094  -0.16612  -0.09782   0.06145
  22   35234.8    283.8   0.084355439   0.78816  -0.26603   0.43316   0.72785
  23   35485.0    281.8   0.165025997   1.53103  -0.65761   0.35810  -0.98506
  24   36351.1    275.1   0.077932373   0.70579  -0.49982  -0.18110   0.65052
  25   36688.1    272.6   0.058194581   0.52219   0.46956  -0.25125  -0.48845
  26   36954.3    270.6   0.390566332   3.47941  -0.60875   0.84497   1.54753
  27   37446.6    267.0   0.004425980   0.03891  -0.14791  -0.03137  -0.12669
  28   37880.5    264.0   0.013679646   0.11889  -0.07591   0.06104   0.33075
  29   38344.8    260.8   0.001053211   0.00904   0.01353  -0.03197   0.08853
  30   38567.4    259.3   0.168829453   1.44113  -0.26577   0.39239   1.10296
  31   38725.0    258.2   0.004287069   0.03645  -0.08831   0.08094   0.14865
  32   39168.2    255.3   0.039672153   0.33345   0.47855  -0.25623   0.19693
  33   39479.0    253.3   0.137697252   1.14825  -0.61668  -0.10604   0.86989
  34   39525.5    253.0   0.000436556   0.00364   0.02710  -0.02022  -0.04993
  35   40018.7    249.9   0.003747361   0.03083  -0.15176   0.08035   0.03662
  36   40085.0    249.5   0.009115440   0.07486   0.06862   0.20620  -0.16625
  37   40129.5    249.2   0.029428608   0.24142  -0.09616  -0.10094  -0.47116

FINAL SINGLE POINT ENERGY     -4278.566479399284

DIPOLE MOMENT
-------------
                                X             Y             Z
Electronic contribution:    -17.94944      -5.44875      -8.66243
Nuclear contribution   :     19.07741       4.50057      10.55686
                        -----------------------------------------
Total Dipole Moment    :      1.12798      -0.94818       1.89443
                        -----------------------------------------
Magnitude (a.u.)       :      2.40005
Magnitude (Debye)      :      6.10045

Rotational constants in cm-1:     0.002142     0.000203     0.000192
Rotational constants in MHz :    64.207990     6.098981     5.742779

                             ****ORCA TERMINATED NORMALLY****
TOTAL RUN TIME: 0 days 0 hours 8 minutes 45 seconds 295 msec
