                         Program Version 4.2.0 -  RELEASE  -
|  1> # ORCA input file
|  2> # SCF done       -193.430293221604          0.000720290546
|  3> ! CAM-B3LYP def2-SVP def2/J RIJCOSX Grid4 TightSCF
|  4> %maxcore 5000
|  5> %tddft
|  6>     Mode sTDDFT
|  7>     Ethresh 5.0
|  8>     maxcore 5000
|  9> end
| 10>
| 11> %pal
| 12>   nprocs 6
| 13>   end
| 14> * xyz 0 1
| 15>    C        6.77959         0.13193        -2.48989
| 16>    S        5.94187         0.41144        -1.02428
| 17>    C        6.00300         2.13640        -1.27340
| 18>    C        6.63776         2.44041        -2.45976
| 19>    C        7.08678         1.28565        -3.14525
| 20>    C        7.81310         1.34106        -4.45445
| 21>    C        8.42531         2.72438        -4.69398
| 22>    C        9.68805         2.91395        -3.85898
| 23>    F        9.54137         2.66794        -2.55255
| 24>    F       10.66659         2.10052        -4.28604
| 25>    F       10.16537         4.16690        -3.95576
| 26>    C        7.38996         3.83016        -4.41763
| 27>    C        6.26992         3.63928        -5.31548
| 28>    N        5.37768         3.48418        -6.01088
| 29>    C        6.88398         3.82553        -2.96549
| 30>    C        5.45417         2.99737        -0.27831
| 31>    S        5.53230         4.73508        -0.37076
| 32>    C        4.72414         4.92557         1.15547
| 33>    C        4.41331         3.67400         1.69242
| 34>    C        4.82660         2.60273         0.88073
| 35>    C        3.74685         3.45969         2.90870
| 36>    N        3.20279         3.24227         3.89648
| 37>    C        4.49630         6.23488         1.64002
| 38>    C        3.96885         6.53995         2.85514
| 39>    C        3.77672         7.87535         3.28164
| 40>    N        3.27592         8.21162         4.52295
| 41>    C        2.81691         7.29697         5.54069
| 42>    C        1.43233         6.73728         5.22486
| 43>    C        3.20473         9.59680         4.70163
| 44>    O        2.80474        10.12837         5.72714
| 45>    C        3.70214        10.14857         3.46707
| 46>    C        4.04660         9.06624         2.61338
| 47>    C        4.53871         9.62093         1.37481
| 48>    O        4.94803         9.10367         0.35152
| 49>    N        4.45108        11.01258         1.55554
| 50>    C        4.89185        11.93098         0.53393
| 51>    C        6.28072        12.49071         0.83106
| 52>    C        3.96402        11.34148         2.79726
| 53>    C        3.78553        12.67851         3.24449
| 54>    C        3.33956        12.91913         4.49695
| 55>    N        3.13883        14.15155         5.06078
| 56>    C        2.72362        14.31783         6.37483
| 57>    C        2.44283        13.19141         7.28541
| 58>    C        2.64218        15.65733         6.62489
| 59>    C        3.01276        16.37985         5.43461
| 60>    C        3.33573        15.41965         4.41240
| 61>    O        3.69444        15.55203         3.26535
| 62>    C        2.93437        17.71924         5.68934
| 63>    C        3.19953        18.85894         4.78824
| 64>    N        2.51898        17.87812         6.99715
| 65>    C        2.33163        16.61917         7.65162
| 66>    O        1.99730        16.51046         8.80782
| 67>    C        2.36851        19.09028         7.65823
| 68>    S        3.65813        20.26152         7.69350
| 69>    C        2.72260        21.29400         8.69274
| 70>    C        1.50864        20.76692         8.99969
| 71>    C        1.29889        19.49161         8.40912
| 72>    C        0.04877        18.69470         8.61092
| 73>    C       -1.10001        19.56429         9.12930
| 74>    C       -1.72310        20.35534         7.98317
| 75>    F       -0.84051        20.99276         7.20196
| 76>    F       -2.42047        19.54732         7.16913
| 77>    F       -2.58454        21.29160         8.41747
| 78>    C       -0.63341        20.49089        10.26760
| 79>    C       -0.13429        19.68287        11.36155
| 80>    N        0.26539        19.06946        12.23727
| 81>    C        0.46152        21.46638         9.80926
| 82>    H        7.00235        -0.87247        -2.78970
| 83>    H        7.10922         1.13137        -5.26588
| 84>    H        8.59062         0.57423        -4.48539
| 85>    H        8.76074         2.80027        -5.73549
| 86>    H        7.82788         4.81087        -4.64049
| 87>    H        5.96286         4.41398        -2.91499
| 88>    H        7.61661         4.32275        -2.32157
| 89>    H        4.66834         1.57064         1.14081
| 90>    H        4.78291         7.03924         0.97465
| 91>    H        3.69301         5.74999         3.53622
| 92>    H        2.77676         7.87560         6.46800
| 93>    H        3.54076         6.48631         5.66084
| 94>    H        0.71497         7.54901         5.12939
| 95>    H        1.11251         6.07977         6.02802
| 96>    H        1.44286         6.16976         4.29737
| 97>    H        4.16375        12.73998         0.43125
| 98>    H        4.91838        11.35653        -0.39646
| 99>    H        6.28204        13.05409         1.76113
|100>    H        6.59074        13.14911         0.02440
|101>    H        6.99899        11.67849         0.91408
|102>    H        4.01526        13.48883         2.57296
|103>    H        3.11537        12.08722         5.15151
|104>    H        3.32923        12.57249         7.42542
|105>    H        1.66468        12.54302         6.88260
|106>    H        2.12507        13.58541         8.24679
|107>    H        3.26035        18.49705         3.76550
|108>    H        4.14557        19.33591         5.04593
|109>    H        2.41393        19.60888         4.87377
|110>    H        3.12437        22.24157         8.99093
|111>    H        0.25488        17.90292         9.33826
|112>    H       -0.24399        18.20512         7.67738
|113>    H       -1.90324        18.91775         9.50213
|114>    H       -1.48949        21.06216        10.64882
|115>    H        0.91730        21.94111        10.68163
|116>    H        0.00853        22.25966         9.20672
|117> *
|118>
|119>                          ****END OF INPUT****

CARTESIAN COORDINATES (ANGSTROEM)
---------------------------------
  C      6.779590    0.131930   -2.489890
  S      5.941870    0.411440   -1.024280
  C      6.003000    2.136400   -1.273400
  C      6.637760    2.440410   -2.459760
  C      7.086780    1.285650   -3.145250
  C      7.813100    1.341060   -4.454450
  C      8.425310    2.724380   -4.693980
  C      9.688050    2.913950   -3.858980
  F      9.541370    2.667940   -2.552550
  F     10.666590    2.100520   -4.286040
  F     10.165370    4.166900   -3.955760
  C      7.389960    3.830160   -4.417630
  C      6.269920    3.639280   -5.315480
  N      5.377680    3.484180   -6.010880
  C      6.883980    3.825530   -2.965490
  C      5.454170    2.997370   -0.278310
  S      5.532300    4.735080   -0.370760
  C      4.724140    4.925570    1.155470
  C      4.413310    3.674000    1.692420
  C      4.826600    2.602730    0.880730
  C      3.746850    3.459690    2.908700
  N      3.202790    3.242270    3.896480
  C      4.496300    6.234880    1.640020
  C      3.968850    6.539950    2.855140
  C      3.776720    7.875350    3.281640
  N      3.275920    8.211620    4.522950
  C      2.816910    7.296970    5.540690
  C      1.432330    6.737280    5.224860
  C      3.204730    9.596800    4.701630
  O      2.804740   10.128370    5.727140
  C      3.702140   10.148570    3.467070
  C      4.046600    9.066240    2.613380
  C      4.538710    9.620930    1.374810
  O      4.948030    9.103670    0.351520
  N      4.451080   11.012580    1.555540
  C      4.891850   11.930980    0.533930
  C      6.280720   12.490710    0.831060
  C      3.964020   11.341480    2.797260
  C      3.785530   12.678510    3.244490
  C      3.339560   12.919130    4.496950
  N      3.138830   14.151550    5.060780
  C      2.723620   14.317830    6.374830
  C      2.442830   13.191410    7.285410
  C      2.642180   15.657330    6.624890
  C      3.012760   16.379850    5.434610
  C      3.335730   15.419650    4.412400
  O      3.694440   15.552030    3.265350
  C      2.934370   17.719240    5.689340
  C      3.199530   18.858940    4.788240
  N      2.518980   17.878120    6.997150
  C      2.331630   16.619170    7.651620
  O      1.997300   16.510460    8.807820
  C      2.368510   19.090280    7.658230
  S      3.658130   20.261520    7.693500
  C      2.722600   21.294000    8.692740
  C      1.508640   20.766920    8.999690
  C      1.298890   19.491610    8.409120
  C      0.048770   18.694700    8.610920
  C     -1.100010   19.564290    9.129300
  C     -1.723100   20.355340    7.983170
  F     -0.840510   20.992760    7.201960
  F     -2.420470   19.547320    7.169130
  F     -2.584540   21.291600    8.417470
  C     -0.633410   20.490890   10.267600
  C     -0.134290   19.682870   11.361550
  N      0.265390   19.069460   12.237270
  C      0.461520   21.466380    9.809260
  H      7.002350   -0.872470   -2.789700
  H      7.109220    1.131370   -5.265880
  H      8.590620    0.574230   -4.485390
  H      8.760740    2.800270   -5.735490
  H      7.827880    4.810870   -4.640490
  H      5.962860    4.413980   -2.914990
  H      7.616610    4.322750   -2.321570
  H      4.668340    1.570640    1.140810
  H      4.782910    7.039240    0.974650
  H      3.693010    5.749990    3.536220
  H      2.776760    7.875600    6.468000
  H      3.540760    6.486310    5.660840
  H      0.714970    7.549010    5.129390
  H      1.112510    6.079770    6.028020
  H      1.442860    6.169760    4.297370
  H      4.163750   12.739980    0.431250
  H      4.918380   11.356530   -0.396460
  H      6.282040   13.054090    1.761130
  H      6.590740   13.149110    0.024400
  H      6.998990   11.678490    0.914080
  H      4.015260   13.488830    2.572960
  H      3.115370   12.087220    5.151510
  H      3.329230   12.572490    7.425420
  H      1.664680   12.543020    6.882600
  H      2.125070   13.585410    8.246790
  H      3.260350   18.497050    3.765500
  H      4.145570   19.335910    5.045930
  H      2.413930   19.608880    4.873770
  H      3.124370   22.241570    8.990930
  H      0.254880   17.902920    9.338260
  H     -0.243990   18.205120    7.677380
  H     -1.903240   18.917750    9.502130
  H     -1.489490   21.062160   10.648820
  H      0.917300   21.941110   10.681630
  H      0.008530   22.259660    9.206720

 Total Charge           Charge          ....    0
 Multiplicity           Mult            ....    1
 Number of Electrons    NEL             ....  500
 Basis Dimension        Dim             .... 1125

ORBITAL ENERGIES
----------------

  NO   OCC          E(Eh)            E(eV)
   0   2.0000     -88.976365     -2421.1700
   1   2.0000     -88.963094     -2420.8089
   2   2.0000     -88.962342     -2420.7884
   3   2.0000     -24.812635      -675.1861
   4   2.0000     -24.810375      -675.1246
   5   2.0000     -24.810366      -675.1244
   6   2.0000     -24.808887      -675.0841
   7   2.0000     -24.808039      -675.0611
   8   2.0000     -24.805022      -674.9790
   9   2.0000     -19.210009      -522.7309
  10   2.0000     -19.203458      -522.5527
  11   2.0000     -19.189606      -522.1757
  12   2.0000     -19.182674      -521.9871
  13   2.0000     -14.482316      -394.0839
  14   2.0000     -14.476458      -393.9244
  15   2.0000     -14.449314      -393.1858
  16   2.0000     -14.445969      -393.0948
  17   2.0000     -14.412065      -392.1722
  18   2.0000     -14.410097      -392.1187
  19   2.0000     -14.404941      -391.9784
  20   2.0000     -10.524461      -286.3851
  21   2.0000     -10.521146      -286.2949
  22   2.0000     -10.394071      -282.8371
  23   2.0000     -10.388887      -282.6960
  24   2.0000     -10.370794      -282.2037
  25   2.0000     -10.365454      -282.0583
  26   2.0000     -10.352345      -281.7016
  27   2.0000     -10.349116      -281.6138
  28   2.0000     -10.337877      -281.3079
  29   2.0000     -10.336069      -281.2587
  30   2.0000     -10.334267      -281.2097
  31   2.0000     -10.332012      -281.1483
  32   2.0000     -10.327680      -281.0305
  33   2.0000     -10.326944      -281.0104
  34   2.0000     -10.324690      -280.9491
  35   2.0000     -10.324519      -280.9445
  36   2.0000     -10.324455      -280.9427
  37   2.0000     -10.318485      -280.7802
  38   2.0000     -10.315635      -280.7027
  39   2.0000     -10.313166      -280.6355
  40   2.0000     -10.311453      -280.5889
  41   2.0000     -10.310989      -280.5763
  42   2.0000     -10.303735      -280.3789
  43   2.0000     -10.303049      -280.3602
  44   2.0000     -10.302512      -280.3456
  45   2.0000     -10.298992      -280.2498
  46   2.0000     -10.298379      -280.2331
  47   2.0000     -10.297927      -280.2208
  48   2.0000     -10.297510      -280.2095
  49   2.0000     -10.296809      -280.1904
  50   2.0000     -10.294252      -280.1208
  51   2.0000     -10.291764      -280.0531
  52   2.0000     -10.290462      -280.0177
  53   2.0000     -10.288948      -279.9765
  54   2.0000     -10.287506      -279.9373
  55   2.0000     -10.287312      -279.9320
  56   2.0000     -10.286681      -279.9148
  57   2.0000     -10.286493      -279.9097
  58   2.0000     -10.285606      -279.8856
  59   2.0000     -10.279979      -279.7325
  60   2.0000     -10.276227      -279.6304
  61   2.0000     -10.271605      -279.5046
  62   2.0000     -10.270116      -279.4641
  63   2.0000     -10.258274      -279.1418
  64   2.0000     -10.255102      -279.0555
  65   2.0000     -10.252997      -278.9982
  66   2.0000     -10.249989      -278.9164
  67   2.0000      -8.071166      -219.6276
  68   2.0000      -8.058942      -219.2950
  69   2.0000      -8.058159      -219.2736
  70   2.0000      -6.040478      -164.3698
  71   2.0000      -6.036149      -164.2520
  72   2.0000      -6.033463      -164.1789
  73   2.0000      -6.028263      -164.0374
  74   2.0000      -6.027525      -164.0173
  75   2.0000      -6.024070      -163.9233
  76   2.0000      -6.023210      -163.8999
  77   2.0000      -6.021054      -163.8412
  78   2.0000      -6.020254      -163.8194
  79   2.0000      -1.401184       -38.1281
  80   2.0000      -1.398544       -38.0563
  81   2.0000      -1.303892       -35.4807
  82   2.0000      -1.301374       -35.4122
  83   2.0000      -1.301125       -35.4054
  84   2.0000      -1.298422       -35.3319
  85   2.0000      -1.150193       -31.2983
  86   2.0000      -1.142910       -31.1002
  87   2.0000      -1.128553       -30.7095
  88   2.0000      -1.119787       -30.4710
  89   2.0000      -1.083763       -29.4907
  90   2.0000      -1.076841       -29.3023
  91   2.0000      -1.058072       -28.7916
  92   2.0000      -1.048702       -28.5366
  93   2.0000      -1.016905       -27.6714
  94   2.0000      -1.008346       -27.4385
  95   2.0000      -1.004545       -27.3351
  96   2.0000      -0.995306       -27.0836
  97   2.0000      -0.989244       -26.9187
  98   2.0000      -0.984728       -26.7958
  99   2.0000      -0.957569       -26.0568
 100   2.0000      -0.954573       -25.9752
 101   2.0000      -0.938843       -25.5472
 102   2.0000      -0.921801       -25.0835
 103   2.0000      -0.911291       -24.7975
 104   2.0000      -0.896669       -24.3996
 105   2.0000      -0.892454       -24.2849
 106   2.0000      -0.877964       -23.8906
 107   2.0000      -0.876174       -23.8419
 108   2.0000      -0.869156       -23.6509
 109   2.0000      -0.866640       -23.5825
 110   2.0000      -0.863334       -23.4925
 111   2.0000      -0.861883       -23.4530
 112   2.0000      -0.854799       -23.2603
 113   2.0000      -0.849321       -23.1112
 114   2.0000      -0.834404       -22.7053
 115   2.0000      -0.821112       -22.3436
 116   2.0000      -0.813026       -22.1236
 117   2.0000      -0.803104       -21.8536
 118   2.0000      -0.794528       -21.6202
 119   2.0000      -0.776440       -21.1280
 120   2.0000      -0.770067       -20.9546
 121   2.0000      -0.767918       -20.8961
 122   2.0000      -0.754599       -20.5337
 123   2.0000      -0.753668       -20.5083
 124   2.0000      -0.751920       -20.4608
 125   2.0000      -0.742787       -20.2123
 126   2.0000      -0.735381       -20.0107
 127   2.0000      -0.732743       -19.9390
 128   2.0000      -0.727465       -19.7953
 129   2.0000      -0.719916       -19.5899
 130   2.0000      -0.706919       -19.2362
 131   2.0000      -0.702087       -19.1048
 132   2.0000      -0.698540       -19.0083
 133   2.0000      -0.688574       -18.7370
 134   2.0000      -0.687264       -18.7014
 135   2.0000      -0.684307       -18.6209
 136   2.0000      -0.683320       -18.5941
 137   2.0000      -0.681206       -18.5365
 138   2.0000      -0.673296       -18.3213
 139   2.0000      -0.667298       -18.1581
 140   2.0000      -0.659442       -17.9443
 141   2.0000      -0.654303       -17.8045
 142   2.0000      -0.644294       -17.5321
 143   2.0000      -0.639257       -17.3951
 144   2.0000      -0.632732       -17.2175
 145   2.0000      -0.617877       -16.8133
 146   2.0000      -0.614997       -16.7349
 147   2.0000      -0.612133       -16.6570
 148   2.0000      -0.603727       -16.4282
 149   2.0000      -0.602220       -16.3873
 150   2.0000      -0.597616       -16.2619
 151   2.0000      -0.591899       -16.1064
 152   2.0000      -0.588612       -16.0169
 153   2.0000      -0.585554       -15.9337
 154   2.0000      -0.581482       -15.8229
 155   2.0000      -0.576426       -15.6854
 156   2.0000      -0.569957       -15.5093
 157   2.0000      -0.565056       -15.3760
 158   2.0000      -0.563403       -15.3310
 159   2.0000      -0.562566       -15.3082
 160   2.0000      -0.560374       -15.2486
 161   2.0000      -0.559957       -15.2372
 162   2.0000      -0.558318       -15.1926
 163   2.0000      -0.556980       -15.1562
 164   2.0000      -0.554060       -15.0768
 165   2.0000      -0.550266       -14.9735
 166   2.0000      -0.548085       -14.9142
 167   2.0000      -0.545594       -14.8464
 168   2.0000      -0.541931       -14.7467
 169   2.0000      -0.541398       -14.7322
 170   2.0000      -0.535155       -14.5623
 171   2.0000      -0.534523       -14.5451
 172   2.0000      -0.529729       -14.4147
 173   2.0000      -0.527809       -14.3624
 174   2.0000      -0.525688       -14.3047
 175   2.0000      -0.524039       -14.2598
 176   2.0000      -0.523243       -14.2382
 177   2.0000      -0.517453       -14.0806
 178   2.0000      -0.516258       -14.0481
 179   2.0000      -0.515852       -14.0371
 180   2.0000      -0.513089       -13.9619
 181   2.0000      -0.511203       -13.9105
 182   2.0000      -0.509754       -13.8711
 183   2.0000      -0.509565       -13.8660
 184   2.0000      -0.508052       -13.8248
 185   2.0000      -0.506325       -13.7778
 186   2.0000      -0.505952       -13.7677
 187   2.0000      -0.503893       -13.7116
 188   2.0000      -0.502948       -13.6859
 189   2.0000      -0.500679       -13.6242
 190   2.0000      -0.499827       -13.6010
 191   2.0000      -0.499708       -13.5977
 192   2.0000      -0.498329       -13.5602
 193   2.0000      -0.496753       -13.5173
 194   2.0000      -0.495900       -13.4941
 195   2.0000      -0.494619       -13.4593
 196   2.0000      -0.492913       -13.4129
 197   2.0000      -0.486769       -13.2456
 198   2.0000      -0.485182       -13.2025
 199   2.0000      -0.475621       -12.9423
 200   2.0000      -0.473540       -12.8857
 201   2.0000      -0.467041       -12.7088
 202   2.0000      -0.464571       -12.6416
 203   2.0000      -0.462407       -12.5827
 204   2.0000      -0.460548       -12.5322
 205   2.0000      -0.460083       -12.5195
 206   2.0000      -0.459586       -12.5060
 207   2.0000      -0.452287       -12.3073
 208   2.0000      -0.450890       -12.2693
 209   2.0000      -0.449673       -12.2362
 210   2.0000      -0.448126       -12.1941
 211   2.0000      -0.446562       -12.1516
 212   2.0000      -0.444594       -12.0980
 213   2.0000      -0.443461       -12.0672
 214   2.0000      -0.442480       -12.0405
 215   2.0000      -0.440523       -11.9872
 216   2.0000      -0.438845       -11.9416
 217   2.0000      -0.438160       -11.9229
 218   2.0000      -0.436234       -11.8705
 219   2.0000      -0.434373       -11.8199
 220   2.0000      -0.431973       -11.7546
 221   2.0000      -0.429939       -11.6992
 222   2.0000      -0.428288       -11.6543
 223   2.0000      -0.426763       -11.6128
 224   2.0000      -0.425219       -11.5708
 225   2.0000      -0.420344       -11.4381
 226   2.0000      -0.416583       -11.3358
 227   2.0000      -0.412964       -11.2373
 228   2.0000      -0.409408       -11.1406
 229   2.0000      -0.408581       -11.1181
 230   2.0000      -0.405975       -11.0471
 231   2.0000      -0.401456       -10.9242
 232   2.0000      -0.401104       -10.9146
 233   2.0000      -0.399316       -10.8660
 234   2.0000      -0.385580       -10.4922
 235   2.0000      -0.375038       -10.2053
 236   2.0000      -0.360839        -9.8189
 237   2.0000      -0.345556        -9.4031
 238   2.0000      -0.340856        -9.2752
 239   2.0000      -0.335259        -9.1229
 240   2.0000      -0.332020        -9.0347
 241   2.0000      -0.327246        -8.9048
 242   2.0000      -0.324073        -8.8185
 243   2.0000      -0.318657        -8.6711
 244   2.0000      -0.316237        -8.6052
 245   2.0000      -0.308309        -8.3895
 246   2.0000      -0.296165        -8.0591
 247   2.0000      -0.275109        -7.4861
 248   2.0000      -0.268812        -7.3147
 249   2.0000      -0.226846        -6.1728
 250   0.0000      -0.080655        -2.1947
 251   0.0000      -0.051602        -1.4041
 252   0.0000      -0.031753        -0.8640
 253   0.0000      -0.010669        -0.2903
 254   0.0000       0.002445         0.0665

MULLIKEN ATOMIC CHARGES
-----------------------
   0 C :   -0.119467
   1 S :    0.128522
   2 C :   -0.094549
   3 C :   -0.052554
   4 C :   -0.056347
   5 C :    0.158064
   6 C :   -0.165764
   7 C :    0.507255
   8 F :   -0.150220
   9 F :   -0.159537
  10 F :   -0.165359
  11 C :   -0.038531
  12 C :   -0.274024
  13 N :    0.138963
  14 C :    0.109242
  15 C :   -0.058919
  16 S :    0.133909
  17 C :   -0.050898
  18 C :   -0.056916
  19 C :   -0.021418
  20 C :   -0.171822
  21 N :    0.114755
  22 C :    0.050752
  23 C :   -0.038480
  24 C :    0.124203
  25 N :   -0.250031
  26 C :    0.096140
  27 C :    0.009362
  28 C :    0.158544
  29 O :   -0.247377
  30 C :   -0.065818
  31 C :   -0.058139
  32 C :    0.161653
  33 O :   -0.212583
  34 N :   -0.256213
  35 C :    0.098540
  36 C :    0.004099
  37 C :    0.133009
  38 C :   -0.042895
  39 C :    0.075494
  40 N :   -0.189026
  41 C :   -0.105050
  42 C :    0.154327
  43 C :   -0.024325
  44 C :   -0.028798
  45 C :    0.178785
  46 O :   -0.175058
  47 C :   -0.079651
  48 C :    0.124697
  49 N :   -0.229650
  50 C :    0.170387
  51 O :   -0.167077
  52 C :   -0.132766
  53 S :    0.115351
  54 C :   -0.129573
  55 C :   -0.046890
  56 C :    0.016605
  57 C :    0.139887
  58 C :   -0.153098
  59 C :    0.505725
  60 F :   -0.157510
  61 F :   -0.160187
  62 F :   -0.165849
  63 C :   -0.077929
  64 C :   -0.263065
  65 N :    0.142205
  66 C :    0.158224
  67 H :    0.016765
  68 H :    0.054069
  69 H :    0.030082
  70 H :    0.051877
  71 H :    0.051571
  72 H :    0.055653
  73 H :    0.051325
  74 H :    0.003000
  75 H :   -0.000775
  76 H :   -0.015596
  77 H :    0.036699
  78 H :    0.033247
  79 H :    0.021604
  80 H :    0.026914
  81 H :    0.019787
  82 H :    0.030957
  83 H :    0.039141
  84 H :    0.020826
  85 H :    0.022639
  86 H :    0.025127
  87 H :    0.003613
  88 H :    0.019289
  89 H :    0.053109
  90 H :    0.057054
  91 H :    0.039655
  92 H :    0.044520
  93 H :    0.049994
  94 H :    0.049316
  95 H :    0.013740
  96 H :    0.078564
  97 H :    0.022931
  98 H :    0.049585
  99 H :    0.051013
 100 H :    0.033800
 101 H :    0.043572
Sum of atomic charges:   -0.0000000

LOEWDIN ATOMIC CHARGES
----------------------
   0 C :   -0.182261
   1 S :    0.450728
   2 C :   -0.187544
   3 C :   -0.060875
   4 C :   -0.068654
   5 C :   -0.014792
   6 C :   -0.052552
   7 C :    0.163225
   8 F :   -0.046627
   9 F :   -0.059257
  10 F :   -0.063144
  11 C :   -0.040581
  12 C :   -0.034977
  13 N :   -0.055247
  14 C :   -0.025443
  15 C :   -0.173832
  16 S :    0.487749
  17 C :   -0.145823
  18 C :   -0.102909
  19 C :   -0.038478
  20 C :   -0.024059
  21 N :   -0.064157
  22 C :   -0.011722
  23 C :   -0.032716
  24 C :    0.063257
  25 N :    0.004902
  26 C :    0.036305
  27 C :   -0.059398
  28 C :    0.075253
  29 O :   -0.232556
  30 C :   -0.140127
  31 C :   -0.116018
  32 C :    0.082856
  33 O :   -0.203228
  34 N :    0.001932
  35 C :    0.036897
  36 C :   -0.060829
  37 C :    0.090172
  38 C :   -0.086968
  39 C :    0.077908
  40 N :    0.020786
  41 C :    0.092200
  42 C :   -0.046026
  43 C :   -0.126573
  44 C :   -0.135733
  45 C :    0.102208
  46 O :   -0.169826
  47 C :    0.090593
  48 C :   -0.053285
  49 N :   -0.008756
  50 C :    0.094283
  51 O :   -0.167285
  52 C :   -0.152736
  53 S :    0.433961
  54 C :   -0.185578
  55 C :   -0.064974
  56 C :   -0.056444
  57 C :   -0.020323
  58 C :   -0.051736
  59 C :    0.163473
  60 F :   -0.052577
  61 F :   -0.059955
  62 F :   -0.063557
  63 C :   -0.044466
  64 C :   -0.036317
  65 N :   -0.051741
  66 C :   -0.008559
  67 H :    0.024805
  68 H :    0.048105
  69 H :    0.040128
  70 H :    0.052804
  71 H :    0.059804
  72 H :    0.036302
  73 H :    0.036183
  74 H :    0.034153
  75 H :    0.034935
  76 H :    0.034563
  77 H :    0.035237
  78 H :    0.026681
  79 H :    0.028654
  80 H :    0.032831
  81 H :    0.024227
  82 H :    0.026998
  83 H :    0.035726
  84 H :    0.024566
  85 H :    0.030624
  86 H :    0.030010
  87 H :    0.032761
  88 H :    0.035792
  89 H :    0.053794
  90 H :    0.054013
  91 H :    0.051291
  92 H :    0.050965
  93 H :    0.044612
  94 H :    0.047327
  95 H :    0.023755
  96 H :    0.051939
  97 H :    0.037033
  98 H :    0.052731
  99 H :    0.057572
 100 H :    0.043757
 101 H :    0.037848

  Mayer bond orders larger than 0.100000
B(  0-C ,  1-S ) :   1.1530 B(  0-C ,  4-C ) :   1.5856 B(  0-C , 67-H ) :   0.9728
B(  1-S ,  2-C ) :   1.1484 B(  2-C ,  3-C ) :   1.5380 B(  2-C , 15-C ) :   1.1297
B(  3-C ,  4-C ) :   1.2822 B(  3-C , 14-C ) :   1.0412 B(  4-C ,  5-C ) :   1.0171
B(  5-C ,  6-C ) :   1.0322 B(  5-C , 68-H ) :   0.9082 B(  5-C , 69-H ) :   0.9203
B(  6-C ,  7-C ) :   0.9937 B(  6-C , 11-C ) :   1.0267 B(  6-C , 70-H ) :   0.9020
B(  7-C ,  8-F ) :   1.1522 B(  7-C ,  9-F ) :   1.1572 B(  7-C , 10-F ) :   1.1432
B( 11-C , 12-C ) :   1.0787 B( 11-C , 14-C ) :   1.0492 B( 11-C , 71-H ) :   0.8622
B( 12-C , 13-N ) :   3.1122 B( 14-C , 72-H ) :   0.9071 B( 14-C , 73-H ) :   0.9035
B( 15-C , 16-S ) :   1.1211 B( 15-C , 19-C ) :   1.4818 B( 16-S , 17-C ) :   1.1294
B( 17-C , 18-C ) :   1.4330 B( 17-C , 22-C ) :   1.1581 B( 18-C , 19-C ) :   1.2900
B( 18-C , 20-C ) :   1.1177 B( 19-C , 74-H ) :   1.0014 B( 20-C , 21-N ) :   2.9667
B( 22-C , 23-C ) :   1.6116 B( 22-C , 75-H ) :   0.9210 B( 23-C , 24-C ) :   1.1698
B( 23-C , 76-H ) :   0.9494 B( 24-C , 25-N ) :   1.1476 B( 24-C , 31-C ) :   1.3481
B( 25-N , 26-C ) :   0.9413 B( 25-N , 28-C ) :   1.0881 B( 26-C , 27-C ) :   1.1245
B( 26-C , 77-H ) :   0.9278 B( 26-C , 78-H ) :   0.9478 B( 27-C , 79-H ) :   0.9627
B( 27-C , 80-H ) :   0.9674 B( 27-C , 81-H ) :   0.9675 B( 28-C , 29-O ) :   1.9614
B( 28-C , 30-C ) :   1.0108 B( 29-O , 88-H ) :   0.1314 B( 30-C , 31-C ) :   1.2452
B( 30-C , 37-C ) :   1.3162 B( 31-C , 32-C ) :   0.9862 B( 32-C , 33-O ) :   2.0217
B( 32-C , 34-N ) :   1.0594 B( 33-O , 75-H ) :   0.1166 B( 34-N , 35-C ) :   0.9429
B( 34-N , 37-C ) :   1.1738 B( 35-C , 36-C ) :   1.1234 B( 35-C , 82-H ) :   0.9495
B( 35-C , 83-H ) :   0.9290 B( 36-C , 84-H ) :   0.9679 B( 36-C , 85-H ) :   0.9677
B( 36-C , 86-H ) :   0.9635 B( 37-C , 38-C ) :   1.1310 B( 38-C , 39-C ) :   1.6141
B( 38-C , 87-H ) :   0.9610 B( 39-C , 40-N ) :   1.0918 B( 39-C , 88-H ) :   0.9322
B( 40-N , 41-C ) :   1.1187 B( 40-N , 45-C ) :   0.9597 B( 41-C , 42-C ) :   1.1440
B( 41-C , 43-C ) :   1.4962 B( 42-C , 89-H ) :   0.9174 B( 42-C , 90-H ) :   0.9171
B( 42-C , 91-H ) :   0.9279 B( 43-C , 44-C ) :   1.1652 B( 43-C , 50-C ) :   0.9676
B( 44-C , 45-C ) :   0.9856 B( 44-C , 47-C ) :   1.4941 B( 45-C , 46-O ) :   2.1356
B( 47-C , 48-C ) :   1.1314 B( 47-C , 49-N ) :   1.1384 B( 48-C , 92-H ) :   0.9306
B( 48-C , 93-H ) :   0.9255 B( 48-C , 94-H ) :   0.9292 B( 49-N , 50-C ) :   0.9750
B( 49-N , 52-C ) :   0.9923 B( 50-C , 51-O ) :   2.1608 B( 52-C , 53-S ) :   1.1367
B( 52-C , 56-C ) :   1.5675 B( 53-S , 54-C ) :   1.1543 B( 54-C , 55-C ) :   1.5884
B( 54-C , 95-H ) :   0.9723 B( 55-C , 56-C ) :   1.2753 B( 55-C , 66-C ) :   1.0114
B( 56-C , 57-C ) :   1.0439 B( 57-C , 58-C ) :   1.0213 B( 57-C , 96-H ) :   0.8826
B( 57-C , 97-H ) :   0.9139 B( 58-C , 59-C ) :   0.9936 B( 58-C , 63-C ) :   1.0240
B( 58-C , 98-H ) :   0.9001 B( 59-C , 60-F ) :   1.1424 B( 59-C , 61-F ) :   1.1575
B( 59-C , 62-F ) :   1.1409 B( 63-C , 64-C ) :   1.0749 B( 63-C , 66-C ) :   1.0623
B( 63-C , 99-H ) :   0.8700 B( 64-C , 65-N ) :   3.1170 B( 66-C ,100-H ) :   0.9218
B( 66-C ,101-H ) :   0.9126

-----------------------------------------------------------------------------
         ABSORPTION SPECTRUM VIA TRANSITION ELECTRIC DIPOLE MOMENTS
-----------------------------------------------------------------------------
State   Energy  Wavelength   fosc         T2         TX        TY        TZ
        (cm-1)    (nm)                  (au**2)     (au)      (au)      (au)
-----------------------------------------------------------------------------
   0   16009.7    624.6   0.986979512  20.29558  -0.52106   4.32538   1.14681
   1   23167.4    431.6   0.022999147   0.32682   0.13111  -0.23852  -0.50273
   2   25722.6    388.8   0.204026479   2.61125  -0.31850   1.41933   0.70378
   3   26999.1    370.4   0.067992940   0.82907   0.45926  -0.24843  -0.74594
   4   27532.4    363.2   0.423606241   5.06516  -0.69655   1.32110   1.68365
   5   28022.4    356.9   0.026954934   0.31667   0.20213  -0.25607  -0.45852
   6   29531.5    338.6   0.067592210   0.75350   0.14035  -0.61509  -0.59622
   7   30496.8    327.9   0.001284453   0.01387   0.10014   0.05964   0.01677
   8   32566.3    307.1   0.056711303   0.57329  -0.39519   0.07041   0.64200
   9   33018.4    302.9   0.498013061   4.96546   0.46721  -1.74989  -1.29809
  10   33918.2    294.8   0.100503357   0.97549  -0.25320   0.68646   0.66344
  11   34125.7    293.0   0.065809886   0.63487  -0.15902   0.60891   0.48869
  12   35836.5    279.0   0.011060831   0.10161   0.00700   0.22163   0.22900
  13   36583.1    273.4   0.393227672   3.53866  -0.54891   1.10476   1.42016
  14   37526.1    266.5   0.015583992   0.13672  -0.10188  -0.13168   0.33015
  15   37866.8    264.1   0.068001878   0.59121   0.17713  -0.44288  -0.60307
  16   38595.7    259.1   0.032102790   0.27383  -0.18801  -0.47704   0.10444
  17   38642.3    258.8   0.002550283   0.02173  -0.11675  -0.08538   0.02840
  18   39001.5    256.4   0.002724224   0.02300   0.05313   0.01496  -0.14124
  19   39460.1    253.4   0.018963785   0.15821   0.12118   0.31901  -0.20435
  20   39659.0    252.1   0.076194135   0.63249  -0.16485   0.66145   0.40964
  21   39984.0    250.1   0.105576941   0.86928   0.43105   0.35634  -0.74599
  22   40258.6    248.4   0.102474690   0.83798  -0.15747   0.83699   0.33561

FINAL SINGLE POINT ENERGY     -4285.857355136828

DIPOLE MOMENT
-------------
                                X             Y             Z
Electronic contribution:      7.58298      -5.76484     -14.47889
Nuclear contribution   :     -6.64474       7.09898      13.39122
                        -----------------------------------------
Total Dipole Moment    :      0.93825       1.33414      -1.08767
                        -----------------------------------------
Magnitude (a.u.)       :      1.96042
Magnitude (Debye)      :      4.98300

Rotational constants in cm-1:     0.002848     0.000228     0.000219
Rotational constants in MHz :    85.381864     6.830229     6.552895

                             ****ORCA TERMINATED NORMALLY****
TOTAL RUN TIME: 0 days 0 hours 9 minutes 4 seconds 400 msec
