                         Program Version 4.2.0 -  RELEASE  -
|  1> # ORCA input file
|  2> # SCF done       -209.796171846546          0.000862474481
|  3> ! CAM-B3LYP def2-SVP def2/J RIJCOSX Grid4 TightSCF
|  4> %maxcore 5000
|  5> %tddft
|  6>     Mode sTDDFT
|  7>     Ethresh 5.0
|  8>     maxcore 5000
|  9> end
| 10>
| 11> %pal
| 12>   nprocs 6
| 13>   end
| 14> * xyz 0 1
| 15>    C       -1.33580         1.14154         5.97617
| 16>    S       -0.73844         2.59814         5.31551
| 17>    C       -2.33928         3.04742         4.76761
| 18>    C       -3.26443         2.08497         5.10715
| 19>    C       -2.67716         0.98860         5.78283
| 20>    C       -3.46445        -0.21420         6.19717
| 21>    C       -4.68372        -0.39751         5.28824
| 22>    C       -4.27511        -0.87770         3.90015
| 23>    F       -3.40505        -0.08560         3.25880
| 24>    F       -3.70229        -2.08948         3.95784
| 25>    F       -5.33799        -0.99641         3.08614
| 26>    C       -5.50154         0.90645         5.22131
| 27>    C       -5.99947         1.17854         6.55582
| 28>    N       -6.39109         1.36325         7.61196
| 29>    C       -4.70094         2.11143         4.69784
| 30>    C       -2.45455         4.26451         4.01778
| 31>    C       -3.24408         5.38289         4.20727
| 32>    N       -4.20088         5.61906         5.20192
| 33>    O       -4.47583         4.71095         5.97509
| 34>    O       -4.70985         6.72621         5.24563
| 35>    C       -2.84962         6.41253         3.27097
| 36>    C       -1.79788         5.96420         2.55133
| 37>    C       -1.51124         4.60875         2.94828
| 38>    C       -0.65892         3.72440         2.31435
| 39>    C       -0.86738         2.31974         2.14914
| 40>    C       -0.00935         1.85489         1.19652
| 41>    C        0.84324         2.92140         0.77448
| 42>    N        1.88277         2.74817        -0.14732
| 43>    O        2.03075         1.63738        -0.62914
| 44>    O        2.58468         3.71132        -0.43330
| 45>    C        0.49995         4.08423         1.47474
| 46>    C        1.23018         5.28172         1.51416
| 47>    C        1.15402         6.18200         2.54626
| 48>    C        1.77188         7.43196         2.69728
| 49>    N        2.61037         8.14632         1.87084
| 50>    C        3.10600         7.78206         0.56240
| 51>    C        2.04787         7.97275        -0.52059
| 52>    C        2.94663         9.39355         2.42262
| 53>    O        3.67363        10.19839         1.87311
| 54>    C        2.25721         9.43515         3.69741
| 55>    C        1.55903         8.22717         3.83440
| 56>    C        0.84418         8.24408         5.09304
| 57>    O        0.10974         7.43939         5.62139
| 58>    N        1.17558         9.49695         5.65178
| 59>    C        0.67963         9.88600         6.95019
| 60>    C        1.72561         9.67801         8.04253
| 61>    C        2.01371        10.21961         4.83951
| 62>    C        2.49052        11.51129         5.13942
| 63>    C        3.28662        12.20280         4.27316
| 64>    C        3.78242        13.50593         4.49080
| 65>    S        4.68286        14.29068         3.21335
| 66>    C        4.89153        15.72684         4.15678
| 67>    C        4.29238        15.57563         5.41507
| 68>    C        3.67144        14.33543         5.59311
| 69>    C        4.31569        16.58580         6.39264
| 70>    N        4.33473        17.40295         7.19711
| 71>    C        5.55970        16.88216         3.68771
| 72>    C        6.08215        17.00171         2.44293
| 73>    C        6.72945        18.16021         1.94561
| 74>    S        6.95153        19.58358         2.92862
| 75>    C        7.70334        20.40457         1.63383
| 76>    C        7.79197        19.64448         0.50151
| 77>    C        7.24232        18.35707         0.67381
| 78>    C        7.18438        17.33965        -0.42452
| 79>    C        8.09280        17.71430        -1.60171
| 80>    C        9.53685        17.31920        -1.30163
| 81>    F        9.97878        17.70858        -0.09965
| 82>    F        9.68012        15.98574        -1.33798
| 83>    F       10.39631        17.82151        -2.20315
| 84>    C        7.97643        19.21099        -1.94789
| 85>    C        6.59625        19.50102        -2.27679
| 86>    N        5.50486        19.73518        -2.51663
| 87>    C        8.41814        20.10351        -0.77822
| 88>    H       -0.66749         0.46714         6.47389
| 89>    H       -3.82147        -0.08292         7.22316
| 90>    H       -2.83371        -1.10556         6.17350
| 91>    H       -5.31960        -1.19775         5.68652
| 92>    H       -6.37751         0.75585         4.57775
| 93>    H       -5.15578         3.02542         5.09283
| 94>    H       -4.76485         2.15292         3.60633
| 95>    H       -3.34232         7.36325         3.20485
| 96>    H       -1.30978         6.47534         1.74521
| 97>    H       -1.66094         1.75896         2.60245
| 98>    H        0.04516         0.85785         0.80215
| 99>    H        1.93822         5.41458         0.71005
|100>    H        0.54514         5.92303         3.40385
|101>    H        3.47643         6.75519         0.57974
|102>    H        3.94875         8.45156         0.36680
|103>    H        1.15543         7.38979        -0.30605
|104>    H        2.44768         7.65369        -1.47857
|105>    H        1.76931         9.02178        -0.58894
|106>    H       -0.18630         9.24777         7.14655
|107>    H        0.34831        10.92752         6.91818
|108>    H        2.00527         8.62872         8.09263
|109>    H        1.31552         9.97348         9.00404
|110>    H        2.62023        10.26529         7.84645
|111>    H        2.19470        11.95719         6.07722
|112>    H        3.56069        11.73894         3.33396
|113>    H        3.16595        14.06013         6.50124
|114>    H        5.62800        17.70903         4.38366
|115>    H        5.99563        16.16639         1.75962
|116>    H        8.04615        21.41100         1.77085
|117>    H        6.15451        17.26894        -0.78918
|118>    H        7.46911        16.35390        -0.04737
|119>    H        7.81102        17.12118        -2.47990
|120>    H        8.58597        19.43479        -2.83170
|121>    H        8.13800        21.13997        -0.98081
|122>    H        9.50767        20.07252        -0.68715
|123> *
|124>
|125>                          ****END OF INPUT****

CARTESIAN COORDINATES (ANGSTROEM)
---------------------------------
  C     -1.335800    1.141540    5.976170
  S     -0.738440    2.598140    5.315510
  C     -2.339280    3.047420    4.767610
  C     -3.264430    2.084970    5.107150
  C     -2.677160    0.988600    5.782830
  C     -3.464450   -0.214200    6.197170
  C     -4.683720   -0.397510    5.288240
  C     -4.275110   -0.877700    3.900150
  F     -3.405050   -0.085600    3.258800
  F     -3.702290   -2.089480    3.957840
  F     -5.337990   -0.996410    3.086140
  C     -5.501540    0.906450    5.221310
  C     -5.999470    1.178540    6.555820
  N     -6.391090    1.363250    7.611960
  C     -4.700940    2.111430    4.697840
  C     -2.454550    4.264510    4.017780
  C     -3.244080    5.382890    4.207270
  N     -4.200880    5.619060    5.201920
  O     -4.475830    4.710950    5.975090
  O     -4.709850    6.726210    5.245630
  C     -2.849620    6.412530    3.270970
  C     -1.797880    5.964200    2.551330
  C     -1.511240    4.608750    2.948280
  C     -0.658920    3.724400    2.314350
  C     -0.867380    2.319740    2.149140
  C     -0.009350    1.854890    1.196520
  C      0.843240    2.921400    0.774480
  N      1.882770    2.748170   -0.147320
  O      2.030750    1.637380   -0.629140
  O      2.584680    3.711320   -0.433300
  C      0.499950    4.084230    1.474740
  C      1.230180    5.281720    1.514160
  C      1.154020    6.182000    2.546260
  C      1.771880    7.431960    2.697280
  N      2.610370    8.146320    1.870840
  C      3.106000    7.782060    0.562400
  C      2.047870    7.972750   -0.520590
  C      2.946630    9.393550    2.422620
  O      3.673630   10.198390    1.873110
  C      2.257210    9.435150    3.697410
  C      1.559030    8.227170    3.834400
  C      0.844180    8.244080    5.093040
  O      0.109740    7.439390    5.621390
  N      1.175580    9.496950    5.651780
  C      0.679630    9.886000    6.950190
  C      1.725610    9.678010    8.042530
  C      2.013710   10.219610    4.839510
  C      2.490520   11.511290    5.139420
  C      3.286620   12.202800    4.273160
  C      3.782420   13.505930    4.490800
  S      4.682860   14.290680    3.213350
  C      4.891530   15.726840    4.156780
  C      4.292380   15.575630    5.415070
  C      3.671440   14.335430    5.593110
  C      4.315690   16.585800    6.392640
  N      4.334730   17.402950    7.197110
  C      5.559700   16.882160    3.687710
  C      6.082150   17.001710    2.442930
  C      6.729450   18.160210    1.945610
  S      6.951530   19.583580    2.928620
  C      7.703340   20.404570    1.633830
  C      7.791970   19.644480    0.501510
  C      7.242320   18.357070    0.673810
  C      7.184380   17.339650   -0.424520
  C      8.092800   17.714300   -1.601710
  C      9.536850   17.319200   -1.301630
  F      9.978780   17.708580   -0.099650
  F      9.680120   15.985740   -1.337980
  F     10.396310   17.821510   -2.203150
  C      7.976430   19.210990   -1.947890
  C      6.596250   19.501020   -2.276790
  N      5.504860   19.735180   -2.516630
  C      8.418140   20.103510   -0.778220
  H     -0.667490    0.467140    6.473890
  H     -3.821470   -0.082920    7.223160
  H     -2.833710   -1.105560    6.173500
  H     -5.319600   -1.197750    5.686520
  H     -6.377510    0.755850    4.577750
  H     -5.155780    3.025420    5.092830
  H     -4.764850    2.152920    3.606330
  H     -3.342320    7.363250    3.204850
  H     -1.309780    6.475340    1.745210
  H     -1.660940    1.758960    2.602450
  H      0.045160    0.857850    0.802150
  H      1.938220    5.414580    0.710050
  H      0.545140    5.923030    3.403850
  H      3.476430    6.755190    0.579740
  H      3.948750    8.451560    0.366800
  H      1.155430    7.389790   -0.306050
  H      2.447680    7.653690   -1.478570
  H      1.769310    9.021780   -0.588940
  H     -0.186300    9.247770    7.146550
  H      0.348310   10.927520    6.918180
  H      2.005270    8.628720    8.092630
  H      1.315520    9.973480    9.004040
  H      2.620230   10.265290    7.846450
  H      2.194700   11.957190    6.077220
  H      3.560690   11.738940    3.333960
  H      3.165950   14.060130    6.501240
  H      5.628000   17.709030    4.383660
  H      5.995630   16.166390    1.759620
  H      8.046150   21.411000    1.770850
  H      6.154510   17.268940   -0.789180
  H      7.469110   16.353900   -0.047370
  H      7.811020   17.121180   -2.479900
  H      8.585970   19.434790   -2.831700
  H      8.138000   21.139970   -0.980810
  H      9.507670   20.072520   -0.687150

 Total Charge           Charge          ....    0
 Multiplicity           Mult            ....    1
 Number of Electrons    NEL             ....  540
 Basis Dimension        Dim             .... 1209

ORBITAL ENERGIES
----------------

  NO   OCC          E(Eh)            E(eV)
   0   2.0000     -88.985762     -2421.4257
   1   2.0000     -88.969472     -2420.9824
   2   2.0000     -88.960668     -2420.7428
   3   2.0000     -24.819562      -675.3746
   4   2.0000     -24.818468      -675.3448
   5   2.0000     -24.814871      -675.2470
   6   2.0000     -24.813501      -675.2097
   7   2.0000     -24.807813      -675.0549
   8   2.0000     -24.807004      -675.0329
   9   2.0000     -19.232887      -523.3534
  10   2.0000     -19.232515      -523.3433
  11   2.0000     -19.228849      -523.2436
  12   2.0000     -19.227847      -523.2163
  13   2.0000     -19.209836      -522.7262
  14   2.0000     -19.197139      -522.3807
  15   2.0000     -14.640690      -398.3934
  16   2.0000     -14.637923      -398.3181
  17   2.0000     -14.468469      -393.7070
  18   2.0000     -14.460693      -393.4955
  19   2.0000     -14.417735      -392.3265
  20   2.0000     -14.414594      -392.2410
  21   2.0000     -14.402154      -391.9025
  22   2.0000     -10.531638      -286.5804
  23   2.0000     -10.522949      -286.3440
  24   2.0000     -10.390688      -282.7450
  25   2.0000     -10.381782      -282.5027
  26   2.0000     -10.360387      -281.9205
  27   2.0000     -10.343579      -281.4631
  28   2.0000     -10.343439      -281.4593
  29   2.0000     -10.342191      -281.4253
  30   2.0000     -10.332439      -281.1600
  31   2.0000     -10.329400      -281.0773
  32   2.0000     -10.329374      -281.0765
  33   2.0000     -10.326636      -281.0021
  34   2.0000     -10.326397      -280.9956
  35   2.0000     -10.325893      -280.9818
  36   2.0000     -10.321834      -280.8714
  37   2.0000     -10.319742      -280.8145
  38   2.0000     -10.319628      -280.8114
  39   2.0000     -10.319126      -280.7977
  40   2.0000     -10.318250      -280.7738
  41   2.0000     -10.317214      -280.7457
  42   2.0000     -10.316822      -280.7350
  43   2.0000     -10.316556      -280.7277
  44   2.0000     -10.314991      -280.6852
  45   2.0000     -10.313979      -280.6576
  46   2.0000     -10.313813      -280.6531
  47   2.0000     -10.313166      -280.6355
  48   2.0000     -10.309118      -280.5254
  49   2.0000     -10.308892      -280.5192
  50   2.0000     -10.308795      -280.5166
  51   2.0000     -10.308037      -280.4959
  52   2.0000     -10.307118      -280.4709
  53   2.0000     -10.305844      -280.4363
  54   2.0000     -10.305311      -280.4218
  55   2.0000     -10.303019      -280.3594
  56   2.0000     -10.301221      -280.3105
  57   2.0000     -10.300801      -280.2990
  58   2.0000     -10.298261      -280.2299
  59   2.0000     -10.296722      -280.1881
  60   2.0000     -10.295058      -280.1428
  61   2.0000     -10.293654      -280.1046
  62   2.0000     -10.293152      -280.0909
  63   2.0000     -10.288048      -279.9520
  64   2.0000     -10.287663      -279.9415
  65   2.0000     -10.286141      -279.9001
  66   2.0000     -10.283582      -279.8305
  67   2.0000     -10.281013      -279.7606
  68   2.0000     -10.280540      -279.7477
  69   2.0000     -10.279365      -279.7158
  70   2.0000     -10.273496      -279.5560
  71   2.0000     -10.273243      -279.5492
  72   2.0000     -10.264238      -279.3041
  73   2.0000      -8.081209      -219.9009
  74   2.0000      -8.065216      -219.4657
  75   2.0000      -8.055767      -219.2086
  76   2.0000      -6.050308      -164.6372
  77   2.0000      -6.046336      -164.5292
  78   2.0000      -6.043487      -164.4516
  79   2.0000      -6.034347      -164.2029
  80   2.0000      -6.030237      -164.0911
  81   2.0000      -6.027588      -164.0190
  82   2.0000      -6.025086      -163.9509
  83   2.0000      -6.020765      -163.8333
  84   2.0000      -6.018085      -163.7604
  85   2.0000      -1.408420       -38.3251
  86   2.0000      -1.400063       -38.0977
  87   2.0000      -1.311184       -35.6791
  88   2.0000      -1.310791       -35.6684
  89   2.0000      -1.308479       -35.6055
  90   2.0000      -1.306385       -35.5485
  91   2.0000      -1.303150       -35.4605
  92   2.0000      -1.299551       -35.3626
  93   2.0000      -1.148075       -31.2407
  94   2.0000      -1.136355       -30.9218
  95   2.0000      -1.127880       -30.6912
  96   2.0000      -1.123205       -30.5640
  97   2.0000      -1.077929       -29.3319
  98   2.0000      -1.063472       -28.9385
  99   2.0000      -1.023543       -27.8520
 100   2.0000      -1.017967       -27.7003
 101   2.0000      -1.016697       -27.6657
 102   2.0000      -1.002425       -27.2774
 103   2.0000      -1.001534       -27.2531
 104   2.0000      -0.993925       -27.0461
 105   2.0000      -0.993656       -27.0388
 106   2.0000      -0.983255       -26.7557
 107   2.0000      -0.965662       -26.2770
 108   2.0000      -0.950690       -25.8696
 109   2.0000      -0.942134       -25.6368
 110   2.0000      -0.935340       -25.4519
 111   2.0000      -0.918212       -24.9858
 112   2.0000      -0.914638       -24.8886
 113   2.0000      -0.905814       -24.6485
 114   2.0000      -0.894454       -24.3393
 115   2.0000      -0.885235       -24.0885
 116   2.0000      -0.883908       -24.0524
 117   2.0000      -0.877480       -23.8774
 118   2.0000      -0.876151       -23.8413
 119   2.0000      -0.867173       -23.5970
 120   2.0000      -0.861179       -23.4339
 121   2.0000      -0.859160       -23.3789
 122   2.0000      -0.846035       -23.0218
 123   2.0000      -0.844113       -22.9695
 124   2.0000      -0.828984       -22.5578
 125   2.0000      -0.824872       -22.4459
 126   2.0000      -0.815149       -22.1813
 127   2.0000      -0.804608       -21.8945
 128   2.0000      -0.797572       -21.7030
 129   2.0000      -0.785591       -21.3770
 130   2.0000      -0.769558       -20.9407
 131   2.0000      -0.768348       -20.9078
 132   2.0000      -0.765702       -20.8358
 133   2.0000      -0.759561       -20.6687
 134   2.0000      -0.746089       -20.3021
 135   2.0000      -0.745803       -20.2943
 136   2.0000      -0.734128       -19.9766
 137   2.0000      -0.732219       -19.9247
 138   2.0000      -0.731363       -19.9014
 139   2.0000      -0.723727       -19.6936
 140   2.0000      -0.718201       -19.5432
 141   2.0000      -0.701697       -19.0942
 142   2.0000      -0.699660       -19.0387
 143   2.0000      -0.694377       -18.8950
 144   2.0000      -0.691430       -18.8148
 145   2.0000      -0.688572       -18.7370
 146   2.0000      -0.687962       -18.7204
 147   2.0000      -0.683394       -18.5961
 148   2.0000      -0.681054       -18.5324
 149   2.0000      -0.668963       -18.2034
 150   2.0000      -0.666385       -18.1332
 151   2.0000      -0.660781       -17.9808
 152   2.0000      -0.656445       -17.8628
 153   2.0000      -0.647913       -17.6306
 154   2.0000      -0.644228       -17.5303
 155   2.0000      -0.642281       -17.4774
 156   2.0000      -0.635475       -17.2922
 157   2.0000      -0.630906       -17.1678
 158   2.0000      -0.625665       -17.0252
 159   2.0000      -0.623479       -16.9657
 160   2.0000      -0.621566       -16.9137
 161   2.0000      -0.619057       -16.8454
 162   2.0000      -0.617901       -16.8140
 163   2.0000      -0.612635       -16.6706
 164   2.0000      -0.609652       -16.5895
 165   2.0000      -0.604600       -16.4520
 166   2.0000      -0.602878       -16.4051
 167   2.0000      -0.594761       -16.1843
 168   2.0000      -0.588656       -16.0181
 169   2.0000      -0.584423       -15.9029
 170   2.0000      -0.582108       -15.8400
 171   2.0000      -0.580269       -15.7899
 172   2.0000      -0.577259       -15.7080
 173   2.0000      -0.573646       -15.6097
 174   2.0000      -0.570235       -15.5169
 175   2.0000      -0.569292       -15.4912
 176   2.0000      -0.566615       -15.4184
 177   2.0000      -0.562122       -15.2961
 178   2.0000      -0.559028       -15.2119
 179   2.0000      -0.558285       -15.1917
 180   2.0000      -0.557414       -15.1680
 181   2.0000      -0.552148       -15.0247
 182   2.0000      -0.549566       -14.9545
 183   2.0000      -0.546767       -14.8783
 184   2.0000      -0.544629       -14.8201
 185   2.0000      -0.542903       -14.7731
 186   2.0000      -0.540794       -14.7157
 187   2.0000      -0.538595       -14.6559
 188   2.0000      -0.538089       -14.6421
 189   2.0000      -0.534463       -14.5435
 190   2.0000      -0.531589       -14.4653
 191   2.0000      -0.530749       -14.4424
 192   2.0000      -0.528909       -14.3923
 193   2.0000      -0.525362       -14.2958
 194   2.0000      -0.524616       -14.2755
 195   2.0000      -0.523434       -14.2434
 196   2.0000      -0.519537       -14.1373
 197   2.0000      -0.518513       -14.1095
 198   2.0000      -0.515015       -14.0143
 199   2.0000      -0.513858       -13.9828
 200   2.0000      -0.512334       -13.9413
 201   2.0000      -0.508849       -13.8465
 202   2.0000      -0.508251       -13.8302
 203   2.0000      -0.505220       -13.7477
 204   2.0000      -0.503197       -13.6927
 205   2.0000      -0.502824       -13.6825
 206   2.0000      -0.501996       -13.6600
 207   2.0000      -0.498500       -13.5649
 208   2.0000      -0.494892       -13.4667
 209   2.0000      -0.491846       -13.3838
 210   2.0000      -0.491376       -13.3710
 211   2.0000      -0.489557       -13.3215
 212   2.0000      -0.485459       -13.2100
 213   2.0000      -0.481144       -13.0926
 214   2.0000      -0.478704       -13.0262
 215   2.0000      -0.476682       -12.9712
 216   2.0000      -0.476061       -12.9543
 217   2.0000      -0.474714       -12.9176
 218   2.0000      -0.473103       -12.8738
 219   2.0000      -0.472401       -12.8547
 220   2.0000      -0.467104       -12.7105
 221   2.0000      -0.464959       -12.6522
 222   2.0000      -0.463549       -12.6138
 223   2.0000      -0.462368       -12.5817
 224   2.0000      -0.457670       -12.4538
 225   2.0000      -0.456250       -12.4152
 226   2.0000      -0.454420       -12.3654
 227   2.0000      -0.452358       -12.3093
 228   2.0000      -0.450573       -12.2607
 229   2.0000      -0.448509       -12.2045
 230   2.0000      -0.448345       -12.2001
 231   2.0000      -0.443042       -12.0558
 232   2.0000      -0.442885       -12.0515
 233   2.0000      -0.442357       -12.0371
 234   2.0000      -0.441392       -12.0109
 235   2.0000      -0.435489       -11.8503
 236   2.0000      -0.434794       -11.8314
 237   2.0000      -0.431966       -11.7544
 238   2.0000      -0.429467       -11.6864
 239   2.0000      -0.428197       -11.6518
 240   2.0000      -0.424893       -11.5619
 241   2.0000      -0.424675       -11.5560
 242   2.0000      -0.420713       -11.4482
 243   2.0000      -0.419349       -11.4111
 244   2.0000      -0.418475       -11.3873
 245   2.0000      -0.413618       -11.2551
 246   2.0000      -0.411995       -11.2110
 247   2.0000      -0.399633       -10.8746
 248   2.0000      -0.397457       -10.8154
 249   2.0000      -0.383187       -10.4271
 250   2.0000      -0.381200       -10.3730
 251   2.0000      -0.377003       -10.2588
 252   2.0000      -0.374402       -10.1880
 253   2.0000      -0.371209       -10.1011
 254   2.0000      -0.366521        -9.9735
 255   2.0000      -0.361480        -9.8364
 256   2.0000      -0.357721        -9.7341
 257   2.0000      -0.355411        -9.6712
 258   2.0000      -0.347726        -9.4621
 259   2.0000      -0.343420        -9.3449
 260   2.0000      -0.335340        -9.1251
 261   2.0000      -0.331564        -9.0223
 262   2.0000      -0.329939        -8.9781
 263   2.0000      -0.328047        -8.9266
 264   2.0000      -0.325755        -8.8642
 265   2.0000      -0.312668        -8.5081
 266   2.0000      -0.300226        -8.1696
 267   2.0000      -0.281492        -7.6598
 268   2.0000      -0.272658        -7.4194
 269   2.0000      -0.237145        -6.4530
 270   0.0000      -0.133448        -3.6313
 271   0.0000      -0.096996        -2.6394
 272   0.0000      -0.065914        -1.7936
 273   0.0000      -0.041099        -1.1184
 274   0.0000      -0.026800        -0.7293

MULLIKEN ATOMIC CHARGES
-----------------------
   0 C :   -0.117741
   1 S :    0.162934
   2 C :   -0.300982
   3 C :    0.091319
   4 C :   -0.097209
   5 C :    0.173303
   6 C :   -0.170773
   7 C :    0.510582
   8 F :   -0.150399
   9 F :   -0.158005
  10 F :   -0.164022
  11 C :   -0.081404
  12 C :   -0.266366
  13 N :    0.140299
  14 C :    0.162520
  15 C :    0.055557
  16 C :    0.079712
  17 N :    0.275102
  18 O :   -0.249414
  19 O :   -0.246672
  20 C :    0.023376
  21 C :    0.008689
  22 C :   -0.008671
  23 C :    0.024793
  24 C :    0.027191
  25 C :    0.014718
  26 C :    0.081689
  27 N :    0.279856
  28 O :   -0.253714
  29 O :   -0.271165
  30 C :    0.039378
  31 C :   -0.045191
  32 C :   -0.047044
  33 C :    0.108820
  34 N :   -0.259449
  35 C :    0.097826
  36 C :    0.005841
  37 C :    0.163269
  38 O :   -0.222183
  39 C :   -0.072434
  40 C :   -0.024531
  41 C :    0.154447
  42 O :   -0.174594
  43 N :   -0.264193
  44 C :    0.095778
  45 C :    0.004876
  46 C :    0.160461
  47 C :   -0.043449
  48 C :    0.094768
  49 C :   -0.082843
  50 S :    0.161463
  51 C :   -0.031810
  52 C :   -0.068827
  53 C :    0.029667
  54 C :   -0.188910
  55 N :    0.136509
  56 C :   -0.023040
  57 C :   -0.000573
  58 C :   -0.129098
  59 S :    0.137833
  60 C :   -0.107838
  61 C :   -0.046369
  62 C :   -0.031977
  63 C :    0.128011
  64 C :   -0.151323
  65 C :    0.504759
  66 F :   -0.153349
  67 F :   -0.157548
  68 F :   -0.163063
  69 C :   -0.078520
  70 C :   -0.265350
  71 N :    0.141653
  72 C :    0.162504
  73 H :    0.016388
  74 H :    0.055990
  75 H :    0.022101
  76 H :    0.051565
  77 H :    0.050771
  78 H :    0.050933
  79 H :    0.028145
  80 H :   -0.003225
  81 H :   -0.002909
  82 H :   -0.013986
  83 H :    0.003006
  84 H :    0.016328
  85 H :    0.031922
  86 H :    0.043013
  87 H :    0.040914
  88 H :    0.017013
  89 H :    0.029804
  90 H :    0.022936
  91 H :    0.050284
  92 H :    0.026781
  93 H :    0.032417
  94 H :    0.028919
  95 H :    0.013980
  96 H :   -0.026351
  97 H :    0.012094
  98 H :   -0.000360
  99 H :    0.021235
 100 H :    0.001092
 101 H :    0.020759
 102 H :    0.056378
 103 H :    0.042378
 104 H :    0.052449
 105 H :    0.053671
 106 H :    0.035404
 107 H :    0.048702
Sum of atomic charges:   -0.0000000

LOEWDIN ATOMIC CHARGES
----------------------
   0 C :   -0.183097
   1 S :    0.472217
   2 C :   -0.176967
   3 C :   -0.037123
   4 C :   -0.071234
   5 C :   -0.013955
   6 C :   -0.053280
   7 C :    0.166174
   8 F :   -0.050413
   9 F :   -0.058284
  10 F :   -0.062651
  11 C :   -0.042632
  12 C :   -0.034228
  13 N :   -0.055324
  14 C :   -0.017901
  15 C :   -0.011734
  16 C :   -0.038373
  17 N :    0.286808
  18 O :   -0.206506
  19 O :   -0.210936
  20 C :    0.002954
  21 C :   -0.037336
  22 C :    0.024125
  23 C :    0.042029
  24 C :   -0.048006
  25 C :    0.022400
  26 C :   -0.062757
  27 N :    0.286767
  28 O :   -0.218633
  29 O :   -0.235990
  30 C :    0.012667
  31 C :   -0.017221
  32 C :   -0.000093
  33 C :    0.047985
  34 N :    0.001377
  35 C :    0.037402
  36 C :   -0.060715
  37 C :    0.078103
  38 O :   -0.209648
  39 C :   -0.130509
  40 C :   -0.082934
  41 C :    0.085027
  42 O :   -0.173896
  43 N :   -0.001684
  44 C :    0.037176
  45 C :   -0.059939
  46 C :    0.097004
  47 C :   -0.057388
  48 C :    0.031386
  49 C :   -0.177003
  50 S :    0.474925
  51 C :   -0.122850
  52 C :   -0.109794
  53 C :   -0.003794
  54 C :   -0.034796
  55 N :   -0.051194
  56 C :   -0.057566
  57 C :   -0.008636
  58 C :   -0.183545
  59 S :    0.460658
  60 C :   -0.170001
  61 C :   -0.071248
  62 C :   -0.046179
  63 C :   -0.018586
  64 C :   -0.050141
  65 C :    0.162635
  66 F :   -0.048818
  67 F :   -0.057579
  68 F :   -0.060351
  69 C :   -0.044241
  70 C :   -0.035509
  71 N :   -0.053787
  72 C :   -0.008287
  73 H :    0.024819
  74 H :    0.048967
  75 H :    0.037655
  76 H :    0.052822
  77 H :    0.058755
  78 H :    0.041307
  79 H :    0.036590
  80 H :    0.035844
  81 H :    0.029862
  82 H :    0.028266
  83 H :    0.038919
  84 H :    0.034749
  85 H :    0.047181
  86 H :    0.028940
  87 H :    0.037154
  88 H :    0.020847
  89 H :    0.034857
  90 H :    0.029841
  91 H :    0.040815
  92 H :    0.024554
  93 H :    0.033572
  94 H :    0.033191
  95 H :    0.021349
  96 H :    0.028848
  97 H :    0.038768
  98 H :    0.039619
  99 H :    0.036882
 100 H :    0.028807
 101 H :    0.026529
 102 H :    0.049812
 103 H :    0.040073
 104 H :    0.053357
 105 H :    0.058799
 106 H :    0.044152
 107 H :    0.038963

  Mayer bond orders larger than 0.100000
B(  0-C ,  1-S ) :   1.1735 B(  0-C ,  4-C ) :   1.5645 B(  0-C , 73-H ) :   0.9707
B(  1-S ,  2-C ) :   1.1496 B(  2-C ,  3-C ) :   1.5293 B(  2-C , 15-C ) :   1.0450
B(  3-C ,  4-C ) :   1.2773 B(  3-C , 14-C ) :   1.0601 B(  4-C ,  5-C ) :   1.0135
B(  5-C ,  6-C ) :   1.0308 B(  5-C , 74-H ) :   0.9082 B(  5-C , 75-H ) :   0.9216
B(  6-C ,  7-C ) :   0.9899 B(  6-C , 11-C ) :   1.0303 B(  6-C , 76-H ) :   0.9011
B(  7-C ,  8-F ) :   1.1298 B(  7-C ,  9-F ) :   1.1600 B(  7-C , 10-F ) :   1.1501
B( 11-C , 12-C ) :   1.0856 B( 11-C , 14-C ) :   1.0517 B( 11-C , 77-H ) :   0.8683
B( 12-C , 13-N ) :   3.1093 B( 14-C , 78-H ) :   0.8751 B( 14-C , 79-H ) :   0.8978
B( 15-C , 16-C ) :   1.5797 B( 15-C , 22-C ) :   1.0752 B( 16-C , 17-N ) :   0.9570
B( 16-C , 20-C ) :   1.1153 B( 17-N , 18-O ) :   1.4699 B( 17-N , 19-O ) :   1.5302
B( 18-O , 19-O ) :   0.2555 B( 20-C , 21-C ) :   1.6049 B( 20-C , 80-H ) :   1.0086
B( 21-C , 22-C ) :   1.1216 B( 21-C , 81-H ) :   0.9972 B( 22-C , 23-C ) :   1.4597
B( 23-C , 24-C ) :   1.1610 B( 23-C , 30-C ) :   0.9980 B( 24-C , 25-C ) :   1.5331
B( 24-C , 82-H ) :   1.0060 B( 25-C , 26-C ) :   1.1464 B( 25-C , 83-H ) :   1.0136
B( 26-C , 27-N ) :   0.9719 B( 26-C , 30-C ) :   1.4404 B( 27-N , 28-O ) :   1.5279
B( 27-N , 29-O ) :   1.4756 B( 28-O , 29-O ) :   0.2483 B( 30-C , 31-C ) :   1.2461
B( 31-C , 32-C ) :   1.4228 B( 31-C , 84-H ) :   0.9519 B( 32-C , 33-C ) :   1.2601
B( 32-C , 85-H ) :   0.9314 B( 33-C , 34-N ) :   1.1544 B( 33-C , 40-C ) :   1.3034
B( 34-N , 35-C ) :   0.9333 B( 34-N , 37-C ) :   1.0805 B( 35-C , 36-C ) :   1.1200
B( 35-C , 86-H ) :   0.9515 B( 35-C , 87-H ) :   0.9244 B( 36-C , 88-H ) :   0.9681
B( 36-C , 89-H ) :   0.9674 B( 36-C , 90-H ) :   0.9617 B( 37-C , 38-O ) :   2.0001
B( 37-C , 39-C ) :   0.9926 B( 38-O , 97-H ) :   0.1259 B( 39-C , 40-C ) :   1.2977
B( 39-C , 46-C ) :   1.2585 B( 40-C , 41-C ) :   0.9632 B( 41-C , 42-O ) :   2.1338
B( 41-C , 43-N ) :   1.0301 B( 43-N , 44-C ) :   0.9386 B( 43-N , 46-C ) :   1.1802
B( 44-C , 45-C ) :   1.1211 B( 44-C , 91-H ) :   0.9283 B( 44-C , 92-H ) :   0.9502
B( 45-C , 93-H ) :   0.9637 B( 45-C , 94-H ) :   0.9684 B( 45-C , 95-H ) :   0.9684
B( 46-C , 47-C ) :   1.2029 B( 47-C , 48-C ) :   1.5731 B( 47-C , 96-H ) :   0.9640
B( 48-C , 49-C ) :   1.1525 B( 48-C , 97-H ) :   0.9291 B( 49-C , 50-S ) :   1.1069
B( 49-C , 53-C ) :   1.4473 B( 50-S , 51-C ) :   1.1457 B( 51-C , 52-C ) :   1.4111
B( 51-C , 56-C ) :   1.2020 B( 52-C , 53-C ) :   1.3162 B( 52-C , 54-C ) :   1.1010
B( 53-C , 98-H ) :   0.9982 B( 54-C , 55-N ) :   3.0236 B( 56-C , 57-C ) :   1.6257
B( 56-C , 99-H ) :   0.9616 B( 57-C , 58-C ) :   1.1800 B( 57-C ,100-H ) :   0.9662
B( 58-C , 59-S ) :   1.1263 B( 58-C , 62-C ) :   1.4884 B( 59-S , 60-C ) :   1.1778
B( 60-C , 61-C ) :   1.5589 B( 60-C ,101-H ) :   0.9701 B( 61-C , 62-C ) :   1.3091
B( 61-C , 72-C ) :   1.0067 B( 62-C , 63-C ) :   1.0459 B( 63-C , 64-C ) :   1.0282
B( 63-C ,102-H ) :   0.9012 B( 63-C ,103-H ) :   0.9083 B( 64-C , 65-C ) :   0.9977
B( 64-C , 69-C ) :   1.0259 B( 64-C ,104-H ) :   0.8999 B( 65-C , 66-F ) :   1.1466
B( 65-C , 67-F ) :   1.1570 B( 65-C , 68-F ) :   1.1429 B( 69-C , 70-C ) :   1.0730
B( 69-C , 72-C ) :   1.0623 B( 69-C ,105-H ) :   0.8666 B( 70-C , 71-N ) :   3.1166
B( 72-C ,106-H ) :   0.9231 B( 72-C ,107-H ) :   0.9111

-----------------------------------------------------------------------------
         ABSORPTION SPECTRUM VIA TRANSITION ELECTRIC DIPOLE MOMENTS
-----------------------------------------------------------------------------
State   Energy  Wavelength   fosc         T2         TX        TY        TZ
        (cm-1)    (nm)                  (au**2)     (au)      (au)      (au)
-----------------------------------------------------------------------------
   0    6772.9   1476.5   0.318938589  15.50277  -1.80192  -3.45121  -0.58736
   1   13233.9    755.6   0.033131904   0.82420   0.29014   0.39742   0.76294
   2   15356.2    651.2   0.629505932  13.49562  -0.83251  -3.43770  -0.99236
   3   17500.4    571.4   0.003170198   0.05964  -0.14771  -0.09277   0.17092
   4   19640.5    509.2   0.330942942   5.54724   0.99901   1.95622  -0.84995
   5   20951.2    477.3   0.039738564   0.62442   0.76745  -0.01022  -0.18797
   6   22647.9    441.5   0.202149568   2.93846   0.53217   0.91485  -1.34844
   7   23159.3    431.8   0.048785567   0.69349  -0.52541   0.03790   0.64498
   8   24196.4    413.3   0.031739668   0.43184  -0.13044  -0.51647   0.38483
   9   24743.0    404.2   0.027641606   0.36778  -0.29199   0.52650   0.07291
  10   25557.5    391.3   0.285162527   3.67324  -1.15824  -1.09834   1.06083
  11   25659.8    389.7   0.030064154   0.38572   0.31086  -0.11292  -0.52568
  12   26698.2    374.6   0.299531180   3.69348   1.30508   0.22378  -1.39290
  13   27031.2    369.9   0.000152768   0.00186  -0.01426   0.00044  -0.04070
  14   27274.8    366.6   0.065467611   0.79021  -0.60475  -0.32163   0.56661
  15   27906.2    358.3   0.104317562   1.23064   0.55538   0.60184  -0.74832
  16   29193.1    342.5   0.299529299   3.37781  -0.13886   1.64399   0.80984
  17   29487.0    339.1   0.000495992   0.00554  -0.00791   0.07022  -0.02332
  18   30450.0    328.4   0.146598499   1.58496   0.07845   1.20038   0.37132
  19   30690.3    325.8   0.081763522   0.87707  -0.84479   0.08167   0.39590
  20   31292.8    319.6   0.017746876   0.18670   0.26732   0.15210  -0.30349
  21   31520.8    317.3   0.090663151   0.94691  -0.62618   0.44224   0.59936
  22   31965.6    312.8   0.011219369   0.11555   0.23895  -0.17942  -0.16205
  23   32315.0    309.5   0.044016498   0.44842   0.28955   0.08912  -0.59720
  24   32659.5    306.2   0.065011283   0.65532   0.14115  -0.74075  -0.29442
  25   32848.9    304.4   0.098286359   0.98503   0.46533  -0.60607  -0.63339
  26   33195.3    301.2   0.044551366   0.44183  -0.23876   0.15160   0.60154
  27   33405.1    299.4   0.070253677   0.69236   0.45964  -0.68577   0.10397
  28   33525.2    298.3   0.131191190   1.28827  -0.43878   1.02978   0.18785
  29   33844.2    295.5   0.006885587   0.06698   0.08360  -0.23021  -0.08363
  30   34095.5    293.3   0.012223561   0.11803   0.05887  -0.27809   0.19294
  31   34643.6    288.7   0.019528361   0.18557  -0.07365  -0.09902  -0.41273
  32   35156.6    284.4   0.087903608   0.82314   0.66430  -0.27924  -0.55125
  33   35513.7    281.6   0.064172234   0.59488   0.61603  -0.34736  -0.30778
  34   35615.2    280.8   0.097362327   0.89998   0.55682  -0.64123  -0.42279
  35   36716.5    272.4   0.023295702   0.20888   0.22477   0.33225  -0.21901
  36   37177.9    269.0   0.149279404   1.32187  -0.67226   0.68041   0.63795
  37   37359.1    267.7   0.007097577   0.06254   0.15001  -0.13059  -0.15162
  38   37691.7    265.3   0.004916412   0.04294  -0.19444   0.06788   0.02294
  39   38011.0    263.1   0.017333014   0.15012   0.00618   0.23671   0.30668
  40   38178.1    261.9   0.024804716   0.21389   0.39088   0.24644  -0.01935
  41   38250.2    261.4   0.021885162   0.18836   0.06423  -0.24100   0.35518
  42   38380.0    260.6   0.109411024   0.93849   0.62029  -0.37772  -0.64115
  43   39687.4    252.0   0.012218156   0.10135   0.26265   0.17851  -0.02240
  44   40021.2    249.9   0.037658968   0.30978  -0.40477  -0.31876   0.21055
  45   40321.4    248.0   0.041089485   0.33548  -0.54384  -0.06410   0.18871

FINAL SINGLE POINT ENERGY     -4588.038629836773

DIPOLE MOMENT
-------------
                                X             Y             Z
Electronic contribution:      8.22976     -10.00018     -11.92112
Nuclear contribution   :     -5.93166      11.73247      11.04863
                        -----------------------------------------
Total Dipole Moment    :      2.29810       1.73229      -0.87248
                        -----------------------------------------
Magnitude (a.u.)       :      3.00721
Magnitude (Debye)      :      7.64373

Rotational constants in cm-1:     0.001940     0.000235     0.000218
Rotational constants in MHz :    58.169440     7.045680     6.535733

                             ****ORCA TERMINATED NORMALLY****
TOTAL RUN TIME: 0 days 0 hours 13 minutes 0 seconds 754 msec
