                         Program Version 4.2.0 -  RELEASE  -
|  1> # ORCA input file
|  2> # SCF done       -185.935135041971          0.000344080878
|  3> ! CAM-B3LYP def2-SVP def2/J RIJCOSX Grid4 TightSCF
|  4> %maxcore 5000
|  5> %tddft
|  6>     Mode sTDDFT
|  7>     Ethresh 5.0
|  8>     maxcore 5000
|  9> end
| 10>
| 11> %pal
| 12>   nprocs 6
| 13>   end
| 14> * xyz 0 1
| 15>    C       -2.82971        -1.42506        -2.86887
| 16>    C       -1.65675        -2.16452        -2.89864
| 17>    C       -0.45914        -1.47991        -2.85478
| 18>    C       -0.43511        -0.08297        -2.77459
| 19>    C        0.98711         0.34904        -2.75209
| 20>    O        1.44992         1.45841        -2.69366
| 21>    N        1.72650        -0.82298        -2.80805
| 22>    C        0.94127        -1.96523        -2.87745
| 23>    O        1.36186        -3.09261        -2.93369
| 24>    C        3.17362        -0.84927        -2.83579
| 25>    C        3.70096        -0.71541        -4.25991
| 26>    C       -1.59203         0.65584        -2.73463
| 27>    C       -2.82158        -0.02666        -2.78643
| 28>    C       -4.06256         0.71596        -2.75350
| 29>    C       -4.25496         1.99325        -2.29492
| 30>    C       -5.62655         2.35746        -2.47157
| 31>    C       -6.28693         1.18258        -3.06733
| 32>    C       -5.34870         0.21155        -3.21916
| 33>    C       -7.65097         1.02377        -3.34175
| 34>    N       -8.76426         0.82369        -3.54062
| 35>    C       -6.22413         3.55798        -2.16977
| 36>    C       -7.55045         3.96169        -2.48537
| 37>    C       -7.77987         5.22537        -1.97257
| 38>    C       -6.55929         5.65895        -1.30680
| 39>    C       -5.61953         4.68633        -1.44127
| 40>    C       -4.31677         4.75934        -0.93498
| 41>    N       -3.25447         4.85216        -0.50838
| 42>    C       -9.00778         5.91668        -2.13989
| 43>    N       -9.49319         6.96269        -1.39971
| 44>    C       -8.88738         7.61489        -0.26228
| 45>    C       -8.07896         8.83995        -0.68340
| 46>    C      -10.77131         7.36789        -1.83583
| 47>    O      -11.40286         8.25924        -1.30905
| 48>    C      -11.06544         6.49495        -2.95166
| 49>    C       -9.97693         5.61508        -3.10734
| 50>    C      -10.23520         4.78008        -4.26616
| 51>    O       -9.58578         3.92015        -4.81632
| 52>    N      -11.49917         5.20709        -4.71972
| 53>    C      -12.14765         4.54221        -5.82451
| 54>    C      -13.18571         3.53184        -5.34292
| 55>    C      -12.01261         6.22126        -3.95073
| 56>    C      -13.25733         6.83692        -4.19238
| 57>    C      -13.76555         7.82626        -3.40038
| 58>    C      -15.00692         8.46478        -3.61893
| 59>    C      -15.56533         9.43400        -2.80679
| 60>    C      -16.82014         9.83775        -3.34415
| 61>    C      -17.00510         9.04622        -4.57710
| 62>    C      -15.92793         8.23420        -4.72574
| 63>    C      -18.08546         9.10506        -5.46502
| 64>    N      -18.95033         9.12707        -6.22087
| 65>    C      -17.70091        10.76131        -2.83369
| 66>    C      -18.96831        11.14843        -3.37416
| 67>    C      -19.54934        12.07654        -2.55081
| 68>    C      -18.64037        12.31754        -1.43879
| 69>    C      -17.53188        11.54746        -1.59950
| 70>    C      -16.43659        11.52832        -0.72932
| 71>    N      -15.55751        11.54012         0.00992
| 72>    C      -20.83513        12.71898        -2.71723
| 73>    C      -21.50133        13.26500        -1.60634
| 74>    C      -22.72805        13.85071        -1.80602
| 75>    C      -23.30871        13.92229        -3.07621
| 76>    C      -24.61648        14.60833        -2.94541
| 77>    O      -25.42845        14.88244        -3.79142
| 78>    N      -24.74203        14.90570        -1.59428
| 79>    C      -23.65936        14.48581        -0.83836
| 80>    O      -23.54123        14.63550         0.35074
| 81>    C      -25.91034        15.54341        -1.02523
| 82>    C      -26.95502        14.51124        -0.61577
| 83>    C      -22.66395        13.39539        -4.17828
| 84>    C      -21.43006        12.79391        -3.98389
| 85>    H       -3.77392        -1.94690        -2.88763
| 86>    H       -1.67469        -3.24171        -2.95540
| 87>    H        3.48904        -1.79993        -2.39939
| 88>    H        3.52929        -0.01977        -2.21985
| 89>    H        3.33491        -1.53403        -4.87546
| 90>    H        4.78685        -0.74118        -4.25343
| 91>    H        3.37558         0.22755        -4.69315
| 92>    H       -1.55333         1.73208        -2.68302
| 93>    H       -3.51428         2.63952        -1.86760
| 94>    H       -5.52124        -0.76294        -3.63612
| 95>    H       -8.24897         3.37576        -3.04850
| 96>    H       -6.39711         6.60580        -0.82949
| 97>    H       -8.27635         6.89227         0.28201
| 98>    H       -9.70931         7.93852         0.38349
| 99>    H       -7.31943         8.58081        -1.41831
|100>    H       -7.59519         9.27921         0.18463
|101>    H       -8.74150         9.58108        -1.12321
|102>    H      -11.35546         4.02048        -6.36848
|103>    H      -12.59861         5.28591        -6.48737
|104>    H      -12.70497         2.77209        -4.73186
|105>    H      -13.65016         3.04663        -6.19669
|106>    H      -13.95915         4.01584        -4.75001
|107>    H      -13.82098         6.49212        -5.04690
|108>    H      -13.20073         8.15786        -2.53872
|109>    H      -15.12647         9.82072        -1.90788
|110>    H      -15.77728         7.54118        -5.53239
|111>    H      -19.39070        10.73350        -4.26729
|112>    H      -18.80795        13.01508        -0.63963
|113>    H      -21.08242        13.20842        -0.61425
|114>    H      -26.31708        16.21737        -1.78287
|115>    H      -25.57899        16.11601        -0.15569
|116>    H      -27.27639        13.93778        -1.48221
|117>    H      -27.81865        15.01175        -0.18763
|118>    H      -26.54096        13.83166         0.12568
|119>    H      -23.11101        13.45236        -5.15837
|120>    H      -20.90403        12.38413        -4.83222
|121> *
|122>
|123>                          ****END OF INPUT****

CARTESIAN COORDINATES (ANGSTROEM)
---------------------------------
  C     -2.829710   -1.425060   -2.868870
  C     -1.656750   -2.164520   -2.898640
  C     -0.459140   -1.479910   -2.854780
  C     -0.435110   -0.082970   -2.774590
  C      0.987110    0.349040   -2.752090
  O      1.449920    1.458410   -2.693660
  N      1.726500   -0.822980   -2.808050
  C      0.941270   -1.965230   -2.877450
  O      1.361860   -3.092610   -2.933690
  C      3.173620   -0.849270   -2.835790
  C      3.700960   -0.715410   -4.259910
  C     -1.592030    0.655840   -2.734630
  C     -2.821580   -0.026660   -2.786430
  C     -4.062560    0.715960   -2.753500
  C     -4.254960    1.993250   -2.294920
  C     -5.626550    2.357460   -2.471570
  C     -6.286930    1.182580   -3.067330
  C     -5.348700    0.211550   -3.219160
  C     -7.650970    1.023770   -3.341750
  N     -8.764260    0.823690   -3.540620
  C     -6.224130    3.557980   -2.169770
  C     -7.550450    3.961690   -2.485370
  C     -7.779870    5.225370   -1.972570
  C     -6.559290    5.658950   -1.306800
  C     -5.619530    4.686330   -1.441270
  C     -4.316770    4.759340   -0.934980
  N     -3.254470    4.852160   -0.508380
  C     -9.007780    5.916680   -2.139890
  N     -9.493190    6.962690   -1.399710
  C     -8.887380    7.614890   -0.262280
  C     -8.078960    8.839950   -0.683400
  C    -10.771310    7.367890   -1.835830
  O    -11.402860    8.259240   -1.309050
  C    -11.065440    6.494950   -2.951660
  C     -9.976930    5.615080   -3.107340
  C    -10.235200    4.780080   -4.266160
  O     -9.585780    3.920150   -4.816320
  N    -11.499170    5.207090   -4.719720
  C    -12.147650    4.542210   -5.824510
  C    -13.185710    3.531840   -5.342920
  C    -12.012610    6.221260   -3.950730
  C    -13.257330    6.836920   -4.192380
  C    -13.765550    7.826260   -3.400380
  C    -15.006920    8.464780   -3.618930
  C    -15.565330    9.434000   -2.806790
  C    -16.820140    9.837750   -3.344150
  C    -17.005100    9.046220   -4.577100
  C    -15.927930    8.234200   -4.725740
  C    -18.085460    9.105060   -5.465020
  N    -18.950330    9.127070   -6.220870
  C    -17.700910   10.761310   -2.833690
  C    -18.968310   11.148430   -3.374160
  C    -19.549340   12.076540   -2.550810
  C    -18.640370   12.317540   -1.438790
  C    -17.531880   11.547460   -1.599500
  C    -16.436590   11.528320   -0.729320
  N    -15.557510   11.540120    0.009920
  C    -20.835130   12.718980   -2.717230
  C    -21.501330   13.265000   -1.606340
  C    -22.728050   13.850710   -1.806020
  C    -23.308710   13.922290   -3.076210
  C    -24.616480   14.608330   -2.945410
  O    -25.428450   14.882440   -3.791420
  N    -24.742030   14.905700   -1.594280
  C    -23.659360   14.485810   -0.838360
  O    -23.541230   14.635500    0.350740
  C    -25.910340   15.543410   -1.025230
  C    -26.955020   14.511240   -0.615770
  C    -22.663950   13.395390   -4.178280
  C    -21.430060   12.793910   -3.983890
  H     -3.773920   -1.946900   -2.887630
  H     -1.674690   -3.241710   -2.955400
  H      3.489040   -1.799930   -2.399390
  H      3.529290   -0.019770   -2.219850
  H      3.334910   -1.534030   -4.875460
  H      4.786850   -0.741180   -4.253430
  H      3.375580    0.227550   -4.693150
  H     -1.553330    1.732080   -2.683020
  H     -3.514280    2.639520   -1.867600
  H     -5.521240   -0.762940   -3.636120
  H     -8.248970    3.375760   -3.048500
  H     -6.397110    6.605800   -0.829490
  H     -8.276350    6.892270    0.282010
  H     -9.709310    7.938520    0.383490
  H     -7.319430    8.580810   -1.418310
  H     -7.595190    9.279210    0.184630
  H     -8.741500    9.581080   -1.123210
  H    -11.355460    4.020480   -6.368480
  H    -12.598610    5.285910   -6.487370
  H    -12.704970    2.772090   -4.731860
  H    -13.650160    3.046630   -6.196690
  H    -13.959150    4.015840   -4.750010
  H    -13.820980    6.492120   -5.046900
  H    -13.200730    8.157860   -2.538720
  H    -15.126470    9.820720   -1.907880
  H    -15.777280    7.541180   -5.532390
  H    -19.390700   10.733500   -4.267290
  H    -18.807950   13.015080   -0.639630
  H    -21.082420   13.208420   -0.614250
  H    -26.317080   16.217370   -1.782870
  H    -25.578990   16.116010   -0.155690
  H    -27.276390   13.937780   -1.482210
  H    -27.818650   15.011750   -0.187630
  H    -26.540960   13.831660    0.125680
  H    -23.111010   13.452360   -5.158370
  H    -20.904030   12.384130   -4.832220

 Total Charge           Charge          ....    0
 Multiplicity           Mult            ....    1
 Number of Electrons    NEL             ....  476
 Basis Dimension        Dim             .... 1160

ORBITAL ENERGIES
----------------

  NO   OCC          E(Eh)            E(eV)
   0   2.0000     -19.214084      -522.8418
   1   2.0000     -19.213555      -522.8274
   2   2.0000     -19.212289      -522.7930
   3   2.0000     -19.212197      -522.7905
   4   2.0000     -19.203758      -522.5608
   5   2.0000     -19.202013      -522.5133
   6   2.0000     -14.467410      -393.6782
   7   2.0000     -14.464470      -393.5982
   8   2.0000     -14.454619      -393.3302
   9   2.0000     -14.453462      -393.2987
  10   2.0000     -14.418863      -392.3572
  11   2.0000     -14.414690      -392.2437
  12   2.0000     -14.412640      -392.1879
  13   2.0000     -14.408616      -392.0784
  14   2.0000     -10.393745      -282.8282
  15   2.0000     -10.393477      -282.8209
  16   2.0000     -10.392434      -282.7925
  17   2.0000     -10.392087      -282.7831
  18   2.0000     -10.385420      -282.6017
  19   2.0000     -10.384872      -282.5867
  20   2.0000     -10.353882      -281.7434
  21   2.0000     -10.353722      -281.7391
  22   2.0000     -10.332403      -281.1590
  23   2.0000     -10.331722      -281.1405
  24   2.0000     -10.331644      -281.1383
  25   2.0000     -10.327986      -281.0388
  26   2.0000     -10.326660      -281.0027
  27   2.0000     -10.323127      -280.9066
  28   2.0000     -10.321970      -280.8751
  29   2.0000     -10.320842      -280.8444
  30   2.0000     -10.320796      -280.8431
  31   2.0000     -10.319891      -280.8185
  32   2.0000     -10.319321      -280.8030
  33   2.0000     -10.319108      -280.7972
  34   2.0000     -10.316874      -280.7364
  35   2.0000     -10.316513      -280.7266
  36   2.0000     -10.315582      -280.7012
  37   2.0000     -10.314580      -280.6740
  38   2.0000     -10.314543      -280.6730
  39   2.0000     -10.314280      -280.6658
  40   2.0000     -10.312765      -280.6246
  41   2.0000     -10.312599      -280.6201
  42   2.0000     -10.311271      -280.5839
  43   2.0000     -10.311078      -280.5787
  44   2.0000     -10.310778      -280.5705
  45   2.0000     -10.309765      -280.5430
  46   2.0000     -10.308672      -280.5132
  47   2.0000     -10.307040      -280.4688
  48   2.0000     -10.306435      -280.4523
  49   2.0000     -10.305290      -280.4212
  50   2.0000     -10.305193      -280.4186
  51   2.0000     -10.303028      -280.3596
  52   2.0000     -10.302932      -280.3570
  53   2.0000     -10.302496      -280.3452
  54   2.0000     -10.302191      -280.3369
  55   2.0000     -10.300927      -280.3025
  56   2.0000     -10.300528      -280.2916
  57   2.0000     -10.300164      -280.2817
  58   2.0000     -10.299799      -280.2718
  59   2.0000     -10.299342      -280.2593
  60   2.0000     -10.295882      -280.1652
  61   2.0000     -10.292377      -280.0698
  62   2.0000     -10.292144      -280.0635
  63   2.0000     -10.290965      -280.0314
  64   2.0000     -10.276780      -279.6454
  65   2.0000     -10.275579      -279.6127
  66   2.0000     -10.271770      -279.5091
  67   2.0000     -10.270217      -279.4668
  68   2.0000     -10.259451      -279.1739
  69   2.0000     -10.258461      -279.1469
  70   2.0000      -1.159746       -31.5583
  71   2.0000      -1.158421       -31.5222
  72   2.0000      -1.146561       -31.1995
  73   2.0000      -1.139893       -31.0181
  74   2.0000      -1.136296       -30.9202
  75   2.0000      -1.134902       -30.8822
  76   2.0000      -1.076776       -29.3006
  77   2.0000      -1.068390       -29.0724
  78   2.0000      -1.050592       -28.5881
  79   2.0000      -1.049338       -28.5539
  80   2.0000      -1.024840       -27.8873
  81   2.0000      -1.022383       -27.8204
  82   2.0000      -1.008884       -27.4531
  83   2.0000      -1.005941       -27.3730
  84   2.0000      -0.993928       -27.0461
  85   2.0000      -0.991807       -26.9884
  86   2.0000      -0.989823       -26.9344
  87   2.0000      -0.988753       -26.9053
  88   2.0000      -0.977200       -26.5910
  89   2.0000      -0.975763       -26.5519
  90   2.0000      -0.940629       -25.5958
  91   2.0000      -0.925378       -25.1808
  92   2.0000      -0.911976       -24.8161
  93   2.0000      -0.911009       -24.7898
  94   2.0000      -0.892281       -24.2802
  95   2.0000      -0.881461       -23.9858
  96   2.0000      -0.878998       -23.9187
  97   2.0000      -0.875024       -23.8106
  98   2.0000      -0.867480       -23.6053
  99   2.0000      -0.863186       -23.4885
 100   2.0000      -0.862276       -23.4637
 101   2.0000      -0.855238       -23.2722
 102   2.0000      -0.849706       -23.1217
 103   2.0000      -0.836097       -22.7513
 104   2.0000      -0.832577       -22.6556
 105   2.0000      -0.830665       -22.6035
 106   2.0000      -0.815778       -22.1984
 107   2.0000      -0.805680       -21.9237
 108   2.0000      -0.782535       -21.2939
 109   2.0000      -0.774858       -21.0849
 110   2.0000      -0.769981       -20.9522
 111   2.0000      -0.761309       -20.7163
 112   2.0000      -0.760768       -20.7015
 113   2.0000      -0.756988       -20.5987
 114   2.0000      -0.754937       -20.5429
 115   2.0000      -0.734582       -19.9890
 116   2.0000      -0.726910       -19.7802
 117   2.0000      -0.721293       -19.6274
 118   2.0000      -0.719872       -19.5887
 119   2.0000      -0.716748       -19.5037
 120   2.0000      -0.715587       -19.4721
 121   2.0000      -0.701706       -19.0944
 122   2.0000      -0.700734       -19.0679
 123   2.0000      -0.694664       -18.9028
 124   2.0000      -0.689547       -18.7635
 125   2.0000      -0.682384       -18.5686
 126   2.0000      -0.675556       -18.3828
 127   2.0000      -0.673729       -18.3331
 128   2.0000      -0.670926       -18.2568
 129   2.0000      -0.661139       -17.9905
 130   2.0000      -0.650186       -17.6925
 131   2.0000      -0.646267       -17.5858
 132   2.0000      -0.644378       -17.5344
 133   2.0000      -0.639812       -17.4102
 134   2.0000      -0.631731       -17.1903
 135   2.0000      -0.617349       -16.7989
 136   2.0000      -0.601549       -16.3690
 137   2.0000      -0.600193       -16.3321
 138   2.0000      -0.597548       -16.2601
 139   2.0000      -0.592294       -16.1171
 140   2.0000      -0.587431       -15.9848
 141   2.0000      -0.585860       -15.9421
 142   2.0000      -0.577951       -15.7268
 143   2.0000      -0.577335       -15.7101
 144   2.0000      -0.573490       -15.6054
 145   2.0000      -0.571096       -15.5403
 146   2.0000      -0.569420       -15.4947
 147   2.0000      -0.564168       -15.3518
 148   2.0000      -0.557386       -15.1672
 149   2.0000      -0.554789       -15.0966
 150   2.0000      -0.553020       -15.0484
 151   2.0000      -0.547771       -14.9056
 152   2.0000      -0.543929       -14.8011
 153   2.0000      -0.542019       -14.7491
 154   2.0000      -0.541340       -14.7306
 155   2.0000      -0.540761       -14.7148
 156   2.0000      -0.537981       -14.6392
 157   2.0000      -0.533782       -14.5249
 158   2.0000      -0.532745       -14.4967
 159   2.0000      -0.530556       -14.4372
 160   2.0000      -0.528182       -14.3726
 161   2.0000      -0.527795       -14.3620
 162   2.0000      -0.527345       -14.3498
 163   2.0000      -0.526707       -14.3324
 164   2.0000      -0.526136       -14.3169
 165   2.0000      -0.520730       -14.1698
 166   2.0000      -0.518366       -14.1054
 167   2.0000      -0.517559       -14.0835
 168   2.0000      -0.511683       -13.9236
 169   2.0000      -0.510028       -13.8786
 170   2.0000      -0.509213       -13.8564
 171   2.0000      -0.508040       -13.8245
 172   2.0000      -0.507698       -13.8152
 173   2.0000      -0.507202       -13.8017
 174   2.0000      -0.503459       -13.6998
 175   2.0000      -0.500320       -13.6144
 176   2.0000      -0.498134       -13.5549
 177   2.0000      -0.494933       -13.4678
 178   2.0000      -0.491587       -13.3768
 179   2.0000      -0.485157       -13.2018
 180   2.0000      -0.483584       -13.1590
 181   2.0000      -0.483161       -13.1475
 182   2.0000      -0.482566       -13.1313
 183   2.0000      -0.481619       -13.1055
 184   2.0000      -0.480521       -13.0756
 185   2.0000      -0.479606       -13.0508
 186   2.0000      -0.475266       -12.9326
 187   2.0000      -0.472316       -12.8524
 188   2.0000      -0.470627       -12.8064
 189   2.0000      -0.468312       -12.7434
 190   2.0000      -0.466468       -12.6932
 191   2.0000      -0.464482       -12.6392
 192   2.0000      -0.461224       -12.5505
 193   2.0000      -0.460361       -12.5271
 194   2.0000      -0.456313       -12.4169
 195   2.0000      -0.455307       -12.3895
 196   2.0000      -0.454522       -12.3682
 197   2.0000      -0.453662       -12.3448
 198   2.0000      -0.448859       -12.2141
 199   2.0000      -0.448027       -12.1914
 200   2.0000      -0.447460       -12.1760
 201   2.0000      -0.445728       -12.1289
 202   2.0000      -0.443110       -12.0576
 203   2.0000      -0.441291       -12.0081
 204   2.0000      -0.440855       -11.9963
 205   2.0000      -0.437576       -11.9070
 206   2.0000      -0.436624       -11.8811
 207   2.0000      -0.434324       -11.8186
 208   2.0000      -0.430409       -11.7120
 209   2.0000      -0.428373       -11.6566
 210   2.0000      -0.426905       -11.6167
 211   2.0000      -0.425834       -11.5875
 212   2.0000      -0.423651       -11.5281
 213   2.0000      -0.419865       -11.4251
 214   2.0000      -0.413597       -11.2546
 215   2.0000      -0.404303       -11.0017
 216   2.0000      -0.401344       -10.9211
 217   2.0000      -0.388236       -10.5644
 218   2.0000      -0.369734       -10.0610
 219   2.0000      -0.367849       -10.0097
 220   2.0000      -0.366259        -9.9664
 221   2.0000      -0.361834        -9.8460
 222   2.0000      -0.359322        -9.7776
 223   2.0000      -0.353328        -9.6145
 224   2.0000      -0.352891        -9.6027
 225   2.0000      -0.345507        -9.4017
 226   2.0000      -0.343987        -9.3604
 227   2.0000      -0.343935        -9.3590
 228   2.0000      -0.342920        -9.3313
 229   2.0000      -0.342159        -9.3106
 230   2.0000      -0.333247        -9.0681
 231   2.0000      -0.333098        -9.0641
 232   2.0000      -0.328712        -8.9447
 233   2.0000      -0.318641        -8.6707
 234   2.0000      -0.312572        -8.5055
 235   2.0000      -0.299601        -8.1526
 236   2.0000      -0.296219        -8.0605
 237   2.0000      -0.244745        -6.6598
 238   0.0000      -0.141003        -3.8369
 239   0.0000      -0.125119        -3.4047
 240   0.0000      -0.069178        -1.8824
 241   0.0000      -0.051128        -1.3913
 242   0.0000      -0.050840        -1.3834

MULLIKEN ATOMIC CHARGES
-----------------------
   0 C :   -0.026013
   1 C :   -0.023577
   2 C :   -0.001546
   3 C :    0.014301
   4 C :    0.190882
   5 O :   -0.151154
   6 N :   -0.300665
   7 C :    0.187215
   8 O :   -0.155386
   9 C :    0.133566
  10 C :   -0.011948
  11 C :   -0.086058
  12 C :    0.123209
  13 C :    0.096231
  14 C :   -0.115935
  15 C :    0.113624
  16 C :   -0.083015
  17 C :   -0.015070
  18 C :   -0.179274
  19 N :    0.144569
  20 C :    0.115897
  21 C :   -0.108590
  22 C :    0.041462
  23 C :   -0.025900
  24 C :   -0.093872
  25 C :   -0.182291
  26 N :    0.145849
  27 C :    0.152774
  28 N :   -0.255007
  29 C :    0.101639
  30 C :   -0.000954
  31 C :    0.163677
  32 O :   -0.200371
  33 C :   -0.064645
  34 C :   -0.057752
  35 C :    0.150630
  36 O :   -0.181812
  37 N :   -0.258168
  38 C :    0.097061
  39 C :    0.000760
  40 C :    0.153424
  41 C :   -0.028575
  42 C :    0.015087
  43 C :    0.105260
  44 C :   -0.094582
  45 C :    0.115331
  46 C :   -0.092812
  47 C :   -0.007027
  48 C :   -0.175199
  49 N :    0.136293
  50 C :    0.111466
  51 C :   -0.119257
  52 C :    0.103408
  53 C :   -0.015062
  54 C :   -0.087386
  55 C :   -0.183901
  56 N :    0.145159
  57 C :    0.116760
  58 C :   -0.100881
  59 C :    0.015502
  60 C :    0.002783
  61 C :    0.187985
  62 O :   -0.154021
  63 N :   -0.301717
  64 C :    0.189326
  65 O :   -0.156199
  66 C :    0.133298
  67 C :   -0.010412
  68 C :   -0.024372
  69 C :   -0.010587
  70 H :   -0.010758
  71 H :    0.003727
  72 H :    0.031968
  73 H :    0.031911
  74 H :    0.025616
  75 H :    0.024801
  76 H :    0.028826
  77 H :    0.003586
  78 H :    0.007658
  79 H :    0.000290
  80 H :    0.028971
  81 H :   -0.010231
  82 H :    0.026898
  83 H :    0.044996
  84 H :    0.020718
  85 H :    0.028306
  86 H :    0.037730
  87 H :    0.050103
  88 H :    0.022319
  89 H :    0.041914
  90 H :    0.026301
  91 H :    0.013436
  92 H :   -0.029543
  93 H :    0.018789
  94 H :    0.019156
  95 H :    0.000897
  96 H :    0.002448
  97 H :    0.006636
  98 H :   -0.007796
  99 H :    0.032774
 100 H :    0.031675
 101 H :    0.027281
 102 H :    0.023464
 103 H :    0.026914
 104 H :    0.003938
 105 H :    0.000850
Sum of atomic charges:   -0.0000000

LOEWDIN ATOMIC CHARGES
----------------------
   0 C :    0.000079
   1 C :    0.013330
   2 C :   -0.045717
   3 C :   -0.045665
   4 C :    0.088587
   5 O :   -0.152610
   6 N :   -0.035183
   7 C :    0.086849
   8 O :   -0.156882
   9 C :    0.044861
  10 C :   -0.059914
  11 C :    0.027729
  12 C :   -0.010308
  13 C :   -0.002727
  14 C :   -0.025180
  15 C :    0.050120
  16 C :   -0.075309
  17 C :    0.049645
  18 C :   -0.034093
  19 N :   -0.050601
  20 C :    0.030878
  21 C :    0.017445
  22 C :   -0.036967
  23 C :    0.044987
  24 C :   -0.078893
  25 C :   -0.032985
  26 N :   -0.058000
  27 C :    0.072507
  28 N :    0.003860
  29 C :    0.037241
  30 C :   -0.062105
  31 C :    0.080443
  32 O :   -0.189908
  33 C :   -0.115508
  34 C :   -0.104913
  35 C :    0.082387
  36 O :   -0.173716
  37 N :    0.001235
  38 C :    0.036494
  39 C :   -0.060419
  40 C :    0.080375
  41 C :   -0.040165
  42 C :    0.039369
  43 C :   -0.021426
  44 C :   -0.002396
  45 C :    0.034788
  46 C :   -0.076688
  47 C :    0.053754
  48 C :   -0.030389
  49 N :   -0.061282
  50 C :    0.041916
  51 C :   -0.024865
  52 C :   -0.005318
  53 C :    0.051758
  54 C :   -0.079590
  55 C :   -0.033413
  56 N :   -0.055437
  57 C :   -0.010622
  58 C :    0.014858
  59 C :   -0.046709
  60 C :   -0.045677
  61 C :    0.087935
  62 O :   -0.154796
  63 N :   -0.035798
  64 C :    0.087860
  65 O :   -0.156911
  66 C :    0.044681
  67 C :   -0.059564
  68 C :    0.015479
  69 C :    0.011854
  70 H :    0.032041
  71 H :    0.042386
  72 H :    0.032431
  73 H :    0.032634
  74 H :    0.027764
  75 H :    0.030925
  76 H :    0.028610
  77 H :    0.043216
  78 H :    0.034694
  79 H :    0.036062
  80 H :    0.039210
  81 H :    0.036517
  82 H :    0.024964
  83 H :    0.039722
  84 H :    0.020684
  85 H :    0.033127
  86 H :    0.036256
  87 H :    0.040601
  88 H :    0.021930
  89 H :    0.037096
  90 H :    0.032131
  91 H :    0.020812
  92 H :    0.028178
  93 H :    0.043942
  94 H :    0.041678
  95 H :    0.035361
  96 H :    0.033287
  97 H :    0.038166
  98 H :    0.037594
  99 H :    0.032626
 100 H :    0.032431
 101 H :    0.028301
 102 H :    0.030647
 103 H :    0.028166
 104 H :    0.043134
 105 H :    0.038026

  Mayer bond orders larger than 0.100000
B(  0-C ,  1-C ) :   1.3484 B(  0-C , 12-C ) :   1.3602 B(  0-C , 70-H ) :   0.9946
B(  1-C ,  2-C ) :   1.4034 B(  1-C , 71-H ) :   1.0058 B(  2-C ,  3-C ) :   1.3566
B(  2-C ,  7-C ) :   0.8845 B(  3-C ,  4-C ) :   0.8683 B(  3-C , 11-C ) :   1.4091
B(  4-C ,  5-O ) :   2.2304 B(  4-C ,  6-N ) :   1.0669 B(  6-N ,  7-C ) :   1.0641
B(  6-N ,  9-C ) :   0.9178 B(  7-C ,  8-O ) :   2.2293 B(  9-C , 10-C ) :   1.1227
B(  9-C , 72-H ) :   0.9426 B(  9-C , 73-H ) :   0.9433 B( 10-C , 74-H ) :   0.9697
B( 10-C , 75-H ) :   0.9703 B( 10-C , 76-H ) :   0.9700 B( 11-C , 12-C ) :   1.2979
B( 11-C , 77-H ) :   1.0106 B( 12-C , 13-C ) :   0.9990 B( 13-C , 14-C ) :   1.5978
B( 13-C , 17-C ) :   1.0536 B( 14-C , 15-C ) :   1.1062 B( 14-C , 78-H ) :   0.9980
B( 15-C , 16-C ) :   1.1063 B( 15-C , 20-C ) :   1.4067 B( 16-C , 17-C ) :   1.6737
B( 16-C , 18-C ) :   1.0842 B( 17-C , 79-H ) :   1.0151 B( 18-C , 19-N ) :   2.9827
B( 20-C , 21-C ) :   1.1141 B( 20-C , 24-C ) :   1.1011 B( 21-C , 22-C ) :   1.5488
B( 21-C , 80-H ) :   0.9910 B( 22-C , 23-C ) :   1.0290 B( 22-C , 27-C ) :   1.0427
B( 23-C , 24-C ) :   1.6664 B( 23-C , 81-H ) :   1.0236 B( 24-C , 25-C ) :   1.0845
B( 25-C , 26-N ) :   2.9711 B( 27-C , 28-N ) :   1.2069 B( 27-C , 34-C ) :   1.3573
B( 28-N , 29-C ) :   0.9385 B( 28-N , 31-C ) :   1.0463 B( 29-C , 30-C ) :   1.1171
B( 29-C , 82-H ) :   0.9505 B( 29-C , 83-H ) :   0.9277 B( 30-C , 84-H ) :   0.9651
B( 30-C , 85-H ) :   0.9686 B( 30-C , 86-H ) :   0.9606 B( 31-C , 32-O ) :   2.0314
B( 31-C , 33-C ) :   0.9889 B( 32-O , 93-H ) :   0.1063 B( 33-C , 34-C ) :   1.2664
B( 33-C , 40-C ) :   1.3028 B( 34-C , 35-C ) :   0.9680 B( 35-C , 36-O ) :   2.0965
B( 35-C , 37-N ) :   1.0400 B( 37-N , 38-C ) :   0.9425 B( 37-N , 40-C ) :   1.1738
B( 38-C , 39-C ) :   1.1182 B( 38-C , 87-H ) :   0.9263 B( 38-C , 88-H ) :   0.9498
B( 39-C , 89-H ) :   0.9638 B( 39-C , 90-H ) :   0.9684 B( 39-C , 91-H ) :   0.9685
B( 40-C , 41-C ) :   1.1684 B( 41-C , 42-C ) :   1.5440 B( 41-C , 92-H ) :   0.9626
B( 42-C , 43-C ) :   1.1293 B( 42-C , 93-H ) :   0.9611 B( 43-C , 44-C ) :   1.5021
B( 43-C , 47-C ) :   1.0328 B( 44-C , 45-C ) :   1.1082 B( 44-C , 94-H ) :   1.0120
B( 45-C , 46-C ) :   1.0979 B( 45-C , 50-C ) :   1.4182 B( 46-C , 47-C ) :   1.6938
B( 46-C , 48-C ) :   1.0892 B( 47-C , 95-H ) :   1.0146 B( 48-C , 49-N ) :   2.9700
B( 50-C , 51-C ) :   1.0997 B( 50-C , 54-C ) :   1.1093 B( 51-C , 52-C ) :   1.5998
B( 51-C , 96-H ) :   0.9985 B( 52-C , 53-C ) :   1.0579 B( 52-C , 57-C ) :   0.9949
B( 53-C , 54-C ) :   1.6668 B( 53-C , 97-H ) :   1.0161 B( 54-C , 55-C ) :   1.0870
B( 55-C , 56-N ) :   2.9732 B( 57-C , 58-C ) :   1.2917 B( 57-C , 69-C ) :   1.3695
B( 58-C , 59-C ) :   1.4023 B( 58-C , 98-H ) :   1.0080 B( 59-C , 60-C ) :   1.3699
B( 59-C , 64-C ) :   0.8697 B( 60-C , 61-C ) :   0.8834 B( 60-C , 68-C ) :   1.3861
B( 61-C , 62-O ) :   2.2303 B( 61-C , 63-N ) :   1.0605 B( 63-N , 64-C ) :   1.0686
B( 63-N , 66-C ) :   0.9177 B( 64-C , 65-O ) :   2.2278 B( 66-C , 67-C ) :   1.1236
B( 66-C , 99-H ) :   0.9429 B( 66-C ,100-H ) :   0.9425 B( 67-C ,101-H ) :   0.9699
B( 67-C ,102-H ) :   0.9705 B( 67-C ,103-H ) :   0.9697 B( 68-C , 69-C ) :   1.3560
B( 68-C ,104-H ) :   1.0082 B( 69-C ,105-H ) :   0.9954

-----------------------------------------------------------------------------
         ABSORPTION SPECTRUM VIA TRANSITION ELECTRIC DIPOLE MOMENTS
-----------------------------------------------------------------------------
State   Energy  Wavelength   fosc         T2         TX        TY        TZ
        (cm-1)    (nm)                  (au**2)     (au)      (au)      (au)
-----------------------------------------------------------------------------
   0    8249.7   1212.2   0.642602836  25.64373  -4.13640   2.90671  -0.29144
   1   11908.4    839.7   0.098524154   2.72374   1.47663  -0.71732  -0.16958
   2   16845.0    593.6   0.019390524   0.37896  -0.20710   0.57236   0.09203
   3   17147.3    583.2   0.126746005   2.43341   0.90778  -1.10590  -0.62155
   4   19741.9    506.5   0.045234428   0.75432  -0.30576  -0.39669  -0.70955
   5   20278.9    493.1   0.057067903   0.92645  -0.86119   0.12902  -0.41007
   6   22060.7    453.3   0.255490280   3.81269   1.72862  -0.36269   0.83248
   7   23625.6    423.3   0.000558720   0.00779   0.07752  -0.04164   0.00657
   8   25039.6    399.4   0.010978884   0.14435  -0.28363   0.23522  -0.09259
   9   25451.5    392.9   0.658948482   8.52342  -2.14047   1.87997   0.63838
  10   26771.6    373.5   0.559647107   6.88203  -1.59341   2.01695   0.52441
  11   27062.0    369.5   0.283704468   3.45130  -1.27480   1.18985   0.64065
  12   27892.4    358.5   0.023766928   0.28052   0.04908  -0.47287  -0.23346
  13   28089.7    356.0   0.000695709   0.00815   0.00254  -0.04874  -0.07597
  14   28834.7    346.8   0.002315118   0.02643   0.07490   0.07387   0.12396
  15   29458.8    339.5   0.004222811   0.04719   0.17639  -0.09338   0.08578
  16   29498.8    339.0   0.065311070   0.72888   0.66769  -0.52746  -0.06968
  17   30238.2    330.7   0.046211438   0.50312  -0.43281   0.47199   0.30499
  18   30255.4    330.5   0.014088612   0.15330   0.27362  -0.27810   0.03303
  19   31333.7    319.1   0.003127228   0.03286   0.09587  -0.13607  -0.07177
  20   31666.5    315.8   0.001483453   0.01542  -0.09079   0.08355  -0.01408
  21   31756.1    314.9   0.080838466   0.83804   0.77826  -0.48039   0.03978
  22   31824.8    314.2   0.010351408   0.10708  -0.31704   0.07319   0.03481
  23   32525.9    307.4   0.017949693   0.18168  -0.29769   0.30443  -0.01945
  24   32714.9    305.7   0.110224663   1.10920  -0.91824   0.49794  -0.13446
  25   33030.1    302.8   0.080758350   0.80492  -0.00845   0.87737   0.18728
  26   33907.2    294.9   0.040150169   0.38983  -0.10043   0.51889   0.33241
  27   34035.8    293.8   0.159205502   1.53992   1.02761  -0.69334   0.05667
  28   34399.2    290.7   0.013733162   0.13143  -0.19843   0.25062   0.17101
  29   34755.8    287.7   0.055474692   0.52546   0.27911  -0.48597  -0.45978
  30   34915.1    286.4   0.147001109   1.38606   0.72261  -0.86009  -0.35236
  31   35119.9    284.7   0.064793636   0.60737  -0.48155   0.47513   0.38695
  32   35342.8    282.9   0.056574771   0.52698   0.46566  -0.54897  -0.09369
  33   35726.2    279.9   0.010680509   0.09842   0.17911   0.24697   0.07312
  34   35811.9    279.2   0.100842952   0.92703   0.38356  -0.84863  -0.24443
  35   35984.0    277.9   0.002588365   0.02368  -0.02200   0.13726   0.06600
  36   36399.2    274.7   0.002912475   0.02634  -0.12360   0.10517  -0.00238
  37   36848.1    271.4   0.088115731   0.78725   0.76179  -0.39710   0.22190
  38   37093.1    269.6   0.182642010   1.62100   1.09141  -0.65187  -0.07000
  39   37178.6    269.0   0.024134982   0.21371  -0.40273   0.22013   0.05537
  40   37494.3    266.7   0.002451007   0.02152  -0.09865   0.07369  -0.07975
  41   37554.5    266.3   0.002201068   0.01930  -0.07811   0.11081  -0.03026
  42   37883.8    264.0   0.000988957   0.00859  -0.03610  -0.08523  -0.00513
  43   37917.5    263.7   0.018903515   0.16413  -0.37532  -0.05969  -0.14036
  44   38311.4    261.0   0.020535147   0.17646   0.07461   0.21150   0.35519
  45   38936.9    256.8   0.046352772   0.39191  -0.36722   0.50459   0.04952
  46   39447.5    253.5   0.044091337   0.36797   0.54940  -0.07091   0.24718
  47   39565.3    252.7   0.059205365   0.49263   0.55043   0.33252   0.28123
  48   39794.5    251.3   0.074278828   0.61449   0.56064  -0.33780  -0.43136
  49   39966.0    250.2   0.074654757   0.61495  -0.40136  -0.26155  -0.62085
  50   40110.4    249.3   0.127325097   1.04504   0.89811  -0.48692  -0.03668

FINAL SINGLE POINT ENERGY     -3041.150585865442

DIPOLE MOMENT
-------------
                                X             Y             Z
Electronic contribution:     -0.28472      -0.38204       1.64042
Nuclear contribution   :     -0.09661      -0.04242      -2.40810
                        -----------------------------------------
Total Dipole Moment    :     -0.38133      -0.42447      -0.76768
                        -----------------------------------------
Magnitude (a.u.)       :      0.95651
Magnitude (Debye)      :      2.43127

Rotational constants in cm-1:     0.004341     0.000188     0.000183
Rotational constants in MHz :   130.145186     5.626773     5.478607

                             ****ORCA TERMINATED NORMALLY****
TOTAL RUN TIME: 0 days 0 hours 9 minutes 44 seconds 465 msec
