                         Program Version 4.2.0 -  RELEASE  -
|  1> # ORCA input file
|  2> # SCF done       -144.257208640025          0.000635034561
|  3> ! CAM-B3LYP def2-SVP def2/J RIJCOSX Grid4 TightSCF
|  4> %maxcore 5000
|  5> %tddft
|  6>     Mode sTDDFT
|  7>     Ethresh 5.0
|  8>     maxcore 5000
|  9> end
| 10>
| 11> %pal
| 12>   nprocs 6
| 13>   end
| 14> * xyz 0 1
| 15>    C        4.70720         0.27287         1.21487
| 16>    N        4.61669        -1.01281         1.08058
| 17>    C        4.77600        -1.25147        -0.25878
| 18>    C        4.98362         0.00480        -0.99007
| 19>    C        5.14954        -0.25189        -2.42854
| 20>    O        5.33834         0.54049        -3.32221
| 21>    C        5.02478        -1.72538        -2.50422
| 22>    C        4.79962        -2.28775        -1.14868
| 23>    N        4.68194        -3.64128        -1.20963
| 24>    C        4.81474        -3.94023        -2.47303
| 25>    C        5.02933        -2.78855        -3.34072
| 26>    C        4.93823         0.99909        -0.04245
| 27>    C        5.07443         2.40310        -0.17608
| 28>    S        4.93814         3.45803         1.20337
| 29>    C        5.21048         4.86893         0.21971
| 30>    C        5.39981         4.50460        -1.12208
| 31>    C        5.31775         3.12096        -1.32867
| 32>    C        5.65531         5.44550        -2.21799
| 33>    O        5.80672         5.11135        -3.36481
| 34>    C        5.21618         6.16446         0.77069
| 35>    C        4.98634         6.44458         2.08528
| 36>    C        4.98917         7.76409         2.58452
| 37>    N        4.75258         8.09504         3.89849
| 38>    C        4.53642         7.17748         4.99129
| 39>    C        5.84002         6.53813         5.46283
| 40>    C        4.79616         9.48261         4.10990
| 41>    O        4.60981        10.00375         5.19158
| 42>    C        5.08153        10.03611         2.80323
| 43>    C        5.19570         8.96174         1.89245
| 44>    C        5.48379         9.51228         0.58696
| 45>    O        5.66820         8.98577        -0.49443
| 46>    N        5.53320        10.89747         0.79565
| 47>    C        5.75814        11.80782        -0.30144
| 48>    C        4.45619        12.42862        -0.80164
| 49>    C        5.28838        11.23242         2.10936
| 50>    C        5.27632        12.55909         2.59149
| 51>    C        5.00276        12.86461         3.89187
| 52>    C        4.97448        14.17524         4.41784
| 53>    C        5.22849        15.39581         3.79022
| 54>    C        5.10112        16.48371         4.63021
| 55>    C        4.74213        16.13424         5.93003
| 56>    S        4.57066        14.41573         6.08944
| 57>    C        4.53131        17.02511         7.00273
| 58>    N        4.68215        18.34374         6.84955
| 59>    C        4.40335        18.87560         8.04585
| 60>    C        4.04798        17.82128         9.03149
| 61>    C        3.73794        18.42732        10.34722
| 62>    O        3.40963        17.87341        11.37003
| 63>    C        3.93053        19.86313        10.08623
| 64>    C        4.33368        20.09199         8.68067
| 65>    N        4.51029        21.41296         8.44368
| 66>    C        4.24850        22.00396         9.58621
| 67>    C        3.88010        21.09829        10.65145
| 68>    C        4.13370        16.65216         8.36242
| 69>    H        4.61729         0.73748         2.18235
| 70>    H        4.76089        -4.96453        -2.79928
| 71>    H        5.15829        -2.82702        -4.40439
| 72>    H        5.43296         2.66058        -2.29582
| 73>    H        5.70190         6.50688        -1.91961
| 74>    H        5.41409         6.98253         0.09157
| 75>    H        4.78390         5.63475         2.77308
| 76>    H        3.81395         6.41382         4.69003
| 77>    H        4.10443         7.77089         5.80182
| 78>    H        6.30790         5.96609         4.66467
| 79>    H        5.64153         5.87382         6.29907
| 80>    H        6.53432         7.30856         5.78904
| 81>    H        6.20945        11.21254        -1.10011
| 82>    H        6.46896        12.58054         0.00438
| 83>    H        3.78444        11.64880        -1.15154
| 84>    H        4.66425        13.10274        -1.62773
| 85>    H        3.95741        12.98479        -0.01077
| 86>    H        5.49204        13.34913         1.88768
| 87>    H        4.78459        12.06152         4.58397
| 88>    H        5.49901        15.47419         2.75300
| 89>    H        5.25142        17.51130         4.35431
| 90>    H        4.31638        23.07502         9.66940
| 91>    H        3.62941        21.38226        11.65432
| 92>    H        3.96047        15.64745         8.69525
| 93> *
| 94>
| 95>                          ****END OF INPUT****

CARTESIAN COORDINATES (ANGSTROEM)
---------------------------------
  C      4.707200    0.272870    1.214870
  N      4.616690   -1.012810    1.080580
  C      4.776000   -1.251470   -0.258780
  C      4.983620    0.004800   -0.990070
  C      5.149540   -0.251890   -2.428540
  O      5.338340    0.540490   -3.322210
  C      5.024780   -1.725380   -2.504220
  C      4.799620   -2.287750   -1.148680
  N      4.681940   -3.641280   -1.209630
  C      4.814740   -3.940230   -2.473030
  C      5.029330   -2.788550   -3.340720
  C      4.938230    0.999090   -0.042450
  C      5.074430    2.403100   -0.176080
  S      4.938140    3.458030    1.203370
  C      5.210480    4.868930    0.219710
  C      5.399810    4.504600   -1.122080
  C      5.317750    3.120960   -1.328670
  C      5.655310    5.445500   -2.217990
  O      5.806720    5.111350   -3.364810
  C      5.216180    6.164460    0.770690
  C      4.986340    6.444580    2.085280
  C      4.989170    7.764090    2.584520
  N      4.752580    8.095040    3.898490
  C      4.536420    7.177480    4.991290
  C      5.840020    6.538130    5.462830
  C      4.796160    9.482610    4.109900
  O      4.609810   10.003750    5.191580
  C      5.081530   10.036110    2.803230
  C      5.195700    8.961740    1.892450
  C      5.483790    9.512280    0.586960
  O      5.668200    8.985770   -0.494430
  N      5.533200   10.897470    0.795650
  C      5.758140   11.807820   -0.301440
  C      4.456190   12.428620   -0.801640
  C      5.288380   11.232420    2.109360
  C      5.276320   12.559090    2.591490
  C      5.002760   12.864610    3.891870
  C      4.974480   14.175240    4.417840
  C      5.228490   15.395810    3.790220
  C      5.101120   16.483710    4.630210
  C      4.742130   16.134240    5.930030
  S      4.570660   14.415730    6.089440
  C      4.531310   17.025110    7.002730
  N      4.682150   18.343740    6.849550
  C      4.403350   18.875600    8.045850
  C      4.047980   17.821280    9.031490
  C      3.737940   18.427320   10.347220
  O      3.409630   17.873410   11.370030
  C      3.930530   19.863130   10.086230
  C      4.333680   20.091990    8.680670
  N      4.510290   21.412960    8.443680
  C      4.248500   22.003960    9.586210
  C      3.880100   21.098290   10.651450
  C      4.133700   16.652160    8.362420
  H      4.617290    0.737480    2.182350
  H      4.760890   -4.964530   -2.799280
  H      5.158290   -2.827020   -4.404390
  H      5.432960    2.660580   -2.295820
  H      5.701900    6.506880   -1.919610
  H      5.414090    6.982530    0.091570
  H      4.783900    5.634750    2.773080
  H      3.813950    6.413820    4.690030
  H      4.104430    7.770890    5.801820
  H      6.307900    5.966090    4.664670
  H      5.641530    5.873820    6.299070
  H      6.534320    7.308560    5.789040
  H      6.209450   11.212540   -1.100110
  H      6.468960   12.580540    0.004380
  H      3.784440   11.648800   -1.151540
  H      4.664250   13.102740   -1.627730
  H      3.957410   12.984790   -0.010770
  H      5.492040   13.349130    1.887680
  H      4.784590   12.061520    4.583970
  H      5.499010   15.474190    2.753000
  H      5.251420   17.511300    4.354310
  H      4.316380   23.075020    9.669400
  H      3.629410   21.382260   11.654320
  H      3.960470   15.647450    8.695250

 Total Charge           Charge          ....    0
 Multiplicity           Mult            ....    1
 Number of Electrons    NEL             ....  384
 Basis Dimension        Dim             ....  884

ORBITAL ENERGIES
----------------

  NO   OCC          E(Eh)            E(eV)
   0   2.0000     -88.980568     -2421.2844
   1   2.0000     -88.979885     -2421.2658
   2   2.0000     -19.220358      -523.0125
   3   2.0000     -19.210349      -522.7402
   4   2.0000     -19.203012      -522.5405
   5   2.0000     -19.201304      -522.4940
   6   2.0000     -19.200977      -522.4852
   7   2.0000     -14.463044      -393.5594
   8   2.0000     -14.462938      -393.5565
   9   2.0000     -14.425396      -392.5350
  10   2.0000     -14.417003      -392.3066
  11   2.0000     -14.403459      -391.9381
  12   2.0000     -14.398308      -391.7979
  13   2.0000     -10.383470      -282.5486
  14   2.0000     -10.383277      -282.5433
  15   2.0000     -10.380027      -282.4549
  16   2.0000     -10.365121      -282.0493
  17   2.0000     -10.354773      -281.7677
  18   2.0000     -10.348619      -281.6002
  19   2.0000     -10.347581      -281.5720
  20   2.0000     -10.345980      -281.5284
  21   2.0000     -10.344618      -281.4914
  22   2.0000     -10.341697      -281.4119
  23   2.0000     -10.337665      -281.3022
  24   2.0000     -10.337225      -281.2902
  25   2.0000     -10.331734      -281.1408
  26   2.0000     -10.329804      -281.0883
  27   2.0000     -10.327016      -281.0124
  28   2.0000     -10.326737      -281.0048
  29   2.0000     -10.319304      -280.8025
  30   2.0000     -10.319144      -280.7982
  31   2.0000     -10.317439      -280.7518
  32   2.0000     -10.317214      -280.7457
  33   2.0000     -10.317030      -280.7407
  34   2.0000     -10.316960      -280.7387
  35   2.0000     -10.306741      -280.4607
  36   2.0000     -10.306321      -280.4493
  37   2.0000     -10.304709      -280.4054
  38   2.0000     -10.304346      -280.3955
  39   2.0000     -10.301879      -280.3284
  40   2.0000     -10.299360      -280.2598
  41   2.0000     -10.298610      -280.2394
  42   2.0000     -10.298136      -280.2265
  43   2.0000     -10.297239      -280.2021
  44   2.0000     -10.295475      -280.1541
  45   2.0000     -10.294880      -280.1379
  46   2.0000     -10.292245      -280.0662
  47   2.0000     -10.289328      -279.9868
  48   2.0000     -10.282074      -279.7895
  49   2.0000     -10.281516      -279.7743
  50   2.0000     -10.272105      -279.5182
  51   2.0000     -10.271652      -279.5059
  52   2.0000     -10.271386      -279.4986
  53   2.0000     -10.270765      -279.4817
  54   2.0000      -8.075960      -219.7580
  55   2.0000      -8.075246      -219.7386
  56   2.0000      -6.044996      -164.4927
  57   2.0000      -6.044404      -164.4766
  58   2.0000      -6.040944      -164.3824
  59   2.0000      -6.040408      -164.3679
  60   2.0000      -6.038491      -164.3157
  61   2.0000      -6.037541      -164.2898
  62   2.0000      -1.143646       -31.1202
  63   2.0000      -1.137073       -30.9413
  64   2.0000      -1.135249       -30.8917
  65   2.0000      -1.123441       -30.5704
  66   2.0000      -1.118674       -30.4407
  67   2.0000      -1.088828       -29.6285
  68   2.0000      -1.073624       -29.2148
  69   2.0000      -1.073479       -29.2108
  70   2.0000      -1.070632       -29.1334
  71   2.0000      -1.065440       -28.9921
  72   2.0000      -1.053041       -28.6547
  73   2.0000      -1.006585       -27.3906
  74   2.0000      -1.005020       -27.3480
  75   2.0000      -0.944916       -25.7125
  76   2.0000      -0.939169       -25.5561
  77   2.0000      -0.931405       -25.3448
  78   2.0000      -0.927823       -25.2474
  79   2.0000      -0.918631       -24.9972
  80   2.0000      -0.897884       -24.4327
  81   2.0000      -0.881824       -23.9956
  82   2.0000      -0.873858       -23.7789
  83   2.0000      -0.871182       -23.7061
  84   2.0000      -0.861665       -23.4471
  85   2.0000      -0.858306       -23.3557
  86   2.0000      -0.852407       -23.1952
  87   2.0000      -0.846227       -23.0270
  88   2.0000      -0.842153       -22.9161
  89   2.0000      -0.829465       -22.5709
  90   2.0000      -0.804991       -21.9049
  91   2.0000      -0.789702       -21.4889
  92   2.0000      -0.783013       -21.3069
  93   2.0000      -0.769554       -20.9406
  94   2.0000      -0.766697       -20.8629
  95   2.0000      -0.756205       -20.5774
  96   2.0000      -0.748454       -20.3665
  97   2.0000      -0.731064       -19.8933
  98   2.0000      -0.721799       -19.6412
  99   2.0000      -0.718746       -19.5581
 100   2.0000      -0.711307       -19.3556
 101   2.0000      -0.708052       -19.2671
 102   2.0000      -0.706102       -19.2140
 103   2.0000      -0.691473       -18.8160
 104   2.0000      -0.663035       -18.0421
 105   2.0000      -0.659693       -17.9512
 106   2.0000      -0.654363       -17.8061
 107   2.0000      -0.650842       -17.7103
 108   2.0000      -0.640636       -17.4326
 109   2.0000      -0.639907       -17.4127
 110   2.0000      -0.636668       -17.3246
 111   2.0000      -0.633726       -17.2446
 112   2.0000      -0.623974       -16.9792
 113   2.0000      -0.617932       -16.8148
 114   2.0000      -0.612017       -16.6538
 115   2.0000      -0.607827       -16.5398
 116   2.0000      -0.596433       -16.2298
 117   2.0000      -0.591443       -16.0940
 118   2.0000      -0.583801       -15.8860
 119   2.0000      -0.580912       -15.8074
 120   2.0000      -0.580408       -15.7937
 121   2.0000      -0.574847       -15.6424
 122   2.0000      -0.573801       -15.6139
 123   2.0000      -0.559709       -15.2305
 124   2.0000      -0.558332       -15.1930
 125   2.0000      -0.554464       -15.0877
 126   2.0000      -0.545433       -14.8420
 127   2.0000      -0.542595       -14.7648
 128   2.0000      -0.540692       -14.7130
 129   2.0000      -0.540261       -14.7012
 130   2.0000      -0.539069       -14.6688
 131   2.0000      -0.537910       -14.6373
 132   2.0000      -0.534681       -14.5494
 133   2.0000      -0.524753       -14.2792
 134   2.0000      -0.523152       -14.2357
 135   2.0000      -0.521324       -14.1859
 136   2.0000      -0.518157       -14.0998
 137   2.0000      -0.516466       -14.0537
 138   2.0000      -0.515197       -14.0192
 139   2.0000      -0.514589       -14.0027
 140   2.0000      -0.510692       -13.8966
 141   2.0000      -0.507096       -13.7988
 142   2.0000      -0.506088       -13.7714
 143   2.0000      -0.503577       -13.7030
 144   2.0000      -0.493301       -13.4234
 145   2.0000      -0.491674       -13.3791
 146   2.0000      -0.487960       -13.2781
 147   2.0000      -0.483913       -13.1679
 148   2.0000      -0.482096       -13.1185
 149   2.0000      -0.481369       -13.0987
 150   2.0000      -0.478591       -13.0231
 151   2.0000      -0.477141       -12.9837
 152   2.0000      -0.474062       -12.8999
 153   2.0000      -0.472028       -12.8445
 154   2.0000      -0.469189       -12.7673
 155   2.0000      -0.466600       -12.6968
 156   2.0000      -0.466074       -12.6825
 157   2.0000      -0.465175       -12.6581
 158   2.0000      -0.463273       -12.6063
 159   2.0000      -0.462011       -12.5720
 160   2.0000      -0.459633       -12.5072
 161   2.0000      -0.455753       -12.4017
 162   2.0000      -0.452381       -12.3099
 163   2.0000      -0.447214       -12.1693
 164   2.0000      -0.444543       -12.0966
 165   2.0000      -0.438266       -11.9258
 166   2.0000      -0.437212       -11.8971
 167   2.0000      -0.434539       -11.8244
 168   2.0000      -0.431686       -11.7468
 169   2.0000      -0.404291       -11.0013
 170   2.0000      -0.392155       -10.6711
 171   2.0000      -0.368250       -10.0206
 172   2.0000      -0.364220        -9.9109
 173   2.0000      -0.358530        -9.7561
 174   2.0000      -0.357996        -9.7416
 175   2.0000      -0.354220        -9.6388
 176   2.0000      -0.348590        -9.4856
 177   2.0000      -0.348078        -9.4717
 178   2.0000      -0.347019        -9.4429
 179   2.0000      -0.344535        -9.3753
 180   2.0000      -0.342522        -9.3205
 181   2.0000      -0.340628        -9.2689
 182   2.0000      -0.340462        -9.2644
 183   2.0000      -0.338792        -9.2190
 184   2.0000      -0.338155        -9.2017
 185   2.0000      -0.328528        -8.9397
 186   2.0000      -0.325365        -8.8536
 187   2.0000      -0.324530        -8.8309
 188   2.0000      -0.322269        -8.7694
 189   2.0000      -0.294854        -8.0234
 190   2.0000      -0.284812        -7.7501
 191   2.0000      -0.238056        -6.4778
 192   0.0000      -0.122624        -3.3368
 193   0.0000      -0.113522        -3.0891
 194   0.0000      -0.089427        -2.4334
 195   0.0000      -0.057992        -1.5780
 196   0.0000      -0.043194        -1.1754

MULLIKEN ATOMIC CHARGES
-----------------------
   0 C :    0.050634
   1 N :   -0.023616
   2 C :    0.055316
   3 C :   -0.149989
   4 C :    0.213769
   5 O :   -0.121356
   6 C :   -0.016221
   7 C :   -0.014554
   8 N :   -0.049374
   9 C :    0.093911
  10 C :   -0.094702
  11 C :    0.051053
  12 C :   -0.084318
  13 S :    0.112670
  14 C :   -0.044010
  15 C :    0.020007
  16 C :   -0.014337
  17 C :    0.134963
  18 O :   -0.168337
  19 C :    0.008811
  20 C :   -0.033498
  21 C :    0.139918
  22 N :   -0.256369
  23 C :    0.097300
  24 C :    0.001982
  25 C :    0.166078
  26 O :   -0.208214
  27 C :   -0.068670
  28 C :   -0.070074
  29 C :    0.166026
  30 O :   -0.216711
  31 N :   -0.255649
  32 C :    0.096932
  33 C :    0.002046
  34 C :    0.136773
  35 C :   -0.022935
  36 C :    0.073406
  37 C :   -0.069423
  38 C :    0.019208
  39 C :    0.051514
  40 C :   -0.113246
  41 S :    0.181117
  42 C :    0.074596
  43 N :   -0.059145
  44 C :    0.052014
  45 C :   -0.030923
  46 C :    0.207395
  47 O :   -0.121068
  48 C :   -0.049291
  49 C :   -0.023523
  50 N :   -0.059648
  51 C :    0.086758
  52 C :   -0.089029
  53 C :   -0.109386
  54 H :    0.013604
  55 H :    0.016742
  56 H :    0.003915
  57 H :    0.015673
  58 H :    0.010842
  59 H :    0.021569
  60 H :   -0.019152
  61 H :    0.024628
  62 H :    0.046205
  63 H :    0.016277
  64 H :    0.027253
  65 H :    0.030727
  66 H :    0.047021
  67 H :    0.024115
  68 H :    0.031764
  69 H :    0.027533
  70 H :    0.016050
  71 H :   -0.028032
  72 H :    0.010745
  73 H :   -0.006351
  74 H :    0.014851
  75 H :    0.007126
  76 H :   -0.008137
  77 H :   -0.001551
Sum of atomic charges:    0.0000000

LOEWDIN ATOMIC CHARGES
----------------------
   0 C :    0.081535
   1 N :   -0.075531
   2 C :    0.046328
   3 C :   -0.052995
   4 C :    0.069511
   5 O :   -0.124949
   6 C :   -0.034783
   7 C :    0.036830
   8 N :   -0.090646
   9 C :    0.084464
  10 C :   -0.025678
  11 C :   -0.052900
  12 C :   -0.165089
  13 S :    0.439895
  14 C :   -0.143735
  15 C :   -0.096502
  16 C :    0.003729
  17 C :    0.107085
  18 O :   -0.121630
  19 C :    0.007124
  20 C :   -0.048502
  21 C :    0.073941
  22 N :    0.001357
  23 C :    0.036702
  24 C :   -0.060849
  25 C :    0.080341
  26 O :   -0.199194
  27 C :   -0.117031
  28 C :   -0.119458
  29 C :    0.080160
  30 O :   -0.205697
  31 N :    0.002279
  32 C :    0.036629
  33 C :   -0.060945
  34 C :    0.071894
  35 C :   -0.037340
  36 C :    0.005465
  37 C :   -0.152956
  38 C :   -0.044654
  39 C :    0.005106
  40 C :   -0.191908
  41 S :    0.481571
  42 C :    0.046693
  43 N :   -0.118322
  44 C :    0.040185
  45 C :   -0.024291
  46 C :    0.061947
  47 O :   -0.135139
  48 C :   -0.044944
  49 C :    0.018134
  50 N :   -0.100253
  51 C :    0.070060
  52 C :   -0.042097
  53 C :   -0.030403
  54 H :    0.022484
  55 H :    0.026475
  56 H :    0.037731
  57 H :    0.042519
  58 H :    0.006922
  59 H :    0.040501
  60 H :    0.022477
  61 H :    0.023541
  62 H :    0.038797
  63 H :    0.022004
  64 H :    0.032137
  65 H :    0.032975
  66 H :    0.039352
  67 H :    0.023085
  68 H :    0.033372
  69 H :    0.032174
  70 H :    0.021919
  71 H :    0.028736
  72 H :    0.037294
  73 H :    0.032664
  74 H :    0.045192
  75 H :    0.022425
  76 H :    0.033008
  77 H :    0.031670

  Mayer bond orders larger than 0.100000
B(  0-C ,  1-N ) :   1.7445 B(  0-C , 11-C ) :   1.0269 B(  0-C , 54-H ) :   0.9859
B(  1-N ,  2-C ) :   1.2619 B(  2-C ,  3-C ) :   1.0546 B(  2-C ,  7-C ) :   1.5003
B(  3-C ,  4-C ) :   0.9008 B(  3-C , 11-C ) :   1.6018 B(  4-C ,  5-O ) :   2.2331
B(  4-C ,  6-C ) :   0.9095 B(  6-C ,  7-C ) :   1.0504 B(  6-C , 10-C ) :   1.6428
B(  7-C ,  8-N ) :   1.2823 B(  8-N ,  9-C ) :   1.6903 B(  9-C , 10-C ) :   1.0411
B(  9-C , 55-H ) :   0.9885 B( 10-C , 56-H ) :   1.0106 B( 11-C , 12-C ) :   1.1099
B( 12-C , 13-S ) :   1.0954 B( 12-C , 16-C ) :   1.4853 B( 13-S , 14-C ) :   1.1239
B( 14-C , 15-C ) :   1.3742 B( 14-C , 19-C ) :   1.1864 B( 15-C , 16-C ) :   1.2352
B( 15-C , 17-C ) :   0.9700 B( 16-C , 57-H ) :   0.9921 B( 17-C , 18-O ) :   2.1883
B( 17-C , 58-H ) :   0.9658 B( 19-C , 20-C ) :   1.5669 B( 19-C , 59-H ) :   0.9465
B( 20-C , 21-C ) :   1.1832 B( 20-C , 60-H ) :   0.9606 B( 21-C , 22-N ) :   1.1578
B( 21-C , 28-C ) :   1.3242 B( 22-N , 23-C ) :   0.9440 B( 22-N , 25-C ) :   1.0627
B( 23-C , 24-C ) :   1.1207 B( 23-C , 61-H ) :   0.9500 B( 23-C , 62-H ) :   0.9283
B( 24-C , 63-H ) :   0.9687 B( 24-C , 64-H ) :   0.9679 B( 24-C , 65-H ) :   0.9636
B( 25-C , 26-O ) :   2.0249 B( 25-C , 27-C ) :   0.9859 B( 26-O , 72-H ) :   0.1154
B( 27-C , 28-C ) :   1.2672 B( 27-C , 34-C ) :   1.3258 B( 28-C , 29-C ) :   0.9940
B( 29-C , 30-O ) :   2.0091 B( 29-C , 31-N ) :   1.0714 B( 30-O , 59-H ) :   0.1030
B( 31-N , 32-C ) :   0.9437 B( 31-N , 34-C ) :   1.1513 B( 32-C , 33-C ) :   1.1205
B( 32-C , 66-H ) :   0.9279 B( 32-C , 67-H ) :   0.9500 B( 33-C , 68-H ) :   0.9636
B( 33-C , 69-H ) :   0.9679 B( 33-C , 70-H ) :   0.9687 B( 34-C , 35-C ) :   1.1849
B( 35-C , 36-C ) :   1.6022 B( 35-C , 71-H ) :   0.9595 B( 36-C , 37-C ) :   1.1406
B( 36-C , 72-H ) :   0.9364 B( 37-C , 38-C ) :   1.4018 B( 37-C , 41-S ) :   1.1593
B( 38-C , 39-C ) :   1.3230 B( 38-C , 73-H ) :   0.9941 B( 39-C , 40-C ) :   1.4132
B( 39-C , 74-H ) :   1.0060 B( 40-C , 41-S ) :   1.1276 B( 40-C , 42-C ) :   1.1397
B( 42-C , 43-N ) :   1.5876 B( 42-C , 44-C ) :   0.1162 B( 42-C , 53-C ) :   1.0491
B( 43-N , 44-C ) :   1.3850 B( 44-C , 45-C ) :   1.0302 B( 44-C , 49-C ) :   1.3872
B( 45-C , 46-C ) :   0.8635 B( 45-C , 53-C ) :   1.6487 B( 46-C , 47-O ) :   2.3241
B( 46-C , 48-C ) :   0.8907 B( 48-C , 49-C ) :   1.0494 B( 48-C , 52-C ) :   1.5980
B( 49-C , 50-N ) :   1.3321 B( 50-N , 51-C ) :   1.6380 B( 51-C , 52-C ) :   1.0925
B( 51-C , 75-H ) :   0.9896 B( 52-C , 76-H ) :   1.0089 B( 53-C , 77-H ) :   1.0037

-----------------------------------------------------------------------------
         ABSORPTION SPECTRUM VIA TRANSITION ELECTRIC DIPOLE MOMENTS
-----------------------------------------------------------------------------
State   Energy  Wavelength   fosc         T2         TX        TY        TZ
        (cm-1)    (nm)                  (au**2)     (au)      (au)      (au)
-----------------------------------------------------------------------------
   0   12033.8    831.0   1.617556613  44.25195   0.11889  -6.13286  -2.57408
   1   15310.0    653.2   0.033633500   0.72322  -0.17469   0.57213   0.60446
   2   18820.4    531.3   0.039381601   0.68887   0.21639   0.18231  -0.78026
   3   21690.3    461.0   0.025388498   0.38534  -0.15451  -0.58585   0.13507
   4   21853.3    457.6   0.000359547   0.00542  -0.06512  -0.02046  -0.02752
   5   22526.5    443.9   0.000476467   0.00696   0.07587   0.01496   0.03135
   6   22682.4    440.9   0.687234391   9.97450  -0.31628   2.37359   2.05926
   7   24995.0    400.1   0.016443877   0.21658  -0.13580   0.19552   0.39989
   8   25106.4    398.3   0.443111447   5.81037  -0.09393   2.04216   1.27716
   9   25453.4    392.9   0.178425275   2.30773   0.10862  -1.04113  -1.10091
  10   26116.1    382.9   0.000151677   0.00191  -0.03436  -0.01240  -0.02403
  11   26510.3    377.2   0.000272321   0.00338  -0.00978  -0.03012   0.04877
  12   26758.6    373.7   0.009458536   0.11637   0.00472   0.30398   0.15472
  13   26792.4    373.2   0.000184137   0.00226   0.04519   0.00889   0.01191
  14   27326.1    365.9   0.121701014   1.46619   0.14036  -0.85585  -0.84499
  15   27467.9    364.1   0.000185296   0.00222  -0.04039   0.02002   0.01372
  16   28173.5    354.9   0.002631114   0.03075   0.15787  -0.07034   0.02958
  17   28258.3    353.9   0.002588725   0.03016   0.16106   0.01698   0.06269
  18   28322.4    353.1   0.045769179   0.53201  -0.07522  -0.72481  -0.03177
  19   28443.9    351.6   0.001286996   0.01490  -0.04313   0.00307  -0.11413
  20   29248.3    341.9   0.042483777   0.47819  -0.06359   0.55177   0.41194
  21   30964.8    322.9   0.040990389   0.43580  -0.03941   0.45355   0.47806
  22   30980.0    322.8   0.000617972   0.00657  -0.01525   0.05688   0.05567
  23   31024.8    322.3   0.000550713   0.00584   0.01006   0.03808   0.06552
  24   31309.9    319.4   0.000011864   0.00012   0.00292   0.00230   0.01053
  25   31453.4    317.9   0.010379343   0.10864  -0.04423  -0.32174  -0.05628
  26   31690.4    315.6   0.003371976   0.03503  -0.00281   0.16962   0.07907
  27   31880.1    313.7   0.109374526   1.12946  -0.02466  -0.93582  -0.50308
  28   32595.2    306.8   0.251833859   2.54352   0.24341  -0.75901  -1.38137
  29   32692.2    305.9   0.033079715   0.33311   0.07898   0.57054   0.03693
  30   33505.6    298.5   0.076635653   0.75299  -0.17902   0.05421   0.84735
  31   33756.1    296.2   0.097659189   0.95244   0.00684   0.85202   0.47588
  32   34570.8    289.3   0.014287621   0.13606   0.01148  -0.23801  -0.28156
  33   34790.1    287.4   0.010404304   0.09845   0.02831   0.29788   0.09444
  34   35431.5    282.2   0.118736102   1.10324   0.13654  -0.48021  -0.92412
  35   36168.4    276.5   0.069373449   0.63145   0.11439   0.78522  -0.04238
  36   36446.5    274.4   0.099839609   0.90183  -0.18653  -0.20745   0.90774
  37   37200.3    268.8   0.022210889   0.19656   0.09146   0.09312  -0.42370
  38   37675.6    265.4   0.000043533   0.00038   0.01493   0.00410   0.01186
  39   37898.2    263.9   0.035825890   0.31121  -0.11121   0.21866   0.50103
  40   38027.6    263.0   0.003990223   0.03454   0.03970  -0.08149  -0.16226
  41   38429.4    260.2   0.011135200   0.09539  -0.06371  -0.10262   0.28426
  42   38724.4    258.2   0.000091793   0.00078   0.01283  -0.02006  -0.01461
  43   38817.2    257.6   0.019674238   0.16686   0.02241  -0.35960  -0.19247
  44   39276.7    254.6   0.000030291   0.00025  -0.00387  -0.00920  -0.01242
  45   39320.6    254.3   0.041955280   0.35127  -0.03747   0.47102   0.35778
  46   40047.2    249.7   0.039842936   0.32753   0.07948   0.55505  -0.11459
  47   40306.6    248.1   0.043597442   0.35609   0.13880  -0.27760  -0.50967

FINAL SINGLE POINT ENERGY     -3074.602343553829

DIPOLE MOMENT
-------------
                                X             Y             Z
Electronic contribution:     -3.04140     -10.32313       7.06909
Nuclear contribution   :      3.13478       9.53984      -7.51450
                        -----------------------------------------
Total Dipole Moment    :      0.09339      -0.78329      -0.44541
                        -----------------------------------------
Magnitude (a.u.)       :      0.90590
Magnitude (Debye)      :      2.30260

Rotational constants in cm-1:     0.005793     0.000336     0.000318
Rotational constants in MHz :   173.656268    10.058729     9.537919

                             ****ORCA TERMINATED NORMALLY****
TOTAL RUN TIME: 0 days 0 hours 5 minutes 41 seconds 965 msec
