                         Program Version 4.2.0 -  RELEASE  -
|  1> # ORCA input file
|  2> # SCF done       -153.161338053766          0.000629460745
|  3> ! CAM-B3LYP def2-SVP def2/J RIJCOSX Grid4 TightSCF
|  4> %maxcore 5000
|  5> %tddft
|  6>     Mode sTDDFT
|  7>     Ethresh 5.0
|  8>     maxcore 5000
|  9> end
| 10>
| 11> %pal
| 12>   nprocs 6
| 13>   end
| 14> * xyz 0 1
| 15>    C        0.97457         1.15961        -3.12818
| 16>    N        0.60470        -0.07758        -3.25782
| 17>    C        1.66891        -0.82158        -2.84039
| 18>    C        2.77688         0.05200        -2.40579
| 19>    C        3.92092        -0.76604        -1.96456
| 20>    O        4.99027        -0.40290        -1.52635
| 21>    C        3.44074        -2.14443        -2.18350
| 22>    C        2.05401        -2.12411        -2.71348
| 23>    N        1.60876        -3.39091        -2.92559
| 24>    C        2.60040        -4.16558        -2.58046
| 25>    C        3.78063        -3.45221        -2.10940
| 26>    C        2.33674         1.33672        -2.59997
| 27>    C        2.99969         2.59898        -2.38290
| 28>    C        2.38296         3.80632        -2.71310
| 29>    C        3.04519         5.00609        -2.52750
| 30>    N        2.31685         6.21964        -2.79787
| 31>    O        1.35163         6.14050        -3.52620
| 32>    O        2.69149         7.23643        -2.25190
| 33>    C        4.35607         5.06184        -2.02139
| 34>    C        4.94473         3.84409        -1.65853
| 35>    C        4.29125         2.64571        -1.83218
| 36>    C        5.09424         6.30095        -1.96772
| 37>    C        5.92904         6.65518        -0.96771
| 38>    C        6.63585         7.89040        -0.99891
| 39>    N        7.36481         8.39375         0.04989
| 40>    C        7.60878         7.75221         1.31916
| 41>    C        8.70065         6.69019         1.21551
| 42>    C        7.91605         9.65370        -0.24852
| 43>    O        8.58903        10.29320         0.53516
| 44>    C        7.48051         9.92398        -1.60129
| 45>    C        6.70295         8.82056        -2.03319
| 46>    C        6.27448         9.08094        -3.38938
| 47>    O        5.62545         8.42464        -4.17907
| 48>    N        6.81502        10.34286        -3.68738
| 49>    C        6.54269        10.98534        -4.95081
| 50>    C        5.42148        12.01455        -4.83135
| 51>    C        7.52854        10.86131        -2.63258
| 52>    C        8.16784        12.12757        -2.66874
| 53>    C        8.84720        12.63796        -1.61305
| 54>    C        9.47644        13.92440        -1.59437
| 55>    C        9.67704        14.74969        -2.71873
| 56>    N       10.19658        15.94703        -2.63591
| 57>    C       10.57336        16.38435        -1.43302
| 58>    N       10.49663        15.66139        -0.30787
| 59>    C        9.96049        14.46948        -0.38821
| 60>    C       11.09906        17.72219        -1.31849
| 61>    N       11.21373        18.53884        -2.35132
| 62>    C       11.71095        19.68490        -1.84805
| 63>    C       11.92540        19.56985        -0.37852
| 64>    C       12.46294        20.83729         0.16395
| 65>    O       12.75468        21.10838         1.30362
| 66>    C       12.54894        21.68629        -1.04103
| 67>    C       12.08248        20.94229        -2.23839
| 68>    N       12.16110        21.72614        -3.34427
| 69>    C       12.62971        22.87101        -2.92077
| 70>    C       12.89451        22.91636        -1.49301
| 71>    C       11.53492        18.31966        -0.05192
| 72>    H        0.29503         1.94893        -3.39738
| 73>    H        2.50710        -5.23534        -2.65376
| 74>    H        4.69484        -3.90902        -1.78568
| 75>    H        1.37987         3.84049        -3.10897
| 76>    H        5.95246         3.85078        -1.27263
| 77>    H        4.78258         1.72500        -1.55549
| 78>    H        4.96423         6.97910        -2.80243
| 79>    H        6.02690         6.03247        -0.08969
| 80>    H        6.67723         7.32072         1.69530
| 81>    H        7.93149         8.54294         2.00200
| 82>    H        8.42611         5.91398         0.50472
| 83>    H        8.86305         6.23333         2.18760
| 84>    H        9.63117         7.14581         0.88618
| 85>    H        6.23515        10.18830        -5.63349
| 86>    H        7.45809        11.44288        -5.33600
| 87>    H        4.50897        11.52883        -4.49506
| 88>    H        5.23569        12.47016        -5.79983
| 89>    H        5.67942        12.79588        -4.11969
| 90>    H        8.07906        12.69636        -3.58263
| 91>    H        8.90742        12.06509        -0.69632
| 92>    H        9.41961        14.42462        -3.71859
| 93>    H        9.89419        13.90752         0.53554
| 94>    H       12.79004        23.68121        -3.61131
| 95>    H       13.27866        23.76190        -0.95761
| 96>    H       11.51640        17.81247         0.89126
| 97> *
| 98>
| 99>                          ****END OF INPUT****

CARTESIAN COORDINATES (ANGSTROEM)
---------------------------------
  C      0.974570    1.159610   -3.128180
  N      0.604700   -0.077580   -3.257820
  C      1.668910   -0.821580   -2.840390
  C      2.776880    0.052000   -2.405790
  C      3.920920   -0.766040   -1.964560
  O      4.990270   -0.402900   -1.526350
  C      3.440740   -2.144430   -2.183500
  C      2.054010   -2.124110   -2.713480
  N      1.608760   -3.390910   -2.925590
  C      2.600400   -4.165580   -2.580460
  C      3.780630   -3.452210   -2.109400
  C      2.336740    1.336720   -2.599970
  C      2.999690    2.598980   -2.382900
  C      2.382960    3.806320   -2.713100
  C      3.045190    5.006090   -2.527500
  N      2.316850    6.219640   -2.797870
  O      1.351630    6.140500   -3.526200
  O      2.691490    7.236430   -2.251900
  C      4.356070    5.061840   -2.021390
  C      4.944730    3.844090   -1.658530
  C      4.291250    2.645710   -1.832180
  C      5.094240    6.300950   -1.967720
  C      5.929040    6.655180   -0.967710
  C      6.635850    7.890400   -0.998910
  N      7.364810    8.393750    0.049890
  C      7.608780    7.752210    1.319160
  C      8.700650    6.690190    1.215510
  C      7.916050    9.653700   -0.248520
  O      8.589030   10.293200    0.535160
  C      7.480510    9.923980   -1.601290
  C      6.702950    8.820560   -2.033190
  C      6.274480    9.080940   -3.389380
  O      5.625450    8.424640   -4.179070
  N      6.815020   10.342860   -3.687380
  C      6.542690   10.985340   -4.950810
  C      5.421480   12.014550   -4.831350
  C      7.528540   10.861310   -2.632580
  C      8.167840   12.127570   -2.668740
  C      8.847200   12.637960   -1.613050
  C      9.476440   13.924400   -1.594370
  C      9.677040   14.749690   -2.718730
  N     10.196580   15.947030   -2.635910
  C     10.573360   16.384350   -1.433020
  N     10.496630   15.661390   -0.307870
  C      9.960490   14.469480   -0.388210
  C     11.099060   17.722190   -1.318490
  N     11.213730   18.538840   -2.351320
  C     11.710950   19.684900   -1.848050
  C     11.925400   19.569850   -0.378520
  C     12.462940   20.837290    0.163950
  O     12.754680   21.108380    1.303620
  C     12.548940   21.686290   -1.041030
  C     12.082480   20.942290   -2.238390
  N     12.161100   21.726140   -3.344270
  C     12.629710   22.871010   -2.920770
  C     12.894510   22.916360   -1.493010
  C     11.534920   18.319660   -0.051920
  H      0.295030    1.948930   -3.397380
  H      2.507100   -5.235340   -2.653760
  H      4.694840   -3.909020   -1.785680
  H      1.379870    3.840490   -3.108970
  H      5.952460    3.850780   -1.272630
  H      4.782580    1.725000   -1.555490
  H      4.964230    6.979100   -2.802430
  H      6.026900    6.032470   -0.089690
  H      6.677230    7.320720    1.695300
  H      7.931490    8.542940    2.002000
  H      8.426110    5.913980    0.504720
  H      8.863050    6.233330    2.187600
  H      9.631170    7.145810    0.886180
  H      6.235150   10.188300   -5.633490
  H      7.458090   11.442880   -5.336000
  H      4.508970   11.528830   -4.495060
  H      5.235690   12.470160   -5.799830
  H      5.679420   12.795880   -4.119690
  H      8.079060   12.696360   -3.582630
  H      8.907420   12.065090   -0.696320
  H      9.419610   14.424620   -3.718590
  H      9.894190   13.907520    0.535540
  H     12.790040   23.681210   -3.611310
  H     13.278660   23.761900   -0.957610
  H     11.516400   17.812470    0.891260

 Total Charge           Charge          ....    0
 Multiplicity           Mult            ....    1
 Number of Electrons    NEL             ....  388
 Basis Dimension        Dim             ....  923

ORBITAL ENERGIES
----------------

  NO   OCC          E(Eh)            E(eV)
   0   2.0000     -19.250211      -523.8249
   1   2.0000     -19.248295      -523.7727
   2   2.0000     -19.230133      -523.2785
   3   2.0000     -19.204016      -522.5678
   4   2.0000     -19.198346      -522.4136
   5   2.0000     -19.192955      -522.2668
   6   2.0000     -14.654557      -398.7708
   7   2.0000     -14.459297      -393.4575
   8   2.0000     -14.457112      -393.3980
   9   2.0000     -14.427981      -392.6053
  10   2.0000     -14.427436      -392.5905
  11   2.0000     -14.422655      -392.4604
  12   2.0000     -14.422639      -392.4600
  13   2.0000     -14.405330      -391.9890
  14   2.0000     -14.403851      -391.9487
  15   2.0000     -10.390005      -282.7264
  16   2.0000     -10.380163      -282.4586
  17   2.0000     -10.376024      -282.3460
  18   2.0000     -10.365670      -282.0642
  19   2.0000     -10.353426      -281.7310
  20   2.0000     -10.348418      -281.5948
  21   2.0000     -10.346876      -281.5528
  22   2.0000     -10.344043      -281.4757
  23   2.0000     -10.343248      -281.4541
  24   2.0000     -10.342981      -281.4468
  25   2.0000     -10.342789      -281.4416
  26   2.0000     -10.340405      -281.3767
  27   2.0000     -10.333524      -281.1895
  28   2.0000     -10.332830      -281.1706
  29   2.0000     -10.332079      -281.1502
  30   2.0000     -10.326430      -280.9965
  31   2.0000     -10.325256      -280.9645
  32   2.0000     -10.324268      -280.9376
  33   2.0000     -10.321561      -280.8639
  34   2.0000     -10.320553      -280.8365
  35   2.0000     -10.315124      -280.6888
  36   2.0000     -10.314180      -280.6631
  37   2.0000     -10.311729      -280.5964
  38   2.0000     -10.311679      -280.5951
  39   2.0000     -10.308663      -280.5130
  40   2.0000     -10.308521      -280.5091
  41   2.0000     -10.306177      -280.4453
  42   2.0000     -10.305950      -280.4391
  43   2.0000     -10.301759      -280.3251
  44   2.0000     -10.300935      -280.3027
  45   2.0000     -10.299548      -280.2649
  46   2.0000     -10.299321      -280.2588
  47   2.0000     -10.298565      -280.2382
  48   2.0000     -10.296494      -280.1818
  49   2.0000     -10.288070      -279.9526
  50   2.0000     -10.287562      -279.9388
  51   2.0000     -10.286718      -279.9158
  52   2.0000     -10.286179      -279.9012
  53   2.0000     -10.270037      -279.4619
  54   2.0000     -10.266169      -279.3567
  55   2.0000     -10.265858      -279.3482
  56   2.0000     -10.263150      -279.2745
  57   2.0000      -1.330422       -36.2026
  58   2.0000      -1.149573       -31.2815
  59   2.0000      -1.144914       -31.1547
  60   2.0000      -1.138941       -30.9922
  61   2.0000      -1.131571       -30.7916
  62   2.0000      -1.119960       -30.4757
  63   2.0000      -1.099389       -29.9159
  64   2.0000      -1.093687       -29.7607
  65   2.0000      -1.075792       -29.2738
  66   2.0000      -1.071737       -29.1635
  67   2.0000      -1.068956       -29.0878
  68   2.0000      -1.060500       -28.8577
  69   2.0000      -1.054948       -28.7066
  70   2.0000      -1.000796       -27.2330
  71   2.0000      -0.992096       -26.9963
  72   2.0000      -0.950795       -25.8724
  73   2.0000      -0.941249       -25.6127
  74   2.0000      -0.935835       -25.4654
  75   2.0000      -0.930896       -25.3310
  76   2.0000      -0.926531       -25.2122
  77   2.0000      -0.912987       -24.8436
  78   2.0000      -0.891931       -24.2707
  79   2.0000      -0.885865       -24.1056
  80   2.0000      -0.877186       -23.8694
  81   2.0000      -0.874541       -23.7975
  82   2.0000      -0.859310       -23.3830
  83   2.0000      -0.857139       -23.3239
  84   2.0000      -0.854322       -23.2473
  85   2.0000      -0.824996       -22.4493
  86   2.0000      -0.821049       -22.3419
  87   2.0000      -0.811265       -22.0756
  88   2.0000      -0.787360       -21.4252
  89   2.0000      -0.784265       -21.3409
  90   2.0000      -0.773762       -21.0551
  91   2.0000      -0.765088       -20.8191
  92   2.0000      -0.764291       -20.7974
  93   2.0000      -0.763615       -20.7790
  94   2.0000      -0.746399       -20.3105
  95   2.0000      -0.740533       -20.1509
  96   2.0000      -0.734317       -19.9818
  97   2.0000      -0.717793       -19.5321
  98   2.0000      -0.713704       -19.4209
  99   2.0000      -0.709428       -19.3045
 100   2.0000      -0.694472       -18.8975
 101   2.0000      -0.689811       -18.7707
 102   2.0000      -0.674556       -18.3556
 103   2.0000      -0.665188       -18.1007
 104   2.0000      -0.661046       -17.9880
 105   2.0000      -0.655158       -17.8278
 106   2.0000      -0.648877       -17.6568
 107   2.0000      -0.647250       -17.6126
 108   2.0000      -0.642151       -17.4738
 109   2.0000      -0.635165       -17.2837
 110   2.0000      -0.634393       -17.2627
 111   2.0000      -0.628634       -17.1060
 112   2.0000      -0.617036       -16.7904
 113   2.0000      -0.609969       -16.5981
 114   2.0000      -0.608667       -16.5627
 115   2.0000      -0.603885       -16.4325
 116   2.0000      -0.600434       -16.3386
 117   2.0000      -0.593058       -16.1379
 118   2.0000      -0.587077       -15.9752
 119   2.0000      -0.585563       -15.9340
 120   2.0000      -0.579573       -15.7710
 121   2.0000      -0.577285       -15.7087
 122   2.0000      -0.570049       -15.5118
 123   2.0000      -0.569530       -15.4977
 124   2.0000      -0.560056       -15.2399
 125   2.0000      -0.558818       -15.2062
 126   2.0000      -0.556723       -15.1492
 127   2.0000      -0.550849       -14.9894
 128   2.0000      -0.547183       -14.8896
 129   2.0000      -0.546620       -14.8743
 130   2.0000      -0.539623       -14.6839
 131   2.0000      -0.536313       -14.5938
 132   2.0000      -0.535234       -14.5645
 133   2.0000      -0.533990       -14.5306
 134   2.0000      -0.530371       -14.4321
 135   2.0000      -0.529838       -14.4176
 136   2.0000      -0.527836       -14.3631
 137   2.0000      -0.524182       -14.2637
 138   2.0000      -0.521492       -14.1905
 139   2.0000      -0.520327       -14.1588
 140   2.0000      -0.515097       -14.0165
 141   2.0000      -0.509830       -13.8732
 142   2.0000      -0.507106       -13.7990
 143   2.0000      -0.505412       -13.7530
 144   2.0000      -0.504019       -13.7151
 145   2.0000      -0.500130       -13.6092
 146   2.0000      -0.494490       -13.4558
 147   2.0000      -0.490693       -13.3524
 148   2.0000      -0.486523       -13.2390
 149   2.0000      -0.482955       -13.1419
 150   2.0000      -0.479069       -13.0361
 151   2.0000      -0.478042       -13.0082
 152   2.0000      -0.475717       -12.9449
 153   2.0000      -0.472560       -12.8590
 154   2.0000      -0.470898       -12.8138
 155   2.0000      -0.468308       -12.7433
 156   2.0000      -0.464552       -12.6411
 157   2.0000      -0.464042       -12.6272
 158   2.0000      -0.460458       -12.5297
 159   2.0000      -0.458258       -12.4698
 160   2.0000      -0.455397       -12.3920
 161   2.0000      -0.453958       -12.3528
 162   2.0000      -0.450238       -12.2516
 163   2.0000      -0.445273       -12.1165
 164   2.0000      -0.440565       -11.9884
 165   2.0000      -0.431188       -11.7332
 166   2.0000      -0.428694       -11.6654
 167   2.0000      -0.408004       -11.1023
 168   2.0000      -0.405766       -11.0414
 169   2.0000      -0.402018       -10.9395
 170   2.0000      -0.392362       -10.6767
 171   2.0000      -0.391472       -10.6525
 172   2.0000      -0.386548       -10.5185
 173   2.0000      -0.376357       -10.2412
 174   2.0000      -0.372153       -10.1268
 175   2.0000      -0.369835       -10.0637
 176   2.0000      -0.359469        -9.7816
 177   2.0000      -0.355357        -9.6698
 178   2.0000      -0.354928        -9.6581
 179   2.0000      -0.353294        -9.6136
 180   2.0000      -0.350761        -9.5447
 181   2.0000      -0.349629        -9.5139
 182   2.0000      -0.348137        -9.4733
 183   2.0000      -0.346357        -9.4249
 184   2.0000      -0.342429        -9.3180
 185   2.0000      -0.336561        -9.1583
 186   2.0000      -0.336324        -9.1518
 187   2.0000      -0.329087        -8.9549
 188   2.0000      -0.328187        -8.9304
 189   2.0000      -0.321486        -8.7481
 190   2.0000      -0.319826        -8.7029
 191   2.0000      -0.308383        -8.3915
 192   2.0000      -0.305709        -8.3188
 193   2.0000      -0.242809        -6.6072
 194   0.0000      -0.121667        -3.3107
 195   0.0000      -0.114491        -3.1155
 196   0.0000      -0.082938        -2.2569
 197   0.0000      -0.063113        -1.7174
 198   0.0000      -0.052752        -1.4355

MULLIKEN ATOMIC CHARGES
-----------------------
   0 C :    0.058262
   1 N :   -0.021316
   2 C :    0.047717
   3 C :   -0.147380
   4 C :    0.222215
   5 O :   -0.136151
   6 C :   -0.009716
   7 C :   -0.001493
   8 N :   -0.046492
   9 C :    0.092967
  10 C :   -0.092063
  11 C :    0.009593
  12 C :    0.098182
  13 C :   -0.088612
  14 C :    0.163019
  15 N :    0.245295
  16 O :   -0.230694
  17 O :   -0.221292
  18 C :    0.040589
  19 C :   -0.021186
  20 C :    0.011077
  21 C :    0.026822
  22 C :   -0.035355
  23 C :    0.129624
  24 N :   -0.257775
  25 C :    0.099298
  26 C :    0.008267
  27 C :    0.162329
  28 O :   -0.209517
  29 C :   -0.059800
  30 C :   -0.066322
  31 C :    0.168512
  32 O :   -0.210763
  33 N :   -0.256242
  34 C :    0.096740
  35 C :    0.006904
  36 C :    0.127442
  37 C :    0.001614
  38 C :    0.006280
  39 C :    0.028923
  40 C :    0.031324
  41 N :    0.010571
  42 C :   -0.151120
  43 N :   -0.030146
  44 C :    0.037392
  45 C :    0.080252
  46 N :   -0.010999
  47 C :    0.050037
  48 C :   -0.023301
  49 C :    0.209856
  50 O :   -0.114965
  51 C :   -0.041312
  52 C :   -0.006507
  53 N :   -0.052117
  54 C :    0.091028
  55 C :   -0.091491
  56 C :   -0.095855
  57 H :    0.019281
  58 H :    0.020521
  59 H :    0.002809
  60 H :   -0.001915
  61 H :   -0.009723
  62 H :   -0.003743
  63 H :    0.044975
  64 H :   -0.021678
  65 H :    0.025692
  66 H :    0.043756
  67 H :    0.011858
  68 H :    0.024404
  69 H :    0.029628
  70 H :    0.044989
  71 H :    0.022879
  72 H :    0.034622
  73 H :    0.025030
  74 H :    0.014790
  75 H :   -0.023382
  76 H :    0.017616
  77 H :    0.010782
  78 H :    0.023370
  79 H :    0.011638
  80 H :   -0.003174
  81 H :    0.002827
Sum of atomic charges:   -0.0000000

LOEWDIN ATOMIC CHARGES
----------------------
   0 C :    0.090881
   1 N :   -0.074083
   2 C :    0.047649
   3 C :   -0.052425
   4 C :    0.073054
   5 O :   -0.132551
   6 C :   -0.035332
   7 C :    0.037648
   8 N :   -0.087620
   9 C :    0.085377
  10 C :   -0.024068
  11 C :   -0.028141
  12 C :   -0.028428
  13 C :    0.011252
  14 C :   -0.022972
  15 N :    0.286143
  16 O :   -0.199478
  17 O :   -0.180500
  18 C :    0.000228
  19 C :   -0.004087
  20 C :    0.025832
  21 C :    0.042237
  22 C :   -0.048678
  23 C :    0.081783
  24 N :    0.001161
  25 C :    0.037086
  26 C :   -0.060293
  27 C :    0.082037
  28 O :   -0.199373
  29 C :   -0.117503
  30 C :   -0.122734
  31 C :    0.080833
  32 O :   -0.197937
  33 N :    0.002085
  34 C :    0.036175
  35 C :   -0.060083
  36 C :    0.071609
  37 C :   -0.032733
  38 C :    0.022449
  39 C :   -0.059440
  40 C :    0.056455
  41 N :   -0.038952
  42 C :    0.007688
  43 N :   -0.064335
  44 C :    0.055855
  45 C :    0.047997
  46 N :   -0.075812
  47 C :    0.040676
  48 C :   -0.038111
  49 C :    0.063391
  50 O :   -0.129659
  51 C :   -0.038213
  52 C :    0.034391
  53 N :   -0.095285
  54 C :    0.080081
  55 C :   -0.036453
  56 C :   -0.006224
  57 H :    0.028595
  58 H :    0.027727
  59 H :    0.037565
  60 H :    0.037644
  61 H :    0.036443
  62 H :    0.035256
  63 H :    0.038435
  64 H :    0.028296
  65 H :    0.024331
  66 H :    0.037936
  67 H :    0.020598
  68 H :    0.031222
  69 H :    0.032561
  70 H :    0.038815
  71 H :    0.022288
  72 H :    0.034675
  73 H :    0.031594
  74 H :    0.021539
  75 H :    0.028504
  76 H :    0.038995
  77 H :    0.025653
  78 H :    0.033535
  79 H :    0.024374
  80 H :    0.034757
  81 H :    0.038111

  Mayer bond orders larger than 0.100000
B(  0-C ,  1-N ) :   1.7329 B(  0-C , 11-C ) :   1.0378 B(  0-C , 57-H ) :   0.9851
B(  1-N ,  2-C ) :   1.2741 B(  2-C ,  3-C ) :   1.0478 B(  2-C ,  7-C ) :   1.5011
B(  3-C ,  4-C ) :   0.8939 B(  3-C , 11-C ) :   1.6055 B(  4-C ,  5-O ) :   2.1878
B(  4-C ,  6-C ) :   0.9275 B(  5-O , 62-H ) :   0.1053 B(  6-C ,  7-C ) :   1.0499
B(  6-C , 10-C ) :   1.6338 B(  7-C ,  8-N ) :   1.2853 B(  8-N ,  9-C ) :   1.6866
B(  9-C , 10-C ) :   1.0455 B(  9-C , 58-H ) :   0.9882 B( 10-C , 59-H ) :   1.0113
B( 11-C , 12-C ) :   1.0323 B( 12-C , 13-C ) :   1.2864 B( 12-C , 20-C ) :   1.3283
B( 13-C , 14-C ) :   1.3851 B( 13-C , 60-H ) :   0.9877 B( 14-C , 15-N ) :   0.8793
B( 14-C , 18-C ) :   1.3466 B( 15-N , 16-O ) :   1.5503 B( 15-N , 17-O ) :   1.5341
B( 16-O , 17-O ) :   0.2671 B( 18-C , 19-C ) :   1.3436 B( 18-C , 21-C ) :   1.0403
B( 19-C , 20-C ) :   1.3954 B( 19-C , 61-H ) :   0.9930 B( 20-C , 62-H ) :   0.9711
B( 21-C , 22-C ) :   1.6919 B( 21-C , 63-H ) :   0.9067 B( 22-C , 23-C ) :   1.1439
B( 22-C , 64-H ) :   0.9670 B( 23-C , 24-N ) :   1.1646 B( 23-C , 30-C ) :   1.3481
B( 24-N , 25-C ) :   0.9447 B( 24-N , 27-C ) :   1.0564 B( 25-C , 26-C ) :   1.1209
B( 25-C , 65-H ) :   0.9504 B( 25-C , 66-H ) :   0.9287 B( 26-C , 67-H ) :   0.9688
B( 26-C , 68-H ) :   0.9678 B( 26-C , 69-H ) :   0.9635 B( 27-C , 28-O ) :   2.0289
B( 27-C , 29-C ) :   0.9850 B( 28-O , 76-H ) :   0.1106 B( 29-C , 30-C ) :   1.2497
B( 29-C , 36-C ) :   1.3494 B( 30-C , 31-C ) :   0.9888 B( 31-C , 32-O ) :   2.0215
B( 31-C , 33-N ) :   1.0591 B( 32-O , 63-H ) :   0.1153 B( 33-N , 34-C ) :   0.9449
B( 33-N , 36-C ) :   1.1618 B( 34-C , 35-C ) :   1.1211 B( 34-C , 70-H ) :   0.9267
B( 34-C , 71-H ) :   0.9498 B( 35-C , 72-H ) :   0.9632 B( 35-C , 73-H ) :   0.9676
B( 35-C , 74-H ) :   0.9681 B( 36-C , 37-C ) :   1.1544 B( 37-C , 38-C ) :   1.6256
B( 37-C , 75-H ) :   0.9548 B( 38-C , 39-C ) :   1.0775 B( 38-C , 76-H ) :   0.9603
B( 39-C , 40-C ) :   1.2787 B( 39-C , 44-C ) :   1.2966 B( 40-C , 41-N ) :   1.5943
B( 40-C , 77-H ) :   0.9844 B( 41-N , 42-C ) :   1.5793 B( 42-C , 43-N ) :   1.6259
B( 42-C , 45-C ) :   0.9481 B( 43-N , 44-C ) :   1.5690 B( 43-N , 45-C ) :  -0.1242
B( 44-C , 78-H ) :   0.9880 B( 45-C , 46-N ) :   1.6606 B( 45-C , 47-C ) :   0.1211
B( 45-C , 56-C ) :   1.0812 B( 46-N , 47-C ) :   1.3259 B( 47-C , 48-C ) :   1.0224
B( 47-C , 52-C ) :   1.4456 B( 48-C , 49-C ) :   0.8688 B( 48-C , 56-C ) :   1.5965
B( 49-C , 50-O ) :   2.3307 B( 49-C , 51-C ) :   0.8811 B( 51-C , 52-C ) :   1.0354
B( 51-C , 55-C ) :   1.6315 B( 52-C , 53-N ) :   1.3024 B( 53-N , 54-C ) :   1.6707
B( 54-C , 55-C ) :   1.0632 B( 54-C , 79-H ) :   0.9888 B( 55-C , 80-H ) :   1.0084
B( 56-C , 81-H ) :   1.0229

-----------------------------------------------------------------------------
         ABSORPTION SPECTRUM VIA TRANSITION ELECTRIC DIPOLE MOMENTS
-----------------------------------------------------------------------------
State   Energy  Wavelength   fosc         T2         TX        TY        TZ
        (cm-1)    (nm)                  (au**2)     (au)      (au)      (au)
-----------------------------------------------------------------------------
   0   14461.5    691.5   1.061073336  24.15505   1.87095   4.51781  -0.49392
   1   16669.6    599.9   0.042300128   0.83540   0.42942   0.76794  -0.24752
   2   20676.4    483.6   0.021603052   0.34397   0.25142   0.09463  -0.52134
   3   20926.9    477.9   0.000325043   0.00511   0.05450  -0.00849   0.04551
   4   22626.0    442.0   0.092453448   1.34521   0.02503   1.15402  -0.11323
   5   22984.0    435.1   0.001600392   0.02292  -0.02707  -0.09770   0.11245
   6   23964.5    417.3   0.000161015   0.00221   0.00960   0.03473  -0.03023
   7   24394.5    409.9   0.023292246   0.31434  -0.37046  -0.35939  -0.21894
   8   24721.9    404.5   0.052076684   0.69348   0.06585  -0.62400   0.54752
   9   25904.7    386.0   0.000058241   0.00074  -0.01315   0.02178  -0.00963
  10   26409.0    378.7   0.083098034   1.03589  -0.35201  -0.95401  -0.04296
  11   26728.9    374.1   0.057612797   0.70960   0.20313   0.81601   0.04970
  12   26750.7    373.8   0.004674561   0.05753   0.03454   0.23627   0.02264
  13   27159.4    368.2   0.006684134   0.08102   0.02251   0.26540  -0.10039
  14   27283.0    366.5   0.002351211   0.02837   0.14921  -0.05468  -0.05584
  15   27506.3    363.6   0.140315662   1.67938  -0.38778  -1.20565  -0.27460
  16   28005.2    357.1   1.086528966  12.77259   1.43668   3.27154   0.07475
  17   28503.2    350.8   0.002251828   0.02601   0.05047   0.01163  -0.15273
  18   28975.9    345.1   0.015514066   0.17626   0.14496   0.33580   0.20614
  19   30532.6    327.5   0.482226529   5.19951   0.98735   1.96870   0.59067
  20   31107.1    321.5   0.001467666   0.01553  -0.08485  -0.08098   0.04213
  21   31533.8    317.1   0.000060762   0.00063   0.00375   0.02246   0.01075
  22   31685.3    315.6   0.000256233   0.00266  -0.00522  -0.05124   0.00301
  23   32502.6    307.7   0.032548997   0.32968   0.04802   0.57216   0.00203
  24   32735.4    305.5   0.018390136   0.18495   0.39158   0.02777   0.17562
  25   33253.2    300.7   0.044438350   0.43995  -0.19581   0.53792  -0.33503
  26   33420.7    299.2   0.272416377   2.68345  -0.08111   1.62947   0.14732
  27   33732.6    296.4   0.008069419   0.07875   0.15105  -0.22566   0.07083
  28   34295.8    291.6   0.018296016   0.17563  -0.14011   0.36895  -0.14098
  29   34541.3    289.5   0.013324199   0.12699  -0.07911  -0.31304  -0.15079
  30   34597.7    289.0   0.059549727   0.56664   0.18810   0.72887   0.00331
  31   35043.5    285.4   0.001502714   0.01412   0.10157   0.06157  -0.00316
  32   35253.2    283.7   0.039113499   0.36526  -0.33403   0.17013  -0.47407
  33   35822.6    279.2   0.067177613   0.61737   0.22809   0.74938   0.06141
  34   35928.4    278.3   0.008375919   0.07675  -0.13369  -0.23073  -0.07510
  35   36117.5    276.9   0.014272337   0.13009  -0.06286   0.06575  -0.34903
  36   36287.5    275.6   0.034087041   0.30925  -0.01535  -0.55585  -0.00637
  37   36739.5    272.2   0.155231853   1.39099   0.37968  -1.11601   0.03690
  38   36934.5    270.7   0.121478990   1.08279   0.24589  -1.00882   0.06791
  39   37708.5    265.2   0.343983170   3.00313  -0.99644  -1.00056  -1.00455
  40   38195.9    261.8   0.027310319   0.23539   0.32738   0.31647   0.16750
  41   38424.3    260.3   0.003861467   0.03308   0.06459  -0.13179  -0.10745
  42   38949.9    256.7   0.005406543   0.04570  -0.15558   0.12302   0.07974
  43   39169.8    255.3   0.004388038   0.03688  -0.18830   0.00469  -0.03741
  44   39243.2    254.8   0.008091000   0.06788  -0.18515  -0.17338  -0.05946
  45   39481.2    253.3   0.000730918   0.00609   0.04807   0.06077  -0.00950
  46   40023.0    249.9   0.047720467   0.39253  -0.20860  -0.58232  -0.09959
  47   40083.5    249.5   0.002713099   0.02228   0.00275   0.12544  -0.08087
  48   40186.1    248.8   0.013342894   0.10931   0.10933  -0.31191   0.00828

FINAL SINGLE POINT ENERGY     -2556.230393419385

DIPOLE MOMENT
-------------
                                X             Y             Z
Electronic contribution:     -3.38255       3.48921      -1.43168
Nuclear contribution   :      3.51813      -6.40415       1.81842
                        -----------------------------------------
Total Dipole Moment    :      0.13558      -2.91494       0.38674
                        -----------------------------------------
Magnitude (a.u.)       :      2.94361
Magnitude (Debye)      :      7.48206

Rotational constants in cm-1:     0.006133     0.000313     0.000304
Rotational constants in MHz :   183.867966     9.378611     9.103747

                             ****ORCA TERMINATED NORMALLY****
TOTAL RUN TIME: 0 days 0 hours 6 minutes 33 seconds 794 msec
