                         Program Version 4.2.0 -  RELEASE  -
|  1> # ORCA input file
|  2> # SCF done       -129.442981470813          0.000413285289
|  3> ! CAM-B3LYP def2-SVP def2/J RIJCOSX Grid4 TightSCF
|  4> %maxcore 5000
|  5> %tddft
|  6>     Mode sTDDFT
|  7>     Ethresh 5.0
|  8>     maxcore 5000
|  9> end
| 10>
| 11> %pal
| 12>   nprocs 6
| 13>   end
| 14> * xyz 0 1
| 15>    C       -1.10681         2.62303        -1.22195
| 16>    N       -2.24297         2.74942        -1.83393
| 17>    C       -2.02626         3.65829        -2.83070
| 18>    C       -0.64169         4.16396        -2.77881
| 19>    C       -0.39043         5.09922        -3.88532
| 20>    O        0.61189         5.74266        -4.11852
| 21>    C       -1.65579         5.05519        -4.63513
| 22>    C       -2.63667         4.18000        -3.93295
| 23>    N       -3.78973         4.09883        -4.64598
| 24>    C       -3.58120         4.80711        -5.72123
| 25>    C       -2.25883         5.41897        -5.78937
| 26>    C       -0.03366         3.46564        -1.76655
| 27>    C        1.33747         3.45804        -1.38203
| 28>    S        2.02268         2.22583        -0.36882
| 29>    C        3.60997         2.85083        -0.61407
| 30>    C        4.74063         2.18229         0.00309
| 31>    O        4.63772         1.22057         0.72405
| 32>    C        3.60763         3.95074        -1.47469
| 33>    C        2.30458         4.30987        -1.86696
| 34>    C        4.78927         4.61803        -1.94934
| 35>    N        5.85414         4.78889        -1.19723
| 36>    C        6.71773         5.53127        -1.92688
| 37>    C        6.14753         5.85393        -3.24508
| 38>    C        7.08992         6.67399        -4.03042
| 39>    O        6.93145         7.15575        -5.12928
| 40>    C        8.25102         6.77448        -3.12862
| 41>    C        7.97431         6.06916        -1.85234
| 42>    N        9.04650         6.14518        -1.02548
| 43>    C        9.94580         6.82370        -1.68924
| 44>    C        9.51860         7.24004        -3.01566
| 45>    C        4.93003         5.23149        -3.29759
| 46>    C        4.04025         5.15572        -4.41502
| 47>    S        2.86003         3.89564        -4.62837
| 48>    C        2.29370         4.60607        -6.08391
| 49>    C        1.09152         4.06121        -6.67695
| 50>    O        0.40831         3.22556        -6.12589
| 51>    C        3.03790         5.73893        -6.43609
| 52>    C        4.03022         6.02827        -5.47711
| 53>    C        2.83451         6.52235        -7.61552
| 54>    N        1.81812         6.33259        -8.44739
| 55>    C        1.98084         7.23158        -9.43503
| 56>    C        3.19748         8.05267        -9.20618
| 57>    C        3.37580         9.02731       -10.30782
| 58>    O        4.24417         9.85264       -10.45015
| 59>    C        2.22456         8.72921       -11.18133
| 60>    C        1.40182         7.63695       -10.60624
| 61>    N        0.34656         7.36028       -11.41335
| 62>    C        0.46490         8.18237       -12.42494
| 63>    C        1.61570         9.06296       -12.34598
| 64>    C        3.73316         7.59897        -8.05376
| 65>    H       -0.99636         1.95290        -0.38665
| 66>    H       -4.35207         4.90732        -6.46578
| 67>    H       -1.89181         6.01786        -6.59940
| 68>    H        5.71176         2.64550        -0.23764
| 69>    H        2.06013         5.18224        -2.44651
| 70>    H       10.90419         7.03405        -1.24732
| 71>    H       10.11103         7.79608        -3.71476
| 72>    H        0.82539         4.50487        -7.64795
| 73>    H        4.70757         6.86098        -5.53884
| 74>    H       -0.25659         8.16741       -13.22364
| 75>    H        1.88591         9.80176       -13.07398
| 76>    H        4.62432         7.91296        -7.54832
| 77> *
| 78>
| 79>                          ****END OF INPUT****

CARTESIAN COORDINATES (ANGSTROEM)
---------------------------------
  C     -1.106810    2.623030   -1.221950
  N     -2.242970    2.749420   -1.833930
  C     -2.026260    3.658290   -2.830700
  C     -0.641690    4.163960   -2.778810
  C     -0.390430    5.099220   -3.885320
  O      0.611890    5.742660   -4.118520
  C     -1.655790    5.055190   -4.635130
  C     -2.636670    4.180000   -3.932950
  N     -3.789730    4.098830   -4.645980
  C     -3.581200    4.807110   -5.721230
  C     -2.258830    5.418970   -5.789370
  C     -0.033660    3.465640   -1.766550
  C      1.337470    3.458040   -1.382030
  S      2.022680    2.225830   -0.368820
  C      3.609970    2.850830   -0.614070
  C      4.740630    2.182290    0.003090
  O      4.637720    1.220570    0.724050
  C      3.607630    3.950740   -1.474690
  C      2.304580    4.309870   -1.866960
  C      4.789270    4.618030   -1.949340
  N      5.854140    4.788890   -1.197230
  C      6.717730    5.531270   -1.926880
  C      6.147530    5.853930   -3.245080
  C      7.089920    6.673990   -4.030420
  O      6.931450    7.155750   -5.129280
  C      8.251020    6.774480   -3.128620
  C      7.974310    6.069160   -1.852340
  N      9.046500    6.145180   -1.025480
  C      9.945800    6.823700   -1.689240
  C      9.518600    7.240040   -3.015660
  C      4.930030    5.231490   -3.297590
  C      4.040250    5.155720   -4.415020
  S      2.860030    3.895640   -4.628370
  C      2.293700    4.606070   -6.083910
  C      1.091520    4.061210   -6.676950
  O      0.408310    3.225560   -6.125890
  C      3.037900    5.738930   -6.436090
  C      4.030220    6.028270   -5.477110
  C      2.834510    6.522350   -7.615520
  N      1.818120    6.332590   -8.447390
  C      1.980840    7.231580   -9.435030
  C      3.197480    8.052670   -9.206180
  C      3.375800    9.027310  -10.307820
  O      4.244170    9.852640  -10.450150
  C      2.224560    8.729210  -11.181330
  C      1.401820    7.636950  -10.606240
  N      0.346560    7.360280  -11.413350
  C      0.464900    8.182370  -12.424940
  C      1.615700    9.062960  -12.345980
  C      3.733160    7.598970   -8.053760
  H     -0.996360    1.952900   -0.386650
  H     -4.352070    4.907320   -6.465780
  H     -1.891810    6.017860   -6.599400
  H      5.711760    2.645500   -0.237640
  H      2.060130    5.182240   -2.446510
  H     10.904190    7.034050   -1.247320
  H     10.111030    7.796080   -3.714760
  H      0.825390    4.504870   -7.647950
  H      4.707570    6.860980   -5.538840
  H     -0.256590    8.167410  -13.223640
  H      1.885910    9.801760  -13.073980
  H      4.624320    7.912960   -7.548320

 Total Charge           Charge          ....    0
 Multiplicity           Mult            ....    1
 Number of Electrons    NEL             ....  348
 Basis Dimension        Dim             ....  768

ORBITAL ENERGIES
----------------

  NO   OCC          E(Eh)            E(eV)
   0   2.0000     -88.989633     -2421.5310
   1   2.0000     -88.985653     -2421.4227
   2   2.0000     -19.230855      -523.2982
   3   2.0000     -19.229275      -523.2552
   4   2.0000     -19.219446      -522.9877
   5   2.0000     -19.217698      -522.9401
   6   2.0000     -19.214018      -522.8400
   7   2.0000     -14.432127      -392.7181
   8   2.0000     -14.426246      -392.5581
   9   2.0000     -14.421796      -392.4370
  10   2.0000     -14.418299      -392.3419
  11   2.0000     -14.418190      -392.3389
  12   2.0000     -14.411960      -392.1694
  13   2.0000     -10.390701      -282.7453
  14   2.0000     -10.387396      -282.6554
  15   2.0000     -10.375688      -282.3368
  16   2.0000     -10.367773      -282.1214
  17   2.0000     -10.362725      -281.9841
  18   2.0000     -10.359852      -281.9059
  19   2.0000     -10.354263      -281.7538
  20   2.0000     -10.350136      -281.6415
  21   2.0000     -10.346605      -281.5454
  22   2.0000     -10.343158      -281.4516
  23   2.0000     -10.342613      -281.4368
  24   2.0000     -10.341675      -281.4113
  25   2.0000     -10.341064      -281.3947
  26   2.0000     -10.340105      -281.3686
  27   2.0000     -10.338676      -281.3297
  28   2.0000     -10.334611      -281.2191
  29   2.0000     -10.333037      -281.1762
  30   2.0000     -10.331887      -281.1449
  31   2.0000     -10.331496      -281.1343
  32   2.0000     -10.330943      -281.1192
  33   2.0000     -10.327921      -281.0370
  34   2.0000     -10.322670      -280.8941
  35   2.0000     -10.322511      -280.8898
  36   2.0000     -10.320248      -280.8282
  37   2.0000     -10.311830      -280.5992
  38   2.0000     -10.310492      -280.5628
  39   2.0000     -10.307120      -280.4710
  40   2.0000     -10.305495      -280.4268
  41   2.0000     -10.305199      -280.4187
  42   2.0000     -10.303010      -280.3592
  43   2.0000     -10.302441      -280.3437
  44   2.0000     -10.302105      -280.3345
  45   2.0000     -10.301955      -280.3304
  46   2.0000     -10.300600      -280.2936
  47   2.0000     -10.299534      -280.2646
  48   2.0000     -10.294968      -280.1403
  49   2.0000     -10.294353      -280.1236
  50   2.0000      -8.084803      -219.9987
  51   2.0000      -8.079950      -219.8666
  52   2.0000      -6.053798      -164.7322
  53   2.0000      -6.049562      -164.6169
  54   2.0000      -6.048997      -164.6016
  55   2.0000      -6.047570      -164.5627
  56   2.0000      -6.044615      -164.4823
  57   2.0000      -6.042847      -164.4342
  58   2.0000      -1.145800       -31.1788
  59   2.0000      -1.143770       -31.1236
  60   2.0000      -1.131851       -30.7992
  61   2.0000      -1.130633       -30.7661
  62   2.0000      -1.130172       -30.7536
  63   2.0000      -1.099216       -29.9112
  64   2.0000      -1.090885       -29.6845
  65   2.0000      -1.085786       -29.5457
  66   2.0000      -1.077827       -29.3292
  67   2.0000      -1.072424       -29.1821
  68   2.0000      -1.066265       -29.0145
  69   2.0000      -1.015783       -27.6409
  70   2.0000      -1.009559       -27.4715
  71   2.0000      -0.954915       -25.9845
  72   2.0000      -0.948025       -25.7971
  73   2.0000      -0.941627       -25.6230
  74   2.0000      -0.919250       -25.0141
  75   2.0000      -0.910560       -24.7776
  76   2.0000      -0.887035       -24.1375
  77   2.0000      -0.884210       -24.0606
  78   2.0000      -0.873115       -23.7587
  79   2.0000      -0.869892       -23.6710
  80   2.0000      -0.868755       -23.6400
  81   2.0000      -0.855969       -23.2921
  82   2.0000      -0.845939       -23.0192
  83   2.0000      -0.844623       -22.9833
  84   2.0000      -0.794454       -21.6182
  85   2.0000      -0.785557       -21.3761
  86   2.0000      -0.777928       -21.1685
  87   2.0000      -0.775963       -21.1150
  88   2.0000      -0.774104       -21.0644
  89   2.0000      -0.761570       -20.7234
  90   2.0000      -0.747438       -20.3388
  91   2.0000      -0.737649       -20.0724
  92   2.0000      -0.720790       -19.6137
  93   2.0000      -0.716111       -19.4864
  94   2.0000      -0.712108       -19.3774
  95   2.0000      -0.687473       -18.7071
  96   2.0000      -0.679201       -18.4820
  97   2.0000      -0.664434       -18.0802
  98   2.0000      -0.657556       -17.8930
  99   2.0000      -0.652317       -17.7504
 100   2.0000      -0.648894       -17.6573
 101   2.0000      -0.644449       -17.5364
 102   2.0000      -0.636576       -17.3221
 103   2.0000      -0.633802       -17.2466
 104   2.0000      -0.631965       -17.1966
 105   2.0000      -0.623278       -16.9603
 106   2.0000      -0.622979       -16.9521
 107   2.0000      -0.615561       -16.7503
 108   2.0000      -0.587573       -15.9887
 109   2.0000      -0.586116       -15.9490
 110   2.0000      -0.582353       -15.8466
 111   2.0000      -0.574580       -15.6351
 112   2.0000      -0.570833       -15.5332
 113   2.0000      -0.566716       -15.4211
 114   2.0000      -0.565880       -15.3984
 115   2.0000      -0.560940       -15.2640
 116   2.0000      -0.558914       -15.2088
 117   2.0000      -0.555297       -15.1104
 118   2.0000      -0.551121       -14.9968
 119   2.0000      -0.546306       -14.8657
 120   2.0000      -0.541225       -14.7275
 121   2.0000      -0.536995       -14.6124
 122   2.0000      -0.533064       -14.5054
 123   2.0000      -0.531527       -14.4636
 124   2.0000      -0.528146       -14.3716
 125   2.0000      -0.526183       -14.3182
 126   2.0000      -0.520871       -14.1736
 127   2.0000      -0.519296       -14.1308
 128   2.0000      -0.516385       -14.0516
 129   2.0000      -0.511708       -13.9243
 130   2.0000      -0.510449       -13.8900
 131   2.0000      -0.508653       -13.8412
 132   2.0000      -0.501147       -13.6369
 133   2.0000      -0.500342       -13.6150
 134   2.0000      -0.494526       -13.4567
 135   2.0000      -0.493048       -13.4165
 136   2.0000      -0.491328       -13.3697
 137   2.0000      -0.490947       -13.3593
 138   2.0000      -0.483145       -13.1470
 139   2.0000      -0.480650       -13.0791
 140   2.0000      -0.478148       -13.0111
 141   2.0000      -0.477178       -12.9847
 142   2.0000      -0.475287       -12.9332
 143   2.0000      -0.473173       -12.8757
 144   2.0000      -0.470572       -12.8049
 145   2.0000      -0.468780       -12.7562
 146   2.0000      -0.464373       -12.6362
 147   2.0000      -0.456795       -12.4300
 148   2.0000      -0.447909       -12.1882
 149   2.0000      -0.441214       -12.0060
 150   2.0000      -0.394072       -10.7232
 151   2.0000      -0.390179       -10.6173
 152   2.0000      -0.380358       -10.3501
 153   2.0000      -0.378202       -10.2914
 154   2.0000      -0.374397       -10.1879
 155   2.0000      -0.370049       -10.0695
 156   2.0000      -0.368306       -10.0221
 157   2.0000      -0.366082        -9.9616
 158   2.0000      -0.365731        -9.9520
 159   2.0000      -0.360387        -9.8066
 160   2.0000      -0.352831        -9.6010
 161   2.0000      -0.349932        -9.5221
 162   2.0000      -0.349412        -9.5080
 163   2.0000      -0.348953        -9.4955
 164   2.0000      -0.345504        -9.4017
 165   2.0000      -0.344207        -9.3664
 166   2.0000      -0.338330        -9.2064
 167   2.0000      -0.337778        -9.1914
 168   2.0000      -0.336210        -9.1488
 169   2.0000      -0.330080        -8.9819
 170   2.0000      -0.326915        -8.8958
 171   2.0000      -0.318304        -8.6615
 172   2.0000      -0.296501        -8.0682
 173   2.0000      -0.293844        -7.9959
 174   0.0000      -0.127587        -3.4718
 175   0.0000      -0.119744        -3.2584
 176   0.0000      -0.115868        -3.1529
 177   0.0000      -0.073118        -1.9896
 178   0.0000      -0.070936        -1.9303

MULLIKEN ATOMIC CHARGES
-----------------------
   0 C :    0.051140
   1 N :   -0.021272
   2 C :    0.052562
   3 C :   -0.130839
   4 C :    0.228075
   5 O :   -0.159749
   6 C :    0.003300
   7 C :   -0.001608
   8 N :   -0.047385
   9 C :    0.097408
  10 C :   -0.087248
  11 C :    0.033748
  12 C :   -0.107245
  13 S :    0.213178
  14 C :   -0.190455
  15 C :    0.180092
  16 O :   -0.183926
  17 C :    0.113832
  18 C :   -0.044193
  19 C :   -0.020877
  20 N :   -0.027705
  21 C :    0.073075
  22 C :   -0.170936
  23 C :    0.218877
  24 O :   -0.133710
  25 C :   -0.019016
  26 C :   -0.022963
  27 N :   -0.043169
  28 C :    0.095110
  29 C :   -0.088376
  30 C :    0.106668
  31 C :   -0.143605
  32 S :    0.212442
  33 C :   -0.209786
  34 C :    0.188307
  35 O :   -0.212599
  36 C :    0.202960
  37 C :   -0.021123
  38 C :    0.008495
  39 N :   -0.059674
  40 C :    0.045270
  41 C :   -0.027921
  42 C :    0.213571
  43 O :   -0.110559
  44 C :   -0.041322
  45 C :   -0.013143
  46 N :   -0.055685
  47 C :    0.089859
  48 C :   -0.090921
  49 C :   -0.104633
  50 H :    0.019586
  51 H :    0.021884
  52 H :    0.007768
  53 H :    0.011092
  54 H :    0.032581
  55 H :    0.017398
  56 H :    0.003601
  57 H :    0.021726
  58 H :    0.006921
  59 H :    0.013302
  60 H :   -0.001588
  61 H :    0.009403
Sum of atomic charges:   -0.0000000

LOEWDIN ATOMIC CHARGES
----------------------
   0 C :    0.083089
   1 N :   -0.071139
   2 C :    0.045306
   3 C :   -0.038765
   4 C :    0.075295
   5 O :   -0.146413
   6 C :   -0.029668
   7 C :    0.049456
   8 N :   -0.087585
   9 C :    0.094076
  10 C :   -0.019071
  11 C :   -0.056539
  12 C :   -0.163764
  13 S :    0.513930
  14 C :   -0.194469
  15 C :    0.083587
  16 O :   -0.134582
  17 C :   -0.067482
  18 C :   -0.043018
  19 C :    0.074520
  20 N :   -0.087748
  21 C :    0.043765
  22 C :   -0.039206
  23 C :    0.071877
  24 O :   -0.134723
  25 C :   -0.039107
  26 C :    0.032492
  27 N :   -0.089142
  28 C :    0.084371
  29 C :   -0.024756
  30 C :   -0.038981
  31 C :   -0.165629
  32 S :    0.558181
  33 C :   -0.185868
  34 C :    0.089021
  35 O :   -0.152436
  36 C :   -0.055391
  37 C :   -0.011906
  38 C :    0.077365
  39 N :   -0.111419
  40 C :    0.040699
  41 C :   -0.026833
  42 C :    0.064040
  43 O :   -0.124872
  44 C :   -0.039936
  45 C :    0.025443
  46 N :   -0.099209
  47 C :    0.078429
  48 C :   -0.035924
  49 C :   -0.015625
  50 H :    0.026300
  51 H :    0.028563
  52 H :    0.038899
  53 H :    0.009614
  54 H :    0.031598
  55 H :    0.027288
  56 H :    0.037943
  57 H :    0.010468
  58 H :    0.033959
  59 H :    0.024860
  60 H :    0.035607
  61 H :    0.041162

  Mayer bond orders larger than 0.100000
B(  0-C ,  1-N ) :   1.7358 B(  0-C , 11-C ) :   1.0386 B(  0-C , 50-H ) :   0.9900
B(  1-N ,  2-C ) :   1.2818 B(  2-C ,  3-C ) :   1.0396 B(  2-C ,  7-C ) :   1.5000
B(  3-C ,  4-C ) :   0.9064 B(  3-C , 11-C ) :   1.6151 B(  4-C ,  5-O ) :   2.1495
B(  4-C ,  6-C ) :   0.9264 B(  6-C ,  7-C ) :   1.0431 B(  6-C , 10-C ) :   1.6430
B(  7-C ,  8-N ) :   1.2930 B(  8-N ,  9-C ) :   1.6849 B(  9-C , 10-C ) :   1.0452
B(  9-C , 51-H ) :   0.9879 B( 10-C , 52-H ) :   1.0087 B( 11-C , 12-C ) :   1.0802
B( 12-C , 13-S ) :   1.1498 B( 12-C , 18-C ) :   1.5059 B( 13-S , 14-C ) :   1.1506
B( 14-C , 15-C ) :   1.0120 B( 14-C , 17-C ) :   1.4146 B( 15-C , 16-O ) :   2.1634
B( 15-C , 53-H ) :   0.9476 B( 17-C , 18-C ) :   1.2534 B( 17-C , 19-C ) :   1.0028
B( 18-C , 54-H ) :   0.9773 B( 19-C , 20-N ) :   1.6321 B( 19-C , 21-C ) :   0.1196
B( 19-C , 30-C ) :   1.0420 B( 20-N , 21-C ) :   1.3179 B( 21-C , 22-C ) :   1.0448
B( 21-C , 26-C ) :   1.4483 B( 22-C , 23-C ) :   0.8851 B( 22-C , 30-C ) :   1.6107
B( 23-C , 24-O ) :   2.2252 B( 23-C , 25-C ) :   0.9160 B( 25-C , 26-C ) :   1.0546
B( 25-C , 29-C ) :   1.6228 B( 26-C , 27-N ) :   1.3028 B( 27-N , 28-C ) :   1.6685
B( 28-C , 29-C ) :   1.0553 B( 28-C , 55-H ) :   0.9890 B( 29-C , 56-H ) :   1.0111
B( 30-C , 31-C ) :   1.0396 B( 31-C , 32-S ) :   1.1438 B( 31-C , 37-C ) :   1.5028
B( 32-S , 33-C ) :   1.1755 B( 33-C , 34-C ) :   1.0184 B( 33-C , 36-C ) :   1.3573
B( 34-C , 35-O ) :   2.0933 B( 34-C , 57-H ) :   0.9437 B( 36-C , 37-C ) :   1.2570
B( 36-C , 38-C ) :   1.0190 B( 37-C , 58-H ) :   0.9822 B( 38-C , 39-N ) :   1.5917
B( 38-C , 40-C ) :   0.1227 B( 38-C , 49-C ) :   1.0731 B( 39-N , 40-C ) :   1.3575
B( 40-C , 41-C ) :   1.0255 B( 40-C , 45-C ) :   1.4267 B( 41-C , 42-C ) :   0.8601
B( 41-C , 49-C ) :   1.6246 B( 42-C , 43-O ) :   2.3332 B( 42-C , 44-C ) :   0.8836
B( 44-C , 45-C ) :   1.0399 B( 44-C , 48-C ) :   1.6196 B( 45-C , 46-N ) :   1.3095
B( 46-N , 47-C ) :   1.6582 B( 47-C , 48-C ) :   1.0734 B( 47-C , 59-H ) :   0.9889
B( 48-C , 60-H ) :   1.0096 B( 49-C , 61-H ) :   1.0094

-----------------------------------------------------------------------------
         ABSORPTION SPECTRUM VIA TRANSITION ELECTRIC DIPOLE MOMENTS
-----------------------------------------------------------------------------
State   Energy  Wavelength   fosc         T2         TX        TY        TZ
        (cm-1)    (nm)                  (au**2)     (au)      (au)      (au)
-----------------------------------------------------------------------------
   0   19039.3    525.2   0.110285865   1.90697   1.08966   0.10085   0.84228
   1   20458.6    488.8   0.136863736   2.20236   1.38731   0.33945   0.40312
   2   20859.8    479.4   0.038012600   0.59992   0.63281  -0.34862   0.27917
   3   21364.1    468.1   0.025943307   0.39978   0.11851  -0.45299   0.42489
   4   22157.8    451.3   0.210788629   3.13182   0.24639  -0.97851   1.45383
   5   22370.1    447.0   0.012898262   0.18982   0.07144   0.24465  -0.35336
   6   22752.9    439.5   0.102260127   1.47960  -0.11266   0.72455  -0.97053
   7   23469.6    426.1   0.014868726   0.20857   0.14577   0.23245  -0.36508
   8   23817.0    419.9   0.015494428   0.21417   0.35927   0.13341   0.25943
   9   23948.5    417.6   0.148041143   2.03507   1.17753   0.75368  -0.28367
  10   24658.6    405.5   0.076766703   1.02490   0.01816   0.36231  -0.94515
  11   24871.6    402.1   0.125725317   1.66416   1.13892   0.59789  -0.09765
  12   25669.9    389.6   0.048540076   0.62252  -0.54636  -0.49290   0.28471
  13   26071.4    383.6   0.023458687   0.29622   0.10011  -0.30288   0.44098
  14   26404.7    378.7   0.013814950   0.17224   0.28813   0.24445  -0.17167
  15   26572.9    376.3   0.022371542   0.27716   0.26299  -0.20996   0.40486
  16   26932.8    371.3   0.006415835   0.07842   0.17065  -0.02359   0.22078
  17   26972.9    370.7   0.020624405   0.25173   0.19248  -0.31298   0.34164
  18   27062.4    369.5   0.014513472   0.17656  -0.23455   0.04287  -0.34598
  19   27391.5    365.1   0.329185789   3.95641   1.54503  -0.11934   1.24702
  20   27869.3    358.8   0.169689910   2.00450   1.33964  -0.03219   0.45697
  21   28255.3    353.9   0.321517262   3.74611   0.02599  -0.92615   1.69932
  22   28501.9    350.9   0.061352113   0.70865   0.13657  -0.00713   0.83063
  23   28737.7    348.0   0.052633166   0.60295  -0.36649   0.10420  -0.67659
  24   29016.1    344.6   0.014824265   0.16819  -0.23515  -0.24917   0.22541
  25   29372.7    340.5   0.029468843   0.33029   0.10511   0.46305  -0.32377
  26   29732.1    336.3   0.466466505   5.16500  -2.05726  -0.19513  -0.94583
  27   30210.3    331.0   0.090476488   0.98595   0.12686   0.89877  -0.40257
  28   30531.0    327.5   0.271088367   2.92311  -1.34235   0.32429  -1.00799
  29   31056.0    322.0   0.005093322   0.05399   0.03076  -0.10802   0.20342
  30   31099.1    321.6   0.005078127   0.05376   0.08268  -0.09543   0.19445
  31   31305.9    319.4   0.038113192   0.40080   0.50778  -0.02070   0.37752
  32   31621.8    316.2   0.181241813   1.88689   0.95492  -0.22108   0.96236
  33   31702.9    315.4   0.000129307   0.00134   0.01164  -0.02195   0.02694
  34   32038.1    312.1   0.033933062   0.34868   0.51231   0.27907  -0.09132
  35   32373.3    308.9   0.134406655   1.36681   0.39850  -0.64944   0.88670
  36   32579.2    306.9   0.089960070   0.90904   0.85342   0.38142  -0.18770
  37   33092.8    302.2   0.019135528   0.19036   0.22553   0.24011  -0.28609
  38   33196.5    301.2   0.100489463   0.99656   0.73405  -0.16190   0.65690
  39   33402.9    299.4   0.022791730   0.22463   0.27673   0.38474   0.00487
  40   33574.4    297.8   0.025329416   0.24837  -0.38360   0.09062  -0.30497
  41   34063.9    293.6   0.124977792   1.20785   0.76184  -0.40801   0.67896
  42   34167.5    292.7   0.009150819   0.08817   0.05940  -0.21717   0.19360
  43   34428.4    290.5   0.004191749   0.04008   0.02229   0.14197  -0.13939
  44   34883.8    286.7   0.011688998   0.11031   0.30620   0.12235   0.03986
  45   35180.6    284.2   0.019075295   0.17850  -0.39276  -0.05438  -0.14590
  46   35338.9    283.0   0.039198685   0.36517   0.54594   0.13441  -0.22149
  47   35581.8    281.0   0.050032780   0.46292   0.10853  -0.38443   0.55077
  48   36016.7    277.6   0.013560114   0.12395   0.14750   0.02625   0.31859
  49   36060.8    277.3   0.036732767   0.33535  -0.51147  -0.26795   0.04406
  50   36388.3    274.8   0.045361084   0.41039   0.54697   0.27413   0.18992
  51   36467.3    274.2   0.014480085   0.13072  -0.32796  -0.07328  -0.13340
  52   36525.8    273.8   0.025563511   0.23041  -0.42060  -0.13798  -0.18565
  53   36565.8    273.5   0.056196267   0.50595   0.61447   0.13441   0.33213
  54   36766.8    272.0   0.097559213   0.87355   0.85412   0.20733   0.31786
  55   36833.6    271.5   0.013359796   0.11941  -0.30872  -0.13783  -0.07143
  56   36880.7    271.1   0.003004641   0.02682   0.13349   0.09220  -0.02235
  57   37174.3    269.0   0.022644289   0.20054  -0.26604   0.22403  -0.28208
  58   37315.9    268.0   0.108152892   0.95416  -0.08849   0.79248  -0.56418
  59   37360.1    267.7   0.060417920   0.53239   0.58369  -0.10541   0.42496
  60   37546.2    266.3   0.156646855   1.37351   1.05626   0.50585  -0.04415
  61   37992.4    263.2   0.068702437   0.59532  -0.67711  -0.26180   0.26135
  62   38365.5    260.7   0.019420393   0.16665   0.31314   0.25358  -0.06546
  63   38610.5    259.0   0.009759395   0.08321   0.14131   0.11611  -0.22308
  64   38718.9    258.3   0.019455150   0.16542   0.15907   0.29250  -0.23358
  65   38773.7    257.9   0.031707777   0.26922  -0.23644  -0.38179   0.25990
  66   38960.5    256.7   0.060779741   0.51358   0.44022   0.48025  -0.29858
  67   39123.2    255.6   0.054939657   0.46230   0.23718   0.55131  -0.31954
  68   39179.3    255.2   0.005376635   0.04518  -0.17174   0.09947  -0.07610
  69   39317.1    254.3   0.001997826   0.01673   0.10787   0.01877  -0.06885
  70   40032.7    249.8   0.009956937   0.08188   0.25471  -0.07887   0.10385
  71   40141.6    249.1   0.010666351   0.08748   0.10624  -0.05448   0.27060

FINAL SINGLE POINT ENERGY     -2915.054235391688

DIPOLE MOMENT
-------------
                                X             Y             Z
Electronic contribution:     -0.52370      -7.20571      10.24158
Nuclear contribution   :      1.07674       8.56780     -11.12200
                        -----------------------------------------
Total Dipole Moment    :      0.55304       1.36209      -0.88042
                        -----------------------------------------
Magnitude (a.u.)       :      1.71356
Magnitude (Debye)      :      4.35553

Rotational constants in cm-1:     0.002076     0.001522     0.000915
Rotational constants in MHz :    62.246274    45.623892    27.417337

                             ****ORCA TERMINATED NORMALLY****
TOTAL RUN TIME: 0 days 0 hours 4 minutes 58 seconds 478 msec
