                         Program Version 4.2.0 -  RELEASE  -
|  1> # ORCA input file
|  2> # SCF done       -131.275269950042          0.000701808133
|  3> ! CAM-B3LYP def2-SVP def2/J RIJCOSX Grid4 TightSCF
|  4> %maxcore 5000
|  5> %tddft
|  6>     Mode sTDDFT
|  7>     Ethresh 5.0
|  8>     maxcore 5000
|  9> end
| 10>
| 11> %pal
| 12>   nprocs 6
| 13>   end
| 14> * xyz 0 1
| 15>    C        4.01691        -0.56874         0.98672
| 16>    N        3.17997        -1.55445         1.08470
| 17>    C        1.94138        -0.99741         0.96954
| 18>    C        2.04356         0.46565         0.77497
| 19>    C        0.69365         1.04978         0.65393
| 20>    O        0.37715         2.20393         0.47356
| 21>    C       -0.18679        -0.12447         0.80426
| 22>    C        0.62660        -1.35351         0.98824
| 23>    N       -0.18136        -2.43863         1.13247
| 24>    C       -1.39680        -1.97355         1.05862
| 25>    C       -1.47544        -0.53137         0.85595
| 26>    C        3.38462         0.75069         0.79272
| 27>    C        4.05780         2.02347         0.65924
| 28>    C        3.30760         3.18660         0.44184
| 29>    C        3.92506         4.40940         0.31205
| 30>    F        3.15287         5.49365         0.12111
| 31>    C        5.31158         4.56650         0.39977
| 32>    C        6.06165         3.41600         0.62265
| 33>    C        5.44760         2.18617         0.74170
| 34>    F        6.25227         1.12718         0.94291
| 35>    C        5.94694         5.88399         0.27537
| 36>    C        5.55888         6.78379        -0.71407
| 37>    C        6.15914         8.02256        -0.80394
| 38>    F        5.77042         8.83961        -1.79911
| 39>    C        7.16620         8.43423         0.07197
| 40>    C        7.55669         7.53233         1.05939
| 41>    C        6.95703         6.29346         1.14830
| 42>    F        7.34846         5.47486         2.14102
| 43>    C        7.78744         9.75970        -0.03408
| 44>    C        7.02201        10.89945        -0.26591
| 45>    C        7.61598        12.14243        -0.35241
| 46>    F        6.81041        13.19474        -0.55667
| 47>    C        8.99914        12.32048        -0.21739
| 48>    C        9.76703        11.16986         0.00982
| 49>    C        9.17092         9.93534         0.09839
| 50>    F        9.95551         8.86092         0.29427
| 51>    C        9.67899        13.59132        -0.29031
| 52>    N       10.98220        13.64886        -0.05102
| 53>    C       11.32460        14.94212        -0.18980
| 54>    C       10.14038        15.76229        -0.55545
| 55>    C       10.52383        17.18472        -0.70376
| 56>    O        9.83046        18.12598        -1.00221
| 57>    C       11.96689        17.15593        -0.39246
| 58>    C       12.40754        15.77004        -0.09126
| 59>    N       13.73266        15.74535         0.20246
| 60>    C       14.12707        16.98836         0.10906
| 61>    C       13.07558        17.92284        -0.25614
| 62>    C        9.10144        14.90125        -0.61124
| 63>    H        5.07292        -0.75848         1.04537
| 64>    H       -2.24059        -2.63639         1.14451
| 65>    H       -2.38083         0.03609         0.77196
| 66>    H        2.23056         3.14009         0.37713
| 67>    H        7.13628         3.46426         0.69622
| 68>    H        4.79364         6.52314        -1.42751
| 69>    H        8.31865         7.79318         1.77605
| 70>    H        5.95071        10.83066        -0.36894
| 71>    H       10.83516        11.27557         0.11223
| 72>    H       15.15481        17.24771         0.29721
| 73>    H       13.19891        18.98029        -0.38028
| 74>    H        8.07385        15.09617        -0.84072
| 75> *
| 76>
| 77>                          ****END OF INPUT****

CARTESIAN COORDINATES (ANGSTROEM)
---------------------------------
  C      4.016910   -0.568740    0.986720
  N      3.179970   -1.554450    1.084700
  C      1.941380   -0.997410    0.969540
  C      2.043560    0.465650    0.774970
  C      0.693650    1.049780    0.653930
  O      0.377150    2.203930    0.473560
  C     -0.186790   -0.124470    0.804260
  C      0.626600   -1.353510    0.988240
  N     -0.181360   -2.438630    1.132470
  C     -1.396800   -1.973550    1.058620
  C     -1.475440   -0.531370    0.855950
  C      3.384620    0.750690    0.792720
  C      4.057800    2.023470    0.659240
  C      3.307600    3.186600    0.441840
  C      3.925060    4.409400    0.312050
  F      3.152870    5.493650    0.121110
  C      5.311580    4.566500    0.399770
  C      6.061650    3.416000    0.622650
  C      5.447600    2.186170    0.741700
  F      6.252270    1.127180    0.942910
  C      5.946940    5.883990    0.275370
  C      5.558880    6.783790   -0.714070
  C      6.159140    8.022560   -0.803940
  F      5.770420    8.839610   -1.799110
  C      7.166200    8.434230    0.071970
  C      7.556690    7.532330    1.059390
  C      6.957030    6.293460    1.148300
  F      7.348460    5.474860    2.141020
  C      7.787440    9.759700   -0.034080
  C      7.022010   10.899450   -0.265910
  C      7.615980   12.142430   -0.352410
  F      6.810410   13.194740   -0.556670
  C      8.999140   12.320480   -0.217390
  C      9.767030   11.169860    0.009820
  C      9.170920    9.935340    0.098390
  F      9.955510    8.860920    0.294270
  C      9.678990   13.591320   -0.290310
  N     10.982200   13.648860   -0.051020
  C     11.324600   14.942120   -0.189800
  C     10.140380   15.762290   -0.555450
  C     10.523830   17.184720   -0.703760
  O      9.830460   18.125980   -1.002210
  C     11.966890   17.155930   -0.392460
  C     12.407540   15.770040   -0.091260
  N     13.732660   15.745350    0.202460
  C     14.127070   16.988360    0.109060
  C     13.075580   17.922840   -0.256140
  C      9.101440   14.901250   -0.611240
  H      5.072920   -0.758480    1.045370
  H     -2.240590   -2.636390    1.144510
  H     -2.380830    0.036090    0.771960
  H      2.230560    3.140090    0.377130
  H      7.136280    3.464260    0.696220
  H      4.793640    6.523140   -1.427510
  H      8.318650    7.793180    1.776050
  H      5.950710   10.830660   -0.368940
  H     10.835160   11.275570    0.112230
  H     15.154810   17.247710    0.297210
  H     13.198910   18.980290   -0.380280
  H      8.073850   15.096170   -0.840720

 Total Charge           Charge          ....    0
 Multiplicity           Mult            ....    1
 Number of Electrons    NEL             ....  326
 Basis Dimension        Dim             ....  732

ORBITAL ENERGIES
----------------

  NO   OCC          E(Eh)            E(eV)
   0   2.0000     -24.804313      -674.9597
   1   2.0000     -24.800028      -674.8431
   2   2.0000     -24.795936      -674.7317
   3   2.0000     -24.795184      -674.7113
   4   2.0000     -24.794773      -674.7001
   5   2.0000     -24.790819      -674.5925
   6   2.0000     -19.226102      -523.1688
   7   2.0000     -19.210409      -522.7418
   8   2.0000     -14.420413      -392.3994
   9   2.0000     -14.418425      -392.3453
  10   2.0000     -14.412659      -392.1884
  11   2.0000     -14.408776      -392.0827
  12   2.0000     -10.385855      -282.6135
  13   2.0000     -10.382749      -282.5290
  14   2.0000     -10.375180      -282.3230
  15   2.0000     -10.374146      -282.2949
  16   2.0000     -10.373612      -282.2803
  17   2.0000     -10.372628      -282.2536
  18   2.0000     -10.372220      -282.2425
  19   2.0000     -10.369031      -282.1557
  20   2.0000     -10.350530      -281.6522
  21   2.0000     -10.341822      -281.4153
  22   2.0000     -10.339586      -281.3544
  23   2.0000     -10.338709      -281.3306
  24   2.0000     -10.337694      -281.3029
  25   2.0000     -10.333802      -281.1970
  26   2.0000     -10.329483      -281.0795
  27   2.0000     -10.328991      -281.0661
  28   2.0000     -10.321122      -280.8520
  29   2.0000     -10.319627      -280.8113
  30   2.0000     -10.314625      -280.6752
  31   2.0000     -10.314069      -280.6601
  32   2.0000     -10.313770      -280.6520
  33   2.0000     -10.313354      -280.6406
  34   2.0000     -10.312572      -280.6194
  35   2.0000     -10.303798      -280.3806
  36   2.0000     -10.302313      -280.3402
  37   2.0000     -10.302029      -280.3325
  38   2.0000     -10.301608      -280.3210
  39   2.0000     -10.299769      -280.2710
  40   2.0000     -10.299328      -280.2590
  41   2.0000     -10.299007      -280.2502
  42   2.0000     -10.297767      -280.2165
  43   2.0000     -10.296991      -280.1954
  44   2.0000     -10.295719      -280.1608
  45   2.0000     -10.292375      -280.0698
  46   2.0000     -10.291619      -280.0492
  47   2.0000     -10.290304      -280.0134
  48   2.0000      -1.320662       -35.9370
  49   2.0000      -1.315445       -35.7951
  50   2.0000      -1.311249       -35.6809
  51   2.0000      -1.310504       -35.6606
  52   2.0000      -1.310009       -35.6471
  53   2.0000      -1.306155       -35.5423
  54   2.0000      -1.141719       -31.0677
  55   2.0000      -1.126654       -30.6578
  56   2.0000      -1.088146       -29.6099
  57   2.0000      -1.081759       -29.4362
  58   2.0000      -1.070480       -29.1293
  59   2.0000      -1.063080       -28.9279
  60   2.0000      -0.997981       -27.1564
  61   2.0000      -0.987747       -26.8780
  62   2.0000      -0.973953       -26.5026
  63   2.0000      -0.945643       -25.7323
  64   2.0000      -0.938663       -25.5423
  65   2.0000      -0.923521       -25.1303
  66   2.0000      -0.902629       -24.5618
  67   2.0000      -0.876154       -23.8414
  68   2.0000      -0.872355       -23.7380
  69   2.0000      -0.868524       -23.6337
  70   2.0000      -0.859893       -23.3989
  71   2.0000      -0.855868       -23.2893
  72   2.0000      -0.853335       -23.2204
  73   2.0000      -0.850383       -23.1401
  74   2.0000      -0.833533       -22.6816
  75   2.0000      -0.794812       -21.6279
  76   2.0000      -0.781270       -21.2594
  77   2.0000      -0.769955       -20.9515
  78   2.0000      -0.761297       -20.7159
  79   2.0000      -0.751362       -20.4456
  80   2.0000      -0.745270       -20.2798
  81   2.0000      -0.738781       -20.1033
  82   2.0000      -0.722221       -19.6526
  83   2.0000      -0.717146       -19.5145
  84   2.0000      -0.707989       -19.2654
  85   2.0000      -0.705060       -19.1856
  86   2.0000      -0.690934       -18.8013
  87   2.0000      -0.666289       -18.1306
  88   2.0000      -0.663802       -18.0630
  89   2.0000      -0.661589       -18.0027
  90   2.0000      -0.653253       -17.7759
  91   2.0000      -0.646623       -17.5955
  92   2.0000      -0.641894       -17.4668
  93   2.0000      -0.639749       -17.4085
  94   2.0000      -0.632211       -17.2033
  95   2.0000      -0.628083       -17.0910
  96   2.0000      -0.623751       -16.9731
  97   2.0000      -0.622440       -16.9375
  98   2.0000      -0.616490       -16.7756
  99   2.0000      -0.611392       -16.6368
 100   2.0000      -0.608002       -16.5446
 101   2.0000      -0.589870       -16.0512
 102   2.0000      -0.579727       -15.7752
 103   2.0000      -0.577875       -15.7248
 104   2.0000      -0.575553       -15.6616
 105   2.0000      -0.572837       -15.5877
 106   2.0000      -0.571367       -15.5477
 107   2.0000      -0.565015       -15.3748
 108   2.0000      -0.563609       -15.3366
 109   2.0000      -0.562710       -15.3121
 110   2.0000      -0.559926       -15.2364
 111   2.0000      -0.555952       -15.1282
 112   2.0000      -0.553638       -15.0652
 113   2.0000      -0.548090       -14.9143
 114   2.0000      -0.545775       -14.8513
 115   2.0000      -0.545653       -14.8480
 116   2.0000      -0.544426       -14.8146
 117   2.0000      -0.540846       -14.7172
 118   2.0000      -0.538297       -14.6478
 119   2.0000      -0.531413       -14.4605
 120   2.0000      -0.529921       -14.4199
 121   2.0000      -0.522685       -14.2230
 122   2.0000      -0.521100       -14.1799
 123   2.0000      -0.518974       -14.1220
 124   2.0000      -0.517546       -14.0831
 125   2.0000      -0.512704       -13.9514
 126   2.0000      -0.503936       -13.7128
 127   2.0000      -0.501140       -13.6367
 128   2.0000      -0.493657       -13.4331
 129   2.0000      -0.493474       -13.4281
 130   2.0000      -0.487601       -13.2683
 131   2.0000      -0.486595       -13.2409
 132   2.0000      -0.482842       -13.1388
 133   2.0000      -0.479372       -13.0444
 134   2.0000      -0.477477       -12.9928
 135   2.0000      -0.474594       -12.9144
 136   2.0000      -0.473796       -12.8926
 137   2.0000      -0.467454       -12.7201
 138   2.0000      -0.464153       -12.6302
 139   2.0000      -0.463370       -12.6089
 140   2.0000      -0.461635       -12.5617
 141   2.0000      -0.455119       -12.3844
 142   2.0000      -0.447267       -12.1707
 143   2.0000      -0.443983       -12.0814
 144   2.0000      -0.429929       -11.6990
 145   2.0000      -0.398895       -10.8545
 146   2.0000      -0.379271       -10.3205
 147   2.0000      -0.366701        -9.9785
 148   2.0000      -0.365699        -9.9512
 149   2.0000      -0.364604        -9.9214
 150   2.0000      -0.356498        -9.7008
 151   2.0000      -0.351808        -9.5732
 152   2.0000      -0.345926        -9.4131
 153   2.0000      -0.344357        -9.3704
 154   2.0000      -0.344114        -9.3638
 155   2.0000      -0.342357        -9.3160
 156   2.0000      -0.335163        -9.1203
 157   2.0000      -0.332635        -9.0514
 158   2.0000      -0.329546        -8.9674
 159   2.0000      -0.329451        -8.9648
 160   2.0000      -0.326747        -8.8912
 161   2.0000      -0.307641        -8.3713
 162   2.0000      -0.291568        -7.9340
 163   0.0000      -0.115817        -3.1515
 164   0.0000      -0.113402        -3.0858
 165   0.0000      -0.063037        -1.7153
 166   0.0000      -0.041171        -1.1203
 167   0.0000      -0.033973        -0.9245

MULLIKEN ATOMIC CHARGES
-----------------------
   0 C :    0.056008
   1 N :   -0.021412
   2 C :    0.039110
   3 C :   -0.147301
   4 C :    0.225042
   5 O :   -0.133823
   6 C :   -0.007364
   7 C :    0.001409
   8 N :   -0.043913
   9 C :    0.091727
  10 C :   -0.094915
  11 C :   -0.003688
  12 C :    0.043400
  13 C :   -0.093127
  14 C :    0.252833
  15 F :   -0.180526
  16 C :    0.008230
  17 C :   -0.068990
  18 C :    0.220591
  19 F :   -0.189018
  20 C :    0.008615
  21 C :   -0.067111
  22 C :    0.251442
  23 F :   -0.184826
  24 C :    0.007828
  25 C :   -0.067989
  26 C :    0.251808
  27 F :   -0.184364
  28 C :    0.023244
  29 C :   -0.071160
  30 C :    0.250661
  31 F :   -0.178448
  32 C :    0.014359
  33 C :   -0.073066
  34 C :    0.266464
  35 F :   -0.183561
  36 C :    0.025475
  37 N :   -0.051617
  38 C :    0.054826
  39 C :   -0.033253
  40 C :    0.213860
  41 O :   -0.113558
  42 C :   -0.041225
  43 C :   -0.012448
  44 N :   -0.053931
  45 C :    0.092421
  46 C :   -0.093359
  47 C :   -0.097040
  48 H :    0.024408
  49 H :    0.018009
  50 H :    0.001854
  51 H :   -0.000205
  52 H :    0.000622
  53 H :    0.002986
  54 H :    0.003059
  55 H :    0.004800
  56 H :    0.021812
  57 H :    0.011782
  58 H :   -0.001508
  59 H :    0.004057
Sum of atomic charges:    0.0000000

LOEWDIN ATOMIC CHARGES
----------------------
   0 C :    0.091492
   1 N :   -0.078726
   2 C :    0.047738
   3 C :   -0.050040
   4 C :    0.072846
   5 O :   -0.128816
   6 C :   -0.035070
   7 C :    0.036110
   8 N :   -0.087661
   9 C :    0.083219
  10 C :   -0.025492
  11 C :   -0.026195
  12 C :   -0.050412
  13 C :   -0.015443
  14 C :    0.082471
  15 F :   -0.058615
  16 C :   -0.033273
  17 C :   -0.026020
  18 C :    0.085873
  19 F :   -0.058807
  20 C :   -0.036262
  21 C :   -0.022113
  22 C :    0.084627
  23 F :   -0.059849
  24 C :   -0.041608
  25 C :   -0.021572
  26 C :    0.083683
  27 F :   -0.059817
  28 C :   -0.019936
  29 C :   -0.027315
  30 C :    0.096762
  31 F :   -0.050704
  32 C :   -0.066781
  33 C :    0.005181
  34 C :    0.079322
  35 F :   -0.058494
  36 C :    0.076017
  37 N :   -0.106074
  38 C :    0.039670
  39 C :   -0.028508
  40 C :    0.063787
  41 O :   -0.127312
  42 C :   -0.039274
  43 C :    0.030522
  44 N :   -0.096214
  45 C :    0.080219
  46 C :   -0.036247
  47 C :   -0.021532
  48 H :    0.025575
  49 H :    0.026780
  50 H :    0.037102
  51 H :    0.041825
  52 H :    0.043645
  53 H :    0.044476
  54 H :    0.043942
  55 H :    0.044912
  56 H :    0.051795
  57 H :    0.024635
  58 H :    0.035317
  59 H :    0.034641

  Mayer bond orders larger than 0.100000
B(  0-C ,  1-N ) :   1.7139 B(  0-C , 11-C ) :   1.0374 B(  0-C , 48-H ) :   0.9843
B(  1-N ,  2-C ) :   1.2809 B(  2-C ,  3-C ) :   1.0474 B(  2-C ,  7-C ) :   1.5063
B(  3-C ,  4-C ) :   0.8893 B(  3-C , 11-C ) :   1.6166 B(  4-C ,  5-O ) :   2.1827
B(  4-C ,  6-C ) :   0.9271 B(  5-O , 51-H ) :   0.1090 B(  6-C ,  7-C ) :   1.0501
B(  6-C , 10-C ) :   1.6345 B(  7-C ,  8-N ) :   1.2832 B(  8-N ,  9-C ) :   1.6907
B(  9-C , 10-C ) :   1.0450 B(  9-C , 49-H ) :   0.9880 B( 10-C , 50-H ) :   1.0116
B( 11-C , 12-C ) :   1.0395 B( 12-C , 13-C ) :   1.2900 B( 12-C , 18-C ) :   1.2922
B( 13-C , 14-C ) :   1.3689 B( 13-C , 17-C ) :   0.1010 B( 13-C , 51-H ) :   0.9741
B( 14-C , 15-F ) :   1.1292 B( 14-C , 16-C ) :   1.3419 B( 16-C , 17-C ) :   1.3323
B( 16-C , 20-C ) :   0.9479 B( 17-C , 18-C ) :   1.3813 B( 17-C , 52-H ) :   0.9951
B( 18-C , 19-F ) :   1.0848 B( 20-C , 21-C ) :   1.3249 B( 20-C , 26-C ) :   1.3540
B( 21-C , 22-C ) :   1.3684 B( 21-C , 25-C ) :   0.1004 B( 21-C , 53-H ) :   1.0012
B( 22-C , 23-F ) :   1.1101 B( 22-C , 24-C ) :   1.3516 B( 24-C , 25-C ) :   1.3213
B( 24-C , 28-C ) :   0.9550 B( 25-C , 26-C ) :   1.3720 B( 25-C , 54-H ) :   1.0001
B( 26-C , 27-F ) :   1.1115 B( 28-C , 29-C ) :   1.3366 B( 28-C , 34-C ) :   1.3305
B( 29-C , 30-C ) :   1.3756 B( 29-C , 55-H ) :   0.9943 B( 30-C , 31-F ) :   1.1042
B( 30-C , 32-C ) :   1.2964 B( 32-C , 33-C ) :   1.2932 B( 32-C , 36-C ) :   1.0237
B( 33-C , 34-C ) :   1.3411 B( 33-C , 56-H ) :   1.0060 B( 34-C , 35-F ) :   1.1129
B( 36-C , 37-N ) :   1.6335 B( 36-C , 38-C ) :   0.1134 B( 36-C , 47-C ) :   1.0690
B( 37-N , 38-C ) :   1.3466 B( 38-C , 39-C ) :   1.0298 B( 38-C , 43-C ) :   1.4332
B( 39-C , 40-C ) :   0.8649 B( 39-C , 47-C ) :   1.6090 B( 40-C , 41-O ) :   2.3297
B( 40-C , 42-C ) :   0.8829 B( 42-C , 43-C ) :   1.0372 B( 42-C , 46-C ) :   1.6266
B( 43-C , 44-N ) :   1.3069 B( 44-N , 45-C ) :   1.6653 B( 45-C , 46-C ) :   1.0684
B( 45-C , 57-H ) :   0.9886 B( 46-C , 58-H ) :   1.0092 B( 47-C , 59-H ) :   1.0134

-----------------------------------------------------------------------------
         ABSORPTION SPECTRUM VIA TRANSITION ELECTRIC DIPOLE MOMENTS
-----------------------------------------------------------------------------
State   Energy  Wavelength   fosc         T2         TX        TY        TZ
        (cm-1)    (nm)                  (au**2)     (au)      (au)      (au)
-----------------------------------------------------------------------------
   0   21477.6    465.6   0.269975721   4.13823   1.54847   1.31686  -0.07967
   1   21998.7    454.6   0.001730354   0.02589  -0.06477  -0.12806  -0.07281
   2   23235.3    430.4   0.000817994   0.01159   0.02070   0.00164  -0.10563
   3   24175.4    413.6   0.741095049  10.09198   2.04162   2.43386   0.00983
   4   26138.4    382.6   0.413002673   5.20175  -1.35299  -1.83564   0.04007
   5   26525.2    377.0   0.004880325   0.06057   0.15604   0.18565   0.04188
   6   26762.7    373.7   0.000108702   0.00134  -0.03206  -0.01750   0.00178
   7   27321.1    366.0   0.034486493   0.41555   0.45238   0.45740  -0.04104
   8   27583.7    362.5   0.198807892   2.37277   0.95818   1.20581  -0.02606
   9   28479.6    351.1   0.007866905   0.09094   0.25714   0.14990   0.04847
  10   28502.3    350.8   0.005252752   0.06067   0.19772  -0.01314  -0.14631
  11   28625.7    349.3   0.002585551   0.02974   0.04313   0.01899   0.16587
  12   29847.1    335.0   0.130994986   1.44487  -0.35537  -1.14524   0.08374
  13   30621.5    326.6   0.126844505   1.36371   0.77373   0.87279  -0.05726
  14   31295.2    319.5   0.001129469   0.01188  -0.07269  -0.08121   0.00158
  15   31398.5    318.5   0.129969714   1.36273   0.76315   0.88278   0.03215
  16   31646.9    316.0   0.000222799   0.00232  -0.02773  -0.03701   0.01336
  17   32559.0    307.1   0.105864274   1.07042  -0.48379  -0.90967   0.09413
  18   33639.8    297.3   0.259397047   2.53856  -1.23475  -0.96556   0.28575
  19   34059.1    293.6   0.540786732   5.22719  -1.93457  -1.21845   0.00021
  20   35125.2    284.7   0.003502292   0.03283   0.06031   0.14653  -0.08785
  21   36918.7    270.9   0.039429205   0.35160  -0.57182   0.03022  -0.15397
  22   37760.1    264.8   0.048154489   0.41984   0.13841   0.62303  -0.11185
  23   37904.1    263.8   0.042843812   0.37212   0.50030   0.34534   0.05056
  24   38869.6    257.3   0.319870421   2.70919  -0.29074  -1.61138   0.16770
  25   39132.4    255.5   0.004577545   0.03851   0.03931  -0.19224   0.00256
  26   39346.1    254.2   0.005728628   0.04793  -0.16585  -0.14257  -0.01004
  27   39779.6    251.4   0.232881499   1.92731   0.78606   1.14406   0.02336

FINAL SINGLE POINT ENERGY     -2344.625248612832

DIPOLE MOMENT
-------------
                                X             Y             Z
Electronic contribution:      0.86365      -3.33144      -0.57919
Nuclear contribution   :     -1.44280       3.00147       0.61633
                        -----------------------------------------
Total Dipole Moment    :     -0.57914      -0.32997       0.03714
                        -----------------------------------------
Magnitude (a.u.)       :      0.66758
Magnitude (Debye)      :      1.69686

Rotational constants in cm-1:     0.009628     0.000484     0.000464
Rotational constants in MHz :   288.638823    14.507096    13.920197

                             ****ORCA TERMINATED NORMALLY****
TOTAL RUN TIME: 0 days 0 hours 4 minutes 5 seconds 370 msec
