                         Program Version 4.2.0 -  RELEASE  -
|  1> # ORCA input file
|  2> # SCF done       -146.818195599108          0.000335069950
|  3> ! CAM-B3LYP def2-SVP def2/J RIJCOSX Grid4 TightSCF
|  4> %maxcore 5000
|  5> %tddft
|  6>     Mode sTDDFT
|  7>     Ethresh 5.0
|  8>     maxcore 5000
|  9> end
| 10>
| 11> %pal
| 12>   nprocs 6
| 13>   end
| 14> * xyz 0 1
| 15>    C        4.04294         0.46333        -1.52305
| 16>    N        3.27859        -0.55432        -1.77063
| 17>    C        2.35756        -0.10737        -2.67434
| 18>    C        2.60058         1.31256        -3.00395
| 19>    C        1.59213         1.78858        -3.97162
| 20>    O        1.46713         2.88939        -4.45379
| 21>    C        0.76659         0.58439        -4.19704
| 22>    C        1.27706        -0.54683        -3.37778
| 23>    N        0.51914        -1.65850        -3.58158
| 24>    C       -0.39075        -1.29997        -4.44318
| 25>    C       -0.29659         0.09224        -4.87121
| 26>    C        3.68617         1.68894        -2.25895
| 27>    C        4.37604         2.95416        -2.17648
| 28>    C        4.08860         3.97675        -3.08649
| 29>    C        4.75360         5.18460        -3.00917
| 30>    N        4.36768         6.21966        -3.94219
| 31>    O        3.96889         5.86616        -5.02687
| 32>    O        4.46459         7.36960        -3.57032
| 33>    C        5.73432         5.44026        -2.03247
| 34>    C        6.00166         4.40630        -1.12416
| 35>    C        5.34226         3.19943        -1.19178
| 36>    C        6.49373         6.66853        -1.99805
| 37>    C        6.99092         7.19910        -0.85987
| 38>    C        7.81805         8.35969        -0.85632
| 39>    N        7.92956         9.15533        -1.90795
| 40>    C        8.68637        10.19317        -1.51414
| 41>    C        9.08362        10.05526        -0.09515
| 42>    C        9.90401        11.20718         0.32714
| 43>    O       10.35991        11.44354         1.42399
| 44>    C       10.00368        11.99720        -0.91092
| 45>    C        9.24193        11.34759        -2.00400
| 46>    N        9.34950        12.06356        -3.14894
| 47>    C       10.11414        13.08292        -2.84709
| 48>    C       10.56660        13.09862        -1.46896
| 49>    C        8.58133         8.85733         0.31788
| 50>    C        8.76250         8.16582         1.57397
| 51>    C        8.77024         6.77795         1.63164
| 52>    C        8.91745         6.10546         2.83727
| 53>    N        8.85598         4.67452         2.75430
| 54>    O        8.25832         4.21011         1.79765
| 55>    O        9.37908         4.00031         3.61617
| 56>    C        9.11385         6.80193         4.04803
| 57>    C        9.14038         8.20411         3.95691
| 58>    C        8.97210         8.87162         2.76806
| 59>    C        9.23311         6.13708         5.32182
| 60>    C        9.84623         6.66662         6.39957
| 61>    C        9.97501         6.01101         7.66050
| 62>    S       10.78488         6.84078         8.96655
| 63>    C       10.55041         5.51111        10.04501
| 64>    C        9.87473         4.47070         9.40731
| 65>    C        9.55886         4.76769         8.06506
| 66>    C        9.51504         3.19951        10.02072
| 67>    O        9.72732         2.85691        11.15811
| 68>    C       11.01582         5.53827        11.40018
| 69>    C       11.64957         6.57057        11.95553
| 70>    H        4.86553         0.35961        -0.83747
| 71>    H       -1.12869        -2.00633        -4.78254
| 72>    H       -0.95085         0.57274        -5.57124
| 73>    H        3.33245         3.84583        -3.84850
| 74>    H        6.76390         4.53770        -0.37175
| 75>    H        5.58120         2.44020        -0.46455
| 76>    H        6.70214         7.18699        -2.92420
| 77>    H        6.74554         6.76416         0.09831
| 78>    H       10.35372        13.82144        -3.59237
| 79>    H       11.20278        13.84116        -1.02962
| 80>    H        8.71201         6.18909         0.72909
| 81>    H        9.26879         8.77740         4.86085
| 82>    H        9.00550         9.94958         2.74507
| 83>    H        8.83745         5.13527         5.39296
| 84>    H       10.31629         7.63876         6.33907
| 85>    H        9.04861         4.07533         7.42003
| 86>    H        8.99331         2.52363         9.31539
| 87>    H       10.81254         4.63857        11.96473
| 88>    H       11.85642         7.47325        11.40195
| 89>    H       11.98025         6.54189        12.97818
| 90> *
| 91>
| 92>                          ****END OF INPUT****

CARTESIAN COORDINATES (ANGSTROEM)
---------------------------------
  C      4.042940    0.463330   -1.523050
  N      3.278590   -0.554320   -1.770630
  C      2.357560   -0.107370   -2.674340
  C      2.600580    1.312560   -3.003950
  C      1.592130    1.788580   -3.971620
  O      1.467130    2.889390   -4.453790
  C      0.766590    0.584390   -4.197040
  C      1.277060   -0.546830   -3.377780
  N      0.519140   -1.658500   -3.581580
  C     -0.390750   -1.299970   -4.443180
  C     -0.296590    0.092240   -4.871210
  C      3.686170    1.688940   -2.258950
  C      4.376040    2.954160   -2.176480
  C      4.088600    3.976750   -3.086490
  C      4.753600    5.184600   -3.009170
  N      4.367680    6.219660   -3.942190
  O      3.968890    5.866160   -5.026870
  O      4.464590    7.369600   -3.570320
  C      5.734320    5.440260   -2.032470
  C      6.001660    4.406300   -1.124160
  C      5.342260    3.199430   -1.191780
  C      6.493730    6.668530   -1.998050
  C      6.990920    7.199100   -0.859870
  C      7.818050    8.359690   -0.856320
  N      7.929560    9.155330   -1.907950
  C      8.686370   10.193170   -1.514140
  C      9.083620   10.055260   -0.095150
  C      9.904010   11.207180    0.327140
  O     10.359910   11.443540    1.423990
  C     10.003680   11.997200   -0.910920
  C      9.241930   11.347590   -2.004000
  N      9.349500   12.063560   -3.148940
  C     10.114140   13.082920   -2.847090
  C     10.566600   13.098620   -1.468960
  C      8.581330    8.857330    0.317880
  C      8.762500    8.165820    1.573970
  C      8.770240    6.777950    1.631640
  C      8.917450    6.105460    2.837270
  N      8.855980    4.674520    2.754300
  O      8.258320    4.210110    1.797650
  O      9.379080    4.000310    3.616170
  C      9.113850    6.801930    4.048030
  C      9.140380    8.204110    3.956910
  C      8.972100    8.871620    2.768060
  C      9.233110    6.137080    5.321820
  C      9.846230    6.666620    6.399570
  C      9.975010    6.011010    7.660500
  S     10.784880    6.840780    8.966550
  C     10.550410    5.511110   10.045010
  C      9.874730    4.470700    9.407310
  C      9.558860    4.767690    8.065060
  C      9.515040    3.199510   10.020720
  O      9.727320    2.856910   11.158110
  C     11.015820    5.538270   11.400180
  C     11.649570    6.570570   11.955530
  H      4.865530    0.359610   -0.837470
  H     -1.128690   -2.006330   -4.782540
  H     -0.950850    0.572740   -5.571240
  H      3.332450    3.845830   -3.848500
  H      6.763900    4.537700   -0.371750
  H      5.581200    2.440200   -0.464550
  H      6.702140    7.186990   -2.924200
  H      6.745540    6.764160    0.098310
  H     10.353720   13.821440   -3.592370
  H     11.202780   13.841160   -1.029620
  H      8.712010    6.189090    0.729090
  H      9.268790    8.777400    4.860850
  H      9.005500    9.949580    2.745070
  H      8.837450    5.135270    5.392960
  H     10.316290    7.638760    6.339070
  H      9.048610    4.075330    7.420030
  H      8.993310    2.523630    9.315390
  H     10.812540    4.638570   11.964730
  H     11.856420    7.473250   11.401950
  H     11.980250    6.541890   12.978180

 Total Charge           Charge          ....    0
 Multiplicity           Mult            ....    1
 Number of Electrons    NEL             ....  380
 Basis Dimension        Dim             ....  874

ORBITAL ENERGIES
----------------

  NO   OCC          E(Eh)            E(eV)
   0   2.0000     -88.970084     -2420.9991
   1   2.0000     -19.258766      -524.0577
   2   2.0000     -19.255644      -523.9727
   3   2.0000     -19.247715      -523.7570
   4   2.0000     -19.246600      -523.7266
   5   2.0000     -19.227332      -523.2023
   6   2.0000     -19.216904      -522.9186
   7   2.0000     -19.213130      -522.8159
   8   2.0000     -14.662586      -398.9892
   9   2.0000     -14.651694      -398.6929
  10   2.0000     -14.426881      -392.5754
  11   2.0000     -14.421582      -392.4312
  12   2.0000     -14.412159      -392.1748
  13   2.0000     -14.407699      -392.0534
  14   2.0000     -10.387137      -282.6484
  15   2.0000     -10.377680      -282.3910
  16   2.0000     -10.359366      -281.8927
  17   2.0000     -10.348501      -281.5970
  18   2.0000     -10.347396      -281.5670
  19   2.0000     -10.345293      -281.5097
  20   2.0000     -10.342437      -281.4320
  21   2.0000     -10.342356      -281.4298
  22   2.0000     -10.341004      -281.3930
  23   2.0000     -10.340709      -281.3850
  24   2.0000     -10.336628      -281.2740
  25   2.0000     -10.326888      -281.0089
  26   2.0000     -10.326741      -281.0049
  27   2.0000     -10.322777      -280.8970
  28   2.0000     -10.321693      -280.8676
  29   2.0000     -10.321442      -280.8607
  30   2.0000     -10.319961      -280.8204
  31   2.0000     -10.316803      -280.7345
  32   2.0000     -10.314153      -280.6624
  33   2.0000     -10.312662      -280.6218
  34   2.0000     -10.312623      -280.6207
  35   2.0000     -10.310659      -280.5673
  36   2.0000     -10.308216      -280.5008
  37   2.0000     -10.306897      -280.4649
  38   2.0000     -10.306640      -280.4579
  39   2.0000     -10.305513      -280.4273
  40   2.0000     -10.304572      -280.4017
  41   2.0000     -10.303286      -280.3667
  42   2.0000     -10.302999      -280.3589
  43   2.0000     -10.302171      -280.3363
  44   2.0000     -10.299519      -280.2642
  45   2.0000     -10.298708      -280.2421
  46   2.0000     -10.297935      -280.2210
  47   2.0000     -10.295899      -280.1657
  48   2.0000     -10.292657      -280.0774
  49   2.0000     -10.291759      -280.0530
  50   2.0000     -10.291627      -280.0494
  51   2.0000     -10.290041      -280.0063
  52   2.0000     -10.286274      -279.9037
  53   2.0000     -10.280997      -279.7602
  54   2.0000     -10.276816      -279.6464
  55   2.0000      -8.065986      -219.4866
  56   2.0000      -6.035009      -164.2210
  57   2.0000      -6.030986      -164.1115
  58   2.0000      -6.028454      -164.0426
  59   2.0000      -1.336426       -36.3660
  60   2.0000      -1.329054       -36.1654
  61   2.0000      -1.154203       -31.4075
  62   2.0000      -1.148725       -31.2584
  63   2.0000      -1.143303       -31.1109
  64   2.0000      -1.131835       -30.7988
  65   2.0000      -1.126250       -30.6468
  66   2.0000      -1.092352       -29.7244
  67   2.0000      -1.082429       -29.4544
  68   2.0000      -1.074583       -29.2409
  69   2.0000      -1.062425       -28.9101
  70   2.0000      -1.001335       -27.2477
  71   2.0000      -1.000675       -27.2298
  72   2.0000      -0.997547       -27.1446
  73   2.0000      -0.949388       -25.8342
  74   2.0000      -0.944550       -25.7025
  75   2.0000      -0.934727       -25.4352
  76   2.0000      -0.930638       -25.3239
  77   2.0000      -0.917363       -24.9627
  78   2.0000      -0.910736       -24.7824
  79   2.0000      -0.895812       -24.3763
  80   2.0000      -0.887702       -24.1556
  81   2.0000      -0.876895       -23.8615
  82   2.0000      -0.875541       -23.8247
  83   2.0000      -0.863373       -23.4936
  84   2.0000      -0.861503       -23.4427
  85   2.0000      -0.845076       -22.9957
  86   2.0000      -0.841000       -22.8848
  87   2.0000      -0.812193       -22.1009
  88   2.0000      -0.804632       -21.8951
  89   2.0000      -0.794102       -21.6086
  90   2.0000      -0.788809       -21.4646
  91   2.0000      -0.776774       -21.1371
  92   2.0000      -0.769311       -20.9340
  93   2.0000      -0.760650       -20.6983
  94   2.0000      -0.746858       -20.3230
  95   2.0000      -0.738689       -20.1008
  96   2.0000      -0.731203       -19.8971
  97   2.0000      -0.717401       -19.5215
  98   2.0000      -0.712473       -19.3874
  99   2.0000      -0.706170       -19.2159
 100   2.0000      -0.694260       -18.8918
 101   2.0000      -0.691234       -18.8094
 102   2.0000      -0.667448       -18.1622
 103   2.0000      -0.666090       -18.1252
 104   2.0000      -0.659088       -17.9347
 105   2.0000      -0.658307       -17.9134
 106   2.0000      -0.652224       -17.7479
 107   2.0000      -0.647522       -17.6200
 108   2.0000      -0.644534       -17.5387
 109   2.0000      -0.639048       -17.3894
 110   2.0000      -0.634304       -17.2603
 111   2.0000      -0.632074       -17.1996
 112   2.0000      -0.624875       -17.0037
 113   2.0000      -0.613836       -16.7033
 114   2.0000      -0.611345       -16.6355
 115   2.0000      -0.606303       -16.4983
 116   2.0000      -0.604324       -16.4445
 117   2.0000      -0.601162       -16.3584
 118   2.0000      -0.598981       -16.2991
 119   2.0000      -0.591436       -16.0938
 120   2.0000      -0.585523       -15.9329
 121   2.0000      -0.582618       -15.8538
 122   2.0000      -0.579432       -15.7671
 123   2.0000      -0.576288       -15.6816
 124   2.0000      -0.567994       -15.4559
 125   2.0000      -0.561758       -15.2862
 126   2.0000      -0.558396       -15.1947
 127   2.0000      -0.552246       -15.0274
 128   2.0000      -0.550134       -14.9699
 129   2.0000      -0.547437       -14.8965
 130   2.0000      -0.542820       -14.7709
 131   2.0000      -0.542151       -14.7527
 132   2.0000      -0.539102       -14.6697
 133   2.0000      -0.536939       -14.6108
 134   2.0000      -0.532618       -14.4933
 135   2.0000      -0.527668       -14.3586
 136   2.0000      -0.523489       -14.2449
 137   2.0000      -0.519503       -14.1364
 138   2.0000      -0.517620       -14.0852
 139   2.0000      -0.512543       -13.9470
 140   2.0000      -0.508948       -13.8492
 141   2.0000      -0.507796       -13.8178
 142   2.0000      -0.505664       -13.7598
 143   2.0000      -0.502683       -13.6787
 144   2.0000      -0.497288       -13.5319
 145   2.0000      -0.490138       -13.3373
 146   2.0000      -0.488688       -13.2979
 147   2.0000      -0.487799       -13.2737
 148   2.0000      -0.485148       -13.2016
 149   2.0000      -0.481900       -13.1132
 150   2.0000      -0.477586       -12.9958
 151   2.0000      -0.476703       -12.9718
 152   2.0000      -0.474876       -12.9220
 153   2.0000      -0.469380       -12.7725
 154   2.0000      -0.466543       -12.6953
 155   2.0000      -0.464669       -12.6443
 156   2.0000      -0.459902       -12.5146
 157   2.0000      -0.458396       -12.4736
 158   2.0000      -0.455766       -12.4020
 159   2.0000      -0.453100       -12.3295
 160   2.0000      -0.444388       -12.0924
 161   2.0000      -0.427836       -11.6420
 162   2.0000      -0.425598       -11.5811
 163   2.0000      -0.419599       -11.4179
 164   2.0000      -0.401294       -10.9198
 165   2.0000      -0.395920       -10.7735
 166   2.0000      -0.394730       -10.7412
 167   2.0000      -0.388844       -10.5810
 168   2.0000      -0.384079       -10.4513
 169   2.0000      -0.380691       -10.3591
 170   2.0000      -0.379641       -10.3306
 171   2.0000      -0.376018       -10.2320
 172   2.0000      -0.370391       -10.0789
 173   2.0000      -0.368684       -10.0324
 174   2.0000      -0.363706        -9.8969
 175   2.0000      -0.355954        -9.6860
 176   2.0000      -0.354860        -9.6562
 177   2.0000      -0.354109        -9.6358
 178   2.0000      -0.352199        -9.5838
 179   2.0000      -0.350498        -9.5375
 180   2.0000      -0.347824        -9.4648
 181   2.0000      -0.344435        -9.3726
 182   2.0000      -0.338030        -9.1983
 183   2.0000      -0.335994        -9.1429
 184   2.0000      -0.334308        -9.0970
 185   2.0000      -0.330229        -8.9860
 186   2.0000      -0.325625        -8.8607
 187   2.0000      -0.313547        -8.5321
 188   2.0000      -0.292160        -7.9501
 189   2.0000      -0.266855        -7.2615
 190   0.0000      -0.123188        -3.3521
 191   0.0000      -0.113043        -3.0760
 192   0.0000      -0.075077        -2.0430
 193   0.0000      -0.064566        -1.7569
 194   0.0000      -0.054264        -1.4766

MULLIKEN ATOMIC CHARGES
-----------------------
   0 C :    0.054510
   1 N :   -0.021663
   2 C :    0.052907
   3 C :   -0.143970
   4 C :    0.221868
   5 O :   -0.122932
   6 C :   -0.009516
   7 C :   -0.003804
   8 N :   -0.050424
   9 C :    0.094550
  10 C :   -0.091793
  11 C :    0.004997
  12 C :    0.097680
  13 C :   -0.061107
  14 C :    0.157751
  15 N :    0.236453
  16 O :   -0.212958
  17 O :   -0.224711
  18 C :    0.062630
  19 C :   -0.033060
  20 C :   -0.011439
  21 C :    0.062542
  22 C :   -0.079411
  23 C :    0.023265
  24 N :   -0.031061
  25 C :    0.071913
  26 C :   -0.152684
  27 C :    0.209819
  28 O :   -0.136304
  29 C :   -0.030325
  30 C :   -0.022936
  31 N :   -0.051984
  32 C :    0.089708
  33 C :   -0.093544
  34 C :    0.060000
  35 C :    0.041473
  36 C :   -0.093015
  37 C :    0.121835
  38 N :    0.258231
  39 O :   -0.254840
  40 O :   -0.227047
  41 C :    0.082146
  42 C :   -0.043417
  43 C :    0.046055
  44 C :   -0.015012
  45 C :    0.073964
  46 C :   -0.085403
  47 S :    0.137909
  48 C :   -0.110753
  49 C :    0.022077
  50 C :   -0.001701
  51 C :    0.150082
  52 O :   -0.182765
  53 C :    0.002152
  54 C :   -0.009654
  55 H :    0.016499
  56 H :    0.019760
  57 H :    0.005457
  58 H :    0.009096
  59 H :   -0.005732
  60 H :   -0.006875
  61 H :    0.043416
  62 H :    0.020753
  63 H :    0.011835
  64 H :   -0.004424
  65 H :    0.013148
  66 H :   -0.008624
  67 H :    0.003156
  68 H :    0.005118
  69 H :   -0.010454
  70 H :   -0.005257
  71 H :   -0.016011
  72 H :    0.024686
  73 H :    0.022764
  74 H :    0.034402
Sum of atomic charges:    0.0000000

LOEWDIN ATOMIC CHARGES
----------------------
   0 C :    0.088338
   1 N :   -0.075131
   2 C :    0.045041
   3 C :   -0.046634
   4 C :    0.070979
   5 O :   -0.121093
   6 C :   -0.034435
   7 C :    0.040705
   8 N :   -0.088393
   9 C :    0.087308
  10 C :   -0.022993
  11 C :   -0.031877
  12 C :   -0.021170
  13 C :    0.024782
  14 C :   -0.014325
  15 N :    0.280959
  16 O :   -0.183414
  17 O :   -0.185649
  18 C :   -0.011756
  19 C :    0.002818
  20 C :    0.007517
  21 C :    0.067078
  22 C :   -0.052891
  23 C :    0.073879
  24 N :   -0.096681
  25 C :    0.047180
  26 C :   -0.037704
  27 C :    0.066467
  28 O :   -0.141975
  29 C :   -0.042514
  30 C :    0.024213
  31 N :   -0.092043
  32 C :    0.075121
  33 C :   -0.035109
  34 C :   -0.025657
  35 C :   -0.030722
  36 C :    0.004125
  37 C :   -0.036268
  38 N :    0.291356
  39 O :   -0.221208
  40 O :   -0.188018
  41 C :    0.005578
  42 C :   -0.006672
  43 C :    0.031660
  44 C :   -0.022164
  45 C :   -0.020207
  46 C :   -0.172482
  47 S :    0.460357
  48 C :   -0.127191
  49 C :   -0.120868
  50 C :   -0.030372
  51 C :    0.109438
  52 O :   -0.136015
  53 C :   -0.041019
  54 C :   -0.025083
  55 H :    0.026857
  56 H :    0.027719
  57 H :    0.038568
  58 H :    0.041633
  59 H :    0.037424
  60 H :    0.035931
  61 H :    0.044381
  62 H :    0.035206
  63 H :    0.024564
  64 H :    0.034647
  65 H :    0.036892
  66 H :    0.035379
  67 H :    0.039564
  68 H :    0.027385
  69 H :    0.027990
  70 H :    0.033113
  71 H :   -0.001448
  72 H :    0.041001
  73 H :    0.016964
  74 H :    0.031066

  Mayer bond orders larger than 0.100000
B(  0-C ,  1-N ) :   1.7339 B(  0-C , 11-C ) :   1.0380 B(  0-C , 55-H ) :   0.9865
B(  1-N ,  2-C ) :   1.2728 B(  2-C ,  3-C ) :   1.0473 B(  2-C ,  7-C ) :   1.5050
B(  3-C ,  4-C ) :   0.8888 B(  3-C , 11-C ) :   1.6172 B(  4-C ,  5-O ) :   2.2104
B(  4-C ,  6-C ) :   0.9183 B(  6-C ,  7-C ) :   1.0481 B(  6-C , 10-C ) :   1.6395
B(  7-C ,  8-N ) :   1.2789 B(  8-N ,  9-C ) :   1.6935 B(  9-C , 10-C ) :   1.0405
B(  9-C , 56-H ) :   0.9878 B( 10-C , 57-H ) :   1.0119 B( 11-C , 12-C ) :   1.0258
B( 12-C , 13-C ) :   1.2960 B( 12-C , 20-C ) :   1.3143 B( 13-C , 14-C ) :   1.3939
B( 13-C , 58-H ) :   0.9758 B( 14-C , 15-N ) :   0.8670 B( 14-C , 18-C ) :   1.3364
B( 15-N , 16-O ) :   1.5623 B( 15-N , 17-O ) :   1.5213 B( 16-O , 17-O ) :   0.2725
B( 18-C , 19-C ) :   1.3399 B( 18-C , 21-C ) :   1.0308 B( 19-C , 20-C ) :   1.4090
B( 19-C , 59-H ) :   0.9865 B( 20-C , 60-H ) :   0.9967 B( 21-C , 22-C ) :   1.7057
B( 21-C , 61-H ) :   0.9537 B( 22-C , 23-C ) :   1.1208 B( 22-C , 62-H ) :   0.9616
B( 23-C , 24-N ) :   1.6038 B( 23-C , 25-C ) :   0.1084 B( 23-C , 34-C ) :   1.0181
B( 24-N , 25-C ) :   1.3616 B( 25-C , 26-C ) :   1.0376 B( 25-C , 30-C ) :   1.4155
B( 26-C , 27-C ) :   0.8816 B( 26-C , 34-C ) :   1.6246 B( 27-C , 28-O ) :   2.2437
B( 27-C , 29-C ) :   0.9175 B( 29-C , 30-C ) :   1.0583 B( 29-C , 33-C ) :   1.6026
B( 30-C , 31-N ) :   1.3163 B( 31-N , 32-C ) :   1.6550 B( 32-C , 33-C ) :   1.0741
B( 32-C , 63-H ) :   0.9889 B( 33-C , 64-H ) :   1.0111 B( 34-C , 35-C ) :   0.9965
B( 35-C , 36-C ) :   1.3181 B( 35-C , 43-C ) :   1.3296 B( 36-C , 37-C ) :   1.3530
B( 36-C , 65-H ) :   0.9949 B( 37-C , 38-N ) :   0.8937 B( 37-C , 41-C ) :   1.3458
B( 38-N , 39-O ) :   1.5127 B( 38-N , 40-O ) :   1.5245 B( 39-O , 40-O ) :   0.2579
B( 41-C , 42-C ) :   1.3141 B( 41-C , 44-C ) :   1.0871 B( 42-C , 43-C ) :   1.4127
B( 42-C , 66-H ) :   0.9902 B( 43-C , 67-H ) :   0.9862 B( 44-C , 45-C ) :   1.7398
B( 44-C , 68-H ) :   0.9493 B( 45-C , 46-C ) :   1.1032 B( 45-C , 69-H ) :   0.9591
B( 46-C , 47-S ) :   1.1098 B( 46-C , 50-C ) :   1.5330 B( 47-S , 48-C ) :   1.1634
B( 48-C , 49-C ) :   1.4452 B( 48-C , 53-C ) :   1.1431 B( 49-C , 50-C ) :   1.2181
B( 49-C , 51-C ) :   0.9974 B( 50-C , 70-H ) :   0.9896 B( 51-C , 52-O ) :   2.1301
B( 51-C , 71-H ) :   0.9602 B( 53-C , 54-C ) :   1.8939 B( 53-C , 72-H ) :   0.9476
B( 54-C , 73-H ) :   0.9555 B( 54-C , 74-H ) :   0.9501

-----------------------------------------------------------------------------
         ABSORPTION SPECTRUM VIA TRANSITION ELECTRIC DIPOLE MOMENTS
-----------------------------------------------------------------------------
State   Energy  Wavelength   fosc         T2         TX        TY        TZ
        (cm-1)    (nm)                  (au**2)     (au)      (au)      (au)
-----------------------------------------------------------------------------
   0   19184.8    521.2   0.128984861   2.21339   0.06710  -0.77507   1.26813
   1   21176.2    472.2   0.709074051  11.02347  -2.06849  -2.50270  -0.69376
   2   22423.3    446.0   0.008923031   0.13101   0.06460   0.34973  -0.06722
   3   22985.6    435.1   0.000754672   0.01081   0.07085  -0.00245  -0.07605
   4   23081.5    433.2   0.531046887   7.57433  -1.27475  -2.38580   0.50725
   5   24281.4    411.8   0.436708005   5.92098  -0.45574   0.35389  -2.36390
   6   24727.5    404.4   0.344630031   4.58827   1.01374   0.92814   1.64291
   7   25604.6    390.6   0.075694795   0.97325  -0.56684  -0.79957   0.11236
   8   25897.5    386.1   0.027218413   0.34600   0.33188   0.47233  -0.11297
   9   26804.4    373.1   0.005443954   0.06686  -0.21306  -0.07119  -0.12807
  10   26882.1    372.0   0.000048583   0.00059  -0.00757  -0.01567   0.01709
  11   27187.3    367.8   0.006233631   0.07548   0.15317   0.22436   0.04105
  12   27812.7    359.5   0.005276619   0.06246   0.12188  -0.16314   0.14488
  13   28366.6    352.5   0.002692832   0.03125  -0.07834   0.08135   0.13600
  14   29812.6    335.4   0.172940681   1.90974  -0.62901  -0.01842  -1.23034
  15   29983.1    333.5   0.636595618   6.98976   0.12652  -1.47230   2.19228
  16   31152.6    321.0   0.016054907   0.16966   0.23268   0.17431   0.29179
  17   31441.6    318.1   0.145983698   1.52854   0.73653   0.48798   0.86483
  18   31655.1    315.9   0.006167354   0.06414   0.11736  -0.06408   0.21508
  19   32432.3    308.3   0.054934246   0.55762  -0.30595  -0.59003  -0.34041
  20   32967.3    303.3   0.141855753   1.41657  -0.59263  -1.03104  -0.04802
  21   33228.6    300.9   0.014581647   0.14447  -0.22395   0.14776  -0.26922
  22   33652.0    297.2   0.042785841   0.41857   0.26091   0.58000  -0.11874
  23   33734.8    296.4   0.255579272   2.49415   1.07006   1.04475   0.50756
  24   33875.8    295.2   0.075447632   0.73322  -0.71657  -0.33316  -0.32977
  25   34258.9    291.9   0.110218112   1.05914  -0.66628  -0.75828  -0.20056
  26   34607.4    289.0   0.080403349   0.76486   0.59683   0.51179   0.38304
  27   35282.7    283.4   0.107012538   0.99850  -0.65970  -0.70764  -0.25008
  28   35324.9    283.1   0.048557558   0.45253  -0.47149  -0.42975   0.21343
  29   35559.8    281.2   0.048278092   0.44696   0.43191   0.29283   0.41793
  30   35839.9    279.0   0.048263477   0.44333  -0.02415   0.65636  -0.10925
  31   36280.4    275.6   0.006691523   0.06072   0.06883  -0.07481   0.22447
  32   36656.7    272.8   0.106413189   0.95569  -0.16143  -0.83251   0.48637
  33   36882.4    271.1   0.003103779   0.02770  -0.01415  -0.13878  -0.09079
  34   37052.6    269.9   0.115058646   1.02230   0.46699   0.19256   0.87586
  35   37516.8    266.5   0.000054491   0.00048   0.01125   0.01319   0.01333
  36   38003.5    263.1   0.036343573   0.31483   0.06844  -0.29609   0.47168
  37   38245.9    261.5   0.000240959   0.00207  -0.00392   0.01216  -0.04371
  38   38390.4    260.5   0.000480232   0.00412  -0.05748  -0.00993   0.02675
  39   38874.1    257.2   0.004261933   0.03609  -0.15145  -0.10194  -0.05257
  40   38934.3    256.8   0.007776514   0.06575   0.14351  -0.02202   0.21137
  41   39229.0    254.9   0.064566477   0.54185   0.37765   0.61118  -0.16028
  42   39317.7    254.3   0.191431742   1.60288  -0.50791  -1.04188   0.50931
  43   39623.6    252.4   0.000573805   0.00477   0.02343   0.06161  -0.02055
  44   39794.8    251.3   0.008365009   0.06920   0.00832  -0.19859   0.17232
  45   40037.3    249.8   0.011969373   0.09842   0.23341  -0.03776   0.20619
  46   40206.2    248.7   0.135929305   1.11300  -0.75895   0.01260  -0.73269

FINAL SINGLE POINT ENERGY     -2824.170398163256

DIPOLE MOMENT
-------------
                                X             Y             Z
Electronic contribution:    -10.82663      -0.62249     -26.53564
Nuclear contribution   :     10.86548       0.92305      27.08645
                        -----------------------------------------
Total Dipole Moment    :      0.03885       0.30056       0.55081
                        -----------------------------------------
Magnitude (a.u.)       :      0.62868
Magnitude (Debye)      :      1.59797

Rotational constants in cm-1:     0.001442     0.000657     0.000458
Rotational constants in MHz :    43.237083    19.702877    13.740515

                             ****ORCA TERMINATED NORMALLY****
TOTAL RUN TIME: 0 days 0 hours 5 minutes 35 seconds 441 msec
