                         Program Version 4.2.0 -  RELEASE  -
|  1> # ORCA input file
|  2> # SCF done       -166.127054790233          0.000710469919
|  3> ! CAM-B3LYP def2-SVP def2/J RIJCOSX Grid4 TightSCF
|  4> %maxcore 5000
|  5> %tddft
|  6>     Mode sTDDFT
|  7>     Ethresh 5.0
|  8>     maxcore 5000
|  9> end
| 10>
| 11> %pal
| 12>   nprocs 6
| 13>   end
| 14> * xyz 0 1
| 15>    C        3.72040        -0.58541        -3.23480
| 16>    N        2.94771        -1.62101        -3.10489
| 17>    C        2.26546        -1.42204        -1.94059
| 18>    C        2.66811        -0.15036        -1.31109
| 19>    C        1.92066         0.05027        -0.05761
| 20>    O        1.98700         0.96898         0.73015
| 21>    C        1.06548        -1.15065         0.00958
| 22>    C        1.31587        -2.02227        -1.16381
| 23>    N        0.53093        -3.13046        -1.10780
| 24>    C       -0.16701        -3.00145        -0.01183
| 25>    C        0.11580        -1.78514         0.73656
| 26>    C        3.61023         0.39745        -2.14680
| 27>    C        4.34548         1.63286        -2.04622
| 28>    C        5.26775         2.01468        -3.02160
| 29>    C        5.95765         3.20845        -2.90966
| 30>    N        6.96731         3.48470        -3.89972
| 31>    O        6.86631         2.92339        -4.96969
| 32>    O        7.87551         4.22656        -3.58967
| 33>    C        5.75001         4.09011        -1.83281
| 34>    C        4.83751         3.67805        -0.85128
| 35>    C        4.15592         2.48840        -0.94769
| 36>    C        6.36604         5.39201        -1.77175
| 37>    C        6.76156         5.98375        -0.62316
| 38>    C        7.30709         7.29690        -0.60441
| 39>    N        7.85550         7.89037         0.50752
| 40>    C        7.93951         7.32914         1.83346
| 41>    C        6.61417         7.44658         2.58329
| 42>    C        8.31447         9.19735         0.23828
| 43>    O        8.84419         9.90838         1.06653
| 44>    C        8.00971         9.39145        -1.16013
| 45>    C        7.39628         8.21255        -1.64873
| 46>    C        7.08300         8.43426        -3.04173
| 47>    O        6.56399         7.72730        -3.88125
| 48>    N        7.52689         9.74866        -3.30326
| 49>    C        7.41269        10.27668        -4.64311
| 50>    C        6.06020        10.94248        -4.88492
| 51>    C        8.06665        10.33230        -2.18461
| 52>    C        8.59402        11.64456        -2.00566
| 53>    C        8.40789        12.73051        -2.78366
| 54>    C        8.94741        14.03328        -2.49156
| 55>    C        9.99027        14.29299        -1.64138
| 56>    S       10.38309        15.95760        -1.54913
| 57>    C        9.14443        16.35438        -2.64965
| 58>    C        8.45483        15.25189        -3.08400
| 59>    C        7.32434        15.32629        -4.00429
| 60>    O        6.65868        14.41037        -4.41053
| 61>    O        7.07828        16.62868        -4.37410
| 62>    C        6.02899        16.86907        -5.18249
| 63>    C        5.72590        18.11382        -5.59191
| 64>    C        4.60220        18.35871        -6.43196
| 65>    N        3.78940        17.39369        -6.85034
| 66>    C        2.85862        18.00337        -7.60086
| 67>    C        3.10334        19.47064        -7.66521
| 68>    C        2.06832        20.13153        -8.49246
| 69>    O        1.95658        21.30404        -8.76050
| 70>    C        1.21849        18.99862        -8.89828
| 71>    C        1.73552        17.72792        -8.33503
| 72>    N        0.94966        16.68814        -8.70848
| 73>    C        0.00561        17.21877        -9.44512
| 74>    C        0.11196        18.65516        -9.60507
| 75>    C        4.20845        19.68483        -6.92131
| 76>    H        4.36685        -0.50769        -4.09139
| 77>    H       -0.87872        -3.75696         0.27301
| 78>    H       -0.35214        -1.49806         1.65737
| 79>    H        5.47952         1.38889        -3.87478
| 80>    H        4.64060         4.33598        -0.01904
| 81>    H        3.45531         2.21076        -0.17481
| 82>    H        6.50530         5.92069        -2.70656
| 83>    H        6.71243         5.44334         0.31178
| 84>    H        8.70694         7.90537         2.35805
| 85>    H        8.26292         6.28653         1.77044
| 86>    H        6.33497         8.49297         2.67851
| 87>    H        6.71407         7.02159         3.57816
| 88>    H        5.81833         6.92420         2.05694
| 89>    H        7.50719         9.41891        -5.31686
| 90>    H        8.24000        10.96403        -4.82930
| 91>    H        5.26564        10.21396        -4.74487
| 92>    H        6.01461        11.31528        -5.90408
| 93>    H        5.89334        11.77513        -4.20650
| 94>    H        9.14094        11.74175        -1.07644
| 95>    H        7.77656        12.69103        -3.65492
| 96>    H       10.56443        13.58803        -1.07472
| 97>    H        8.97603        17.37562        -2.92725
| 98>    H        5.43438        16.01392        -5.48587
| 99>    H        6.32801        18.95691        -5.28689
|100>    H       -0.76152        16.59698        -9.87373
|101>    H       -0.56035        19.27159       -10.16818
|102>    H        4.72519        20.59854        -6.70316
|103> *
|104>
|105>                          ****END OF INPUT****

CARTESIAN COORDINATES (ANGSTROEM)
---------------------------------
  C      3.720400   -0.585410   -3.234800
  N      2.947710   -1.621010   -3.104890
  C      2.265460   -1.422040   -1.940590
  C      2.668110   -0.150360   -1.311090
  C      1.920660    0.050270   -0.057610
  O      1.987000    0.968980    0.730150
  C      1.065480   -1.150650    0.009580
  C      1.315870   -2.022270   -1.163810
  N      0.530930   -3.130460   -1.107800
  C     -0.167010   -3.001450   -0.011830
  C      0.115800   -1.785140    0.736560
  C      3.610230    0.397450   -2.146800
  C      4.345480    1.632860   -2.046220
  C      5.267750    2.014680   -3.021600
  C      5.957650    3.208450   -2.909660
  N      6.967310    3.484700   -3.899720
  O      6.866310    2.923390   -4.969690
  O      7.875510    4.226560   -3.589670
  C      5.750010    4.090110   -1.832810
  C      4.837510    3.678050   -0.851280
  C      4.155920    2.488400   -0.947690
  C      6.366040    5.392010   -1.771750
  C      6.761560    5.983750   -0.623160
  C      7.307090    7.296900   -0.604410
  N      7.855500    7.890370    0.507520
  C      7.939510    7.329140    1.833460
  C      6.614170    7.446580    2.583290
  C      8.314470    9.197350    0.238280
  O      8.844190    9.908380    1.066530
  C      8.009710    9.391450   -1.160130
  C      7.396280    8.212550   -1.648730
  C      7.083000    8.434260   -3.041730
  O      6.563990    7.727300   -3.881250
  N      7.526890    9.748660   -3.303260
  C      7.412690   10.276680   -4.643110
  C      6.060200   10.942480   -4.884920
  C      8.066650   10.332300   -2.184610
  C      8.594020   11.644560   -2.005660
  C      8.407890   12.730510   -2.783660
  C      8.947410   14.033280   -2.491560
  C      9.990270   14.292990   -1.641380
  S     10.383090   15.957600   -1.549130
  C      9.144430   16.354380   -2.649650
  C      8.454830   15.251890   -3.084000
  C      7.324340   15.326290   -4.004290
  O      6.658680   14.410370   -4.410530
  O      7.078280   16.628680   -4.374100
  C      6.028990   16.869070   -5.182490
  C      5.725900   18.113820   -5.591910
  C      4.602200   18.358710   -6.431960
  N      3.789400   17.393690   -6.850340
  C      2.858620   18.003370   -7.600860
  C      3.103340   19.470640   -7.665210
  C      2.068320   20.131530   -8.492460
  O      1.956580   21.304040   -8.760500
  C      1.218490   18.998620   -8.898280
  C      1.735520   17.727920   -8.335030
  N      0.949660   16.688140   -8.708480
  C      0.005610   17.218770   -9.445120
  C      0.111960   18.655160   -9.605070
  C      4.208450   19.684830   -6.921310
  H      4.366850   -0.507690   -4.091390
  H     -0.878720   -3.756960    0.273010
  H     -0.352140   -1.498060    1.657370
  H      5.479520    1.388890   -3.874780
  H      4.640600    4.335980   -0.019040
  H      3.455310    2.210760   -0.174810
  H      6.505300    5.920690   -2.706560
  H      6.712430    5.443340    0.311780
  H      8.706940    7.905370    2.358050
  H      8.262920    6.286530    1.770440
  H      6.334970    8.492970    2.678510
  H      6.714070    7.021590    3.578160
  H      5.818330    6.924200    2.056940
  H      7.507190    9.418910   -5.316860
  H      8.240000   10.964030   -4.829300
  H      5.265640   10.213960   -4.744870
  H      6.014610   11.315280   -5.904080
  H      5.893340   11.775130   -4.206500
  H      9.140940   11.741750   -1.076440
  H      7.776560   12.691030   -3.654920
  H     10.564430   13.588030   -1.074720
  H      8.976030   17.375620   -2.927250
  H      5.434380   16.013920   -5.485870
  H      6.328010   18.956910   -5.286890
  H     -0.761520   16.596980   -9.873730
  H     -0.560350   19.271590  -10.168180
  H      4.725190   20.598540   -6.703160

 Total Charge           Charge          ....    0
 Multiplicity           Mult            ....    1
 Number of Electrons    NEL             ....  426
 Basis Dimension        Dim             ....  993

ORBITAL ENERGIES
----------------

  NO   OCC          E(Eh)            E(eV)
   0   2.0000     -88.983860     -2421.3739
   1   2.0000     -19.306499      -525.3565
   2   2.0000     -19.244234      -523.6622
   3   2.0000     -19.242104      -523.6043
   4   2.0000     -19.238720      -523.5122
   5   2.0000     -19.226451      -523.1783
   6   2.0000     -19.204124      -522.5708
   7   2.0000     -19.185265      -522.0576
   8   2.0000     -19.183758      -522.0166
   9   2.0000     -14.648558      -398.6075
  10   2.0000     -14.448396      -393.1608
  11   2.0000     -14.447427      -393.1345
  12   2.0000     -14.424637      -392.5143
  13   2.0000     -14.419413      -392.3722
  14   2.0000     -14.402040      -391.8994
  15   2.0000     -14.399770      -391.8377
  16   2.0000     -10.435922      -283.9759
  17   2.0000     -10.386318      -282.6261
  18   2.0000     -10.367812      -282.1225
  19   2.0000     -10.366963      -282.0994
  20   2.0000     -10.366143      -282.0771
  21   2.0000     -10.365354      -282.0556
  22   2.0000     -10.345155      -281.5060
  23   2.0000     -10.343790      -281.4688
  24   2.0000     -10.342266      -281.4274
  25   2.0000     -10.339858      -281.3618
  26   2.0000     -10.339310      -281.3469
  27   2.0000     -10.335508      -281.2435
  28   2.0000     -10.335184      -281.2347
  29   2.0000     -10.332222      -281.1541
  30   2.0000     -10.327871      -281.0357
  31   2.0000     -10.325628      -280.9746
  32   2.0000     -10.319054      -280.7957
  33   2.0000     -10.318308      -280.7754
  34   2.0000     -10.317993      -280.7669
  35   2.0000     -10.315198      -280.6908
  36   2.0000     -10.311159      -280.5809
  37   2.0000     -10.310090      -280.5518
  38   2.0000     -10.307201      -280.4732
  39   2.0000     -10.306935      -280.4660
  40   2.0000     -10.306513      -280.4545
  41   2.0000     -10.305016      -280.4137
  42   2.0000     -10.304007      -280.3863
  43   2.0000     -10.302701      -280.3507
  44   2.0000     -10.302064      -280.3334
  45   2.0000     -10.298283      -280.2305
  46   2.0000     -10.295298      -280.1493
  47   2.0000     -10.293797      -280.1085
  48   2.0000     -10.292965      -280.0858
  49   2.0000     -10.292219      -280.0655
  50   2.0000     -10.292126      -280.0630
  51   2.0000     -10.291089      -280.0348
  52   2.0000     -10.290359      -280.0149
  53   2.0000     -10.288790      -279.9722
  54   2.0000     -10.287707      -279.9427
  55   2.0000     -10.283608      -279.8312
  56   2.0000     -10.283024      -279.8153
  57   2.0000     -10.263414      -279.2817
  58   2.0000     -10.253647      -279.0159
  59   2.0000     -10.253333      -279.0074
  60   2.0000     -10.247850      -278.8582
  61   2.0000      -8.080171      -219.8726
  62   2.0000      -6.049196      -164.6070
  63   2.0000      -6.044704      -164.4848
  64   2.0000      -6.043035      -164.4393
  65   2.0000      -1.324251       -36.0347
  66   2.0000      -1.234450       -33.5911
  67   2.0000      -1.143335       -31.1117
  68   2.0000      -1.141025       -31.0489
  69   2.0000      -1.139665       -31.0119
  70   2.0000      -1.127288       -30.6751
  71   2.0000      -1.120621       -30.4937
  72   2.0000      -1.120071       -30.4787
  73   2.0000      -1.090241       -29.6670
  74   2.0000      -1.072970       -29.1970
  75   2.0000      -1.072392       -29.1813
  76   2.0000      -1.057568       -28.7779
  77   2.0000      -1.053616       -28.6703
  78   2.0000      -1.048792       -28.5391
  79   2.0000      -1.008785       -27.4504
  80   2.0000      -0.995275       -27.0828
  81   2.0000      -0.947354       -25.7788
  82   2.0000      -0.934326       -25.4243
  83   2.0000      -0.930025       -25.3073
  84   2.0000      -0.922163       -25.0933
  85   2.0000      -0.910204       -24.7679
  86   2.0000      -0.907961       -24.7069
  87   2.0000      -0.906486       -24.6667
  88   2.0000      -0.883622       -24.0446
  89   2.0000      -0.874654       -23.8005
  90   2.0000      -0.873741       -23.7757
  91   2.0000      -0.868296       -23.6275
  92   2.0000      -0.861374       -23.4392
  93   2.0000      -0.850565       -23.1450
  94   2.0000      -0.848724       -23.0950
  95   2.0000      -0.841644       -22.9023
  96   2.0000      -0.813917       -22.1478
  97   2.0000      -0.807132       -21.9632
  98   2.0000      -0.794379       -21.6162
  99   2.0000      -0.783506       -21.3203
 100   2.0000      -0.782472       -21.2921
 101   2.0000      -0.774416       -21.0729
 102   2.0000      -0.759592       -20.6695
 103   2.0000      -0.753906       -20.5148
 104   2.0000      -0.753672       -20.5084
 105   2.0000      -0.738235       -20.0884
 106   2.0000      -0.730674       -19.8827
 107   2.0000      -0.713523       -19.4159
 108   2.0000      -0.706957       -19.2373
 109   2.0000      -0.703378       -19.1399
 110   2.0000      -0.699105       -19.0236
 111   2.0000      -0.690045       -18.7771
 112   2.0000      -0.689164       -18.7531
 113   2.0000      -0.678601       -18.4657
 114   2.0000      -0.670392       -18.2423
 115   2.0000      -0.662125       -18.0173
 116   2.0000      -0.656983       -17.8774
 117   2.0000      -0.649305       -17.6685
 118   2.0000      -0.645296       -17.5594
 119   2.0000      -0.642548       -17.4846
 120   2.0000      -0.641598       -17.4588
 121   2.0000      -0.637393       -17.3443
 122   2.0000      -0.630633       -17.1604
 123   2.0000      -0.629361       -17.1258
 124   2.0000      -0.620894       -16.8954
 125   2.0000      -0.609673       -16.5900
 126   2.0000      -0.604663       -16.4537
 127   2.0000      -0.601299       -16.3622
 128   2.0000      -0.595358       -16.2005
 129   2.0000      -0.591292       -16.0899
 130   2.0000      -0.585586       -15.9346
 131   2.0000      -0.584104       -15.8943
 132   2.0000      -0.581920       -15.8348
 133   2.0000      -0.580735       -15.8026
 134   2.0000      -0.575884       -15.6706
 135   2.0000      -0.571559       -15.5529
 136   2.0000      -0.564953       -15.3732
 137   2.0000      -0.563446       -15.3322
 138   2.0000      -0.556595       -15.1457
 139   2.0000      -0.553343       -15.0572
 140   2.0000      -0.552863       -15.0442
 141   2.0000      -0.545702       -14.8493
 142   2.0000      -0.543131       -14.7793
 143   2.0000      -0.540701       -14.7132
 144   2.0000      -0.539315       -14.6755
 145   2.0000      -0.536996       -14.6124
 146   2.0000      -0.533000       -14.5037
 147   2.0000      -0.526498       -14.3267
 148   2.0000      -0.525747       -14.3063
 149   2.0000      -0.524359       -14.2685
 150   2.0000      -0.521256       -14.1841
 151   2.0000      -0.519545       -14.1375
 152   2.0000      -0.514434       -13.9985
 153   2.0000      -0.510346       -13.8872
 154   2.0000      -0.509138       -13.8544
 155   2.0000      -0.506919       -13.7940
 156   2.0000      -0.502509       -13.6740
 157   2.0000      -0.501866       -13.6565
 158   2.0000      -0.498613       -13.5679
 159   2.0000      -0.497750       -13.5445
 160   2.0000      -0.495223       -13.4757
 161   2.0000      -0.494878       -13.4663
 162   2.0000      -0.487028       -13.2527
 163   2.0000      -0.485295       -13.2055
 164   2.0000      -0.483197       -13.1485
 165   2.0000      -0.480660       -13.0794
 166   2.0000      -0.475780       -12.9466
 167   2.0000      -0.475176       -12.9302
 168   2.0000      -0.472645       -12.8613
 169   2.0000      -0.469644       -12.7797
 170   2.0000      -0.467453       -12.7200
 171   2.0000      -0.465470       -12.6661
 172   2.0000      -0.461373       -12.5546
 173   2.0000      -0.460919       -12.5422
 174   2.0000      -0.457542       -12.4503
 175   2.0000      -0.456149       -12.4124
 176   2.0000      -0.455565       -12.3966
 177   2.0000      -0.451822       -12.2947
 178   2.0000      -0.448524       -12.2050
 179   2.0000      -0.446108       -12.1392
 180   2.0000      -0.441640       -12.0176
 181   2.0000      -0.435421       -11.8484
 182   2.0000      -0.433263       -11.7897
 183   2.0000      -0.426470       -11.6048
 184   2.0000      -0.424133       -11.5412
 185   2.0000      -0.412296       -11.2192
 186   2.0000      -0.400867       -10.9081
 187   2.0000      -0.386858       -10.5269
 188   2.0000      -0.385685       -10.4950
 189   2.0000      -0.380596       -10.3565
 190   2.0000      -0.379281       -10.3208
 191   2.0000      -0.375348       -10.2137
 192   2.0000      -0.370851       -10.0914
 193   2.0000      -0.368776       -10.0349
 194   2.0000      -0.366562        -9.9747
 195   2.0000      -0.356871        -9.7110
 196   2.0000      -0.354252        -9.6397
 197   2.0000      -0.350689        -9.5427
 198   2.0000      -0.348036        -9.4705
 199   2.0000      -0.345835        -9.4106
 200   2.0000      -0.343578        -9.3492
 201   2.0000      -0.342670        -9.3245
 202   2.0000      -0.342336        -9.3154
 203   2.0000      -0.340178        -9.2567
 204   2.0000      -0.339575        -9.2403
 205   2.0000      -0.326267        -8.8782
 206   2.0000      -0.325608        -8.8603
 207   2.0000      -0.323224        -8.7954
 208   2.0000      -0.310647        -8.4531
 209   2.0000      -0.308832        -8.4037
 210   2.0000      -0.300718        -8.1829
 211   2.0000      -0.295500        -8.0410
 212   2.0000      -0.234215        -6.3733
 213   0.0000      -0.118407        -3.2220
 214   0.0000      -0.104908        -2.8547
 215   0.0000      -0.080136        -2.1806
 216   0.0000      -0.058056        -1.5798
 217   0.0000      -0.045910        -1.2493

MULLIKEN ATOMIC CHARGES
-----------------------
   0 C :    0.059683
   1 N :   -0.021129
   2 C :    0.050187
   3 C :   -0.148653
   4 C :    0.221794
   5 O :   -0.135957
   6 C :   -0.007242
   7 C :   -0.006529
   8 N :   -0.049064
   9 C :    0.094607
  10 C :   -0.094182
  11 C :    0.009818
  12 C :    0.098754
  13 C :   -0.090968
  14 C :    0.155263
  15 N :    0.247632
  16 O :   -0.233882
  17 O :   -0.219434
  18 C :    0.054093
  19 C :   -0.027662
  20 C :    0.011930
  21 C :    0.021048
  22 C :   -0.037203
  23 C :    0.130798
  24 N :   -0.265338
  25 C :    0.101295
  26 C :    0.006439
  27 C :    0.142671
  28 O :   -0.200425
  29 C :   -0.042144
  30 C :   -0.054477
  31 C :    0.163187
  32 O :   -0.209373
  33 N :   -0.259854
  34 C :    0.103875
  35 C :    0.010287
  36 C :    0.102972
  37 C :   -0.022283
  38 C :   -0.003395
  39 C :    0.104799
  40 C :   -0.140020
  41 S :    0.164480
  42 C :   -0.084017
  43 C :   -0.023425
  44 C :    0.228985
  45 O :   -0.172678
  46 O :   -0.243238
  47 C :    0.219866
  48 C :   -0.040715
  49 C :    0.051662
  50 N :   -0.062767
  51 C :    0.039833
  52 C :   -0.027159
  53 C :    0.210214
  54 O :   -0.120323
  55 C :   -0.047730
  56 C :   -0.009536
  57 N :   -0.060384
  58 C :    0.086482
  59 C :   -0.091610
  60 C :   -0.098401
  61 H :    0.019260
  62 H :    0.018250
  63 H :    0.001568
  64 H :   -0.001907
  65 H :   -0.009644
  66 H :   -0.004756
  67 H :    0.042743
  68 H :   -0.022722
  69 H :    0.041984
  70 H :    0.022760
  71 H :    0.030906
  72 H :    0.021650
  73 H :    0.009956
  74 H :    0.035413
  75 H :    0.021814
  76 H :    0.025648
  77 H :    0.020939
  78 H :    0.028648
  79 H :    0.000777
  80 H :    0.012695
  81 H :    0.044414
  82 H :    0.040954
  83 H :    0.066020
  84 H :   -0.001445
  85 H :    0.007775
  86 H :   -0.006047
  87 H :   -0.009113
Sum of atomic charges:   -0.0000000

LOEWDIN ATOMIC CHARGES
----------------------
   0 C :    0.091832
   1 N :   -0.075169
   2 C :    0.048397
   3 C :   -0.054205
   4 C :    0.072999
   5 O :   -0.133300
   6 C :   -0.035031
   7 C :    0.036742
   8 N :   -0.088607
   9 C :    0.084400
  10 C :   -0.025007
  11 C :   -0.026972
  12 C :   -0.029866
  13 C :    0.010445
  14 C :   -0.023020
  15 N :    0.286063
  16 O :   -0.201782
  17 O :   -0.180177
  18 C :    0.001209
  19 C :   -0.004403
  20 C :    0.024366
  21 C :    0.037642
  22 C :   -0.044693
  23 C :    0.079746
  24 N :   -0.004887
  25 C :    0.036203
  26 C :   -0.061276
  27 C :    0.078283
  28 O :   -0.203772
  29 C :   -0.119636
  30 C :   -0.124119
  31 C :    0.083403
  32 O :   -0.195909
  33 N :    0.001810
  34 C :    0.036272
  35 C :   -0.061079
  36 C :    0.072443
  37 C :   -0.022407
  38 C :   -0.006941
  39 C :   -0.042917
  40 C :   -0.173473
  41 S :    0.492705
  42 C :   -0.146666
  43 C :   -0.114581
  44 C :    0.122313
  45 O :   -0.140403
  46 O :   -0.037825
  47 C :    0.138737
  48 C :   -0.089993
  49 C :    0.070121
  50 N :   -0.123261
  51 C :    0.043297
  52 C :   -0.025371
  53 C :    0.061940
  54 O :   -0.134347
  55 C :   -0.042877
  56 C :    0.020083
  57 N :   -0.097682
  58 C :    0.071792
  59 C :   -0.041398
  60 C :   -0.025906
  61 H :    0.028669
  62 H :    0.027135
  63 H :    0.037162
  64 H :    0.037282
  65 H :    0.035927
  66 H :    0.034815
  67 H :    0.038615
  68 H :    0.027759
  69 H :    0.037406
  70 H :    0.023047
  71 H :    0.032786
  72 H :    0.029877
  73 H :    0.019727
  74 H :    0.035501
  75 H :    0.023729
  76 H :    0.030944
  77 H :    0.031407
  78 H :    0.022990
  79 H :    0.041527
  80 H :    0.032227
  81 H :    0.030346
  82 H :    0.031035
  83 H :    0.038905
  84 H :    0.036641
  85 H :    0.022825
  86 H :    0.033464
  87 H :    0.033966

  Mayer bond orders larger than 0.100000
B(  0-C ,  1-N ) :   1.7274 B(  0-C , 11-C ) :   1.0391 B(  0-C , 61-H ) :   0.9852
B(  1-N ,  2-C ) :   1.2761 B(  2-C ,  3-C ) :   1.0476 B(  2-C ,  7-C ) :   1.5011
B(  3-C ,  4-C ) :   0.8950 B(  3-C , 11-C ) :   1.6017 B(  4-C ,  5-O ) :   2.1858
B(  4-C ,  6-C ) :   0.9282 B(  5-O , 66-H ) :   0.1075 B(  6-C ,  7-C ) :   1.0518
B(  6-C , 10-C ) :   1.6310 B(  7-C ,  8-N ) :   1.2848 B(  8-N ,  9-C ) :   1.6863
B(  9-C , 10-C ) :   1.0463 B(  9-C , 62-H ) :   0.9883 B( 10-C , 63-H ) :   1.0123
B( 11-C , 12-C ) :   1.0345 B( 12-C , 13-C ) :   1.2867 B( 12-C , 20-C ) :   1.3242
B( 13-C , 14-C ) :   1.3840 B( 13-C , 64-H ) :   0.9892 B( 14-C , 15-N ) :   0.8804
B( 14-C , 18-C ) :   1.3440 B( 15-N , 16-O ) :   1.5455 B( 15-N , 17-O ) :   1.5354
B( 16-O , 17-O ) :   0.2678 B( 18-C , 19-C ) :   1.3354 B( 18-C , 21-C ) :   1.0467
B( 19-C , 20-C ) :   1.4009 B( 19-C , 65-H ) :   0.9928 B( 20-C , 66-H ) :   0.9705
B( 21-C , 22-C ) :   1.6818 B( 21-C , 67-H ) :   0.9155 B( 22-C , 23-C ) :   1.1428
B( 22-C , 68-H ) :   0.9650 B( 23-C , 24-N ) :   1.1643 B( 23-C , 30-C ) :   1.3547
B( 24-N , 25-C ) :   0.9483 B( 24-N , 27-C ) :   1.0310 B( 25-C , 26-C ) :   1.1194
B( 25-C , 69-H ) :   0.9281 B( 25-C , 70-H ) :   0.9508 B( 26-C , 71-H ) :   0.9637
B( 26-C , 72-H ) :   0.9678 B( 26-C , 73-H ) :   0.9691 B( 27-C , 28-O ) :   2.1269
B( 27-C , 29-C ) :   0.9829 B( 29-C , 30-C ) :   1.2322 B( 29-C , 36-C ) :   1.3508
B( 30-C , 31-C ) :   0.9883 B( 31-C , 32-O ) :   2.0222 B( 31-C , 33-N ) :   1.0566
B( 32-O , 67-H ) :   0.1085 B( 33-N , 34-C ) :   0.9382 B( 33-N , 36-C ) :   1.1813
B( 34-C , 35-C ) :   1.1208 B( 34-C , 74-H ) :   0.9279 B( 34-C , 75-H ) :   0.9492
B( 35-C , 76-H ) :   0.9594 B( 35-C , 77-H ) :   0.9677 B( 35-C , 78-H ) :   0.9631
B( 36-C , 37-C ) :   1.1601 B( 37-C , 38-C ) :   1.6405 B( 37-C , 79-H ) :   0.9500
B( 38-C , 39-C ) :   1.0862 B( 38-C , 80-H ) :   0.9621 B( 39-C , 40-C ) :   1.5474
B( 39-C , 43-C ) :   1.2171 B( 40-C , 41-S ) :   1.1691 B( 40-C , 81-H ) :   0.9548
B( 41-S , 42-C ) :   1.2289 B( 42-C , 43-C ) :   1.5013 B( 42-C , 82-H ) :   0.9625
B( 43-C , 44-C ) :   0.9815 B( 44-C , 45-O ) :   2.0906 B( 44-C , 46-O ) :   1.0944
B( 46-O , 47-C ) :   1.0685 B( 47-C , 48-C ) :   1.6700 B( 47-C , 83-H ) :   0.9579
B( 48-C , 49-C ) :   1.1277 B( 48-C , 84-H ) :   0.9654 B( 49-C , 50-N ) :   1.5698
B( 49-C , 51-C ) :   0.1052 B( 49-C , 60-C ) :   1.0344 B( 50-N , 51-C ) :   1.3758
B( 51-C , 52-C ) :   1.0242 B( 51-C , 56-C ) :   1.4151 B( 52-C , 53-C ) :   0.8659
B( 52-C , 60-C ) :   1.6358 B( 53-C , 54-O ) :   2.3239 B( 53-C , 55-C ) :   0.8905
B( 55-C , 56-C ) :   1.0429 B( 55-C , 59-C ) :   1.6072 B( 56-C , 57-N ) :   1.3183
B( 57-N , 58-C ) :   1.6534 B( 58-C , 59-C ) :   1.0847 B( 58-C , 85-H ) :   0.9891
B( 59-C , 86-H ) :   1.0099 B( 60-C , 87-H ) :   1.0154

-----------------------------------------------------------------------------
         ABSORPTION SPECTRUM VIA TRANSITION ELECTRIC DIPOLE MOMENTS
-----------------------------------------------------------------------------
State   Energy  Wavelength   fosc         T2         TX        TY        TZ
        (cm-1)    (nm)                  (au**2)     (au)      (au)      (au)
-----------------------------------------------------------------------------
   0   14381.5    695.3   0.403384883   9.23404   1.12557   2.73620  -0.69305
   1   18072.4    553.3   0.271557090   4.94675   0.00560   2.00416  -0.96439
   2   18830.9    531.0   0.087371203   1.52747   0.32251   1.13499  -0.36777
   3   21949.0    455.6   0.131191101   1.96773  -0.76664  -1.02512   0.57368
   4   22493.5    444.6   0.000452520   0.00662  -0.07341   0.01077   0.03343
   5   22901.3    436.7   0.001192889   0.01715  -0.04398   0.09287  -0.08118
   6   24079.2    415.3   0.243270224   3.32600   0.85632  -0.66190   1.46786
   7   24295.2    411.6   0.237910655   3.22381   1.65156   0.18710   0.67908
   8   26069.9    383.6   0.038673296   0.48837  -0.63822  -0.17210  -0.22677
   9   26580.8    376.2   0.009930539   0.12299   0.26152  -0.06099   0.22557
  10   26653.1    375.2   0.183721539   2.26928  -1.21270   0.25888  -0.85535
  11   26658.2    375.1   0.007548805   0.09322   0.22995  -0.07416   0.18668
  12   26946.2    371.1   0.012590709   0.15383   0.27929   0.26387  -0.07873
  13   27193.7    367.7   0.026089675   0.31585  -0.38545  -0.39436  -0.10841
  14   28385.4    352.3   0.002130456   0.02471   0.12025  -0.05847   0.08265
  15   28568.4    350.0   0.002423428   0.02793  -0.08769   0.02075   0.14074
  16   29059.7    344.1   0.181412826   2.05519  -0.98671   0.65994  -0.80379
  17   29181.6    342.7   0.040344963   0.45515  -0.47761  -0.44973  -0.15743
  18   29386.7    340.3   0.303154169   3.39617  -1.48390   0.17107  -1.07932
  19   30476.5    328.1   0.356995199   3.85632   1.14467   1.58091   0.21623
  20   31111.9    321.4   0.530411813   5.61258  -1.30402  -1.97721  -0.05228
  21   31378.0    318.7   0.002695865   0.02828  -0.09079  -0.14059  -0.01659
  22   31379.9    318.7   0.000031703   0.00033  -0.01172   0.00460  -0.01319
  23   32160.7    310.9   0.044991139   0.46055   0.09915   0.57981   0.33844
  24   32415.1    308.5   0.004272982   0.04340   0.18488   0.09212  -0.02704
  25   32726.3    305.6   0.023713290   0.23855  -0.30519   0.31236   0.21871
  26   32884.8    304.1   0.059342154   0.59408  -0.48502  -0.50934   0.31529
  27   32898.0    304.0   0.116716395   1.16799   0.71563   0.66060  -0.46847
  28   33117.1    302.0   0.040931442   0.40689  -0.40139  -0.49260   0.05593
  29   33612.1    297.5   0.012943965   0.12678  -0.02466   0.35389  -0.03050
  30   33856.3    295.4   0.029829480   0.29006  -0.37122  -0.07793   0.38233
  31   34773.7    287.6   0.028758654   0.27227   0.33986   0.39296   0.04846
  32   34962.6    286.0   0.003616169   0.03405  -0.13759  -0.12248  -0.01078
  33   35350.5    282.9   0.058668108   0.54636  -0.01291   0.73882  -0.01840
  34   35423.1    282.3   0.001063542   0.00988   0.06435  -0.04651   0.05984
  35   36070.8    277.2   0.014436721   0.13176   0.10098   0.28014  -0.20757
  36   36243.7    275.9   0.148787507   1.35148  -0.73035  -0.56060   0.70979
  37   36349.7    275.1   0.212770422   1.92702  -0.92274  -0.62715   0.82599
  38   36995.6    270.3   0.152868752   1.36033  -0.08717  -1.14299  -0.21519
  39   37087.7    269.6   0.129935788   1.15338   0.50526  -0.83150   0.45465
  40   37491.0    266.7   0.224301478   1.96961   0.64752   1.05938   0.65424
  41   37635.0    265.7   0.145535697   1.27307   0.81891  -0.31552   0.70916
  42   38598.6    259.1   0.018529056   0.15804   0.23402   0.25487   0.19573
  43   38630.1    258.9   0.023279365   0.19839  -0.27367  -0.28517  -0.20536
  44   39014.6    256.3   0.000817428   0.00690   0.06260   0.04912   0.02378
  45   39298.8    254.5   0.000203193   0.00170  -0.02981   0.01400   0.02485
  46   39615.5    252.4   0.000000254   0.00000   0.00048  -0.00131   0.00042
  47   39931.8    250.4   0.003037014   0.02504  -0.07225   0.02744   0.13808
  48   40020.6    249.9   0.000069664   0.00057  -0.01928  -0.00718  -0.01224
  49   40314.3    248.1   0.010461698   0.08543   0.01283   0.13488  -0.25899

FINAL SINGLE POINT ENERGY     -3110.585547059345

DIPOLE MOMENT
-------------
                                X             Y             Z
Electronic contribution:     -5.56208       0.01139     -14.55483
Nuclear contribution   :      5.92915       0.27484      16.81766
                        -----------------------------------------
Total Dipole Moment    :      0.36707       0.28623       2.26284
                        -----------------------------------------
Magnitude (a.u.)       :      2.31022
Magnitude (Debye)      :      5.87211

Rotational constants in cm-1:     0.001544     0.000347     0.000300
Rotational constants in MHz :    46.279285    10.396504     8.989821

                             ****ORCA TERMINATED NORMALLY****
TOTAL RUN TIME: 0 days 0 hours 9 minutes 36 seconds 74 msec
