                         Program Version 4.2.0 -  RELEASE  -
|  1> # ORCA input file
|  2> # SCF done       -164.975430699374          0.000405147503
|  3> ! CAM-B3LYP def2-SVP def2/J RIJCOSX Grid4 TightSCF
|  4> %maxcore 5000
|  5> %tddft
|  6>     Mode sTDDFT
|  7>     Ethresh 5.0
|  8>     maxcore 5000
|  9> end
| 10>
| 11> %pal
| 12>   nprocs 6
| 13>   end
| 14> * xyz 0 1
| 15>    C        1.72242         1.01191        -1.38888
| 16>    N        0.84513         0.05699        -1.34019
| 17>    C        1.04967        -0.57202        -0.14217
| 18>    C        2.14646         0.07125         0.59124
| 19>    C        2.38501        -0.59114         1.87872
| 20>    O        3.20428        -0.30948         2.72385
| 21>    C        1.37401        -1.67128         1.86698
| 22>    C        0.58010        -1.61195         0.60948
| 23>    N       -0.35106        -2.60178         0.59052
| 24>    C       -0.18851        -3.24874         1.71209
| 25>    C        0.87510        -2.72124         2.55845
| 26>    C        2.59209         1.09335        -0.20540
| 27>    C        3.64521         2.01888         0.03435
| 28>    S        4.53575         1.96529         1.52356
| 29>    C        5.51648         3.28783         1.02118
| 30>    C        6.48989         3.86134         1.93419
| 31>    O        6.99146         4.95134         1.81732
| 32>    C        5.17192         3.74276        -0.25204
| 33>    C        4.10538         3.01786        -0.80058
| 34>    C        5.95470         4.74839        -0.93864
| 35>    N        5.46025         5.82145        -1.62540
| 36>    C        4.09409         6.28585        -1.63351
| 37>    C        3.64882         6.75098        -0.25073
| 38>    C        6.50410         6.59227        -2.19095
| 39>    O        6.30687         7.60776        -2.82893
| 40>    C        7.70880         5.88237        -1.83493
| 41>    C        7.32819         4.75377        -1.06267
| 42>    C        8.52335         4.03032        -0.68590
| 43>    O        8.68992         3.01721        -0.04367
| 44>    N        9.56627         4.78596        -1.25399
| 45>    C       10.94507         4.38114        -1.10954
| 46>    C       11.47672         3.69091        -2.36270
| 47>    C        9.09983         5.88534        -1.93633
| 48>    C        9.94997         6.80855        -2.59397
| 49>    C        9.46981         7.90822        -3.23593
| 50>    C       10.23483         8.87672        -3.93044
| 51>    S        9.45662        10.37852        -4.32956
| 52>    C       10.90288        10.99197        -5.07140
| 53>    C       11.92795        10.04195        -5.02639
| 54>    C       11.55538         8.85885        -4.39259
| 55>    C       12.49342         7.70530        -4.27709
| 56>    C       13.69951         7.81964        -5.21342
| 57>    C       14.68807         6.69906        -4.84609
| 58>    O       14.38765         5.81363        -4.09286
| 59>    O       15.87266         6.74805        -5.43623
| 60>    C       14.30418         9.23006        -5.14467
| 61>    O       15.44757         9.28244        -5.98496
| 62>    C       13.27528        10.26211        -5.61644
| 63>    C       10.96288        12.29245        -5.60650
| 64>    N       12.07372        12.78459        -6.17082
| 65>    C       11.76387        14.03258        -6.54162
| 66>    C       10.35834        14.36123        -6.19829
| 67>    C       10.03822        15.74719        -6.61468
| 68>    O        8.99480        16.34459        -6.49292
| 69>    C       11.30781        16.20120        -7.20501
| 70>    C       12.32737        15.13409        -7.13951
| 71>    N       13.49662        15.55434        -7.67675
| 72>    C       13.26926        16.78927        -8.06469
| 73>    C       11.92838        17.25492        -7.80124
| 74>    C        9.85952        13.25664        -5.60458
| 75>    H        1.76953         1.66339        -2.24366
| 76>    H       -0.81210        -4.09328         1.94942
| 77>    H        1.16130        -3.11512         3.51351
| 78>    H        6.71035         3.20936         2.79841
| 79>    H        3.71120         3.18506        -1.78669
| 80>    H        3.43320         5.49592        -2.00036
| 81>    H        4.06955         7.12215        -2.33793
| 82>    H        3.67491         5.92839         0.46068
| 83>    H        2.63476         7.13751        -0.30123
| 84>    H        4.30630         7.53847         0.10887
| 85>    H       10.96463         3.68151        -0.26948
| 86>    H       11.55745         5.25032        -0.85545
| 87>    H       10.90668         2.78654        -2.56034
| 88>    H       12.51962         3.42460        -2.21981
| 89>    H       11.40866         4.34182        -3.23073
| 90>    H       11.00826         6.61938        -2.53851
| 91>    H        8.40346         8.09644        -3.20415
| 92>    H       11.97183         6.77215        -4.49717
| 93>    H       12.86948         7.63518        -3.25110
| 94>    H       13.39239         7.63941        -6.25086
| 95>    H       15.99778         7.59200        -5.91485
| 96>    H       14.59923         9.44193        -4.10438
| 97>    H       15.75193        10.19461        -6.04611
| 98>    H       13.19436        10.20126        -6.70706
| 99>    H       13.60643        11.27893        -5.39282
|100>    H       14.05072        17.36042        -8.53558
|101>    H       11.54624        18.22765        -8.03971
|102>    H        8.88402        13.06558        -5.20236
|103> *
|104>
|105>                          ****END OF INPUT****

CARTESIAN COORDINATES (ANGSTROEM)
---------------------------------
  C      1.722420    1.011910   -1.388880
  N      0.845130    0.056990   -1.340190
  C      1.049670   -0.572020   -0.142170
  C      2.146460    0.071250    0.591240
  C      2.385010   -0.591140    1.878720
  O      3.204280   -0.309480    2.723850
  C      1.374010   -1.671280    1.866980
  C      0.580100   -1.611950    0.609480
  N     -0.351060   -2.601780    0.590520
  C     -0.188510   -3.248740    1.712090
  C      0.875100   -2.721240    2.558450
  C      2.592090    1.093350   -0.205400
  C      3.645210    2.018880    0.034350
  S      4.535750    1.965290    1.523560
  C      5.516480    3.287830    1.021180
  C      6.489890    3.861340    1.934190
  O      6.991460    4.951340    1.817320
  C      5.171920    3.742760   -0.252040
  C      4.105380    3.017860   -0.800580
  C      5.954700    4.748390   -0.938640
  N      5.460250    5.821450   -1.625400
  C      4.094090    6.285850   -1.633510
  C      3.648820    6.750980   -0.250730
  C      6.504100    6.592270   -2.190950
  O      6.306870    7.607760   -2.828930
  C      7.708800    5.882370   -1.834930
  C      7.328190    4.753770   -1.062670
  C      8.523350    4.030320   -0.685900
  O      8.689920    3.017210   -0.043670
  N      9.566270    4.785960   -1.253990
  C     10.945070    4.381140   -1.109540
  C     11.476720    3.690910   -2.362700
  C      9.099830    5.885340   -1.936330
  C      9.949970    6.808550   -2.593970
  C      9.469810    7.908220   -3.235930
  C     10.234830    8.876720   -3.930440
  S      9.456620   10.378520   -4.329560
  C     10.902880   10.991970   -5.071400
  C     11.927950   10.041950   -5.026390
  C     11.555380    8.858850   -4.392590
  C     12.493420    7.705300   -4.277090
  C     13.699510    7.819640   -5.213420
  C     14.688070    6.699060   -4.846090
  O     14.387650    5.813630   -4.092860
  O     15.872660    6.748050   -5.436230
  C     14.304180    9.230060   -5.144670
  O     15.447570    9.282440   -5.984960
  C     13.275280   10.262110   -5.616440
  C     10.962880   12.292450   -5.606500
  N     12.073720   12.784590   -6.170820
  C     11.763870   14.032580   -6.541620
  C     10.358340   14.361230   -6.198290
  C     10.038220   15.747190   -6.614680
  O      8.994800   16.344590   -6.492920
  C     11.307810   16.201200   -7.205010
  C     12.327370   15.134090   -7.139510
  N     13.496620   15.554340   -7.676750
  C     13.269260   16.789270   -8.064690
  C     11.928380   17.254920   -7.801240
  C      9.859520   13.256640   -5.604580
  H      1.769530    1.663390   -2.243660
  H     -0.812100   -4.093280    1.949420
  H      1.161300   -3.115120    3.513510
  H      6.710350    3.209360    2.798410
  H      3.711200    3.185060   -1.786690
  H      3.433200    5.495920   -2.000360
  H      4.069550    7.122150   -2.337930
  H      3.674910    5.928390    0.460680
  H      2.634760    7.137510   -0.301230
  H      4.306300    7.538470    0.108870
  H     10.964630    3.681510   -0.269480
  H     11.557450    5.250320   -0.855450
  H     10.906680    2.786540   -2.560340
  H     12.519620    3.424600   -2.219810
  H     11.408660    4.341820   -3.230730
  H     11.008260    6.619380   -2.538510
  H      8.403460    8.096440   -3.204150
  H     11.971830    6.772150   -4.497170
  H     12.869480    7.635180   -3.251100
  H     13.392390    7.639410   -6.250860
  H     15.997780    7.592000   -5.914850
  H     14.599230    9.441930   -4.104380
  H     15.751930   10.194610   -6.046110
  H     13.194360   10.201260   -6.707060
  H     13.606430   11.278930   -5.392820
  H     14.050720   17.360420   -8.535580
  H     11.546240   18.227650   -8.039710
  H      8.884020   13.065580   -5.202360

 Total Charge           Charge          ....    0
 Multiplicity           Mult            ....    1
 Number of Electrons    NEL             ....  430
 Basis Dimension        Dim             ....  988

ORBITAL ENERGIES
----------------

  NO   OCC          E(Eh)            E(eV)
   0   2.0000     -88.979983     -2421.2684
   1   2.0000     -88.976170     -2421.1647
   2   2.0000     -19.252919      -523.8986
   3   2.0000     -19.242606      -523.6179
   4   2.0000     -19.226256      -523.1730
   5   2.0000     -19.212971      -522.8115
   6   2.0000     -19.204970      -522.5938
   7   2.0000     -19.194300      -522.3035
   8   2.0000     -19.191559      -522.2289
   9   2.0000     -19.185833      -522.0731
  10   2.0000     -14.455682      -393.3591
  11   2.0000     -14.449817      -393.1995
  12   2.0000     -14.430226      -392.6664
  13   2.0000     -14.422145      -392.4465
  14   2.0000     -14.407050      -392.0358
  15   2.0000     -14.400373      -391.8541
  16   2.0000     -10.393284      -282.8156
  17   2.0000     -10.386042      -282.6186
  18   2.0000     -10.375638      -282.3355
  19   2.0000     -10.369346      -282.1643
  20   2.0000     -10.367062      -282.1021
  21   2.0000     -10.363153      -281.9957
  22   2.0000     -10.351780      -281.6862
  23   2.0000     -10.347899      -281.5806
  24   2.0000     -10.346925      -281.5541
  25   2.0000     -10.346253      -281.5359
  26   2.0000     -10.343533      -281.4618
  27   2.0000     -10.343051      -281.4487
  28   2.0000     -10.340200      -281.3711
  29   2.0000     -10.338897      -281.3357
  30   2.0000     -10.333497      -281.1887
  31   2.0000     -10.330165      -281.0981
  32   2.0000     -10.327861      -281.0354
  33   2.0000     -10.325138      -280.9613
  34   2.0000     -10.318277      -280.7746
  35   2.0000     -10.317493      -280.7533
  36   2.0000     -10.317413      -280.7511
  37   2.0000     -10.313392      -280.6417
  38   2.0000     -10.311979      -280.6032
  39   2.0000     -10.309993      -280.5492
  40   2.0000     -10.307603      -280.4841
  41   2.0000     -10.307517      -280.4818
  42   2.0000     -10.305367      -280.4233
  43   2.0000     -10.305325      -280.4222
  44   2.0000     -10.303084      -280.3612
  45   2.0000     -10.302486      -280.3449
  46   2.0000     -10.301803      -280.3263
  47   2.0000     -10.299715      -280.2695
  48   2.0000     -10.298395      -280.2336
  49   2.0000     -10.297623      -280.2126
  50   2.0000     -10.297529      -280.2100
  51   2.0000     -10.294375      -280.1242
  52   2.0000     -10.289401      -279.9888
  53   2.0000     -10.283220      -279.8206
  54   2.0000     -10.282725      -279.8072
  55   2.0000     -10.282659      -279.8054
  56   2.0000     -10.263326      -279.2793
  57   2.0000     -10.260541      -279.2035
  58   2.0000     -10.256806      -279.1019
  59   2.0000     -10.254676      -279.0439
  60   2.0000      -8.074953      -219.7307
  61   2.0000      -8.071421      -219.6345
  62   2.0000      -6.043968      -164.4647
  63   2.0000      -6.040520      -164.3709
  64   2.0000      -6.039718      -164.3491
  65   2.0000      -6.037566      -164.2905
  66   2.0000      -6.036529      -164.2623
  67   2.0000      -6.033754      -164.1868
  68   2.0000      -1.176015       -32.0010
  69   2.0000      -1.141572       -31.0637
  70   2.0000      -1.137241       -30.9459
  71   2.0000      -1.134056       -30.8592
  72   2.0000      -1.127621       -30.6841
  73   2.0000      -1.123574       -30.5740
  74   2.0000      -1.120651       -30.4945
  75   2.0000      -1.093959       -29.7681
  76   2.0000      -1.087880       -29.6027
  77   2.0000      -1.076529       -29.2939
  78   2.0000      -1.075873       -29.2760
  79   2.0000      -1.064779       -28.9741
  80   2.0000      -1.054863       -28.7043
  81   2.0000      -1.054755       -28.7014
  82   2.0000      -1.009912       -27.4811
  83   2.0000      -1.007942       -27.4275
  84   2.0000      -0.950656       -25.8687
  85   2.0000      -0.934843       -25.4384
  86   2.0000      -0.933731       -25.4081
  87   2.0000      -0.927023       -25.2256
  88   2.0000      -0.916774       -24.9467
  89   2.0000      -0.911395       -24.8003
  90   2.0000      -0.881963       -23.9994
  91   2.0000      -0.876829       -23.8597
  92   2.0000      -0.873948       -23.7813
  93   2.0000      -0.871422       -23.7126
  94   2.0000      -0.866503       -23.5787
  95   2.0000      -0.855109       -23.2687
  96   2.0000      -0.847380       -23.0584
  97   2.0000      -0.846246       -23.0275
  98   2.0000      -0.830762       -22.6062
  99   2.0000      -0.817675       -22.2501
 100   2.0000      -0.802745       -21.8438
 101   2.0000      -0.789900       -21.4943
 102   2.0000      -0.784489       -21.3470
 103   2.0000      -0.773560       -21.0496
 104   2.0000      -0.758432       -20.6380
 105   2.0000      -0.757717       -20.6185
 106   2.0000      -0.750147       -20.4125
 107   2.0000      -0.745996       -20.2996
 108   2.0000      -0.733303       -19.9542
 109   2.0000      -0.721846       -19.6424
 110   2.0000      -0.715805       -19.4780
 111   2.0000      -0.713915       -19.4266
 112   2.0000      -0.707131       -19.2420
 113   2.0000      -0.697449       -18.9785
 114   2.0000      -0.694300       -18.8929
 115   2.0000      -0.687289       -18.7021
 116   2.0000      -0.665454       -18.1079
 117   2.0000      -0.665013       -18.0959
 118   2.0000      -0.657942       -17.9035
 119   2.0000      -0.652477       -17.7548
 120   2.0000      -0.642864       -17.4932
 121   2.0000      -0.641729       -17.4623
 122   2.0000      -0.637272       -17.3410
 123   2.0000      -0.635205       -17.2848
 124   2.0000      -0.628229       -17.0950
 125   2.0000      -0.619724       -16.8635
 126   2.0000      -0.609045       -16.5730
 127   2.0000      -0.607619       -16.5342
 128   2.0000      -0.607241       -16.5239
 129   2.0000      -0.596704       -16.2371
 130   2.0000      -0.592745       -16.1294
 131   2.0000      -0.585396       -15.9294
 132   2.0000      -0.584336       -15.9006
 133   2.0000      -0.580711       -15.8020
 134   2.0000      -0.577031       -15.7018
 135   2.0000      -0.569602       -15.4997
 136   2.0000      -0.562723       -15.3125
 137   2.0000      -0.560365       -15.2483
 138   2.0000      -0.558170       -15.1886
 139   2.0000      -0.555542       -15.1171
 140   2.0000      -0.547950       -14.9105
 141   2.0000      -0.545681       -14.8487
 142   2.0000      -0.544649       -14.8206
 143   2.0000      -0.540862       -14.7176
 144   2.0000      -0.532961       -14.5026
 145   2.0000      -0.531440       -14.4612
 146   2.0000      -0.530502       -14.4357
 147   2.0000      -0.528229       -14.3738
 148   2.0000      -0.526145       -14.3171
 149   2.0000      -0.524705       -14.2779
 150   2.0000      -0.523444       -14.2436
 151   2.0000      -0.522088       -14.2067
 152   2.0000      -0.518670       -14.1137
 153   2.0000      -0.517359       -14.0780
 154   2.0000      -0.515012       -14.0142
 155   2.0000      -0.511624       -13.9220
 156   2.0000      -0.507034       -13.7971
 157   2.0000      -0.505535       -13.7563
 158   2.0000      -0.504311       -13.7230
 159   2.0000      -0.501165       -13.6374
 160   2.0000      -0.497766       -13.5449
 161   2.0000      -0.495537       -13.4842
 162   2.0000      -0.494781       -13.4637
 163   2.0000      -0.488277       -13.2867
 164   2.0000      -0.487775       -13.2730
 165   2.0000      -0.487034       -13.2529
 166   2.0000      -0.484227       -13.1765
 167   2.0000      -0.480550       -13.0764
 168   2.0000      -0.479856       -13.0575
 169   2.0000      -0.476484       -12.9658
 170   2.0000      -0.472143       -12.8477
 171   2.0000      -0.468504       -12.7487
 172   2.0000      -0.467851       -12.7309
 173   2.0000      -0.467554       -12.7228
 174   2.0000      -0.466062       -12.6822
 175   2.0000      -0.464256       -12.6331
 176   2.0000      -0.459352       -12.4996
 177   2.0000      -0.456706       -12.4276
 178   2.0000      -0.454915       -12.3789
 179   2.0000      -0.452338       -12.3088
 180   2.0000      -0.445427       -12.1207
 181   2.0000      -0.442277       -12.0350
 182   2.0000      -0.438804       -11.9405
 183   2.0000      -0.435019       -11.8375
 184   2.0000      -0.432299       -11.7634
 185   2.0000      -0.430960       -11.7270
 186   2.0000      -0.421740       -11.4761
 187   2.0000      -0.419165       -11.4061
 188   2.0000      -0.412642       -11.2286
 189   2.0000      -0.408858       -11.1256
 190   2.0000      -0.386414       -10.5149
 191   2.0000      -0.384072       -10.4511
 192   2.0000      -0.379134       -10.3168
 193   2.0000      -0.377165       -10.2632
 194   2.0000      -0.372824       -10.1451
 195   2.0000      -0.368815       -10.0360
 196   2.0000      -0.358960        -9.7678
 197   2.0000      -0.355012        -9.6604
 198   2.0000      -0.350159        -9.5283
 199   2.0000      -0.349851        -9.5199
 200   2.0000      -0.348434        -9.4814
 201   2.0000      -0.343889        -9.3577
 202   2.0000      -0.343455        -9.3459
 203   2.0000      -0.342819        -9.3286
 204   2.0000      -0.339871        -9.2484
 205   2.0000      -0.337857        -9.1935
 206   2.0000      -0.336590        -9.1591
 207   2.0000      -0.329755        -8.9731
 208   2.0000      -0.329445        -8.9646
 209   2.0000      -0.325941        -8.8693
 210   2.0000      -0.324093        -8.8190
 211   2.0000      -0.311804        -8.4846
 212   2.0000      -0.296678        -8.0730
 213   2.0000      -0.285456        -7.7677
 214   2.0000      -0.239185        -6.5085
 215   0.0000      -0.121174        -3.2973
 216   0.0000      -0.116304        -3.1648
 217   0.0000      -0.074372        -2.0238
 218   0.0000      -0.065337        -1.7779
 219   0.0000      -0.036781        -1.0009

MULLIKEN ATOMIC CHARGES
-----------------------
   0 C :    0.059150
   1 N :   -0.021178
   2 C :    0.063376
   3 C :   -0.173882
   4 C :    0.217871
   5 O :   -0.128915
   6 C :   -0.021028
   7 C :   -0.021048
   8 N :   -0.044479
   9 C :    0.095959
  10 C :   -0.090905
  11 C :    0.055918
  12 C :   -0.105339
  13 S :    0.221055
  14 C :   -0.161525
  15 C :    0.206286
  16 O :   -0.180012
  17 C :    0.049503
  18 C :   -0.030245
  19 C :    0.071298
  20 N :   -0.250128
  21 C :    0.105707
  22 C :   -0.001365
  23 C :    0.166551
  24 O :   -0.208192
  25 C :   -0.085671
  26 C :    0.014693
  27 C :    0.140333
  28 O :   -0.197130
  29 N :   -0.264611
  30 C :    0.093953
  31 C :    0.012210
  32 C :    0.144363
  33 C :   -0.035268
  34 C :    0.044228
  35 C :   -0.103139
  36 S :    0.180074
  37 C :   -0.125472
  38 C :   -0.109270
  39 C :   -0.068889
  40 C :    0.152061
  41 C :   -0.157497
  42 C :    0.160799
  43 O :   -0.197926
  44 O :   -0.153760
  45 C :    0.105083
  46 O :   -0.308848
  47 C :    0.224284
  48 C :    0.047274
  49 N :   -0.089129
  50 C :    0.041498
  51 C :   -0.026044
  52 C :    0.205823
  53 O :   -0.118279
  54 C :   -0.047596
  55 C :   -0.023688
  56 N :   -0.064827
  57 C :    0.085458
  58 C :   -0.090243
  59 C :   -0.110730
  60 H :    0.011929
  61 H :    0.018846
  62 H :    0.003456
  63 H :   -0.009483
  64 H :   -0.007522
  65 H :    0.007398
  66 H :    0.047174
  67 H :    0.029508
  68 H :    0.021374
  69 H :    0.032166
  70 H :    0.043351
  71 H :    0.027361
  72 H :    0.023277
  73 H :    0.035626
  74 H :    0.013481
  75 H :   -0.021265
  76 H :    0.011479
  77 H :    0.039132
  78 H :    0.045512
  79 H :    0.034058
  80 H :    0.185104
  81 H :    0.008575
  82 H :    0.195167
  83 H :    0.023266
  84 H :    0.033825
  85 H :    0.004692
  86 H :   -0.008124
  87 H :    0.002089
Sum of atomic charges:   -0.0000000

LOEWDIN ATOMIC CHARGES
----------------------
   0 C :    0.092326
   1 N :   -0.074539
   2 C :    0.046021
   3 C :   -0.059533
   4 C :    0.063914
   5 O :   -0.135612
   6 C :   -0.035146
   7 C :    0.039212
   8 N :   -0.088698
   9 C :    0.087037
  10 C :   -0.023545
  11 C :   -0.052923
  12 C :   -0.162864
  13 S :    0.532481
  14 C :   -0.212975
  15 C :    0.097485
  16 O :   -0.127474
  17 C :   -0.043354
  18 C :   -0.037816
  19 C :    0.075365
  20 N :    0.003235
  21 C :    0.035882
  22 C :   -0.060166
  23 C :    0.082596
  24 O :   -0.199243
  25 C :   -0.120449
  26 C :   -0.108567
  27 C :    0.083874
  28 O :   -0.194742
  29 N :   -0.000518
  30 C :    0.036380
  31 C :   -0.058855
  32 C :    0.079761
  33 C :   -0.032623
  34 C :   -0.000851
  35 C :   -0.144846
  36 S :    0.479069
  37 C :   -0.196964
  38 C :   -0.009074
  39 C :   -0.051959
  40 C :   -0.018797
  41 C :   -0.072741
  42 C :    0.075505
  43 O :   -0.173861
  44 O :   -0.025067
  45 C :    0.072003
  46 O :   -0.110040
  47 C :   -0.038784
  48 C :    0.049816
  49 N :   -0.124133
  50 C :    0.040020
  51 C :   -0.025205
  52 C :    0.062577
  53 O :   -0.133218
  54 C :   -0.045816
  55 C :    0.011032
  56 N :   -0.105126
  57 C :    0.066963
  58 C :   -0.042511
  59 C :   -0.027498
  60 H :    0.026669
  61 H :    0.027503
  62 H :    0.037987
  63 H :   -0.000453
  64 H :    0.031424
  65 H :    0.017522
  66 H :    0.037423
  67 H :    0.025608
  68 H :    0.030281
  69 H :    0.033290
  70 H :    0.038347
  71 H :    0.024018
  72 H :    0.029833
  73 H :    0.036634
  74 H :    0.020918
  75 H :    0.033492
  76 H :    0.037884
  77 H :    0.042898
  78 H :    0.039843
  79 H :    0.042517
  80 H :    0.067891
  81 H :    0.015138
  82 H :    0.093599
  83 H :    0.046395
  84 H :    0.039750
  85 H :    0.021715
  86 H :    0.033080
  87 H :    0.032371

  Mayer bond orders larger than 0.100000
B(  0-C ,  1-N ) :   1.7397 B(  0-C , 11-C ) :   1.0352 B(  0-C , 60-H ) :   0.9898
B(  1-N ,  2-C ) :   1.2676 B(  2-C ,  3-C ) :   1.0529 B(  2-C ,  7-C ) :   1.5076
B(  3-C ,  4-C ) :   0.8974 B(  3-C , 11-C ) :   1.5969 B(  4-C ,  5-O ) :   2.2572
B(  4-C ,  6-C ) :   0.9046 B(  6-C ,  7-C ) :   1.0515 B(  6-C , 10-C ) :   1.6463
B(  7-C ,  8-N ) :   1.2834 B(  8-N ,  9-C ) :   1.6882 B(  9-C , 10-C ) :   1.0424
B(  9-C , 61-H ) :   0.9884 B( 10-C , 62-H ) :   1.0102 B( 11-C , 12-C ) :   1.0887
B( 12-C , 13-S ) :   1.1800 B( 12-C , 18-C ) :   1.4489 B( 13-S , 14-C ) :   1.1185
B( 14-C , 15-C ) :   0.9862 B( 14-C , 17-C ) :   1.4709 B( 15-C , 16-O ) :   2.1497
B( 15-C , 63-H ) :   0.9496 B( 17-C , 18-C ) :   1.2980 B( 17-C , 19-C ) :   0.9697
B( 18-C , 64-H ) :   0.9988 B( 19-C , 20-N ) :   1.2159 B( 19-C , 26-C ) :   1.4672
B( 20-N , 21-C ) :   0.9512 B( 20-N , 23-C ) :   1.0394 B( 21-C , 22-C ) :   1.1180
B( 21-C , 65-H ) :   0.9482 B( 21-C , 66-H ) :   0.9292 B( 22-C , 67-H ) :   0.9682
B( 22-C , 68-H ) :   0.9662 B( 22-C , 69-H ) :   0.9642 B( 23-C , 24-O ) :   2.0220
B( 23-C , 25-C ) :   0.9990 B( 24-O , 76-H ) :   0.1133 B( 25-C , 26-C ) :   1.2224
B( 25-C , 32-C ) :   1.3399 B( 26-C , 27-C ) :   0.9572 B( 27-C , 28-O ) :   2.1321
B( 27-C , 29-N ) :   1.0396 B( 29-N , 30-C ) :   0.9389 B( 29-N , 32-C ) :   1.1648
B( 30-C , 31-C ) :   1.1220 B( 30-C , 70-H ) :   0.9263 B( 30-C , 71-H ) :   0.9491
B( 31-C , 72-H ) :   0.9613 B( 31-C , 73-H ) :   0.9664 B( 31-C , 74-H ) :   0.9683
B( 32-C , 33-C ) :   1.1599 B( 33-C , 34-C ) :   1.6014 B( 33-C , 75-H ) :   0.9555
B( 34-C , 35-C ) :   1.1433 B( 34-C , 76-H ) :   0.9253 B( 35-C , 36-S ) :   1.1550
B( 35-C , 37-C ) :   0.1021 B( 35-C , 39-C ) :   1.4204 B( 36-S , 37-C ) :   1.1204
B( 37-C , 38-C ) :   1.4184 B( 37-C , 48-C ) :   1.1568 B( 38-C , 39-C ) :   1.3769
B( 38-C , 47-C ) :   1.0656 B( 39-C , 40-C ) :   1.0273 B( 40-C , 41-C ) :   1.0358
B( 40-C , 77-H ) :   0.9076 B( 40-C , 78-H ) :   0.8956 B( 41-C , 42-C ) :   0.8993
B( 41-C , 45-C ) :   0.9963 B( 41-C , 79-H ) :   0.8898 B( 42-C , 43-O ) :   2.1378
B( 42-C , 44-O ) :   1.2998 B( 44-O , 80-H ) :   0.9075 B( 45-C , 46-O ) :   0.9988
B( 45-C , 47-C ) :   1.0227 B( 45-C , 81-H ) :   0.9371 B( 46-O , 80-H ) :   0.1191
B( 46-O , 82-H ) :   0.9581 B( 47-C , 83-H ) :   0.8805 B( 47-C , 84-H ) :   0.8787
B( 48-C , 49-N ) :   1.5167 B( 48-C , 50-C ) :   0.1170 B( 48-C , 59-C ) :   1.0547
B( 49-N , 50-C ) :   1.3986 B( 50-C , 51-C ) :   1.0269 B( 50-C , 55-C ) :   1.3859
B( 51-C , 52-C ) :   0.8606 B( 51-C , 59-C ) :   1.6510 B( 52-C , 53-O ) :   2.3267
B( 52-C , 54-C ) :   0.8920 B( 54-C , 55-C ) :   1.0530 B( 54-C , 58-C ) :   1.5892
B( 55-C , 56-N ) :   1.3319 B( 56-N , 57-C ) :   1.6322 B( 57-C , 58-C ) :   1.1003
B( 57-C , 85-H ) :   0.9894 B( 58-C , 86-H ) :   1.0094 B( 59-C , 87-H ) :   1.0036

-----------------------------------------------------------------------------
         ABSORPTION SPECTRUM VIA TRANSITION ELECTRIC DIPOLE MOMENTS
-----------------------------------------------------------------------------
State   Energy  Wavelength   fosc         T2         TX        TY        TZ
        (cm-1)    (nm)                  (au**2)     (au)      (au)      (au)
-----------------------------------------------------------------------------
   0   13125.7    761.9   0.265364645   6.65575  -1.33981  -1.80806   1.26158
   1   13831.7    723.0   0.700830824  16.68061  -2.08900  -3.08831   1.66704
   2   19533.4    511.9   0.088008450   1.48327  -1.14192  -0.36579   0.21327
   3   20532.5    487.0   0.139626373   2.23873  -0.10796   1.45564  -0.32894
   4   22095.0    452.6   0.141505011   2.10840   0.22996   1.25582  -0.69170
   5   22379.0    446.8   0.651988561   9.59125  -0.57112  -2.72391   1.35844
   6   22482.4    444.8   0.001076826   0.01577   0.10840  -0.00104  -0.06338
   7   23704.8    421.9   0.149923502   2.08214  -1.28915  -0.58155   0.28643
   8   25098.0    398.4   0.106737887   1.40009   0.02210   1.07311  -0.49803
   9   25787.1    387.8   0.011360168   0.14503   0.14010  -0.31456   0.16265
  10   26491.1    377.5   0.006704096   0.08331  -0.11457  -0.21416   0.15595
  11   26557.5    376.5   0.002418332   0.02998  -0.12531  -0.11908  -0.00975
  12   26689.4    374.7   0.000284631   0.00351  -0.05037   0.02281   0.02130
  13   27362.4    365.5   0.007220605   0.08687   0.16640  -0.12291   0.20995
  14   27547.3    363.0   0.115210537   1.37686   0.41294   0.99988  -0.45452
  15   27913.7    358.2   0.000451275   0.00532   0.06840   0.00971  -0.02343
  16   27944.4    357.9   0.023788988   0.28026  -0.32760   0.20933  -0.35933
  17   28200.8    354.6   0.003593172   0.04195  -0.04475   0.19390   0.04846
  18   28236.4    354.2   0.014021546   0.16348  -0.20569  -0.34806   0.00467
  19   28821.3    347.0   0.005910799   0.06752  -0.19032  -0.06257   0.16547
  20   29036.2    344.4   0.010026491   0.11368  -0.09597  -0.23973  -0.21679
  21   29341.4    340.8   0.024236460   0.27193   0.45533  -0.22907  -0.11017
  22   29725.4    336.4   0.007693137   0.08520  -0.26337   0.05289  -0.11419
  23   30533.4    327.5   0.225912673   2.43579   0.92019   1.25935  -0.05544
  24   30882.9    323.8   0.000304950   0.00325   0.03774   0.04133  -0.01087
  25   31203.9    320.5   0.253157514   2.67090  -0.85849  -1.27834   0.54749
  26   31364.9    318.8   0.002129841   0.02236   0.13431   0.06488  -0.01035
  27   31532.6    317.1   0.017546449   0.18319  -0.36829  -0.14417  -0.16361
  28   31783.8    314.6   0.061267219   0.63460  -0.57037  -0.52204  -0.19170
  29   32034.2    312.2   0.096147096   0.98809   0.83687  -0.53209   0.06796
  30   32658.0    306.2   0.246511936   2.48499  -0.74201  -1.29327   0.51172
  31   33134.7    301.8   0.173185225   1.72069  -0.69871  -1.06371   0.31784
  32   33625.4    297.4   0.049449863   0.48414  -0.09663  -0.58470   0.36459
  33   34074.4    293.5   0.003240047   0.03130   0.08444   0.06911  -0.13928
  34   34138.1    292.9   0.000252475   0.00243   0.00747   0.02263   0.04321
  35   34583.3    289.2   0.005163885   0.04916  -0.10841   0.18642  -0.05149
  36   35036.0    285.4   0.006471572   0.06081  -0.13240   0.20314  -0.04488
  37   35824.3    279.1   0.127137705   1.16835   0.43659  -0.65119   0.74410
  38   37208.3    268.8   0.008195101   0.07251   0.19241   0.14956   0.11453
  39   37407.5    267.3   0.098767202   0.86922   0.27874   0.74124  -0.49203
  40   37632.7    265.7   0.123814227   1.08313  -0.43825  -0.74931   0.57411
  41   37715.7    265.1   0.001024164   0.00894   0.05839   0.04913  -0.05583
  42   37973.1    263.3   0.001650297   0.01431  -0.10810  -0.02275   0.04587
  43   37988.5    263.2   0.038984654   0.33785  -0.03445  -0.53851   0.21602
  44   38205.4    261.7   0.008816443   0.07597   0.26718  -0.06138  -0.02857
  45   38724.4    258.2   0.000430671   0.00366   0.04413  -0.04054   0.00843
  46   38741.4    258.1   0.039795278   0.33817   0.37210  -0.43698   0.09357
  47   39013.9    256.3   0.024821845   0.20945   0.39763  -0.17287  -0.14649
  48   39331.9    254.2   0.074911737   0.62702  -0.35176   0.67021  -0.23261
  49   39511.7    253.1   0.000536570   0.00447   0.04718  -0.04737  -0.00108
  50   39702.4    251.9   0.014423181   0.11960  -0.11098  -0.27535   0.17737
  51   39870.8    250.8   0.057735350   0.47672  -0.18034  -0.61149   0.26510

FINAL SINGLE POINT ENERGY     -3416.649631719599

DIPOLE MOMENT
-------------
                                X             Y             Z
Electronic contribution:    -26.50991      -4.92777       7.35860
Nuclear contribution   :     25.72865       4.36958      -7.09526
                        -----------------------------------------
Total Dipole Moment    :     -0.78126      -0.55819       0.26334
                        -----------------------------------------
Magnitude (a.u.)       :      0.99563
Magnitude (Debye)      :      2.53069

Rotational constants in cm-1:     0.002850     0.000387     0.000354
Rotational constants in MHz :    85.445872    11.606044    10.600849

                             ****ORCA TERMINATED NORMALLY****
TOTAL RUN TIME: 0 days 0 hours 7 minutes 41 seconds 588 msec
