                         Program Version 4.2.0 -  RELEASE  -
|  1> # ORCA input file
|  2> # SCF done       -141.795358671442          0.000858838456
|  3> ! CAM-B3LYP def2-SVP def2/J RIJCOSX Grid4 TightSCF
|  4> %maxcore 5000
|  5> %tddft
|  6>     Mode sTDDFT
|  7>     Ethresh 5.0
|  8>     maxcore 5000
|  9> end
| 10>
| 11> %pal
| 12>   nprocs 6
| 13>   end
| 14> * xyz 0 1
| 15>    C        1.36335         2.23332         2.35701
| 16>    N        0.31848         2.70370         2.96864
| 17>    C        0.23877         4.01623         2.60199
| 18>    C        1.33622         4.36786         1.68791
| 19>    C        1.24350         5.77803         1.27913
| 20>    O        1.96527         6.39324         0.52560
| 21>    C        0.04639         6.24191         2.00770
| 22>    C       -0.53424         5.12708         2.80052
| 23>    N       -1.63903         5.54573         3.46843
| 24>    C       -1.77546         6.80637         3.15239
| 25>    C       -0.75618         7.30706         2.24170
| 26>    C        2.06740         3.21687         1.52693
| 27>    C        3.23826         2.98805         0.75325
| 28>    S        3.94755         1.41398         0.60375
| 29>    C        5.18589         2.03423        -0.42786
| 30>    C        6.22951         1.20646        -0.98359
| 31>    O        7.06845         1.61023        -1.75417
| 32>    C        5.04582         3.40280        -0.63093
| 33>    C        3.94497         3.93880         0.04010
| 34>    C        6.02334         4.16296        -1.40117
| 35>    N        5.92617         4.40727        -2.73311
| 36>    C        4.85812         3.97897        -3.60232
| 37>    C        3.64108         4.89417        -3.49862
| 38>    C        7.04093         5.14334        -3.20522
| 39>    O        7.17596         5.47281        -4.36253
| 40>    C        7.85410         5.34796        -2.02449
| 41>    C        7.18533         4.73456        -0.92922
| 42>    C        7.99714         4.89918         0.25615
| 43>    O        7.84157         4.55317         1.40579
| 44>    N        9.11676         5.62071        -0.20453
| 45>    C       10.20681         5.94757         0.68269
| 46>    C       11.37686         4.97944         0.52567
| 47>    C        9.05039         5.88040        -1.55488
| 48>    C       10.06003         6.57353        -2.27004
| 49>    C       10.00738         6.80409        -3.60581
| 50>    C       11.06054         7.48821        -4.28437
| 51>    N       12.12497         7.95188        -3.59892
| 52>    C       13.05505         8.57407        -4.25766
| 53>    C       12.86612         8.89469        -5.62903
| 54>    N       11.79484         8.37374        -6.23784
| 55>    N       10.96975         7.63872        -5.61727
| 56>    C       13.78335         9.71084        -6.35584
| 57>    N       14.71430        10.42333        -5.72737
| 58>    C       15.40021        11.04604        -6.70118
| 59>    C       14.85552        10.70004        -8.03834
| 60>    C       15.62161        11.39032        -9.10158
| 61>    O       15.45966        11.34553       -10.29696
| 62>    C       16.63088        12.13889        -8.32862
| 63>    C       16.45694        11.90256        -6.87552
| 64>    N       17.38704        12.58669        -6.16600
| 65>    C       18.10997        13.21154        -7.06279
| 66>    C       17.69520        12.97424        -8.43177
| 67>    C       13.83348         9.84519        -7.80930
| 68>    H        1.65946         1.20503         2.47445
| 69>    H       -2.58880         7.38396         3.55634
| 70>    H       -0.69606         8.30951         1.86668
| 71>    H        6.20102         0.15366        -0.64921
| 72>    H        3.66696         4.97878         0.02611
| 73>    H        4.59072         2.94792        -3.35368
| 74>    H        5.25906         4.00928        -4.61876
| 75>    H        3.22411         4.87919        -2.49430
| 76>    H        2.87685         4.56571        -4.19730
| 77>    H        3.92018         5.91554        -3.74457
| 78>    H        9.80200         5.87074         1.69585
| 79>    H       10.52637         6.97852         0.50766
| 80>    H       11.04783         3.96498         0.73650
| 81>    H       12.16662         5.24109         1.22438
| 82>    H       11.77758         5.01020        -0.48494
| 83>    H       10.92039         6.93288        -1.72304
| 84>    H        9.18028         6.46782        -4.21396
| 85>    H       13.96981         8.84043        -3.74789
| 86>    H       18.92967        13.83873        -6.75707
| 87>    H       18.15722        13.39161        -9.30429
| 88>    H       13.16653         9.35156        -8.48704
| 89> *
| 90>
| 91>                          ****END OF INPUT****

CARTESIAN COORDINATES (ANGSTROEM)
---------------------------------
  C      1.363350    2.233320    2.357010
  N      0.318480    2.703700    2.968640
  C      0.238770    4.016230    2.601990
  C      1.336220    4.367860    1.687910
  C      1.243500    5.778030    1.279130
  O      1.965270    6.393240    0.525600
  C      0.046390    6.241910    2.007700
  C     -0.534240    5.127080    2.800520
  N     -1.639030    5.545730    3.468430
  C     -1.775460    6.806370    3.152390
  C     -0.756180    7.307060    2.241700
  C      2.067400    3.216870    1.526930
  C      3.238260    2.988050    0.753250
  S      3.947550    1.413980    0.603750
  C      5.185890    2.034230   -0.427860
  C      6.229510    1.206460   -0.983590
  O      7.068450    1.610230   -1.754170
  C      5.045820    3.402800   -0.630930
  C      3.944970    3.938800    0.040100
  C      6.023340    4.162960   -1.401170
  N      5.926170    4.407270   -2.733110
  C      4.858120    3.978970   -3.602320
  C      3.641080    4.894170   -3.498620
  C      7.040930    5.143340   -3.205220
  O      7.175960    5.472810   -4.362530
  C      7.854100    5.347960   -2.024490
  C      7.185330    4.734560   -0.929220
  C      7.997140    4.899180    0.256150
  O      7.841570    4.553170    1.405790
  N      9.116760    5.620710   -0.204530
  C     10.206810    5.947570    0.682690
  C     11.376860    4.979440    0.525670
  C      9.050390    5.880400   -1.554880
  C     10.060030    6.573530   -2.270040
  C     10.007380    6.804090   -3.605810
  C     11.060540    7.488210   -4.284370
  N     12.124970    7.951880   -3.598920
  C     13.055050    8.574070   -4.257660
  C     12.866120    8.894690   -5.629030
  N     11.794840    8.373740   -6.237840
  N     10.969750    7.638720   -5.617270
  C     13.783350    9.710840   -6.355840
  N     14.714300   10.423330   -5.727370
  C     15.400210   11.046040   -6.701180
  C     14.855520   10.700040   -8.038340
  C     15.621610   11.390320   -9.101580
  O     15.459660   11.345530  -10.296960
  C     16.630880   12.138890   -8.328620
  C     16.456940   11.902560   -6.875520
  N     17.387040   12.586690   -6.166000
  C     18.109970   13.211540   -7.062790
  C     17.695200   12.974240   -8.431770
  C     13.833480    9.845190   -7.809300
  H      1.659460    1.205030    2.474450
  H     -2.588800    7.383960    3.556340
  H     -0.696060    8.309510    1.866680
  H      6.201020    0.153660   -0.649210
  H      3.666960    4.978780    0.026110
  H      4.590720    2.947920   -3.353680
  H      5.259060    4.009280   -4.618760
  H      3.224110    4.879190   -2.494300
  H      2.876850    4.565710   -4.197300
  H      3.920180    5.915540   -3.744570
  H      9.802000    5.870740    1.695850
  H     10.526370    6.978520    0.507660
  H     11.047830    3.964980    0.736500
  H     12.166620    5.241090    1.224380
  H     11.777580    5.010200   -0.484940
  H     10.920390    6.932880   -1.723040
  H      9.180280    6.467820   -4.213960
  H     13.969810    8.840430   -3.747890
  H     18.929670   13.838730   -6.757070
  H     18.157220   13.391610   -9.304290
  H     13.166530    9.351560   -8.487040

 Total Charge           Charge          ....    0
 Multiplicity           Mult            ....    1
 Number of Electrons    NEL             ....  368
 Basis Dimension        Dim             ....  851

ORBITAL ENERGIES
----------------

  NO   OCC          E(Eh)            E(eV)
   0   2.0000     -88.992314     -2421.6040
   1   2.0000     -19.231370      -523.3122
   2   2.0000     -19.225493      -523.1523
   3   2.0000     -19.208842      -522.6992
   4   2.0000     -19.195355      -522.3322
   5   2.0000     -19.181007      -521.9417
   6   2.0000     -14.465461      -393.6252
   7   2.0000     -14.455326      -393.3494
   8   2.0000     -14.448441      -393.1621
   9   2.0000     -14.447888      -393.1470
  10   2.0000     -14.436601      -392.8399
  11   2.0000     -14.432592      -392.7308
  12   2.0000     -14.425262      -392.5313
  13   2.0000     -14.415162      -392.2565
  14   2.0000     -14.408553      -392.0767
  15   2.0000     -10.391071      -282.7554
  16   2.0000     -10.375805      -282.3400
  17   2.0000     -10.374649      -282.3086
  18   2.0000     -10.370688      -282.2008
  19   2.0000     -10.367855      -282.1237
  20   2.0000     -10.358404      -281.8665
  21   2.0000     -10.353825      -281.7419
  22   2.0000     -10.350462      -281.6504
  23   2.0000     -10.347287      -281.5640
  24   2.0000     -10.346540      -281.5437
  25   2.0000     -10.345569      -281.5172
  26   2.0000     -10.345025      -281.5024
  27   2.0000     -10.341472      -281.4058
  28   2.0000     -10.339138      -281.3423
  29   2.0000     -10.336738      -281.2769
  30   2.0000     -10.333968      -281.2016
  31   2.0000     -10.331050      -281.1222
  32   2.0000     -10.329901      -281.0909
  33   2.0000     -10.329669      -281.0846
  34   2.0000     -10.328259      -281.0462
  35   2.0000     -10.323826      -280.9256
  36   2.0000     -10.318990      -280.7940
  37   2.0000     -10.310918      -280.5743
  38   2.0000     -10.309247      -280.5289
  39   2.0000     -10.309005      -280.5223
  40   2.0000     -10.306694      -280.4594
  41   2.0000     -10.304166      -280.3906
  42   2.0000     -10.300587      -280.2932
  43   2.0000     -10.297884      -280.2197
  44   2.0000     -10.295067      -280.1430
  45   2.0000     -10.294356      -280.1237
  46   2.0000     -10.292365      -280.0695
  47   2.0000     -10.291478      -280.0454
  48   2.0000     -10.286114      -279.8994
  49   2.0000     -10.262577      -279.2589
  50   2.0000     -10.260738      -279.2089
  51   2.0000     -10.259628      -279.1787
  52   2.0000     -10.256550      -279.0949
  53   2.0000      -8.087814      -220.0806
  54   2.0000      -6.056816      -164.8143
  55   2.0000      -6.052841      -164.7062
  56   2.0000      -6.050343      -164.6382
  57   2.0000      -1.157840       -31.5064
  58   2.0000      -1.145472       -31.1699
  59   2.0000      -1.139298       -31.0019
  60   2.0000      -1.133844       -30.8535
  61   2.0000      -1.124796       -30.6073
  62   2.0000      -1.122155       -30.5354
  63   2.0000      -1.097426       -29.8625
  64   2.0000      -1.081448       -29.4277
  65   2.0000      -1.079340       -29.3703
  66   2.0000      -1.066231       -29.0136
  67   2.0000      -1.063037       -28.9267
  68   2.0000      -1.053144       -28.6575
  69   2.0000      -1.038512       -28.2593
  70   2.0000      -1.015287       -27.6274
  71   2.0000      -0.957225       -26.0474
  72   2.0000      -0.953805       -25.9544
  73   2.0000      -0.932098       -25.3637
  74   2.0000      -0.926201       -25.2032
  75   2.0000      -0.916778       -24.9468
  76   2.0000      -0.900789       -24.5117
  77   2.0000      -0.883079       -24.0298
  78   2.0000      -0.879467       -23.9315
  79   2.0000      -0.869307       -23.6550
  80   2.0000      -0.866219       -23.5710
  81   2.0000      -0.862459       -23.4687
  82   2.0000      -0.849470       -23.1153
  83   2.0000      -0.830686       -22.6041
  84   2.0000      -0.818026       -22.2596
  85   2.0000      -0.802748       -21.8439
  86   2.0000      -0.793004       -21.5787
  87   2.0000      -0.784144       -21.3377
  88   2.0000      -0.778973       -21.1969
  89   2.0000      -0.767314       -20.8797
  90   2.0000      -0.758183       -20.6312
  91   2.0000      -0.753211       -20.4959
  92   2.0000      -0.748864       -20.3776
  93   2.0000      -0.739502       -20.1229
  94   2.0000      -0.719560       -19.5802
  95   2.0000      -0.708553       -19.2807
  96   2.0000      -0.703965       -19.1559
  97   2.0000      -0.697819       -18.9886
  98   2.0000      -0.692693       -18.8491
  99   2.0000      -0.667241       -18.1565
 100   2.0000      -0.666544       -18.1376
 101   2.0000      -0.664117       -18.0715
 102   2.0000      -0.655394       -17.8342
 103   2.0000      -0.647616       -17.6225
 104   2.0000      -0.640230       -17.4215
 105   2.0000      -0.639576       -17.4038
 106   2.0000      -0.634450       -17.2643
 107   2.0000      -0.614694       -16.7267
 108   2.0000      -0.612912       -16.6782
 109   2.0000      -0.608119       -16.5478
 110   2.0000      -0.598853       -16.2956
 111   2.0000      -0.592781       -16.1304
 112   2.0000      -0.588459       -16.0128
 113   2.0000      -0.580919       -15.8076
 114   2.0000      -0.578493       -15.7416
 115   2.0000      -0.570949       -15.5363
 116   2.0000      -0.568306       -15.4644
 117   2.0000      -0.564600       -15.3636
 118   2.0000      -0.563540       -15.3347
 119   2.0000      -0.560411       -15.2496
 120   2.0000      -0.555502       -15.1160
 121   2.0000      -0.552834       -15.0434
 122   2.0000      -0.546368       -14.8674
 123   2.0000      -0.542803       -14.7704
 124   2.0000      -0.537072       -14.6145
 125   2.0000      -0.533085       -14.5060
 126   2.0000      -0.529049       -14.3962
 127   2.0000      -0.528721       -14.3872
 128   2.0000      -0.527066       -14.3422
 129   2.0000      -0.524493       -14.2722
 130   2.0000      -0.521855       -14.2004
 131   2.0000      -0.521563       -14.1924
 132   2.0000      -0.518957       -14.1215
 133   2.0000      -0.516706       -14.0603
 134   2.0000      -0.511005       -13.9052
 135   2.0000      -0.507779       -13.8174
 136   2.0000      -0.504100       -13.7172
 137   2.0000      -0.500869       -13.6293
 138   2.0000      -0.495601       -13.4860
 139   2.0000      -0.493739       -13.4353
 140   2.0000      -0.491928       -13.3861
 141   2.0000      -0.488453       -13.2915
 142   2.0000      -0.485077       -13.1996
 143   2.0000      -0.480517       -13.0755
 144   2.0000      -0.473427       -12.8826
 145   2.0000      -0.473160       -12.8754
 146   2.0000      -0.471140       -12.8204
 147   2.0000      -0.470832       -12.8120
 148   2.0000      -0.467246       -12.7144
 149   2.0000      -0.465303       -12.6616
 150   2.0000      -0.463211       -12.6046
 151   2.0000      -0.457987       -12.4625
 152   2.0000      -0.452365       -12.3095
 153   2.0000      -0.451961       -12.2985
 154   2.0000      -0.444875       -12.1057
 155   2.0000      -0.443636       -12.0720
 156   2.0000      -0.431179       -11.7330
 157   2.0000      -0.428084       -11.6488
 158   2.0000      -0.427627       -11.6363
 159   2.0000      -0.421637       -11.4733
 160   2.0000      -0.404943       -11.0191
 161   2.0000      -0.401714       -10.9312
 162   2.0000      -0.393258       -10.7011
 163   2.0000      -0.385794       -10.4980
 164   2.0000      -0.375992       -10.2313
 165   2.0000      -0.372397       -10.1334
 166   2.0000      -0.365151        -9.9363
 167   2.0000      -0.358076        -9.7437
 168   2.0000      -0.356360        -9.6971
 169   2.0000      -0.354249        -9.6396
 170   2.0000      -0.351121        -9.5545
 171   2.0000      -0.349223        -9.5028
 172   2.0000      -0.348464        -9.4822
 173   2.0000      -0.346302        -9.4234
 174   2.0000      -0.344820        -9.3830
 175   2.0000      -0.343006        -9.3337
 176   2.0000      -0.333577        -9.0771
 177   2.0000      -0.328577        -8.9410
 178   2.0000      -0.327273        -8.9056
 179   2.0000      -0.312539        -8.5046
 180   2.0000      -0.309634        -8.4256
 181   2.0000      -0.301878        -8.2145
 182   2.0000      -0.296169        -8.0592
 183   2.0000      -0.245283        -6.6745
 184   0.0000      -0.125654        -3.4192
 185   0.0000      -0.120590        -3.2814
 186   0.0000      -0.076284        -2.0758
 187   0.0000      -0.073406        -1.9975
 188   0.0000      -0.040486        -1.1017

MULLIKEN ATOMIC CHARGES
-----------------------
   0 C :    0.053965
   1 N :   -0.021922
   2 C :    0.062072
   3 C :   -0.156765
   4 C :    0.223607
   5 O :   -0.131931
   6 C :   -0.016453
   7 C :   -0.012954
   8 N :   -0.048120
   9 C :    0.098479
  10 C :   -0.089030
  11 C :    0.051407
  12 C :   -0.108471
  13 S :    0.164430
  14 C :   -0.137516
  15 C :    0.181001
  16 O :   -0.172787
  17 C :    0.025394
  18 C :    0.017663
  19 C :    0.056404
  20 N :   -0.246722
  21 C :    0.124787
  22 C :   -0.002636
  23 C :    0.168521
  24 O :   -0.183309
  25 C :   -0.056371
  26 C :    0.007932
  27 C :    0.126200
  28 O :   -0.189656
  29 N :   -0.269379
  30 C :    0.099888
  31 C :    0.006705
  32 C :    0.145942
  33 C :    0.002214
  34 C :    0.041027
  35 C :   -0.054197
  36 N :   -0.028801
  37 C :    0.060748
  38 C :   -0.072417
  39 N :   -0.019608
  40 N :   -0.037308
  41 C :    0.080342
  42 N :   -0.050250
  43 C :    0.044927
  44 C :   -0.028120
  45 C :    0.213734
  46 O :   -0.113690
  47 C :   -0.042034
  48 C :   -0.005987
  49 N :   -0.055574
  50 C :    0.092971
  51 C :   -0.088141
  52 C :   -0.093281
  53 H :    0.018731
  54 H :    0.021012
  55 H :    0.005078
  56 H :   -0.011797
  57 H :    0.016133
  58 H :    0.018511
  59 H :    0.045611
  60 H :    0.015952
  61 H :    0.020939
  62 H :    0.030287
  63 H :    0.041588
  64 H :    0.023037
  65 H :    0.028757
  66 H :    0.022421
  67 H :    0.016871
  68 H :   -0.000904
  69 H :    0.021405
  70 H :    0.027848
  71 H :    0.013022
  72 H :   -0.001499
  73 H :    0.010069
Sum of atomic charges:   -0.0000000

LOEWDIN ATOMIC CHARGES
----------------------
   0 C :    0.086389
   1 N :   -0.073543
   2 C :    0.046513
   3 C :   -0.046249
   4 C :    0.072456
   5 O :   -0.131383
   6 C :   -0.034518
   7 C :    0.041599
   8 N :   -0.088263
   9 C :    0.089873
  10 C :   -0.021921
  11 C :   -0.053581
  12 C :   -0.158392
  13 S :    0.474825
  14 C :   -0.222090
  15 C :    0.091140
  16 O :   -0.126780
  17 C :   -0.025968
  18 C :   -0.013436
  19 C :    0.089517
  20 N :    0.014239
  21 C :    0.040172
  22 C :   -0.061381
  23 C :    0.087990
  24 O :   -0.175864
  25 C :   -0.104471
  26 C :   -0.122173
  27 C :    0.078121
  28 O :   -0.199210
  29 N :   -0.005741
  30 C :    0.036113
  31 C :   -0.060509
  32 C :    0.069287
  33 C :    0.003100
  34 C :    0.000926
  35 C :    0.018768
  36 N :   -0.055441
  37 C :    0.073692
  38 C :   -0.064891
  39 N :   -0.002275
  40 N :   -0.047394
  41 C :    0.056605
  42 N :   -0.105879
  43 C :    0.039126
  44 C :   -0.031008
  45 C :    0.063926
  46 O :   -0.126514
  47 C :   -0.038270
  48 C :    0.032650
  49 N :   -0.097727
  50 C :    0.082212
  51 C :   -0.035138
  52 C :   -0.004314
  53 H :    0.025622
  54 H :    0.028476
  55 H :    0.038801
  56 H :   -0.001017
  57 H :    0.039440
  58 H :    0.025430
  59 H :    0.038215
  60 H :    0.022987
  61 H :    0.030391
  62 H :    0.032270
  63 H :    0.037256
  64 H :    0.023320
  65 H :    0.032193
  66 H :    0.030328
  67 H :    0.022854
  68 H :    0.034286
  69 H :    0.044844
  70 H :    0.036120
  71 H :    0.025164
  72 H :    0.035602
  73 H :    0.042507

  Mayer bond orders larger than 0.100000
B(  0-C ,  1-N ) :   1.7320 B(  0-C , 11-C ) :   1.0351 B(  0-C , 53-H ) :   0.9878
B(  1-N ,  2-C ) :   1.2751 B(  2-C ,  3-C ) :   1.0454 B(  2-C ,  7-C ) :   1.4926
B(  3-C ,  4-C ) :   0.9008 B(  3-C , 11-C ) :   1.6133 B(  4-C ,  5-O ) :   2.2112
B(  4-C ,  6-C ) :   0.9148 B(  6-C ,  7-C ) :   1.0493 B(  6-C , 10-C ) :   1.6389
B(  7-C ,  8-N ) :   1.2880 B(  8-N ,  9-C ) :   1.6817 B(  9-C , 10-C ) :   1.0443
B(  9-C , 54-H ) :   0.9882 B( 10-C , 55-H ) :   1.0106 B( 11-C , 12-C ) :   1.0858
B( 12-C , 13-S ) :   1.1556 B( 12-C , 18-C ) :   1.4586 B( 13-S , 14-C ) :   1.1071
B( 14-C , 15-C ) :   0.9994 B( 14-C , 17-C ) :   1.4982 B( 15-C , 16-O ) :   2.1359
B( 15-C , 56-H ) :   0.9577 B( 17-C , 18-C ) :   1.3245 B( 17-C , 19-C ) :   0.9166
B( 18-C , 57-H ) :   0.9797 B( 19-C , 20-N ) :   1.2424 B( 19-C , 26-C ) :   1.4675
B( 20-N , 21-C ) :   0.9431 B( 20-N , 23-C ) :   1.0233 B( 21-C , 22-C ) :   1.1217
B( 21-C , 58-H ) :   0.9453 B( 21-C , 59-H ) :   0.9321 B( 22-C , 60-H ) :   0.9662
B( 22-C , 61-H ) :   0.9657 B( 22-C , 62-H ) :   0.9649 B( 23-C , 24-O ) :   2.0682
B( 23-C , 25-C ) :   0.9833 B( 25-C , 26-C ) :   1.2156 B( 25-C , 32-C ) :   1.3802
B( 26-C , 27-C ) :   0.9562 B( 27-C , 28-O ) :   2.1751 B( 27-C , 29-N ) :   1.0260
B( 29-N , 30-C ) :   0.9470 B( 29-N , 32-C ) :   1.1571 B( 30-C , 31-C ) :   1.1220
B( 30-C , 63-H ) :   0.9273 B( 30-C , 64-H ) :   0.9500 B( 31-C , 65-H ) :   0.9632
B( 31-C , 66-H ) :   0.9677 B( 31-C , 67-H ) :   0.9683 B( 32-C , 33-C ) :   1.1167
B( 33-C , 34-C ) :   1.5902 B( 33-C , 68-H ) :   0.9640 B( 34-C , 35-C ) :   1.0878
B( 34-C , 69-H ) :   0.9610 B( 35-C , 36-N ) :   1.4507 B( 35-C , 40-N ) :   1.4954
B( 36-N , 37-C ) :   1.6228 B( 37-C , 38-C ) :   1.2474 B( 37-C , 70-H ) :   0.9745
B( 38-C , 39-N ) :   1.5682 B( 38-C , 41-C ) :   1.0035 B( 39-N , 40-N ) :   1.3715
B( 41-C , 42-N ) :   1.6374 B( 41-C , 43-C ) :   0.1139 B( 41-C , 52-C ) :   1.0669
B( 42-N , 43-C ) :   1.3466 B( 43-C , 44-C ) :   1.0313 B( 43-C , 48-C ) :   1.4334
B( 44-C , 45-C ) :   0.8647 B( 44-C , 52-C ) :   1.5931 B( 45-C , 46-O ) :   2.3292
B( 45-C , 47-C ) :   0.8836 B( 47-C , 48-C ) :   1.0345 B( 47-C , 51-C ) :   1.6232
B( 48-C , 49-N ) :   1.3118 B( 49-N , 50-C ) :   1.6576 B( 50-C , 51-C ) :   1.0695
B( 50-C , 71-H ) :   0.9893 B( 51-C , 72-H ) :   1.0102 B( 52-C , 73-H ) :   1.0277

-----------------------------------------------------------------------------
         ABSORPTION SPECTRUM VIA TRANSITION ELECTRIC DIPOLE MOMENTS
-----------------------------------------------------------------------------
State   Energy  Wavelength   fosc         T2         TX        TY        TZ
        (cm-1)    (nm)                  (au**2)     (au)      (au)      (au)
-----------------------------------------------------------------------------
   0   13058.4    765.8   0.002207797   0.05566  -0.20189  -0.06983   0.10012
   1   14580.3    685.9   0.659631550  14.89401   3.07907   1.91116  -1.32695
   2   16238.2    615.8   0.059018120   1.19653  -0.83093  -0.65625   0.27462
   3   19866.6    503.4   0.141208314   2.33998  -1.10482   0.94783   0.47008
   4   20207.2    494.9   0.003575789   0.05826   0.17097  -0.15428  -0.07226
   5   21266.3    470.2   0.001170170   0.01811   0.00407   0.11499  -0.06983
   6   22387.3    446.7   0.061425619   0.90328   0.71830   0.13783   0.60690
   7   22505.6    444.3   0.000852758   0.01247   0.06337   0.03269   0.08597
   8   24321.2    411.2   0.079235200   1.07253   0.83347   0.59742  -0.14473
   9   25807.8    387.5   0.135310174   1.72606  -0.94996  -0.69806   0.57995
  10   25979.3    384.9   0.089887608   1.13906   0.72986   0.64540  -0.43569
  11   26304.0    380.2   0.010871106   0.13606  -0.27617   0.24429   0.01062
  12   26362.4    379.3   0.000106960   0.00134  -0.03588  -0.00479  -0.00504
  13   26386.9    379.0   0.001392109   0.01737   0.10241  -0.03243  -0.07634
  14   26493.4    377.5   0.006630983   0.08240  -0.25824  -0.08664  -0.09057
  15   26779.0    373.4   0.001855397   0.02281  -0.09407  -0.04008  -0.11115
  16   27342.9    365.7   0.003342507   0.04024   0.12146   0.14225  -0.07250
  17   27464.7    364.1   0.950707582  11.39586  -2.34885  -1.85139   1.56561
  18   27911.5    358.3   0.031968985   0.37707  -0.52843  -0.15064   0.27412
  19   28085.2    356.1   0.003400533   0.03986  -0.03988  -0.09513  -0.17094
  20   28162.5    355.1   0.008975053   0.10492  -0.21515  -0.19298   0.14623
  21   28174.8    354.9   0.000605495   0.00707  -0.01978   0.08138   0.00780
  22   29328.7    341.0   0.000005964   0.00007  -0.00502   0.00645  -0.00040
  23   29922.2    334.2   0.017183615   0.18906  -0.27473   0.30859   0.13549
  24   30115.7    332.1   0.070488742   0.77055   0.63126  -0.48885  -0.36481
  25   30285.8    330.2   0.319098996   3.46867  -1.39756   0.97877   0.74665
  26   30412.1    328.8   0.188040890   2.03555   1.10247  -0.67199  -0.60707
  27   30949.6    323.1   0.010433617   0.11098  -0.06238  -0.01013   0.32709
  28   31001.2    322.6   0.024003772   0.25490  -0.38030   0.24531   0.22384
  29   31203.9    320.5   0.000114172   0.00120   0.01860  -0.00048  -0.02930
  30   31853.6    313.9   0.171490219   1.77238  -0.85965   0.94802   0.36692
  31   32068.7    311.8   0.022674930   0.23278   0.30422  -0.35341  -0.12382
  32   32213.1    310.4   0.000782525   0.00800   0.07598  -0.04142  -0.02256
  33   32394.0    308.7   0.324433258   3.29713  -1.27022   1.17403   0.55255
  34   33550.4    298.1   0.028593248   0.28057   0.01666  -0.10416  -0.51908
  35   34460.1    290.2   0.000200223   0.00191   0.02441   0.03598  -0.00473
  36   34478.1    290.0   0.013913207   0.13285  -0.06858  -0.07849  -0.34926
  37   34884.5    286.7   0.054987429   0.51893  -0.15056  -0.19414   0.67718
  38   35444.8    282.1   0.074387604   0.69091  -0.24682  -0.06505  -0.79105
  39   35674.1    280.3   0.003497487   0.03228  -0.08525   0.15601   0.02585
  40   35971.6    278.0   0.394194843   3.60767  -0.60742  -0.64404   1.68045
  41   36519.0    273.8   0.007888920   0.07112   0.22561  -0.13118  -0.05487
  42   36634.0    273.0   0.025791468   0.23178   0.39459  -0.23041  -0.15161
  43   36948.3    270.6   0.048991564   0.43652   0.37673  -0.52203  -0.14859
  44   37056.9    269.9   0.039599257   0.35180  -0.32611   0.49071   0.06818
  45   37325.2    267.9   0.000329747   0.00291   0.00832  -0.02939   0.04445
  46   37566.4    266.2   0.006755985   0.05921  -0.19318  -0.01807   0.14683
  47   37961.7    263.4   0.003241101   0.02811  -0.12415  -0.00211  -0.11265
  48   38733.7    258.2   0.000043104   0.00037  -0.01035   0.01076  -0.01197
  49   38849.8    257.4   0.000008218   0.00007  -0.00481   0.00580  -0.00359
  50   38908.8    257.0   0.010200659   0.08631  -0.13125  -0.06956   0.25347
  51   39181.5    255.2   0.152661476   1.28270   0.85412  -0.60321  -0.43510
  52   39814.2    251.2   0.000226079   0.00187  -0.02533   0.03179   0.01474
  53   39902.6    250.6   0.000071079   0.00059   0.01497  -0.01682  -0.00891
  54   40239.5    248.5   0.000024769   0.00020  -0.01116  -0.00365  -0.00805
  55   40254.6    248.4   0.000566884   0.00464   0.01462  -0.05947   0.02975

FINAL SINGLE POINT ENERGY     -2724.571324552324

DIPOLE MOMENT
-------------
                                X             Y             Z
Electronic contribution:     -2.56410       2.98733      -3.52485
Nuclear contribution   :      1.18758      -3.24505       5.07259
                        -----------------------------------------
Total Dipole Moment    :     -1.37651      -0.25772       1.54773
                        -----------------------------------------
Magnitude (a.u.)       :      2.08727
Magnitude (Debye)      :      5.30541

Rotational constants in cm-1:     0.004123     0.000446     0.000434
Rotational constants in MHz :   123.619044    13.365286    13.020819

                             ****ORCA TERMINATED NORMALLY****
TOTAL RUN TIME: 0 days 0 hours 7 minutes 11 seconds 808 msec
