                         Program Version 4.2.0 -  RELEASE  -
|  1> # ORCA input file
|  2> # SCF done       -149.468075745546          0.000451169759
|  3> ! CAM-B3LYP def2-SVP def2/J RIJCOSX Grid4 TightSCF
|  4> %maxcore 5000
|  5> %tddft
|  6>     Mode sTDDFT
|  7>     Ethresh 5.0
|  8>     maxcore 5000
|  9> end
| 10>
| 11> %pal
| 12>   nprocs 6
| 13>   end
| 14> * xyz 0 1
| 15>    C        2.83707        -0.46956         0.95401
| 16>    N        2.47119        -1.67263         0.63378
| 17>    C        2.93777        -1.87325        -0.63507
| 18>    C        3.64485        -0.67785        -1.12214
| 19>    C        4.14269        -0.88745        -2.48899
| 20>    O        4.75080        -0.11470        -3.19730
| 21>    C        3.70980        -2.26948        -2.77717
| 22>    C        2.97321        -2.82727        -1.61194
| 23>    N        2.57434        -4.10021        -1.86975
| 24>    C        3.00478        -4.35891        -3.07439
| 25>    C        3.72496        -3.25769        -3.70133
| 26>    C        3.58787         0.23120        -0.09587
| 27>    C        4.12488         1.54545        -0.02445
| 28>    S        3.89291         2.57495         1.35374
| 29>    C        4.80040         3.83873         0.61283
| 30>    C        4.88537         5.13501         1.26420
| 31>    O        5.16552         6.16952         0.71398
| 32>    C        5.27612         3.46291        -0.64393
| 33>    C        4.88139         2.16417        -0.99704
| 34>    C        6.20202         4.28947        -1.38482
| 35>    N        6.21050         4.49355        -2.73253
| 36>    C        5.20897         4.08100        -3.68787
| 37>    C        3.85303         4.71537        -3.39754
| 38>    C        7.28416         5.33819        -3.11525
| 39>    O        7.47967         5.68135        -4.26051
| 40>    C        7.98259         5.61623        -1.87953
| 41>    C        7.28348         4.95270        -0.83861
| 42>    C        7.97134         5.19824         0.40755
| 43>    O        7.75948         4.82240         1.54108
| 44>    N        9.05560         6.01409         0.03727
| 45>    C        9.94032         6.55993         1.03767
| 46>    C        9.56417         7.99474         1.39896
| 47>    C        9.06850         6.28047        -1.31460
| 48>    C       10.05449         7.08986        -1.93665
| 49>    C       10.06409         7.35965        -3.26515
| 50>    C       11.03560         8.18021        -3.93186
| 51>    C       12.09454         8.82945        -3.28136
| 52>    C       12.98809         9.60998        -3.97469
| 53>    F       13.96984        10.19159        -3.26303
| 54>    C       12.90185         9.80652        -5.36281
| 55>    C       11.84583         9.15595        -6.02150
| 56>    C       10.95486         8.37826        -5.32633
| 57>    F        9.96663         7.78285        -6.00689
| 58>    C       13.80340        10.61490        -6.13709
| 59>    N       13.63311        10.71519        -7.45310
| 60>    C       14.60987        11.52531        -7.88886
| 61>    C       15.46428        11.97509        -6.76032
| 62>    C       16.53911        12.86773        -7.24823
| 63>    O       17.40832        13.41767        -6.61516
| 64>    C       16.27605        12.91313        -8.69863
| 65>    C       15.09516        12.08439        -9.04188
| 66>    N       14.85606        12.12569       -10.37570
| 67>    C       15.78814        12.90389       -10.86679
| 68>    C       16.70769        13.42951        -9.87654
| 69>    C       14.94860        11.39348        -5.65573
| 70>    H        2.59521        -0.05246         1.91649
| 71>    H        2.81891        -5.31836        -3.52524
| 72>    H        4.15475        -3.27565        -4.68328
| 73>    H        4.61412         5.10069         2.33507
| 74>    H        5.15505         1.66571        -1.91024
| 75>    H        5.12798         2.99106        -3.70173
| 76>    H        5.57873         4.41561        -4.66135
| 77>    H        3.46655         4.38604        -2.43552
| 78>    H        3.14483         4.43171        -4.17067
| 79>    H        3.93937         5.79919        -3.38318
| 80>    H       10.97553         6.49739         0.69048
| 81>    H        9.82737         5.92052         1.91772
| 82>    H        9.63610         8.64974         0.53338
| 83>    H       10.22570         8.36543         2.17696
| 84>    H        8.54162         8.02344         1.76674
| 85>    H       10.82036         7.49498        -1.29245
| 86>    H        9.28845         6.93819        -3.89182
| 87>    H       12.23214         8.73349        -2.21683
| 88>    H       11.75151         9.28446        -7.08798
| 89>    H       15.82482        13.10588       -11.92347
| 90>    H       17.53471        14.08120       -10.07745
| 91>    H       15.27874        11.46617        -4.63978
| 92> *
| 93>
| 94>                          ****END OF INPUT****

CARTESIAN COORDINATES (ANGSTROEM)
---------------------------------
  C      2.837070   -0.469560    0.954010
  N      2.471190   -1.672630    0.633780
  C      2.937770   -1.873250   -0.635070
  C      3.644850   -0.677850   -1.122140
  C      4.142690   -0.887450   -2.488990
  O      4.750800   -0.114700   -3.197300
  C      3.709800   -2.269480   -2.777170
  C      2.973210   -2.827270   -1.611940
  N      2.574340   -4.100210   -1.869750
  C      3.004780   -4.358910   -3.074390
  C      3.724960   -3.257690   -3.701330
  C      3.587870    0.231200   -0.095870
  C      4.124880    1.545450   -0.024450
  S      3.892910    2.574950    1.353740
  C      4.800400    3.838730    0.612830
  C      4.885370    5.135010    1.264200
  O      5.165520    6.169520    0.713980
  C      5.276120    3.462910   -0.643930
  C      4.881390    2.164170   -0.997040
  C      6.202020    4.289470   -1.384820
  N      6.210500    4.493550   -2.732530
  C      5.208970    4.081000   -3.687870
  C      3.853030    4.715370   -3.397540
  C      7.284160    5.338190   -3.115250
  O      7.479670    5.681350   -4.260510
  C      7.982590    5.616230   -1.879530
  C      7.283480    4.952700   -0.838610
  C      7.971340    5.198240    0.407550
  O      7.759480    4.822400    1.541080
  N      9.055600    6.014090    0.037270
  C      9.940320    6.559930    1.037670
  C      9.564170    7.994740    1.398960
  C      9.068500    6.280470   -1.314600
  C     10.054490    7.089860   -1.936650
  C     10.064090    7.359650   -3.265150
  C     11.035600    8.180210   -3.931860
  C     12.094540    8.829450   -3.281360
  C     12.988090    9.609980   -3.974690
  F     13.969840   10.191590   -3.263030
  C     12.901850    9.806520   -5.362810
  C     11.845830    9.155950   -6.021500
  C     10.954860    8.378260   -5.326330
  F      9.966630    7.782850   -6.006890
  C     13.803400   10.614900   -6.137090
  N     13.633110   10.715190   -7.453100
  C     14.609870   11.525310   -7.888860
  C     15.464280   11.975090   -6.760320
  C     16.539110   12.867730   -7.248230
  O     17.408320   13.417670   -6.615160
  C     16.276050   12.913130   -8.698630
  C     15.095160   12.084390   -9.041880
  N     14.856060   12.125690  -10.375700
  C     15.788140   12.903890  -10.866790
  C     16.707690   13.429510   -9.876540
  C     14.948600   11.393480   -5.655730
  H      2.595210   -0.052460    1.916490
  H      2.818910   -5.318360   -3.525240
  H      4.154750   -3.275650   -4.683280
  H      4.614120    5.100690    2.335070
  H      5.155050    1.665710   -1.910240
  H      5.127980    2.991060   -3.701730
  H      5.578730    4.415610   -4.661350
  H      3.466550    4.386040   -2.435520
  H      3.144830    4.431710   -4.170670
  H      3.939370    5.799190   -3.383180
  H     10.975530    6.497390    0.690480
  H      9.827370    5.920520    1.917720
  H      9.636100    8.649740    0.533380
  H     10.225700    8.365430    2.176960
  H      8.541620    8.023440    1.766740
  H     10.820360    7.494980   -1.292450
  H      9.288450    6.938190   -3.891820
  H     12.232140    8.733490   -2.216830
  H     11.751510    9.284460   -7.087980
  H     15.824820   13.105880  -11.923470
  H     17.534710   14.081200  -10.077450
  H     15.278740   11.466170   -4.639780

 Total Charge           Charge          ....    0
 Multiplicity           Mult            ....    1
 Number of Electrons    NEL             ....  384
 Basis Dimension        Dim             ....  884

ORBITAL ENERGIES
----------------

  NO   OCC          E(Eh)            E(eV)
   0   2.0000     -88.988011     -2421.4869
   1   2.0000     -24.801447      -674.8817
   2   2.0000     -24.785404      -674.4451
   3   2.0000     -19.230975      -523.3014
   4   2.0000     -19.214481      -522.8526
   5   2.0000     -19.206275      -522.6293
   6   2.0000     -19.192639      -522.2583
   7   2.0000     -19.187317      -522.1134
   8   2.0000     -14.453800      -393.3079
   9   2.0000     -14.451265      -393.2389
  10   2.0000     -14.431218      -392.6934
  11   2.0000     -14.423868      -392.4934
  12   2.0000     -14.407949      -392.0602
  13   2.0000     -14.404061      -391.9544
  14   2.0000     -10.390379      -282.7366
  15   2.0000     -10.379819      -282.4492
  16   2.0000     -10.374060      -282.2925
  17   2.0000     -10.370150      -282.1861
  18   2.0000     -10.368190      -282.1328
  19   2.0000     -10.368135      -282.1313
  20   2.0000     -10.366253      -282.0801
  21   2.0000     -10.352074      -281.6943
  22   2.0000     -10.348581      -281.5992
  23   2.0000     -10.346522      -281.5432
  24   2.0000     -10.344728      -281.4944
  25   2.0000     -10.344501      -281.4882
  26   2.0000     -10.339867      -281.3621
  27   2.0000     -10.339582      -281.3543
  28   2.0000     -10.333577      -281.1909
  29   2.0000     -10.329898      -281.0908
  30   2.0000     -10.326488      -280.9980
  31   2.0000     -10.324695      -280.9492
  32   2.0000     -10.324227      -280.9365
  33   2.0000     -10.319709      -280.8135
  34   2.0000     -10.313422      -280.6425
  35   2.0000     -10.312920      -280.6288
  36   2.0000     -10.309527      -280.5365
  37   2.0000     -10.309433      -280.5339
  38   2.0000     -10.308537      -280.5096
  39   2.0000     -10.307342      -280.4770
  40   2.0000     -10.305928      -280.4386
  41   2.0000     -10.302812      -280.3538
  42   2.0000     -10.299407      -280.2611
  43   2.0000     -10.298093      -280.2253
  44   2.0000     -10.297503      -280.2093
  45   2.0000     -10.295253      -280.1481
  46   2.0000     -10.294374      -280.1242
  47   2.0000     -10.293131      -280.0903
  48   2.0000     -10.291754      -280.0529
  49   2.0000     -10.287815      -279.9457
  50   2.0000     -10.287152      -279.9276
  51   2.0000     -10.263396      -279.2812
  52   2.0000     -10.260589      -279.2048
  53   2.0000     -10.259672      -279.1799
  54   2.0000     -10.256523      -279.0942
  55   2.0000      -8.083422      -219.9611
  56   2.0000      -6.052415      -164.6946
  57   2.0000      -6.048386      -164.5849
  58   2.0000      -6.046053      -164.5215
  59   2.0000      -1.316685       -35.8288
  60   2.0000      -1.302432       -35.4410
  61   2.0000      -1.144937       -31.1553
  62   2.0000      -1.134144       -30.8616
  63   2.0000      -1.129428       -30.7333
  64   2.0000      -1.124362       -30.5955
  65   2.0000      -1.122056       -30.5327
  66   2.0000      -1.095603       -29.8129
  67   2.0000      -1.077539       -29.3213
  68   2.0000      -1.077239       -29.3132
  69   2.0000      -1.064259       -28.9600
  70   2.0000      -1.058461       -28.8022
  71   2.0000      -1.055264       -28.7152
  72   2.0000      -1.010783       -27.5048
  73   2.0000      -0.983659       -26.7667
  74   2.0000      -0.952322       -25.9140
  75   2.0000      -0.935825       -25.4651
  76   2.0000      -0.927445       -25.2371
  77   2.0000      -0.917488       -24.9661
  78   2.0000      -0.912896       -24.8412
  79   2.0000      -0.884535       -24.0694
  80   2.0000      -0.878831       -23.9142
  81   2.0000      -0.876145       -23.8411
  82   2.0000      -0.868071       -23.6214
  83   2.0000      -0.864143       -23.5145
  84   2.0000      -0.854912       -23.2633
  85   2.0000      -0.850633       -23.1469
  86   2.0000      -0.845309       -23.0020
  87   2.0000      -0.818753       -22.2794
  88   2.0000      -0.811242       -22.0750
  89   2.0000      -0.796789       -21.6817
  90   2.0000      -0.782718       -21.2988
  91   2.0000      -0.776180       -21.1209
  92   2.0000      -0.761901       -20.7324
  93   2.0000      -0.758911       -20.6510
  94   2.0000      -0.755540       -20.5593
  95   2.0000      -0.742303       -20.1991
  96   2.0000      -0.735165       -20.0049
  97   2.0000      -0.717276       -19.5181
  98   2.0000      -0.717043       -19.5117
  99   2.0000      -0.708708       -19.2849
 100   2.0000      -0.700117       -19.0512
 101   2.0000      -0.695224       -18.9180
 102   2.0000      -0.686258       -18.6740
 103   2.0000      -0.669159       -18.2087
 104   2.0000      -0.663845       -18.0641
 105   2.0000      -0.653725       -17.7888
 106   2.0000      -0.651079       -17.7168
 107   2.0000      -0.644509       -17.5380
 108   2.0000      -0.640660       -17.4332
 109   2.0000      -0.634909       -17.2767
 110   2.0000      -0.631501       -17.1840
 111   2.0000      -0.622471       -16.9383
 112   2.0000      -0.612695       -16.6723
 113   2.0000      -0.608989       -16.5714
 114   2.0000      -0.606406       -16.5012
 115   2.0000      -0.599473       -16.3125
 116   2.0000      -0.592245       -16.1158
 117   2.0000      -0.588197       -16.0056
 118   2.0000      -0.582490       -15.8503
 119   2.0000      -0.575850       -15.6697
 120   2.0000      -0.574943       -15.6450
 121   2.0000      -0.574810       -15.6414
 122   2.0000      -0.565977       -15.4010
 123   2.0000      -0.561990       -15.2925
 124   2.0000      -0.556734       -15.1495
 125   2.0000      -0.556341       -15.1388
 126   2.0000      -0.553710       -15.0672
 127   2.0000      -0.548191       -14.9170
 128   2.0000      -0.546643       -14.8749
 129   2.0000      -0.542004       -14.7487
 130   2.0000      -0.541597       -14.7376
 131   2.0000      -0.537352       -14.6221
 132   2.0000      -0.536399       -14.5962
 133   2.0000      -0.535151       -14.5622
 134   2.0000      -0.529696       -14.4138
 135   2.0000      -0.529339       -14.4040
 136   2.0000      -0.523009       -14.2318
 137   2.0000      -0.520777       -14.1711
 138   2.0000      -0.518564       -14.1108
 139   2.0000      -0.516772       -14.0621
 140   2.0000      -0.514957       -14.0127
 141   2.0000      -0.508063       -13.8251
 142   2.0000      -0.505994       -13.7688
 143   2.0000      -0.505084       -13.7440
 144   2.0000      -0.499909       -13.6032
 145   2.0000      -0.498327       -13.5602
 146   2.0000      -0.494682       -13.4610
 147   2.0000      -0.492044       -13.3892
 148   2.0000      -0.491025       -13.3615
 149   2.0000      -0.489674       -13.3247
 150   2.0000      -0.480474       -13.0744
 151   2.0000      -0.478984       -13.0338
 152   2.0000      -0.478459       -13.0195
 153   2.0000      -0.474059       -12.8998
 154   2.0000      -0.470785       -12.8107
 155   2.0000      -0.470219       -12.7953
 156   2.0000      -0.464775       -12.6472
 157   2.0000      -0.463757       -12.6195
 158   2.0000      -0.459604       -12.5065
 159   2.0000      -0.458579       -12.4786
 160   2.0000      -0.457529       -12.4500
 161   2.0000      -0.452271       -12.3069
 162   2.0000      -0.449806       -12.2398
 163   2.0000      -0.448287       -12.1985
 164   2.0000      -0.444455       -12.0942
 165   2.0000      -0.442625       -12.0444
 166   2.0000      -0.434692       -11.8286
 167   2.0000      -0.427140       -11.6231
 168   2.0000      -0.423923       -11.5355
 169   2.0000      -0.408764       -11.1230
 170   2.0000      -0.393086       -10.6964
 171   2.0000      -0.380059       -10.3419
 172   2.0000      -0.374539       -10.1917
 173   2.0000      -0.371027       -10.0962
 174   2.0000      -0.361192        -9.8285
 175   2.0000      -0.357050        -9.7158
 176   2.0000      -0.351981        -9.5779
 177   2.0000      -0.351712        -9.5706
 178   2.0000      -0.348356        -9.4793
 179   2.0000      -0.347470        -9.4551
 180   2.0000      -0.346470        -9.4279
 181   2.0000      -0.341491        -9.2924
 182   2.0000      -0.340128        -9.2553
 183   2.0000      -0.338689        -9.2162
 184   2.0000      -0.330724        -8.9995
 185   2.0000      -0.330540        -8.9945
 186   2.0000      -0.328227        -8.9315
 187   2.0000      -0.325426        -8.8553
 188   2.0000      -0.312035        -8.4909
 189   2.0000      -0.298365        -8.1189
 190   2.0000      -0.297251        -8.0886
 191   2.0000      -0.240664        -6.5488
 192   0.0000      -0.122856        -3.3431
 193   0.0000      -0.115841        -3.1522
 194   0.0000      -0.079128        -2.1532
 195   0.0000      -0.067465        -1.8358
 196   0.0000      -0.037138        -1.0106

MULLIKEN ATOMIC CHARGES
-----------------------
   0 C :    0.053941
   1 N :   -0.020225
   2 C :    0.059040
   3 C :   -0.155612
   4 C :    0.218132
   5 O :   -0.137063
   6 C :   -0.012061
   7 C :   -0.014746
   8 N :   -0.045800
   9 C :    0.096059
  10 C :   -0.090430
  11 C :    0.051625
  12 C :   -0.108016
  13 S :    0.163565
  14 C :   -0.166205
  15 C :    0.212502
  16 O :   -0.179280
  17 C :    0.056881
  18 C :   -0.021642
  19 C :    0.091941
  20 N :   -0.252785
  21 C :    0.097320
  22 C :   -0.005498
  23 C :    0.166094
  24 O :   -0.187958
  25 C :   -0.083493
  26 C :    0.000508
  27 C :    0.141300
  28 O :   -0.206200
  29 N :   -0.265700
  30 C :    0.098104
  31 C :    0.002977
  32 C :    0.139609
  33 C :    0.014984
  34 C :   -0.000747
  35 C :    0.039600
  36 C :   -0.087460
  37 C :    0.257946
  38 F :   -0.182221
  39 C :    0.004146
  40 C :   -0.071632
  41 C :    0.283220
  42 F :   -0.171330
  43 C :    0.028254
  44 N :   -0.051979
  45 C :    0.055101
  46 C :   -0.032886
  47 C :    0.210447
  48 O :   -0.117426
  49 C :   -0.041796
  50 C :   -0.014930
  51 N :   -0.055451
  52 C :    0.090985
  53 C :   -0.092253
  54 C :   -0.100802
  55 H :    0.017738
  56 H :    0.019288
  57 H :    0.004242
  58 H :   -0.015164
  59 H :    0.008631
  60 H :    0.034587
  61 H :    0.046317
  62 H :    0.024721
  63 H :    0.023662
  64 H :    0.030335
  65 H :    0.021116
  66 H :    0.042456
  67 H :    0.013792
  68 H :    0.023182
  69 H :    0.036741
  70 H :   -0.031459
  71 H :    0.020094
  72 H :   -0.011902
  73 H :    0.021657
  74 H :    0.010997
  75 H :   -0.003823
  76 H :    0.002140
Sum of atomic charges:   -0.0000000

LOEWDIN ATOMIC CHARGES
----------------------
   0 C :    0.086571
   1 N :   -0.073373
   2 C :    0.047298
   3 C :   -0.052766
   4 C :    0.073526
   5 O :   -0.136689
   6 C :   -0.035435
   7 C :    0.039001
   8 N :   -0.087483
   9 C :    0.087030
  10 C :   -0.022367
  11 C :   -0.050068
  12 C :   -0.167223
  13 S :    0.479357
  14 C :   -0.206967
  15 C :    0.096122
  16 O :   -0.127012
  17 C :   -0.039786
  18 C :   -0.018111
  19 C :    0.079968
  20 N :    0.005079
  21 C :    0.036237
  22 C :   -0.060911
  23 C :    0.084683
  24 O :   -0.182593
  25 C :   -0.116024
  26 C :   -0.111308
  27 C :    0.083523
  28 O :   -0.200338
  29 N :   -0.002296
  30 C :    0.035309
  31 C :   -0.061404
  32 C :    0.076963
  33 C :   -0.029980
  34 C :    0.026899
  35 C :   -0.029216
  36 C :   -0.034397
  37 C :    0.097391
  38 F :   -0.056071
  39 C :   -0.066032
  40 C :    0.004883
  41 C :    0.086575
  42 F :   -0.048088
  43 C :    0.075489
  44 N :   -0.107837
  45 C :    0.039978
  46 C :   -0.028753
  47 C :    0.063139
  48 O :   -0.130986
  49 C :   -0.040280
  50 C :    0.028319
  51 N :   -0.097510
  52 C :    0.077963
  53 C :   -0.038344
  54 C :   -0.022623
  55 H :    0.025655
  56 H :    0.027793
  57 H :    0.038355
  58 H :   -0.002818
  59 H :    0.035314
  60 H :    0.026151
  61 H :    0.037891
  62 H :    0.023267
  63 H :    0.031586
  64 H :    0.031893
  65 H :    0.020960
  66 H :    0.037975
  67 H :    0.021191
  68 H :    0.030020
  69 H :    0.035623
  70 H :    0.026121
  71 H :    0.040421
  72 H :    0.038899
  73 H :    0.052183
  74 H :    0.024145
  75 H :    0.034570
  76 H :    0.033776

  Mayer bond orders larger than 0.100000
B(  0-C ,  1-N ) :   1.7344 B(  0-C , 11-C ) :   1.0323 B(  0-C , 55-H ) :   0.9883
B(  1-N ,  2-C ) :   1.2710 B(  2-C ,  3-C ) :   1.0454 B(  2-C ,  7-C ) :   1.5018
B(  3-C ,  4-C ) :   0.9049 B(  3-C , 11-C ) :   1.6089 B(  4-C ,  5-O ) :   2.2024
B(  4-C ,  6-C ) :   0.9179 B(  6-C ,  7-C ) :   1.0514 B(  6-C , 10-C ) :   1.6360
B(  7-C ,  8-N ) :   1.2830 B(  8-N ,  9-C ) :   1.6871 B(  9-C , 10-C ) :   1.0435
B(  9-C , 56-H ) :   0.9880 B( 10-C , 57-H ) :   1.0104 B( 11-C , 12-C ) :   1.0894
B( 12-C , 13-S ) :   1.1438 B( 12-C , 18-C ) :   1.4806 B( 13-S , 14-C ) :   1.1278
B( 14-C , 15-C ) :   0.9809 B( 14-C , 17-C ) :   1.4704 B( 15-C , 16-O ) :   2.1557
B( 15-C , 58-H ) :   0.9475 B( 17-C , 18-C ) :   1.2626 B( 17-C , 19-C ) :   0.9832
B( 18-C , 59-H ) :   0.9877 B( 19-C , 20-N ) :   1.2272 B( 19-C , 26-C ) :   1.4478
B( 20-N , 21-C ) :   0.9419 B( 20-N , 23-C ) :   1.0297 B( 21-C , 22-C ) :   1.1175
B( 21-C , 60-H ) :   0.9489 B( 21-C , 61-H ) :   0.9280 B( 22-C , 62-H ) :   0.9673
B( 22-C , 63-H ) :   0.9665 B( 22-C , 64-H ) :   0.9643 B( 23-C , 24-O ) :   2.0529
B( 23-C , 25-C ) :   0.9880 B( 24-O , 71-H ) :   0.1004 B( 25-C , 26-C ) :   1.2235
B( 25-C , 32-C ) :   1.3649 B( 26-C , 27-C ) :   0.9668 B( 27-C , 28-O ) :   2.1092
B( 27-C , 29-N ) :   1.0442 B( 29-N , 30-C ) :   0.9489 B( 29-N , 32-C ) :   1.1537
B( 30-C , 31-C ) :   1.1212 B( 30-C , 65-H ) :   0.9497 B( 30-C , 66-H ) :   0.9258
B( 31-C , 67-H ) :   0.9680 B( 31-C , 68-H ) :   0.9678 B( 31-C , 69-H ) :   0.9627
B( 32-C , 33-C ) :   1.1515 B( 33-C , 34-C ) :   1.6008 B( 33-C , 70-H ) :   0.9524
B( 34-C , 35-C ) :   1.0959 B( 34-C , 71-H ) :   0.9689 B( 35-C , 36-C ) :   1.2726
B( 35-C , 41-C ) :   1.2709 B( 36-C , 37-C ) :   1.4051 B( 36-C , 72-H ) :   0.9887
B( 37-C , 38-F ) :   1.1095 B( 37-C , 39-C ) :   1.2774 B( 39-C , 40-C ) :   1.2893
B( 39-C , 43-C ) :   1.0396 B( 40-C , 41-C ) :   1.3480 B( 40-C , 73-H ) :   1.0048
B( 41-C , 42-F ) :   1.1200 B( 43-C , 44-N ) :   1.6154 B( 43-C , 45-C ) :   0.1134
B( 43-C , 54-C ) :   1.0689 B( 44-N , 45-C ) :   1.3615 B( 45-C , 46-C ) :   1.0292
B( 45-C , 50-C ) :   1.4168 B( 46-C , 47-C ) :   0.8654 B( 46-C , 54-C ) :   1.6056
B( 47-C , 48-O ) :   2.3278 B( 47-C , 49-C ) :   0.8856 B( 49-C , 50-C ) :   1.0415
B( 49-C , 53-C ) :   1.6158 B( 50-C , 51-N ) :   1.3142 B( 51-N , 52-C ) :   1.6556
B( 52-C , 53-C ) :   1.0748 B( 52-C , 74-H ) :   0.9891 B( 53-C , 75-H ) :   1.0097
B( 54-C , 76-H ) :   1.0136

-----------------------------------------------------------------------------
         ABSORPTION SPECTRUM VIA TRANSITION ELECTRIC DIPOLE MOMENTS
-----------------------------------------------------------------------------
State   Energy  Wavelength   fosc         T2         TX        TY        TZ
        (cm-1)    (nm)                  (au**2)     (au)      (au)      (au)
-----------------------------------------------------------------------------
   0   12800.2    781.2   0.015757608   0.40527   0.47505   0.01835  -0.42340
   1   14458.9    691.6   0.820973603  18.69257   2.99389   2.67624  -1.60216
   2   18978.6    526.9   0.075150198   1.30359   0.20259   0.32958   1.07421
   3   19987.4    500.3   0.093989083   1.54809   0.02995   1.19495   0.34539
   4   21681.1    461.2   0.000321054   0.00487  -0.04431   0.05032   0.01948
   5   22895.3    436.8   0.000984583   0.01416   0.09571  -0.04593   0.05375
   6   23125.6    432.4   0.099002377   1.40938   0.44999   0.28056   1.06216
   7   24109.6    414.8   0.357957279   4.88784   1.13142   1.17982  -1.48854
   8   25551.2    391.4   0.357617678   4.60769  -1.09229  -1.14512   1.45027
   9   25960.7    385.2   0.077537413   0.98326   0.33487   0.38319  -0.85105
  10   26106.5    383.0   0.000188710   0.00238  -0.03274   0.02338   0.02759
  11   26662.4    375.1   0.002085707   0.02575   0.06699   0.14302  -0.02847
  12   26677.8    374.8   0.000463213   0.00572  -0.05551  -0.04791   0.01845
  13   26933.3    371.3   0.171681935   2.09851   0.59166   0.67566  -1.13663
  14   27316.2    366.1   0.007818553   0.09423   0.11030  -0.22240  -0.18056
  15   28048.1    356.5   0.011595382   0.13610  -0.10521  -0.29052  -0.20156
  16   28140.9    355.4   0.001692852   0.01980   0.13474  -0.03762  -0.01527
  17   28190.2    354.7   0.042891545   0.50090  -0.15074  -0.61505  -0.31605
  18   28453.5    351.5   0.003355435   0.03882   0.13014  -0.13507   0.06037
  19   28907.7    345.9   0.010384156   0.11826   0.19265  -0.15386  -0.23974
  20   29216.4    342.3   0.350546223   3.94997   1.23172   1.22983  -0.95935
  21   29572.3    338.2   0.064364604   0.71654   0.08461   0.75738   0.36845
  22   30095.1    332.3   0.019449448   0.21276  -0.15836  -0.43320   0.00445
  23   30464.3    328.3   0.402565430   4.35032   0.49611   1.90495   0.68948
  24   31290.5    319.6   0.008070936   0.08492   0.01777  -0.20189  -0.20938
  25   31316.6    319.3   0.000012178   0.00013  -0.00442  -0.01040  -0.00064
  26   31394.2    318.5   0.004578922   0.04802  -0.10176  -0.18956   0.04158
  27   31938.4    313.1   0.039605422   0.40824   0.14732  -0.49573  -0.37522
  28   32513.7    307.6   0.247685249   2.50790  -0.42188  -1.34890  -0.71441
  29   32775.5    305.1   0.045018942   0.45219  -0.29001   0.39015   0.46461
  30   32997.8    303.1   0.193399421   1.92951   0.00979   1.13403   0.80211
  31   33680.0    296.9   0.039305028   0.38420   0.34740   0.38649  -0.33783
  32   34060.6    293.6   0.014797531   0.14303   0.24627   0.28519  -0.03224
  33   34073.3    293.5   0.016213041   0.15665   0.27544   0.17864  -0.22106
  34   34461.5    290.2   0.104117099   0.99463  -0.02296  -0.31068   0.94741
  35   34950.9    286.1   0.034581563   0.32573   0.11864   0.28563   0.47966
  36   35725.1    279.9   0.137750986   1.26939  -0.22599   0.11114   1.09817
  37   36289.6    275.6   0.014788964   0.13416  -0.05281  -0.33532   0.13760
  38   36945.9    270.7   0.017174039   0.15303   0.00457  -0.03966   0.38915
  39   37241.0    268.5   0.075746024   0.66960  -0.23582  -0.73526  -0.27089
  40   37474.8    266.8   0.000383495   0.00337   0.03032   0.00078  -0.04949
  41   37623.8    265.8   0.004901992   0.04289  -0.08109   0.19052   0.00439
  42   38139.1    262.2   0.019963592   0.17232   0.28057   0.20289  -0.22900
  43   38606.9    259.0   0.001083622   0.00924  -0.03681  -0.08535   0.02450
  44   38690.1    258.5   0.136108657   1.15814   0.56280   0.53517  -0.74498
  45   38875.3    257.2   0.000003609   0.00003   0.00218   0.00024  -0.00507
  46   39090.2    255.8   0.017256343   0.14533   0.23155   0.23194  -0.19473
  47   39784.2    251.4   0.007091890   0.05868   0.15765   0.17738  -0.04868
  48   39911.0    250.6   0.014224267   0.11733  -0.22080  -0.26017   0.02979
  49   40242.9    248.5   0.015833410   0.12953  -0.34026  -0.08033   0.08542

FINAL SINGLE POINT ENERGY     -2874.818988633310

DIPOLE MOMENT
-------------
                                X             Y             Z
Electronic contribution:     11.85956       0.14710     -10.37922
Nuclear contribution   :    -12.72963      -1.63707      10.92534
                        -----------------------------------------
Total Dipole Moment    :     -0.87007      -1.48997       0.54612
                        -----------------------------------------
Magnitude (a.u.)       :      1.80978
Magnitude (Debye)      :      4.60008

Rotational constants in cm-1:     0.003621     0.000437     0.000404
Rotational constants in MHz :   108.552754    13.100025    12.100556

                             ****ORCA TERMINATED NORMALLY****
TOTAL RUN TIME: 0 days 0 hours 6 minutes 20 seconds 89 msec
