                         Program Version 4.2.0 -  RELEASE  -
|  1> # ORCA input file
|  2> # SCF done       -151.542815279943          0.000330120578
|  3> ! CAM-B3LYP def2-SVP def2/J RIJCOSX Grid4 TightSCF
|  4> %maxcore 5000
|  5> %tddft
|  6>     Mode sTDDFT
|  7>     Ethresh 5.0
|  8>     maxcore 5000
|  9> end
| 10>
| 11> %pal
| 12>   nprocs 6
| 13>   end
| 14> * xyz 0 1
| 15>    C        0.46450         2.06953        -4.82000
| 16>    S        1.00125         3.04862        -6.12056
| 17>    C        2.53146         2.23407        -6.14736
| 18>    C        3.51769         2.64241        -7.11595
| 19>    O        4.62231         2.16817        -7.25513
| 20>    C        2.60056         1.23622        -5.16970
| 21>    C        1.39392         1.16590        -4.42159
| 22>    C        3.75995         0.42204        -4.97971
| 23>    C        3.86642        -0.57894        -4.07189
| 24>    C        5.03046        -1.36967        -3.88878
| 25>    C        5.16138        -2.41259        -2.99582
| 26>    C        6.46135        -2.97376        -3.11347
| 27>    C        7.16073        -2.17260        -4.13802
| 28>    C        6.30110        -1.22491        -4.59192
| 29>    C        8.50462        -2.27792        -4.51983
| 30>    N        9.61022        -2.28915        -4.83034
| 31>    C        6.97937        -4.05358        -2.43061
| 32>    C        8.23072        -4.68797        -2.63929
| 33>    C        8.39297        -5.70210        -1.71072
| 34>    C        7.19850        -5.73423        -0.88274
| 35>    C        6.33967        -4.77225        -1.31728
| 36>    C        5.08082        -4.52293        -0.76232
| 37>    N        4.05192        -4.34922        -0.28059
| 38>    C        9.54415        -6.53111        -1.66139
| 39>    N        9.99129        -7.28451        -0.60166
| 40>    C        9.40901        -7.41705         0.71256
| 41>    C        8.47277        -8.62093         0.79320
| 42>    C       11.19746        -7.94335        -0.89648
| 43>    O       11.78422        -8.64986        -0.09816
| 44>    C       11.49335        -7.56651        -2.25816
| 45>    C       10.46827        -6.69813        -2.69728
| 46>    C       10.73305        -6.35690        -4.08014
| 47>    O       10.13178        -5.69119        -4.89289
| 48>    N       11.94569        -7.01879        -4.37016
| 49>    C       12.53719        -6.93202        -5.68287
| 50>    C       12.24240        -8.17240        -6.52295
| 51>    C       12.40681        -7.74623        -3.30240
| 52>    C       13.60445        -8.49913        -3.31805
| 53>    C       14.01940        -9.22306        -2.24410
| 54>    C       15.21061        -9.98766        -2.19344
| 55>    S       15.57706       -10.88187        -0.73886
| 56>    C       17.05312       -11.48938        -1.41001
| 57>    C       17.23429       -11.00300        -2.70940
| 58>    C       16.19919       -10.16433        -3.14233
| 59>    C       18.35379       -11.33537        -3.49123
| 60>    N       19.26796       -11.60805        -4.12829
| 61>    C       17.93443       -12.35766        -0.71841
| 62>    C       17.71407       -12.81779         0.53542
| 63>    C       18.58046       -13.69147         1.24970
| 64>    S       18.13715       -14.21181         2.84563
| 65>    C       19.58160       -15.15857         2.98967
| 66>    C       19.79298       -15.89769         4.20944
| 67>    O       20.74337       -16.59894         4.46980
| 68>    C       20.37477       -15.06715         1.84240
| 69>    C       19.79054       -14.23530         0.87184
| 70>    C       21.63856       -15.76329         1.70681
| 71>    C       22.45991       -15.65321         0.66698
| 72>    H       -0.51894         2.22140        -4.41970
| 73>    H        3.16828         3.47114        -7.76199
| 74>    H        1.22744         0.47367        -3.61695
| 75>    H        4.59214         0.64903        -5.62888
| 76>    H        3.03343        -0.82475        -3.42640
| 77>    H        4.39764        -2.77121        -2.33343
| 78>    H        6.51883        -0.48062        -5.33448
| 79>    H        8.93130        -4.42256        -3.40545
| 80>    H        6.98937        -6.42733        -0.09117
| 81>    H        8.89932        -6.48810         0.97534
| 82>    H       10.24188        -7.56952         1.40605
| 83>    H        7.69165        -8.56563         0.03773
| 84>    H        8.01142        -8.66677         1.77598
| 85>    H        9.03961        -9.53445         0.63191
| 86>    H       13.61461        -6.76937        -5.58940
| 87>    H       12.08862        -6.05435        -6.15672
| 88>    H       12.63646        -9.06979        -6.05028
| 89>    H       12.69325        -8.06644        -7.50568
| 90>    H       11.16849        -8.28927        -6.64482
| 91>    H       14.19677        -8.48067        -4.22084
| 92>    H       13.40927        -9.23152        -1.35014
| 93>    H       16.18665        -9.70725        -4.11532
| 94>    H       18.82272       -12.64800        -1.26312
| 95>    H       16.81342       -12.51289         1.05320
| 96>    H       18.96602       -15.76636         4.93557
| 97>    H       20.23856       -14.03768        -0.08409
| 98>    H       21.89731       -16.40337         2.53742
| 99>    H       22.25330       -15.02167        -0.18065
|100>    H       23.38583       -16.20034         0.63400
|101> *
|102>
|103>                          ****END OF INPUT****

CARTESIAN COORDINATES (ANGSTROEM)
---------------------------------
  C      0.464500    2.069530   -4.820000
  S      1.001250    3.048620   -6.120560
  C      2.531460    2.234070   -6.147360
  C      3.517690    2.642410   -7.115950
  O      4.622310    2.168170   -7.255130
  C      2.600560    1.236220   -5.169700
  C      1.393920    1.165900   -4.421590
  C      3.759950    0.422040   -4.979710
  C      3.866420   -0.578940   -4.071890
  C      5.030460   -1.369670   -3.888780
  C      5.161380   -2.412590   -2.995820
  C      6.461350   -2.973760   -3.113470
  C      7.160730   -2.172600   -4.138020
  C      6.301100   -1.224910   -4.591920
  C      8.504620   -2.277920   -4.519830
  N      9.610220   -2.289150   -4.830340
  C      6.979370   -4.053580   -2.430610
  C      8.230720   -4.687970   -2.639290
  C      8.392970   -5.702100   -1.710720
  C      7.198500   -5.734230   -0.882740
  C      6.339670   -4.772250   -1.317280
  C      5.080820   -4.522930   -0.762320
  N      4.051920   -4.349220   -0.280590
  C      9.544150   -6.531110   -1.661390
  N      9.991290   -7.284510   -0.601660
  C      9.409010   -7.417050    0.712560
  C      8.472770   -8.620930    0.793200
  C     11.197460   -7.943350   -0.896480
  O     11.784220   -8.649860   -0.098160
  C     11.493350   -7.566510   -2.258160
  C     10.468270   -6.698130   -2.697280
  C     10.733050   -6.356900   -4.080140
  O     10.131780   -5.691190   -4.892890
  N     11.945690   -7.018790   -4.370160
  C     12.537190   -6.932020   -5.682870
  C     12.242400   -8.172400   -6.522950
  C     12.406810   -7.746230   -3.302400
  C     13.604450   -8.499130   -3.318050
  C     14.019400   -9.223060   -2.244100
  C     15.210610   -9.987660   -2.193440
  S     15.577060  -10.881870   -0.738860
  C     17.053120  -11.489380   -1.410010
  C     17.234290  -11.003000   -2.709400
  C     16.199190  -10.164330   -3.142330
  C     18.353790  -11.335370   -3.491230
  N     19.267960  -11.608050   -4.128290
  C     17.934430  -12.357660   -0.718410
  C     17.714070  -12.817790    0.535420
  C     18.580460  -13.691470    1.249700
  S     18.137150  -14.211810    2.845630
  C     19.581600  -15.158570    2.989670
  C     19.792980  -15.897690    4.209440
  O     20.743370  -16.598940    4.469800
  C     20.374770  -15.067150    1.842400
  C     19.790540  -14.235300    0.871840
  C     21.638560  -15.763290    1.706810
  C     22.459910  -15.653210    0.666980
  H     -0.518940    2.221400   -4.419700
  H      3.168280    3.471140   -7.761990
  H      1.227440    0.473670   -3.616950
  H      4.592140    0.649030   -5.628880
  H      3.033430   -0.824750   -3.426400
  H      4.397640   -2.771210   -2.333430
  H      6.518830   -0.480620   -5.334480
  H      8.931300   -4.422560   -3.405450
  H      6.989370   -6.427330   -0.091170
  H      8.899320   -6.488100    0.975340
  H     10.241880   -7.569520    1.406050
  H      7.691650   -8.565630    0.037730
  H      8.011420   -8.666770    1.775980
  H      9.039610   -9.534450    0.631910
  H     13.614610   -6.769370   -5.589400
  H     12.088620   -6.054350   -6.156720
  H     12.636460   -9.069790   -6.050280
  H     12.693250   -8.066440   -7.505680
  H     11.168490   -8.289270   -6.644820
  H     14.196770   -8.480670   -4.220840
  H     13.409270   -9.231520   -1.350140
  H     16.186650   -9.707250   -4.115320
  H     18.822720  -12.648000   -1.263120
  H     16.813420  -12.512890    1.053200
  H     18.966020  -15.766360    4.935570
  H     20.238560  -14.037680   -0.084090
  H     21.897310  -16.403370    2.537420
  H     22.253300  -15.021670   -0.180650
  H     23.385830  -16.200340    0.634000

 Total Charge           Charge          ....    0
 Multiplicity           Mult            ....    1
 Number of Electrons    NEL             ....  414
 Basis Dimension        Dim             ....  955

ORBITAL ENERGIES
----------------

  NO   OCC          E(Eh)            E(eV)
   0   2.0000     -88.982321     -2421.3321
   1   2.0000     -88.977498     -2421.2008
   2   2.0000     -88.971917     -2421.0490
   3   2.0000     -19.217989      -522.9481
   4   2.0000     -19.209479      -522.7165
   5   2.0000     -19.194556      -522.3104
   6   2.0000     -19.194229      -522.3015
   7   2.0000     -14.458955      -393.4482
   8   2.0000     -14.456904      -393.3923
   9   2.0000     -14.414204      -392.2304
  10   2.0000     -14.407265      -392.0416
  11   2.0000     -14.399940      -391.8423
  12   2.0000     -10.376937      -282.3708
  13   2.0000     -10.376641      -282.3628
  14   2.0000     -10.368028      -282.1284
  15   2.0000     -10.360195      -281.9152
  16   2.0000     -10.346834      -281.5517
  17   2.0000     -10.342866      -281.4437
  18   2.0000     -10.338017      -281.3117
  19   2.0000     -10.326693      -281.0036
  20   2.0000     -10.325036      -280.9585
  21   2.0000     -10.324099      -280.9330
  22   2.0000     -10.322337      -280.8851
  23   2.0000     -10.319434      -280.8061
  24   2.0000     -10.315374      -280.6956
  25   2.0000     -10.314530      -280.6726
  26   2.0000     -10.313368      -280.6410
  27   2.0000     -10.312737      -280.6239
  28   2.0000     -10.312627      -280.6208
  29   2.0000     -10.310502      -280.5630
  30   2.0000     -10.310274      -280.5568
  31   2.0000     -10.309750      -280.5426
  32   2.0000     -10.309598      -280.5384
  33   2.0000     -10.308911      -280.5197
  34   2.0000     -10.307589      -280.4838
  35   2.0000     -10.307339      -280.4770
  36   2.0000     -10.306470      -280.4533
  37   2.0000     -10.306378      -280.4508
  38   2.0000     -10.304716      -280.4056
  39   2.0000     -10.303664      -280.3770
  40   2.0000     -10.303338      -280.3681
  41   2.0000     -10.301831      -280.3271
  42   2.0000     -10.300848      -280.3003
  43   2.0000     -10.299832      -280.2727
  44   2.0000     -10.299762      -280.2708
  45   2.0000     -10.294314      -280.1225
  46   2.0000     -10.293773      -280.1078
  47   2.0000     -10.292432      -280.0713
  48   2.0000     -10.288143      -279.9546
  49   2.0000     -10.281186      -279.7653
  50   2.0000     -10.279617      -279.7226
  51   2.0000     -10.271776      -279.5092
  52   2.0000     -10.269585      -279.4496
  53   2.0000     -10.267729      -279.3991
  54   2.0000     -10.267099      -279.3820
  55   2.0000     -10.266390      -279.3627
  56   2.0000     -10.264297      -279.3057
  57   2.0000      -8.077850      -219.8095
  58   2.0000      -8.073622      -219.6944
  59   2.0000      -8.067787      -219.5356
  60   2.0000      -6.046966      -164.5463
  61   2.0000      -6.042918      -164.4362
  62   2.0000      -6.042681      -164.4297
  63   2.0000      -6.040146      -164.3607
  64   2.0000      -6.038482      -164.3155
  65   2.0000      -6.036793      -164.2695
  66   2.0000      -6.036178      -164.2528
  67   2.0000      -6.032878      -164.1630
  68   2.0000      -6.030226      -164.0908
  69   2.0000      -1.137809       -30.9614
  70   2.0000      -1.131190       -30.7812
  71   2.0000      -1.130744       -30.7691
  72   2.0000      -1.122372       -30.5413
  73   2.0000      -1.067875       -29.0584
  74   2.0000      -1.059757       -28.8374
  75   2.0000      -1.020471       -27.7684
  76   2.0000      -1.012262       -27.5451
  77   2.0000      -1.002146       -27.2698
  78   2.0000      -0.999920       -27.2092
  79   2.0000      -0.996169       -27.1071
  80   2.0000      -0.992747       -27.0140
  81   2.0000      -0.981077       -26.6965
  82   2.0000      -0.975511       -26.5450
  83   2.0000      -0.935729       -25.4625
  84   2.0000      -0.930359       -25.3164
  85   2.0000      -0.914155       -24.8754
  86   2.0000      -0.912527       -24.8311
  87   2.0000      -0.888533       -24.1782
  88   2.0000      -0.884325       -24.0637
  89   2.0000      -0.875547       -23.8248
  90   2.0000      -0.872236       -23.7347
  91   2.0000      -0.862052       -23.4576
  92   2.0000      -0.861574       -23.4446
  93   2.0000      -0.856111       -23.2960
  94   2.0000      -0.848107       -23.0782
  95   2.0000      -0.830096       -22.5881
  96   2.0000      -0.824893       -22.4465
  97   2.0000      -0.824232       -22.4285
  98   2.0000      -0.815900       -22.2018
  99   2.0000      -0.800444       -21.7812
 100   2.0000      -0.787922       -21.4404
 101   2.0000      -0.764964       -20.8157
 102   2.0000      -0.764039       -20.7906
 103   2.0000      -0.746935       -20.3251
 104   2.0000      -0.744791       -20.2668
 105   2.0000      -0.729356       -19.8468
 106   2.0000      -0.726915       -19.7804
 107   2.0000      -0.720061       -19.5938
 108   2.0000      -0.715407       -19.4672
 109   2.0000      -0.709794       -19.3145
 110   2.0000      -0.693904       -18.8821
 111   2.0000      -0.685614       -18.6565
 112   2.0000      -0.683108       -18.5883
 113   2.0000      -0.674326       -18.3494
 114   2.0000      -0.665641       -18.1130
 115   2.0000      -0.656682       -17.8692
 116   2.0000      -0.655534       -17.8380
 117   2.0000      -0.648915       -17.6579
 118   2.0000      -0.639887       -17.4122
 119   2.0000      -0.638429       -17.3725
 120   2.0000      -0.629049       -17.1173
 121   2.0000      -0.618974       -16.8431
 122   2.0000      -0.616167       -16.7668
 123   2.0000      -0.604949       -16.4615
 124   2.0000      -0.602469       -16.3940
 125   2.0000      -0.594154       -16.1677
 126   2.0000      -0.590862       -16.0782
 127   2.0000      -0.589020       -16.0281
 128   2.0000      -0.582405       -15.8480
 129   2.0000      -0.567268       -15.4361
 130   2.0000      -0.563547       -15.3349
 131   2.0000      -0.555725       -15.1220
 132   2.0000      -0.552671       -15.0389
 133   2.0000      -0.549097       -14.9417
 134   2.0000      -0.546626       -14.8745
 135   2.0000      -0.544178       -14.8078
 136   2.0000      -0.542148       -14.7526
 137   2.0000      -0.537929       -14.6378
 138   2.0000      -0.536041       -14.5864
 139   2.0000      -0.525898       -14.3104
 140   2.0000      -0.524521       -14.2730
 141   2.0000      -0.522649       -14.2220
 142   2.0000      -0.521725       -14.1969
 143   2.0000      -0.521003       -14.1772
 144   2.0000      -0.519690       -14.1415
 145   2.0000      -0.517663       -14.0863
 146   2.0000      -0.516704       -14.0602
 147   2.0000      -0.513743       -13.9797
 148   2.0000      -0.512233       -13.9386
 149   2.0000      -0.509077       -13.8527
 150   2.0000      -0.508218       -13.8293
 151   2.0000      -0.502173       -13.6648
 152   2.0000      -0.501147       -13.6369
 153   2.0000      -0.498111       -13.5543
 154   2.0000      -0.497610       -13.5407
 155   2.0000      -0.492514       -13.4020
 156   2.0000      -0.485945       -13.2232
 157   2.0000      -0.479597       -13.0505
 158   2.0000      -0.478818       -13.0293
 159   2.0000      -0.477104       -12.9827
 160   2.0000      -0.473296       -12.8790
 161   2.0000      -0.471196       -12.8219
 162   2.0000      -0.468287       -12.7427
 163   2.0000      -0.466361       -12.6903
 164   2.0000      -0.464367       -12.6361
 165   2.0000      -0.463280       -12.6065
 166   2.0000      -0.460009       -12.5175
 167   2.0000      -0.459816       -12.5122
 168   2.0000      -0.458270       -12.4702
 169   2.0000      -0.453822       -12.3491
 170   2.0000      -0.451610       -12.2889
 171   2.0000      -0.446363       -12.1462
 172   2.0000      -0.446046       -12.1375
 173   2.0000      -0.441759       -12.0209
 174   2.0000      -0.439612       -11.9624
 175   2.0000      -0.438902       -11.9431
 176   2.0000      -0.437659       -11.9093
 177   2.0000      -0.436107       -11.8671
 178   2.0000      -0.435845       -11.8599
 179   2.0000      -0.433727       -11.8023
 180   2.0000      -0.432532       -11.7698
 181   2.0000      -0.428842       -11.6694
 182   2.0000      -0.427996       -11.6464
 183   2.0000      -0.426263       -11.5992
 184   2.0000      -0.417610       -11.3638
 185   2.0000      -0.417277       -11.3547
 186   2.0000      -0.412811       -11.2332
 187   2.0000      -0.410233       -11.1630
 188   2.0000      -0.393774       -10.7151
 189   2.0000      -0.392100       -10.6696
 190   2.0000      -0.389261       -10.5923
 191   2.0000      -0.366537        -9.9740
 192   2.0000      -0.351673        -9.5695
 193   2.0000      -0.346099        -9.4178
 194   2.0000      -0.344144        -9.3646
 195   2.0000      -0.339100        -9.2274
 196   2.0000      -0.336129        -9.1465
 197   2.0000      -0.332405        -9.0452
 198   2.0000      -0.330402        -8.9907
 199   2.0000      -0.328331        -8.9344
 200   2.0000      -0.320448        -8.7198
 201   2.0000      -0.319506        -8.6942
 202   2.0000      -0.309256        -8.4153
 203   2.0000      -0.303908        -8.2698
 204   2.0000      -0.278587        -7.5807
 205   2.0000      -0.272567        -7.4169
 206   2.0000      -0.235125        -6.3981
 207   0.0000      -0.126764        -3.4494
 208   0.0000      -0.089747        -2.4421
 209   0.0000      -0.058556        -1.5934
 210   0.0000      -0.051826        -1.4102
 211   0.0000      -0.026883        -0.7315

MULLIKEN ATOMIC CHARGES
-----------------------
   0 C :   -0.045168
   1 S :    0.147648
   2 C :   -0.215554
   3 C :    0.190174
   4 O :   -0.188083
   5 C :    0.120928
   6 C :    0.008879
   7 C :   -0.013957
   8 C :    0.013290
   9 C :    0.117310
  10 C :   -0.115864
  11 C :    0.121224
  12 C :   -0.090176
  13 C :   -0.011838
  14 C :   -0.174609
  15 N :    0.145024
  16 C :    0.117646
  17 C :   -0.110095
  18 C :    0.043469
  19 C :   -0.035588
  20 C :   -0.100046
  21 C :   -0.182620
  22 N :    0.134833
  23 C :    0.149572
  24 N :   -0.257711
  25 C :    0.104367
  26 C :    0.001524
  27 C :    0.160611
  28 O :   -0.221917
  29 C :   -0.071179
  30 C :   -0.051228
  31 C :    0.146612
  32 O :   -0.180931
  33 N :   -0.261764
  34 C :    0.096659
  35 C :    0.004514
  36 C :    0.146134
  37 C :   -0.030042
  38 C :    0.082529
  39 C :   -0.075955
  40 S :    0.166738
  41 C :   -0.043746
  42 C :   -0.064171
  43 C :    0.022987
  44 C :   -0.188375
  45 N :    0.131468
  46 C :   -0.004036
  47 C :    0.062051
  48 C :   -0.074128
  49 S :    0.151561
  50 C :   -0.198963
  51 C :    0.187332
  52 O :   -0.187051
  53 C :    0.119148
  54 C :   -0.032286
  55 C :   -0.021083
  56 C :   -0.002676
  57 H :    0.039736
  58 H :   -0.014664
  59 H :    0.002245
  60 H :    0.008320
  61 H :   -0.015147
  62 H :   -0.001574
  63 H :    0.014718
  64 H :    0.025193
  65 H :   -0.014083
  66 H :    0.026063
  67 H :    0.038806
  68 H :    0.021020
  69 H :    0.024626
  70 H :    0.032958
  71 H :    0.024013
  72 H :    0.053331
  73 H :    0.011835
  74 H :    0.025218
  75 H :    0.032077
  76 H :   -0.027197
  77 H :    0.009499
  78 H :   -0.002156
  79 H :    0.016866
  80 H :   -0.003206
  81 H :   -0.019504
  82 H :   -0.012875
  83 H :    0.014744
  84 H :    0.014764
  85 H :    0.030987
Sum of atomic charges:   -0.0000000

LOEWDIN ATOMIC CHARGES
----------------------
   0 C :   -0.154586
   1 S :    0.465713
   2 C :   -0.236439
   3 C :    0.086308
   4 O :   -0.145100
   5 C :   -0.023620
   6 C :   -0.049337
   7 C :    0.003421
   8 C :   -0.007966
   9 C :   -0.003169
  10 C :   -0.035212
  11 C :    0.051172
  12 C :   -0.072775
  13 C :    0.056277
  14 C :   -0.033752
  15 N :   -0.049502
  16 C :    0.021224
  17 C :    0.013673
  18 C :   -0.040816
  19 C :    0.038463
  20 C :   -0.082222
  21 C :   -0.030624
  22 N :   -0.069191
  23 C :    0.068800
  24 N :    0.002859
  25 C :    0.036901
  26 C :   -0.062660
  27 C :    0.078196
  28 O :   -0.209954
  29 C :   -0.126487
  30 C :   -0.106318
  31 C :    0.083268
  32 O :   -0.174245
  33 N :   -0.000156
  34 C :    0.036546
  35 C :   -0.060902
  36 C :    0.084022
  37 C :   -0.045622
  38 C :    0.014032
  39 C :   -0.166869
  40 S :    0.478595
  41 C :   -0.135548
  42 C :   -0.103866
  43 C :   -0.015125
  44 C :   -0.033800
  45 N :   -0.053067
  46 C :   -0.030212
  47 C :   -0.026828
  48 C :   -0.155574
  49 S :    0.458992
  50 C :   -0.235948
  51 C :    0.081608
  52 O :   -0.142589
  53 C :   -0.014146
  54 C :   -0.038555
  55 C :   -0.023149
  56 C :   -0.022251
  57 H :    0.030640
  58 H :   -0.003407
  59 H :    0.034339
  60 H :    0.032895
  61 H :    0.032332
  62 H :    0.033934
  63 H :    0.041396
  64 H :    0.038441
  65 H :    0.034416
  66 H :    0.024740
  67 H :    0.037113
  68 H :    0.021012
  69 H :    0.031374
  70 H :    0.034412
  71 H :    0.023066
  72 H :    0.041866
  73 H :    0.020406
  74 H :    0.031592
  75 H :    0.033334
  76 H :    0.028477
  77 H :    0.037176
  78 H :    0.038750
  79 H :    0.042629
  80 H :    0.026405
  81 H :   -0.006072
  82 H :    0.031322
  83 H :    0.035591
  84 H :    0.019884
  85 H :    0.030055

  Mayer bond orders larger than 0.100000
B(  0-C ,  1-S ) :   1.1916 B(  0-C ,  6-C ) :   1.5702 B(  0-C , 57-H ) :   0.9674
B(  1-S ,  2-C ) :   1.1236 B(  2-C ,  3-C ) :   1.0366 B(  2-C ,  5-C ) :   1.4202
B(  3-C ,  4-O ) :   2.1096 B(  3-C , 58-H ) :   0.9565 B(  5-C ,  6-C ) :   1.2518
B(  5-C ,  7-C ) :   1.1222 B(  6-C , 59-H ) :   0.9940 B(  7-C ,  8-C ) :   1.6151
B(  7-C , 60-H ) :   0.9651 B(  8-C ,  9-C ) :   1.1262 B(  8-C , 61-H ) :   0.9773
B(  9-C , 10-C ) :   1.5067 B(  9-C , 13-C ) :   1.0331 B( 10-C , 11-C ) :   1.1277
B( 10-C , 62-H ) :   1.0099 B( 11-C , 12-C ) :   1.0984 B( 11-C , 16-C ) :   1.3846
B( 12-C , 13-C ) :   1.6883 B( 12-C , 14-C ) :   1.0877 B( 13-C , 63-H ) :   1.0189
B( 14-C , 15-N ) :   2.9840 B( 16-C , 17-C ) :   1.1250 B( 16-C , 20-C ) :   1.1087
B( 17-C , 18-C ) :   1.5356 B( 17-C , 64-H ) :   0.9923 B( 18-C , 19-C ) :   1.0381
B( 18-C , 23-C ) :   1.0418 B( 19-C , 20-C ) :   1.6528 B( 19-C , 65-H ) :   1.0242
B( 20-C , 21-C ) :   1.0846 B( 21-C , 22-N ) :   2.9680 B( 23-C , 24-N ) :   1.1905
B( 23-C , 30-C ) :   1.3717 B( 24-N , 25-C ) :   0.9431 B( 24-N , 27-C ) :   1.0594
B( 25-C , 26-C ) :   1.1190 B( 25-C , 66-H ) :   0.9500 B( 25-C , 67-H ) :   0.9277
B( 26-C , 68-H ) :   0.9649 B( 26-C , 69-H ) :   0.9685 B( 26-C , 70-H ) :   0.9602
B( 27-C , 28-O ) :   1.9997 B( 27-C , 29-C ) :   0.9994 B( 28-O , 77-H ) :   0.1220
B( 29-C , 30-C ) :   1.2515 B( 29-C , 36-C ) :   1.3015 B( 30-C , 31-C ) :   0.9688
B( 31-C , 32-O ) :   2.0998 B( 31-C , 33-N ) :   1.0333 B( 33-N , 34-C ) :   0.9439
B( 33-N , 36-C ) :   1.1742 B( 34-C , 35-C ) :   1.1208 B( 34-C , 71-H ) :   0.9495
B( 34-C , 72-H ) :   0.9273 B( 35-C , 73-H ) :   0.9685 B( 35-C , 74-H ) :   0.9680
B( 35-C , 75-H ) :   0.9636 B( 36-C , 37-C ) :   1.1774 B( 37-C , 38-C ) :   1.6136
B( 37-C , 76-H ) :   0.9613 B( 38-C , 39-C ) :   1.1299 B( 38-C , 77-H ) :   0.9309
B( 39-C , 40-S ) :   1.1207 B( 39-C , 43-C ) :   1.4650 B( 40-S , 41-C ) :   1.1370
B( 41-C , 42-C ) :   1.4273 B( 41-C , 46-C ) :   1.1914 B( 42-C , 43-C ) :   1.2998
B( 42-C , 44-C ) :   1.1003 B( 43-C , 78-H ) :   0.9982 B( 44-C , 45-N ) :   3.0179
B( 46-C , 47-C ) :   1.6681 B( 46-C , 79-H ) :   0.9601 B( 47-C , 48-C ) :   1.1111
B( 47-C , 80-H ) :   0.9653 B( 48-C , 49-S ) :   1.1495 B( 48-C , 54-C ) :   1.4870
B( 49-S , 50-C ) :   1.1024 B( 50-C , 51-C ) :   1.0283 B( 50-C , 53-C ) :   1.4346
B( 51-C , 52-O ) :   2.1197 B( 51-C , 81-H ) :   0.9538 B( 53-C , 54-C ) :   1.2775
B( 53-C , 55-C ) :   1.1011 B( 54-C , 82-H ) :   0.9908 B( 55-C , 56-C ) :   1.9290
B( 55-C , 83-H ) :   0.9533 B( 56-C , 84-H ) :   0.9515 B( 56-C , 85-H ) :   0.9490

-----------------------------------------------------------------------------
         ABSORPTION SPECTRUM VIA TRANSITION ELECTRIC DIPOLE MOMENTS
-----------------------------------------------------------------------------
State   Energy  Wavelength   fosc         T2         TX        TY        TZ
        (cm-1)    (nm)                  (au**2)     (au)      (au)      (au)
-----------------------------------------------------------------------------
   0    8863.1   1128.3   0.572793088  21.27593   3.24708  -3.17962   0.78897
   1   15580.8    641.8   0.206428421   4.36171   0.99528  -1.55914   0.96964
   2   17238.2    580.1   0.500472644   9.55792  -2.64224   1.60406  -0.05894
   3   20402.1    490.1   0.048331288   0.77988  -0.72469   0.50242  -0.04778
   4   21679.4    461.3   0.385649540   5.85626   1.45079  -1.46496   1.26703
   5   24124.0    414.5   0.020960066   0.28604  -0.26693   0.11831   0.44809
   6   24403.2    409.8   0.318149506   4.29200   1.14650  -1.59270   0.66397
   7   25146.9    397.7   0.664985440   8.70569   0.56608  -1.62238   2.39857
   8   26031.3    384.2   0.069812581   0.88290  -0.14783   0.42726  -0.82371
   9   26426.4    378.4   0.329638744   4.10654  -0.85299   1.17231  -1.41585
  10   28239.0    354.1   0.423437596   4.93646   1.27062  -1.59403   0.88376
  11   28378.8    352.4   0.001488471   0.01727  -0.07934   0.09255  -0.04907
  12   29311.4    341.2   0.083285701   0.93543  -0.85670   0.38645   0.22836
  13   30259.5    330.5   0.000385432   0.00419  -0.05824   0.02785   0.00510
  14   30312.8    329.9   0.004651134   0.05051  -0.20304   0.06211   0.07369
  15   30548.5    327.3   0.016954852   0.18272  -0.35711   0.22374  -0.07161
  16   30925.9    323.4   0.019610674   0.20876   0.27559  -0.33320   0.14759
  17   31445.1    318.0   0.022877697   0.23952  -0.10658  -0.14016   0.45663
  18   32060.2    311.9   0.002466397   0.02533  -0.15223  -0.03051  -0.03497
  19   32365.6    309.0   0.003831150   0.03897   0.07284   0.02712  -0.18146
  20   32831.9    304.6   0.166618658   1.67072  -0.43660   1.04572  -0.62175
  21   33080.4    302.3   0.220245654   2.19186   0.21103   0.70689  -1.28360
  22   33463.4    298.8   0.060466706   0.59487  -0.70542   0.30589  -0.06070
  23   33683.7    296.9   0.036087014   0.35270   0.09181  -0.45488   0.37062
  24   34461.5    290.2   0.034041074   0.32520  -0.31332   0.23088  -0.41680
  25   34645.0    288.6   0.111350062   1.05810   0.74384  -0.63852   0.31159
  26   34996.3    285.7   0.060478738   0.56893  -0.61334   0.11606   0.42340
  27   35832.7    279.1   0.000418496   0.00384   0.03659  -0.03434   0.03642
  28   35891.5    278.6   0.000556797   0.00511  -0.04211   0.02382  -0.05260
  29   36131.6    276.8   0.028966363   0.26393  -0.21167   0.39156  -0.25653
  30   36498.6    274.0   0.024586775   0.22177  -0.10695  -0.14807   0.43406
  31   37169.9    269.0   0.010892670   0.09648   0.12299   0.04064  -0.28231
  32   37687.4    265.3   0.004796325   0.04190   0.16736  -0.03220  -0.11336
  33   38448.8    260.1   0.018480177   0.15823   0.31692  -0.23529   0.04936
  34   38521.4    259.6   0.000040747   0.00035   0.01788  -0.00534  -0.00010
  35   38988.5    256.5   0.057176993   0.48279  -0.62796   0.12476   0.26999
  36   39797.3    251.3   0.047407005   0.39216   0.32757   0.08847  -0.52633
  37   40135.4    249.2   0.073566550   0.60343  -0.10689   0.48619  -0.59635
  38   40266.9    248.3   0.118160759   0.96605   0.79901  -0.56424  -0.09621

FINAL SINGLE POINT ENERGY     -3498.068653678963

DIPOLE MOMENT
-------------
                                X             Y             Z
Electronic contribution:     -8.60266      15.89502       2.46550
Nuclear contribution   :      6.05918     -14.83983      -2.58366
                        -----------------------------------------
Total Dipole Moment    :     -2.54348       1.05519      -0.11816
                        -----------------------------------------
Magnitude (a.u.)       :      2.75621
Magnitude (Debye)      :      7.00573

Rotational constants in cm-1:     0.004259     0.000286     0.000271
Rotational constants in MHz :   127.695676     8.576495     8.119593

                             ****ORCA TERMINATED NORMALLY****
TOTAL RUN TIME: 0 days 0 hours 11 minutes 31 seconds 663 msec
