                         Program Version 4.2.0 -  RELEASE  -
|  1> # ORCA input file
|  2> # SCF done       -139.775046788004          0.000443365481
|  3> ! CAM-B3LYP def2-SVP def2/J RIJCOSX Grid4 TightSCF
|  4> %maxcore 5000
|  5> %tddft
|  6>     Mode sTDDFT
|  7>     Ethresh 5.0
|  8>     maxcore 5000
|  9> end
| 10>
| 11> %pal
| 12>   nprocs 6
| 13>   end
| 14> * xyz 0 1
| 15>    C        3.04740         2.34856        -1.11808
| 16>    C        1.98928         3.18937        -1.17629
| 17>    S        2.31069         4.57373        -2.15326
| 18>    C        3.88536         4.01864        -2.49028
| 19>    C        4.15350         2.82168        -1.87858
| 20>    C        5.44270         2.14345        -2.02124
| 21>    O        6.37635         2.54434        -2.66880
| 22>    O        5.46388         0.97794        -1.31941
| 23>    C        6.59595         0.22049        -1.36385
| 24>    C        6.66663        -0.92305        -0.67846
| 25>    C        7.80222        -1.81160        -0.65340
| 26>    C        7.77264        -2.97870         0.12196
| 27>    N        8.76791        -3.83430         0.18090
| 28>    C        9.85508        -3.56448        -0.54886
| 29>    N        9.99383        -2.47546        -1.30912
| 30>    C        9.00309        -1.62280        -1.36114
| 31>    C       10.97048        -4.47956        -0.55928
| 32>    N       11.07488        -5.62577         0.18661
| 33>    C       10.16265        -6.11537         1.19152
| 34>    C       10.32121        -5.35998         2.50765
| 35>    C       12.28122        -6.30493        -0.07220
| 36>    O       12.59440        -7.34085         0.48022
| 37>    C       12.93937        -5.49696        -1.07174
| 38>    C       12.10694        -4.37573        -1.34628
| 39>    C       12.76363        -3.56935        -2.35941
| 40>    O       12.47047        -2.54698        -2.93182
| 41>    N       13.96455        -4.27313        -2.62221
| 42>    C       14.93280        -3.75887        -3.55902
| 43>    C       16.08071        -3.04203        -2.85163
| 44>    C       14.07706        -5.41255        -1.86569
| 45>    C       15.18594        -6.30240        -1.95645
| 46>    C       15.28247        -7.45305        -1.26082
| 47>    C       16.42959        -8.32822        -1.39835
| 48>    N       17.45734        -7.91525        -2.15159
| 49>    C       18.49389        -8.72651        -2.24344
| 50>    C       18.53947        -9.95519        -1.60605
| 51>    C       17.41158       -10.31632        -0.85527
| 52>    N       16.37409        -9.48828        -0.75754
| 53>    C       17.33950       -11.59085        -0.16787
| 54>    C       16.20602       -12.03867         0.39048
| 55>    C       16.07534       -13.29225         1.09423
| 56>    C       17.10971       -13.97458         1.67539
| 57>    S       16.60866       -15.40800         2.47149
| 58>    C       14.98175       -15.12309         2.03592
| 59>    C       14.82769       -13.97336         1.31332
| 60>    C       13.52982       -13.52824         0.78423
| 61>    O       13.35899       -12.64959        -0.02039
| 62>    O       12.52163       -14.26288         1.31567
| 63>    C       11.23711       -13.97379         0.92586
| 64>    C       10.21469       -14.67975         1.37081
| 65>    H        3.06271         1.42760        -0.56586
| 66>    H        1.03148         3.08898        -0.70609
| 67>    H        4.54718         4.58351        -3.11585
| 68>    H        7.39042         0.62042        -1.98050
| 69>    H        5.81071        -1.22602        -0.08948
| 70>    H        6.90476        -3.22763         0.72227
| 71>    H        9.16855        -0.75835        -1.98894
| 72>    H       10.41557        -7.16964         1.33624
| 73>    H        9.14015        -6.02039         0.82445
| 74>    H       11.34674        -5.43437         2.86199
| 75>    H        9.66024        -5.78568         3.25729
| 76>    H       10.06686        -4.31194         2.37179
| 77>    H       14.39166        -3.04845        -4.19080
| 78>    H       15.30931        -4.57361        -4.18339
| 79>    H       15.69212        -2.21361        -2.26431
| 80>    H       16.77928        -2.65045        -3.58611
| 81>    H       16.61248        -3.71986        -2.18767
| 82>    H       15.99327        -6.04640        -2.62797
| 83>    H       14.51101        -7.78216        -0.57964
| 84>    H       19.31705        -8.37248        -2.85297
| 85>    H       19.39407       -10.60715        -1.68975
| 86>    H       18.24842       -12.17735        -0.15761
| 87>    H       15.31267       -11.43891         0.29069
| 88>    H       18.14401       -13.69654         1.70526
| 89>    H       14.21864       -15.81838         2.32298
| 90>    H       11.14927       -13.13793         0.24298
| 91>    H       10.35204       -15.50340         2.04858
| 92>    H        9.21396       -14.44417         1.06362
| 93> *
| 94>
| 95>                          ****END OF INPUT****

CARTESIAN COORDINATES (ANGSTROEM)
---------------------------------
  C      3.047400    2.348560   -1.118080
  C      1.989280    3.189370   -1.176290
  S      2.310690    4.573730   -2.153260
  C      3.885360    4.018640   -2.490280
  C      4.153500    2.821680   -1.878580
  C      5.442700    2.143450   -2.021240
  O      6.376350    2.544340   -2.668800
  O      5.463880    0.977940   -1.319410
  C      6.595950    0.220490   -1.363850
  C      6.666630   -0.923050   -0.678460
  C      7.802220   -1.811600   -0.653400
  C      7.772640   -2.978700    0.121960
  N      8.767910   -3.834300    0.180900
  C      9.855080   -3.564480   -0.548860
  N      9.993830   -2.475460   -1.309120
  C      9.003090   -1.622800   -1.361140
  C     10.970480   -4.479560   -0.559280
  N     11.074880   -5.625770    0.186610
  C     10.162650   -6.115370    1.191520
  C     10.321210   -5.359980    2.507650
  C     12.281220   -6.304930   -0.072200
  O     12.594400   -7.340850    0.480220
  C     12.939370   -5.496960   -1.071740
  C     12.106940   -4.375730   -1.346280
  C     12.763630   -3.569350   -2.359410
  O     12.470470   -2.546980   -2.931820
  N     13.964550   -4.273130   -2.622210
  C     14.932800   -3.758870   -3.559020
  C     16.080710   -3.042030   -2.851630
  C     14.077060   -5.412550   -1.865690
  C     15.185940   -6.302400   -1.956450
  C     15.282470   -7.453050   -1.260820
  C     16.429590   -8.328220   -1.398350
  N     17.457340   -7.915250   -2.151590
  C     18.493890   -8.726510   -2.243440
  C     18.539470   -9.955190   -1.606050
  C     17.411580  -10.316320   -0.855270
  N     16.374090   -9.488280   -0.757540
  C     17.339500  -11.590850   -0.167870
  C     16.206020  -12.038670    0.390480
  C     16.075340  -13.292250    1.094230
  C     17.109710  -13.974580    1.675390
  S     16.608660  -15.408000    2.471490
  C     14.981750  -15.123090    2.035920
  C     14.827690  -13.973360    1.313320
  C     13.529820  -13.528240    0.784230
  O     13.358990  -12.649590   -0.020390
  O     12.521630  -14.262880    1.315670
  C     11.237110  -13.973790    0.925860
  C     10.214690  -14.679750    1.370810
  H      3.062710    1.427600   -0.565860
  H      1.031480    3.088980   -0.706090
  H      4.547180    4.583510   -3.115850
  H      7.390420    0.620420   -1.980500
  H      5.810710   -1.226020   -0.089480
  H      6.904760   -3.227630    0.722270
  H      9.168550   -0.758350   -1.988940
  H     10.415570   -7.169640    1.336240
  H      9.140150   -6.020390    0.824450
  H     11.346740   -5.434370    2.861990
  H      9.660240   -5.785680    3.257290
  H     10.066860   -4.311940    2.371790
  H     14.391660   -3.048450   -4.190800
  H     15.309310   -4.573610   -4.183390
  H     15.692120   -2.213610   -2.264310
  H     16.779280   -2.650450   -3.586110
  H     16.612480   -3.719860   -2.187670
  H     15.993270   -6.046400   -2.627970
  H     14.511010   -7.782160   -0.579640
  H     19.317050   -8.372480   -2.852970
  H     19.394070  -10.607150   -1.689750
  H     18.248420  -12.177350   -0.157610
  H     15.312670  -11.438910    0.290690
  H     18.144010  -13.696540    1.705260
  H     14.218640  -15.818380    2.322980
  H     11.149270  -13.137930    0.242980
  H     10.352040  -15.503400    2.048580
  H      9.213960  -14.444170    1.063620

 Total Charge           Charge          ....    0
 Multiplicity           Mult            ....    1
 Number of Electrons    NEL             ....  366
 Basis Dimension        Dim             ....  848

ORBITAL ENERGIES
----------------

  NO   OCC          E(Eh)            E(eV)
   0   2.0000     -88.968556     -2420.9575
   1   2.0000     -88.967262     -2420.9223
   2   2.0000     -19.284070      -524.7462
   3   2.0000     -19.269172      -524.3408
   4   2.0000     -19.213279      -522.8199
   5   2.0000     -19.206827      -522.6443
   6   2.0000     -19.171295      -521.6774
   7   2.0000     -19.168621      -521.6047
   8   2.0000     -14.434894      -392.7934
   9   2.0000     -14.432791      -392.7362
  10   2.0000     -14.412149      -392.1745
  11   2.0000     -14.404900      -391.9772
  12   2.0000     -14.399077      -391.8188
  13   2.0000     -14.396388      -391.7456
  14   2.0000     -10.412804      -283.3468
  15   2.0000     -10.405817      -283.1567
  16   2.0000     -10.356312      -281.8096
  17   2.0000     -10.351847      -281.6881
  18   2.0000     -10.342663      -281.4382
  19   2.0000     -10.340014      -281.3661
  20   2.0000     -10.331266      -281.1280
  21   2.0000     -10.325205      -280.9631
  22   2.0000     -10.321691      -280.8675
  23   2.0000     -10.318957      -280.7931
  24   2.0000     -10.318033      -280.7679
  25   2.0000     -10.317150      -280.7439
  26   2.0000     -10.315910      -280.7102
  27   2.0000     -10.312622      -280.6207
  28   2.0000     -10.308828      -280.5175
  29   2.0000     -10.306170      -280.4451
  30   2.0000     -10.300202      -280.2828
  31   2.0000     -10.297804      -280.2175
  32   2.0000     -10.294958      -280.1400
  33   2.0000     -10.292611      -280.0762
  34   2.0000     -10.288873      -279.9745
  35   2.0000     -10.287408      -279.9346
  36   2.0000     -10.287128      -279.9270
  37   2.0000     -10.282985      -279.8143
  38   2.0000     -10.282178      -279.7923
  39   2.0000     -10.276134      -279.6278
  40   2.0000     -10.276071      -279.6261
  41   2.0000     -10.272596      -279.5315
  42   2.0000     -10.272516      -279.5294
  43   2.0000     -10.267091      -279.3817
  44   2.0000     -10.266590      -279.3681
  45   2.0000     -10.256358      -279.0897
  46   2.0000     -10.249787      -278.9109
  47   2.0000     -10.248580      -278.8780
  48   2.0000     -10.242380      -278.7093
  49   2.0000     -10.238137      -278.5939
  50   2.0000      -8.064890      -219.4568
  51   2.0000      -8.063554      -219.4204
  52   2.0000      -6.033996      -164.1934
  53   2.0000      -6.032629      -164.1562
  54   2.0000      -6.029514      -164.0714
  55   2.0000      -6.028190      -164.0354
  56   2.0000      -6.027629      -164.0201
  57   2.0000      -6.026331      -163.9848
  58   2.0000      -1.211490       -32.9663
  59   2.0000      -1.199424       -32.6380
  60   2.0000      -1.114579       -30.3292
  61   2.0000      -1.113778       -30.3074
  62   2.0000      -1.106993       -30.1228
  63   2.0000      -1.105324       -30.0774
  64   2.0000      -1.083110       -29.4729
  65   2.0000      -1.071851       -29.1665
  66   2.0000      -1.044164       -28.4132
  67   2.0000      -1.033357       -28.1191
  68   2.0000      -0.991673       -26.9848
  69   2.0000      -0.991387       -26.9770
  70   2.0000      -0.976611       -26.5749
  71   2.0000      -0.970795       -26.4167
  72   2.0000      -0.922606       -25.1054
  73   2.0000      -0.910650       -24.7800
  74   2.0000      -0.905444       -24.6384
  75   2.0000      -0.885063       -24.0838
  76   2.0000      -0.876536       -23.8518
  77   2.0000      -0.875340       -23.8192
  78   2.0000      -0.863000       -23.4834
  79   2.0000      -0.851335       -23.1660
  80   2.0000      -0.843182       -22.9442
  81   2.0000      -0.832608       -22.6564
  82   2.0000      -0.825978       -22.4760
  83   2.0000      -0.810011       -22.0415
  84   2.0000      -0.804015       -21.8784
  85   2.0000      -0.800586       -21.7851
  86   2.0000      -0.784272       -21.3411
  87   2.0000      -0.748875       -20.3779
  88   2.0000      -0.746144       -20.3036
  89   2.0000      -0.742102       -20.1936
  90   2.0000      -0.740413       -20.1477
  91   2.0000      -0.731970       -19.9179
  92   2.0000      -0.721083       -19.6217
  93   2.0000      -0.708383       -19.2761
  94   2.0000      -0.688778       -18.7426
  95   2.0000      -0.686083       -18.6693
  96   2.0000      -0.673928       -18.3385
  97   2.0000      -0.665989       -18.1225
  98   2.0000      -0.665079       -18.0977
  99   2.0000      -0.658648       -17.9227
 100   2.0000      -0.651155       -17.7188
 101   2.0000      -0.641598       -17.4588
 102   2.0000      -0.637054       -17.3351
 103   2.0000      -0.633704       -17.2440
 104   2.0000      -0.628230       -17.0950
 105   2.0000      -0.625307       -17.0155
 106   2.0000      -0.618303       -16.8249
 107   2.0000      -0.615173       -16.7397
 108   2.0000      -0.604630       -16.4528
 109   2.0000      -0.589973       -16.0540
 110   2.0000      -0.576288       -15.6816
 111   2.0000      -0.570002       -15.5105
 112   2.0000      -0.564554       -15.3623
 113   2.0000      -0.564064       -15.3490
 114   2.0000      -0.558261       -15.1911
 115   2.0000      -0.556790       -15.1510
 116   2.0000      -0.553862       -15.0714
 117   2.0000      -0.553598       -15.0642
 118   2.0000      -0.548475       -14.9248
 119   2.0000      -0.537119       -14.6158
 120   2.0000      -0.533800       -14.5254
 121   2.0000      -0.531310       -14.4577
 122   2.0000      -0.530512       -14.4360
 123   2.0000      -0.526018       -14.3137
 124   2.0000      -0.516515       -14.0551
 125   2.0000      -0.515869       -14.0375
 126   2.0000      -0.514540       -14.0014
 127   2.0000      -0.512428       -13.9439
 128   2.0000      -0.509143       -13.8545
 129   2.0000      -0.505772       -13.7628
 130   2.0000      -0.503675       -13.7057
 131   2.0000      -0.496945       -13.5226
 132   2.0000      -0.493837       -13.4380
 133   2.0000      -0.491860       -13.3842
 134   2.0000      -0.486375       -13.2349
 135   2.0000      -0.485710       -13.2168
 136   2.0000      -0.484568       -13.1858
 137   2.0000      -0.483186       -13.1482
 138   2.0000      -0.482194       -13.1212
 139   2.0000      -0.479652       -13.0520
 140   2.0000      -0.479139       -13.0380
 141   2.0000      -0.477301       -12.9880
 142   2.0000      -0.475676       -12.9438
 143   2.0000      -0.461426       -12.5560
 144   2.0000      -0.457738       -12.4557
 145   2.0000      -0.456820       -12.4307
 146   2.0000      -0.449079       -12.2200
 147   2.0000      -0.447605       -12.1800
 148   2.0000      -0.445205       -12.1146
 149   2.0000      -0.441682       -12.0188
 150   2.0000      -0.439437       -11.9577
 151   2.0000      -0.431998       -11.7553
 152   2.0000      -0.431828       -11.7506
 153   2.0000      -0.428634       -11.6637
 154   2.0000      -0.428515       -11.6605
 155   2.0000      -0.426581       -11.6079
 156   2.0000      -0.422350       -11.4927
 157   2.0000      -0.420712       -11.4481
 158   2.0000      -0.413373       -11.2485
 159   2.0000      -0.412426       -11.2227
 160   2.0000      -0.406927       -11.0730
 161   2.0000      -0.401899       -10.9362
 162   2.0000      -0.388937       -10.5835
 163   2.0000      -0.376963       -10.2577
 164   2.0000      -0.376137       -10.2352
 165   2.0000      -0.370312       -10.0767
 166   2.0000      -0.368390       -10.0244
 167   2.0000      -0.366236        -9.9658
 168   2.0000      -0.361977        -9.8499
 169   2.0000      -0.350642        -9.5415
 170   2.0000      -0.333547        -9.0763
 171   2.0000      -0.328965        -8.9516
 172   2.0000      -0.328211        -8.9311
 173   2.0000      -0.319743        -8.7007
 174   2.0000      -0.317007        -8.6262
 175   2.0000      -0.313363        -8.5270
 176   2.0000      -0.312640        -8.5074
 177   2.0000      -0.310653        -8.4533
 178   2.0000      -0.304483        -8.2854
 179   2.0000      -0.295731        -8.0473
 180   2.0000      -0.295060        -8.0290
 181   2.0000      -0.280076        -7.6213
 182   2.0000      -0.227328        -6.1859
 183   0.0000      -0.070755        -1.9253
 184   0.0000      -0.032358        -0.8805
 185   0.0000      -0.024400        -0.6640
 186   0.0000      -0.008799        -0.2394
 187   0.0000      -0.006380        -0.1736

MULLIKEN ATOMIC CHARGES
-----------------------
   0 C :    0.069677
   1 C :   -0.085034
   2 S :    0.136050
   3 C :   -0.086426
   4 C :   -0.058675
   5 C :    0.233176
   6 O :   -0.187220
   7 O :   -0.249619
   8 C :    0.159539
   9 C :    0.000550
  10 C :    0.029050
  11 C :    0.028585
  12 N :   -0.055496
  13 C :   -0.192150
  14 N :    0.008062
  15 C :    0.031008
  16 C :    0.194724
  17 N :   -0.261580
  18 C :    0.142074
  19 C :    0.003908
  20 C :    0.151734
  21 O :   -0.204441
  22 C :   -0.066959
  23 C :   -0.057856
  24 C :    0.144516
  25 O :   -0.159199
  26 N :   -0.269458
  27 C :    0.101651
  28 C :    0.005097
  29 C :    0.155775
  30 C :   -0.004206
  31 C :    0.049521
  32 C :   -0.078258
  33 N :   -0.082638
  34 C :    0.080215
  35 C :   -0.048204
  36 C :    0.047373
  37 N :   -0.030024
  38 C :   -0.016777
  39 C :    0.048755
  40 C :    0.105011
  41 C :   -0.145135
  42 S :    0.142178
  43 C :   -0.088783
  44 C :   -0.007072
  45 C :    0.211915
  46 O :   -0.184087
  47 O :   -0.259682
  48 C :    0.135715
  49 C :   -0.050105
  50 H :    0.000916
  51 H :    0.033806
  52 H :    0.043845
  53 H :    0.037316
  54 H :   -0.003828
  55 H :   -0.001864
  56 H :    0.008989
  57 H :    0.029094
  58 H :    0.022842
  59 H :    0.017950
  60 H :    0.010129
  61 H :    0.009675
  62 H :    0.039235
  63 H :    0.022866
  64 H :    0.026660
  65 H :    0.018060
  66 H :    0.019319
  67 H :   -0.008986
  68 H :    0.020415
  69 H :    0.001329
  70 H :   -0.010475
  71 H :   -0.031254
  72 H :    0.039695
  73 H :    0.027305
  74 H :    0.038482
  75 H :    0.042896
  76 H :    0.025971
  77 H :    0.032838
Sum of atomic charges:   -0.0000000

LOEWDIN ATOMIC CHARGES
----------------------
   0 C :   -0.043659
   1 C :   -0.183245
   2 S :    0.466360
   3 C :   -0.143536
   4 C :   -0.121334
   5 C :    0.104848
   6 O :   -0.164730
   7 O :   -0.046969
   8 C :    0.078869
   9 C :   -0.062278
  10 C :   -0.062735
  11 C :    0.040956
  12 N :   -0.069859
  13 C :    0.012174
  14 N :   -0.039392
  15 C :    0.056019
  16 C :    0.049137
  17 N :    0.007855
  18 C :    0.034195
  19 C :   -0.061709
  20 C :    0.076637
  21 O :   -0.199506
  22 C :   -0.125834
  23 C :   -0.098200
  24 C :    0.082899
  25 O :   -0.169878
  26 N :   -0.006736
  27 C :    0.035241
  28 C :   -0.061566
  29 C :    0.086483
  30 C :   -0.025579
  31 C :    0.024938
  32 C :    0.025513
  33 N :   -0.095386
  34 C :    0.047084
  35 C :   -0.068608
  36 C :    0.039304
  37 N :   -0.073868
  38 C :   -0.047652
  39 C :    0.033197
  40 C :   -0.046752
  41 C :   -0.178279
  42 S :    0.470796
  43 C :   -0.151409
  44 C :   -0.105429
  45 C :    0.105688
  46 O :   -0.150573
  47 O :   -0.056650
  48 C :    0.065741
  49 C :   -0.085640
  50 H :    0.034731
  51 H :    0.025897
  52 H :    0.034410
  53 H :    0.025315
  54 H :    0.035378
  55 H :    0.023700
  56 H :    0.027706
  57 H :    0.029071
  58 H :    0.021014
  59 H :    0.025752
  60 H :    0.025966
  61 H :    0.017838
  62 H :    0.035393
  63 H :    0.023355
  64 H :    0.030892
  65 H :    0.028496
  66 H :    0.023554
  67 H :    0.030896
  68 H :    0.041715
  69 H :    0.024429
  70 H :    0.031126
  71 H :    0.021633
  72 H :    0.041687
  73 H :    0.023555
  74 H :    0.030144
  75 H :    0.027722
  76 H :    0.027952
  77 H :    0.033731

  Mayer bond orders larger than 0.100000
B(  0-C ,  1-C ) :   1.5910 B(  0-C ,  4-C ) :   1.2392 B(  0-C , 50-H ) :   0.9985
B(  1-C ,  2-S ) :   1.1647 B(  1-C , 51-H ) :   0.9691 B(  2-S ,  3-C ) :   1.2204
B(  3-C ,  4-C ) :   1.5409 B(  3-C , 52-H ) :   0.9708 B(  4-C ,  5-C ) :   0.9659
B(  5-C ,  6-O ) :   2.1493 B(  5-C ,  7-O ) :   1.1330 B(  7-O ,  8-C ) :   1.0247
B(  8-C ,  9-C ) :   1.7406 B(  8-C , 53-H ) :   0.9651 B(  9-C , 10-C ) :   1.0744
B(  9-C , 54-H ) :   0.9749 B( 10-C , 11-C ) :   1.3221 B( 10-C , 15-C ) :   1.2790
B( 11-C , 12-N ) :   1.5490 B( 11-C , 55-H ) :   0.9889 B( 12-N , 13-C ) :   1.5001
B( 13-C , 14-N ) :   1.6378 B( 13-C , 16-C ) :   0.9851 B( 14-N , 15-C ) :   1.6064
B( 14-N , 16-C ) :  -0.1288 B( 15-C , 56-H ) :   0.9870 B( 16-C , 17-N ) :   1.1986
B( 16-C , 23-C ) :   1.4007 B( 17-N , 18-C ) :   0.9424 B( 17-N , 20-C ) :   1.0555
B( 18-C , 19-C ) :   1.1249 B( 18-C , 57-H ) :   0.9263 B( 18-C , 58-H ) :   0.9340
B( 19-C , 59-H ) :   0.9658 B( 19-C , 60-H ) :   0.9678 B( 19-C , 61-H ) :   0.9663
B( 20-C , 21-O ) :   2.0495 B( 20-C , 22-C ) :   0.9851 B( 22-C , 23-C ) :   1.2358
B( 22-C , 29-C ) :   1.3456 B( 23-C , 24-C ) :   0.9438 B( 24-C , 25-O ) :   2.1816
B( 24-C , 26-N ) :   1.0153 B( 26-N , 27-C ) :   0.9495 B( 26-N , 29-C ) :   1.1778
B( 27-C , 28-C ) :   1.1217 B( 27-C , 62-H ) :   0.9272 B( 27-C , 63-H ) :   0.9495
B( 28-C , 64-H ) :   0.9634 B( 28-C , 65-H ) :   0.9679 B( 28-C , 66-H ) :   0.9685
B( 29-C , 30-C ) :   1.1034 B( 30-C , 31-C ) :   1.6490 B( 30-C , 67-H ) :   0.9597
B( 31-C , 32-C ) :   1.0183 B( 31-C , 68-H ) :   0.9577 B( 32-C , 33-N ) :   1.5077
B( 32-C , 37-N ) :   1.5593 B( 33-N , 34-C ) :   1.5555 B( 34-C , 35-C ) :   1.3669
B( 34-C , 69-H ) :   0.9805 B( 35-C , 36-C ) :   1.3306 B( 35-C , 70-H ) :   0.9752
B( 36-C , 37-N ) :   1.5163 B( 36-C , 38-C ) :   1.0671 B( 38-C , 39-C ) :   1.7481
B( 38-C , 71-H ) :   0.9738 B( 39-C , 40-C ) :   1.0519 B( 39-C , 72-H ) :   0.9553
B( 40-C , 41-C ) :   1.5466 B( 40-C , 44-C ) :   1.2312 B( 41-C , 42-S ) :   1.1706
B( 41-C , 73-H ) :   0.9598 B( 42-S , 43-C ) :   1.2071 B( 43-C , 44-C ) :   1.5331
B( 43-C , 74-H ) :   0.9615 B( 44-C , 45-C ) :   0.9483 B( 45-C , 46-O ) :   2.1011
B( 45-C , 47-O ) :   1.1594 B( 47-O , 48-C ) :   0.9907 B( 48-C , 49-C ) :   1.9686
B( 48-C , 75-H ) :   0.9618 B( 49-C , 76-H ) :   0.9528 B( 49-C , 77-H ) :   0.9508

-----------------------------------------------------------------------------
         ABSORPTION SPECTRUM VIA TRANSITION ELECTRIC DIPOLE MOMENTS
-----------------------------------------------------------------------------
State   Energy  Wavelength   fosc         T2         TX        TY        TZ
        (cm-1)    (nm)                  (au**2)     (au)      (au)      (au)
-----------------------------------------------------------------------------
   0   17535.8    570.3   0.597136346  11.21046  -2.90955   1.39467   0.89436
   1   26179.6    382.0   0.010852277   0.13647   0.28475  -0.23503   0.01207
   2   26965.0    370.9   0.001785190   0.02180   0.11740  -0.05313   0.07204
   3   27777.8    360.0   0.012097850   0.14338   0.25843  -0.26973   0.06196
   4   29210.1    342.3   0.004044556   0.04558  -0.21136  -0.02569   0.01587
   5   29729.6    336.4   0.009347737   0.10351   0.22487  -0.22935  -0.01853
   6   30660.4    326.2   0.009912447   0.10643  -0.30289   0.11137   0.04782
   7   30778.7    324.9   0.001049474   0.01123   0.09179   0.01311  -0.05126
   8   32013.7    312.4   0.157479293   1.61943   0.98111  -0.81030  -0.01636
   9   32211.2    310.5   0.000302864   0.00310  -0.00830   0.01993  -0.05128
  10   33185.2    301.3   0.771377541   7.65240   1.69694  -2.13018   0.48491
  11   34688.7    288.3   0.034808586   0.33035  -0.21659  -0.52683   0.07677
  12   34993.1    285.8   0.036177374   0.34035   0.12408  -0.44368   0.35791
  13   36218.4    276.1   0.765548086   6.95855   0.49501  -2.36773   1.05231
  14   36463.9    274.2   0.007465919   0.06741   0.09357  -0.22090   0.09926
  15   38754.2    258.0   0.737539842   6.26531   0.97741   1.86046  -1.35966
  16   40055.3    249.7   0.280882074   2.30855  -1.27046   0.83272  -0.03242

FINAL SINGLE POINT ENERGY     -2962.011670162846

DIPOLE MOMENT
-------------
                                X             Y             Z
Electronic contribution:     -9.66003       4.41260      -3.26257
Nuclear contribution   :      8.97353      -4.95731       3.95200
                        -----------------------------------------
Total Dipole Moment    :     -0.68650      -0.54472       0.68943
                        -----------------------------------------
Magnitude (a.u.)       :      1.11504
Magnitude (Debye)      :      2.83420

Rotational constants in cm-1:     0.003293     0.000446     0.000400
Rotational constants in MHz :    98.711752    13.373750    11.983589

                             ****ORCA TERMINATED NORMALLY****
TOTAL RUN TIME: 0 days 0 hours 4 minutes 21 seconds 572 msec
