                         Program Version 4.2.0 -  RELEASE  -
|  1> # ORCA input file
|  2> # SCF done       -151.715881333733          0.000517730413
|  3> ! CAM-B3LYP def2-SVP def2/J RIJCOSX Grid4 TightSCF
|  4> %maxcore 5000
|  5> %tddft
|  6>     Mode sTDDFT
|  7>     Ethresh 5.0
|  8>     maxcore 5000
|  9> end
| 10>
| 11> %pal
| 12>   nprocs 6
| 13>   end
| 14> * xyz 0 1
| 15>    C        3.91720        -0.46336        -5.23620
| 16>    S        2.71407        -1.50879        -4.52760
| 17>    C        2.81179        -0.57596        -3.10101
| 18>    C        3.72706         0.44002        -3.25282
| 19>    N        4.33299         0.47215        -4.47579
| 20>    C        4.08103         1.42026        -2.27112
| 21>    S        5.26461         2.63392        -2.65878
| 22>    C        3.63371         1.59381        -0.98286
| 23>    C        2.68102         0.95127        -0.06902
| 24>    O        1.95989        -0.00660        -0.22605
| 25>    N        2.76462         1.68583         1.10546
| 26>    C        1.95697         1.40362         2.27268
| 27>    C        0.61570         2.12531         2.20549
| 28>    C        3.66590         2.74109         1.04581
| 29>    O        3.88398         3.49521         1.96719
| 30>    C        4.23502         2.68491        -0.30666
| 31>    C        5.15917         3.37437        -1.07103
| 32>    C        5.97442         4.49895        -0.78638
| 33>    C        5.99087         5.12517         0.41932
| 34>    C        6.81168         6.24658         0.68918
| 35>    N        6.85389         6.87104         1.91364
| 36>    C        6.15007         6.47077         3.10865
| 37>    C        6.82916         5.29071         3.79841
| 38>    C        7.74346         7.96268         1.92109
| 39>    O        7.94566         8.66480         2.88918
| 40>    C        8.26842         7.99303         0.57312
| 41>    C        7.68344         6.93427        -0.15706
| 42>    C        8.20905         6.99466        -1.50159
| 43>    O        8.00786         6.30714        -2.48404
| 44>    N        9.08009         8.10271        -1.49744
| 45>    C        9.82300         8.43185        -2.69045
| 46>    C       11.26654         7.94038        -2.61968
| 47>    C        9.13012         8.70492        -0.25915
| 48>    C        9.85790         9.83381         0.18937
| 49>    C       10.71545        10.64960        -0.47463
| 50>    C       11.36165        11.75022         0.13651
| 51>    S       11.16890        12.20221         1.82016
| 52>    C       12.23414        12.63382        -0.46243
| 53>    C       12.79909        12.81398        -1.80375
| 54>    O       12.63316        12.17169        -2.81322
| 55>    N       13.62327        13.92774        -1.68829
| 56>    C       14.36134        14.48826        -2.79956
| 57>    C       13.55466        15.57019        -3.50927
| 58>    C       13.64227        14.48457        -0.41410
| 59>    O       14.29711        15.45299        -0.10753
| 60>    C       12.73959        13.64248         0.38626
| 61>    C       12.26610        13.56449         1.68242
| 62>    C       12.51383        14.35616         2.83391
| 63>    C       13.33914        15.42787         2.86152
| 64>    C       13.55248        16.18428         4.04682
| 65>    S       14.63797        17.57797         4.03228
| 66>    C       14.28980        17.80158         5.69323
| 67>    C       13.41390        16.84871         6.13112
| 68>    N       13.01688        15.96310         5.20775
| 69>    H        4.26213        -0.62007        -6.23858
| 70>    H        2.21837        -0.79815        -2.23685
| 71>    H        2.52374         1.73215         3.14705
| 72>    H        1.80477         0.32240         2.31195
| 73>    H        0.76906         3.20091         2.15709
| 74>    H        0.02942         1.89465         3.09025
| 75>    H        0.06207         1.80628         1.32547
| 76>    H        6.60827         4.85132        -1.58985
| 77>    H        5.35524         4.76412         1.21394
| 78>    H        5.11499         6.22301         2.86183
| 79>    H        6.16249         7.34124         3.77060
| 80>    H        6.82954         4.41494         3.15405
| 81>    H        6.29590         5.04753         4.71282
| 82>    H        7.85659         5.54431         4.04887
| 83>    H        9.77709         9.50854        -2.86842
| 84>    H        9.30751         7.92179        -3.50999
| 85>    H       11.77849         8.34721        -1.75083
| 86>    H       11.80143         8.24681        -3.51405
| 87>    H       11.28473         6.85513        -2.55505
| 88>    H        9.66960        10.05124         1.23573
| 89>    H       10.96834        10.51921        -1.51584
| 90>    H       14.58771        13.66850        -3.48541
| 91>    H       15.28836        14.90726        -2.40048
| 92>    H       12.62902        15.15386        -3.90027
| 93>    H       14.13162        15.97788        -4.33443
| 94>    H       13.31708        16.37471        -2.81696
| 95>    H       12.00142        14.06835         3.74145
| 96>    H       13.86845        15.74598         1.97473
| 97>    H       14.73651        18.60194         6.24712
| 98>    H       13.03515        16.76544         7.13389
| 99> *
|100>
|101>                          ****END OF INPUT****

CARTESIAN COORDINATES (ANGSTROEM)
---------------------------------
  C      3.917200   -0.463360   -5.236200
  S      2.714070   -1.508790   -4.527600
  C      2.811790   -0.575960   -3.101010
  C      3.727060    0.440020   -3.252820
  N      4.332990    0.472150   -4.475790
  C      4.081030    1.420260   -2.271120
  S      5.264610    2.633920   -2.658780
  C      3.633710    1.593810   -0.982860
  C      2.681020    0.951270   -0.069020
  O      1.959890   -0.006600   -0.226050
  N      2.764620    1.685830    1.105460
  C      1.956970    1.403620    2.272680
  C      0.615700    2.125310    2.205490
  C      3.665900    2.741090    1.045810
  O      3.883980    3.495210    1.967190
  C      4.235020    2.684910   -0.306660
  C      5.159170    3.374370   -1.071030
  C      5.974420    4.498950   -0.786380
  C      5.990870    5.125170    0.419320
  C      6.811680    6.246580    0.689180
  N      6.853890    6.871040    1.913640
  C      6.150070    6.470770    3.108650
  C      6.829160    5.290710    3.798410
  C      7.743460    7.962680    1.921090
  O      7.945660    8.664800    2.889180
  C      8.268420    7.993030    0.573120
  C      7.683440    6.934270   -0.157060
  C      8.209050    6.994660   -1.501590
  O      8.007860    6.307140   -2.484040
  N      9.080090    8.102710   -1.497440
  C      9.823000    8.431850   -2.690450
  C     11.266540    7.940380   -2.619680
  C      9.130120    8.704920   -0.259150
  C      9.857900    9.833810    0.189370
  C     10.715450   10.649600   -0.474630
  C     11.361650   11.750220    0.136510
  S     11.168900   12.202210    1.820160
  C     12.234140   12.633820   -0.462430
  C     12.799090   12.813980   -1.803750
  O     12.633160   12.171690   -2.813220
  N     13.623270   13.927740   -1.688290
  C     14.361340   14.488260   -2.799560
  C     13.554660   15.570190   -3.509270
  C     13.642270   14.484570   -0.414100
  O     14.297110   15.452990   -0.107530
  C     12.739590   13.642480    0.386260
  C     12.266100   13.564490    1.682420
  C     12.513830   14.356160    2.833910
  C     13.339140   15.427870    2.861520
  C     13.552480   16.184280    4.046820
  S     14.637970   17.577970    4.032280
  C     14.289800   17.801580    5.693230
  C     13.413900   16.848710    6.131120
  N     13.016880   15.963100    5.207750
  H      4.262130   -0.620070   -6.238580
  H      2.218370   -0.798150   -2.236850
  H      2.523740    1.732150    3.147050
  H      1.804770    0.322400    2.311950
  H      0.769060    3.200910    2.157090
  H      0.029420    1.894650    3.090250
  H      0.062070    1.806280    1.325470
  H      6.608270    4.851320   -1.589850
  H      5.355240    4.764120    1.213940
  H      5.114990    6.223010    2.861830
  H      6.162490    7.341240    3.770600
  H      6.829540    4.414940    3.154050
  H      6.295900    5.047530    4.712820
  H      7.856590    5.544310    4.048870
  H      9.777090    9.508540   -2.868420
  H      9.307510    7.921790   -3.509990
  H     11.778490    8.347210   -1.750830
  H     11.801430    8.246810   -3.514050
  H     11.284730    6.855130   -2.555050
  H      9.669600   10.051240    1.235730
  H     10.968340   10.519210   -1.515840
  H     14.587710   13.668500   -3.485410
  H     15.288360   14.907260   -2.400480
  H     12.629020   15.153860   -3.900270
  H     14.131620   15.977880   -4.334430
  H     13.317080   16.374710   -2.816960
  H     12.001420   14.068350    3.741450
  H     13.868450   15.745980    1.974730
  H     14.736510   18.601940    6.247120
  H     13.035150   16.765440    7.133890

 Total Charge           Charge          ....    0
 Multiplicity           Mult            ....    1
 Number of Electrons    NEL             ....  412
 Basis Dimension        Dim             ....  922

ORBITAL ENERGIES
----------------

  NO   OCC          E(Eh)            E(eV)
   0   2.0000     -88.972861     -2421.0746
   1   2.0000     -88.971502     -2421.0377
   2   2.0000     -88.969725     -2420.9893
   3   2.0000     -88.959075     -2420.6995
   4   2.0000     -19.217405      -522.9322
   5   2.0000     -19.216469      -522.9067
   6   2.0000     -19.211220      -522.7639
   7   2.0000     -19.208881      -522.7002
   8   2.0000     -19.185289      -522.0583
   9   2.0000     -19.185240      -522.0569
  10   2.0000     -14.457192      -393.4002
  11   2.0000     -14.451379      -393.2420
  12   2.0000     -14.447516      -393.1369
  13   2.0000     -14.446667      -393.1138
  14   2.0000     -14.418966      -392.3600
  15   2.0000     -14.401572      -391.8867
  16   2.0000     -10.398806      -282.9659
  17   2.0000     -10.397924      -282.9419
  18   2.0000     -10.393190      -282.8131
  19   2.0000     -10.390627      -282.7433
  20   2.0000     -10.368421      -282.1391
  21   2.0000     -10.368084      -282.1299
  22   2.0000     -10.335927      -281.2549
  23   2.0000     -10.335334      -281.2387
  24   2.0000     -10.331816      -281.1430
  25   2.0000     -10.330356      -281.1033
  26   2.0000     -10.328460      -281.0517
  27   2.0000     -10.328014      -281.0395
  28   2.0000     -10.325957      -280.9836
  29   2.0000     -10.323855      -280.9264
  30   2.0000     -10.320063      -280.8232
  31   2.0000     -10.307713      -280.4871
  32   2.0000     -10.304397      -280.3969
  33   2.0000     -10.303081      -280.3611
  34   2.0000     -10.299251      -280.2569
  35   2.0000     -10.298162      -280.2272
  36   2.0000     -10.296490      -280.1817
  37   2.0000     -10.295490      -280.1545
  38   2.0000     -10.295231      -280.1475
  39   2.0000     -10.293703      -280.1059
  40   2.0000     -10.293591      -280.1028
  41   2.0000     -10.292429      -280.0712
  42   2.0000     -10.292349      -280.0690
  43   2.0000     -10.288614      -279.9674
  44   2.0000     -10.288008      -279.9509
  45   2.0000     -10.286908      -279.9210
  46   2.0000     -10.283458      -279.8271
  47   2.0000     -10.283384      -279.8251
  48   2.0000     -10.260864      -279.2123
  49   2.0000     -10.257669      -279.1254
  50   2.0000     -10.256786      -279.1013
  51   2.0000     -10.255370      -279.0628
  52   2.0000     -10.254357      -279.0352
  53   2.0000     -10.253446      -279.0104
  54   2.0000      -8.068282      -219.5491
  55   2.0000      -8.067668      -219.5324
  56   2.0000      -8.064841      -219.4555
  57   2.0000      -8.055392      -219.1984
  58   2.0000      -6.037256      -164.2821
  59   2.0000      -6.036979      -164.2745
  60   2.0000      -6.034116      -164.1967
  61   2.0000      -6.032924      -164.1642
  62   2.0000      -6.032574      -164.1547
  63   2.0000      -6.030978      -164.1112
  64   2.0000      -6.029982      -164.0841
  65   2.0000      -6.029935      -164.0829
  66   2.0000      -6.026943      -164.0015
  67   2.0000      -6.024298      -163.9295
  68   2.0000      -6.020262      -163.8196
  69   2.0000      -6.018042      -163.7593
  70   2.0000      -1.162306       -31.6280
  71   2.0000      -1.155535       -31.4437
  72   2.0000      -1.138702       -30.9857
  73   2.0000      -1.131845       -30.7991
  74   2.0000      -1.127369       -30.6773
  75   2.0000      -1.120718       -30.4963
  76   2.0000      -1.074688       -29.2437
  77   2.0000      -1.057792       -28.7840
  78   2.0000      -1.057310       -28.7709
  79   2.0000      -1.052826       -28.6489
  80   2.0000      -1.048215       -28.5234
  81   2.0000      -1.046993       -28.4901
  82   2.0000      -0.998873       -27.1807
  83   2.0000      -0.997223       -27.1358
  84   2.0000      -0.923439       -25.1281
  85   2.0000      -0.919099       -25.0100
  86   2.0000      -0.912959       -24.8429
  87   2.0000      -0.905412       -24.6375
  88   2.0000      -0.904356       -24.6088
  89   2.0000      -0.897588       -24.4246
  90   2.0000      -0.887895       -24.1609
  91   2.0000      -0.885398       -24.0929
  92   2.0000      -0.873934       -23.7809
  93   2.0000      -0.862963       -23.4824
  94   2.0000      -0.849508       -23.1163
  95   2.0000      -0.830528       -22.5998
  96   2.0000      -0.825423       -22.4609
  97   2.0000      -0.822189       -22.3729
  98   2.0000      -0.812733       -22.1156
  99   2.0000      -0.810750       -22.0616
 100   2.0000      -0.786147       -21.3921
 101   2.0000      -0.774576       -21.0773
 102   2.0000      -0.752512       -20.4769
 103   2.0000      -0.748351       -20.3637
 104   2.0000      -0.746308       -20.3081
 105   2.0000      -0.744445       -20.2574
 106   2.0000      -0.742517       -20.2049
 107   2.0000      -0.723554       -19.6889
 108   2.0000      -0.708700       -19.2847
 109   2.0000      -0.703466       -19.1423
 110   2.0000      -0.700352       -19.0575
 111   2.0000      -0.687812       -18.7163
 112   2.0000      -0.685453       -18.6521
 113   2.0000      -0.675553       -18.3827
 114   2.0000      -0.674394       -18.3512
 115   2.0000      -0.663942       -18.0668
 116   2.0000      -0.661925       -18.0119
 117   2.0000      -0.655414       -17.8347
 118   2.0000      -0.643249       -17.5037
 119   2.0000      -0.629371       -17.1260
 120   2.0000      -0.620295       -16.8791
 121   2.0000      -0.611134       -16.6298
 122   2.0000      -0.604352       -16.4453
 123   2.0000      -0.597137       -16.2489
 124   2.0000      -0.591817       -16.1042
 125   2.0000      -0.587460       -15.9856
 126   2.0000      -0.581275       -15.8173
 127   2.0000      -0.579852       -15.7786
 128   2.0000      -0.579156       -15.7596
 129   2.0000      -0.574819       -15.6416
 130   2.0000      -0.571725       -15.5574
 131   2.0000      -0.559267       -15.2184
 132   2.0000      -0.558306       -15.1923
 133   2.0000      -0.553304       -15.0562
 134   2.0000      -0.551396       -15.0042
 135   2.0000      -0.543400       -14.7867
 136   2.0000      -0.541774       -14.7424
 137   2.0000      -0.538636       -14.6570
 138   2.0000      -0.538262       -14.6468
 139   2.0000      -0.529671       -14.4131
 140   2.0000      -0.526708       -14.3325
 141   2.0000      -0.525645       -14.3035
 142   2.0000      -0.523086       -14.2339
 143   2.0000      -0.520079       -14.1521
 144   2.0000      -0.516138       -14.0448
 145   2.0000      -0.512478       -13.9452
 146   2.0000      -0.509559       -13.8658
 147   2.0000      -0.507114       -13.7993
 148   2.0000      -0.504882       -13.7386
 149   2.0000      -0.503503       -13.7010
 150   2.0000      -0.500872       -13.6294
 151   2.0000      -0.498756       -13.5718
 152   2.0000      -0.495123       -13.4730
 153   2.0000      -0.491455       -13.3732
 154   2.0000      -0.491044       -13.3620
 155   2.0000      -0.488860       -13.3026
 156   2.0000      -0.487646       -13.2695
 157   2.0000      -0.484757       -13.1909
 158   2.0000      -0.484623       -13.1873
 159   2.0000      -0.480342       -13.0708
 160   2.0000      -0.473389       -12.8816
 161   2.0000      -0.467614       -12.7244
 162   2.0000      -0.466091       -12.6830
 163   2.0000      -0.464255       -12.6330
 164   2.0000      -0.463095       -12.6014
 165   2.0000      -0.461540       -12.5592
 166   2.0000      -0.456180       -12.4133
 167   2.0000      -0.453703       -12.3459
 168   2.0000      -0.452909       -12.3243
 169   2.0000      -0.449083       -12.2202
 170   2.0000      -0.448264       -12.1979
 171   2.0000      -0.446658       -12.1542
 172   2.0000      -0.445525       -12.1233
 173   2.0000      -0.441652       -12.0180
 174   2.0000      -0.435712       -11.8563
 175   2.0000      -0.435301       -11.8452
 176   2.0000      -0.434078       -11.8119
 177   2.0000      -0.430324       -11.7097
 178   2.0000      -0.428454       -11.6588
 179   2.0000      -0.427300       -11.6274
 180   2.0000      -0.423932       -11.5358
 181   2.0000      -0.418203       -11.3799
 182   2.0000      -0.414606       -11.2820
 183   2.0000      -0.404261       -11.0005
 184   2.0000      -0.389614       -10.6019
 185   2.0000      -0.368902       -10.0383
 186   2.0000      -0.366904        -9.9840
 187   2.0000      -0.365157        -9.9364
 188   2.0000      -0.359270        -9.7762
 189   2.0000      -0.357786        -9.7359
 190   2.0000      -0.356610        -9.7038
 191   2.0000      -0.351936        -9.5767
 192   2.0000      -0.350299        -9.5321
 193   2.0000      -0.347225        -9.4485
 194   2.0000      -0.344701        -9.3798
 195   2.0000      -0.342762        -9.3270
 196   2.0000      -0.342177        -9.3111
 197   2.0000      -0.334783        -9.1099
 198   2.0000      -0.330257        -8.9867
 199   2.0000      -0.327855        -8.9214
 200   2.0000      -0.326270        -8.8783
 201   2.0000      -0.317192        -8.6312
 202   2.0000      -0.309637        -8.4257
 203   2.0000      -0.284589        -7.7441
 204   2.0000      -0.268412        -7.3039
 205   2.0000      -0.227968        -6.2033
 206   0.0000      -0.093657        -2.5485
 207   0.0000      -0.058606        -1.5948
 208   0.0000      -0.042453        -1.1552
 209   0.0000      -0.040848        -1.1115
 210   0.0000      -0.002106        -0.0573

MULLIKEN ATOMIC CHARGES
-----------------------
   0 C :    0.000853
   1 S :    0.113325
   2 C :   -0.106161
   3 C :   -0.010763
   4 N :   -0.084460
   5 C :   -0.096985
   6 S :    0.231853
   7 C :    0.000773
   8 C :    0.196158
   9 O :   -0.182133
  10 N :   -0.299743
  11 C :    0.137496
  12 C :   -0.009676
  13 C :    0.204954
  14 O :   -0.187022
  15 C :    0.004580
  16 C :   -0.155366
  17 C :    0.067422
  18 C :   -0.031001
  19 C :    0.142159
  20 N :   -0.264646
  21 C :    0.097274
  22 C :    0.011981
  23 C :    0.149404
  24 O :   -0.193393
  25 C :   -0.040021
  26 C :   -0.061167
  27 C :    0.158192
  28 O :   -0.214329
  29 N :   -0.266900
  30 C :    0.098350
  31 C :    0.003673
  32 C :    0.117726
  33 C :   -0.034122
  34 C :   -0.007088
  35 C :   -0.124527
  36 S :    0.164349
  37 C :    0.008708
  38 C :    0.185625
  39 O :   -0.175318
  40 N :   -0.306271
  41 C :    0.135248
  42 C :   -0.005634
  43 C :    0.203789
  44 O :   -0.180603
  45 C :    0.013041
  46 C :   -0.130508
  47 C :    0.043703
  48 C :    0.081218
  49 C :   -0.159870
  50 S :    0.125644
  51 C :   -0.082892
  52 C :    0.066851
  53 N :   -0.063423
  54 H :    0.044356
  55 H :    0.047632
  56 H :    0.031105
  57 H :    0.031308
  58 H :    0.027214
  59 H :    0.023359
  60 H :    0.027398
  61 H :   -0.000999
  62 H :   -0.008619
  63 H :    0.036945
  64 H :    0.038698
  65 H :    0.016992
  66 H :    0.022153
  67 H :    0.022624
  68 H :    0.031541
  69 H :    0.041223
  70 H :    0.020175
  71 H :    0.026913
  72 H :    0.024749
  73 H :    0.013165
  74 H :    0.009234
  75 H :    0.030943
  76 H :    0.029696
  77 H :    0.024709
  78 H :    0.022208
  79 H :    0.026619
  80 H :    0.002722
  81 H :    0.007939
  82 H :    0.034274
  83 H :    0.003397
Sum of atomic charges:   -0.0000000

LOEWDIN ATOMIC CHARGES
----------------------
   0 C :   -0.121635
   1 S :    0.436439
   2 C :   -0.173517
   3 C :   -0.076737
   4 N :   -0.097413
   5 C :   -0.131429
   6 S :    0.507519
   7 C :   -0.099503
   8 C :    0.096264
   9 O :   -0.169211
  10 N :   -0.027746
  11 C :    0.043667
  12 C :   -0.059791
  13 C :    0.096949
  14 O :   -0.171163
  15 C :   -0.092446
  16 C :   -0.139027
  17 C :    0.000308
  18 C :   -0.028262
  19 C :    0.082096
  20 N :   -0.000669
  21 C :    0.037059
  22 C :   -0.059020
  23 C :    0.079018
  24 O :   -0.194997
  25 C :   -0.105877
  26 C :   -0.125420
  27 C :    0.081026
  28 O :   -0.204482
  29 N :   -0.002390
  30 C :    0.035342
  31 C :   -0.061898
  32 C :    0.063358
  33 C :   -0.025859
  34 C :   -0.026972
  35 C :   -0.137050
  36 S :    0.465099
  37 C :   -0.089116
  38 C :    0.088953
  39 O :   -0.173051
  40 N :   -0.031406
  41 C :    0.043405
  42 C :   -0.059628
  43 C :    0.096262
  44 O :   -0.167043
  45 C :   -0.100372
  46 C :   -0.122497
  47 C :   -0.028801
  48 C :   -0.021170
  49 C :   -0.137492
  50 S :    0.426899
  51 C :   -0.203158
  52 C :   -0.032745
  53 N :   -0.095825
  54 H :    0.021160
  55 H :    0.029685
  56 H :    0.032009
  57 H :    0.032323
  58 H :    0.028241
  59 H :    0.030644
  60 H :    0.028368
  61 H :    0.035808
  62 H :    0.031181
  63 H :    0.028771
  64 H :    0.035973
  65 H :    0.023361
  66 H :    0.031030
  67 H :    0.028796
  68 H :    0.024462
  69 H :    0.036822
  70 H :    0.022353
  71 H :    0.033211
  72 H :    0.030583
  73 H :    0.039578
  74 H :    0.040398
  75 H :    0.032121
  76 H :    0.031651
  77 H :    0.027718
  78 H :    0.030049
  79 H :    0.028105
  80 H :    0.036310
  81 H :    0.032161
  82 H :    0.026969
  83 H :    0.025314

  Mayer bond orders larger than 0.100000
B(  0-C ,  1-S ) :   1.1575 B(  0-C ,  4-N ) :   1.7362 B(  0-C , 54-H ) :   0.9651
B(  1-S ,  2-C ) :   1.1738 B(  2-C ,  3-C ) :   1.5734 B(  2-C , 55-H ) :   0.9302
B(  3-C ,  4-N ) :   1.3802 B(  3-C ,  5-C ) :   1.0970 B(  5-C ,  6-S ) :   1.1529
B(  5-C ,  7-C ) :   1.5411 B(  6-S , 16-C ) :   1.1164 B(  7-C ,  8-C ) :   0.8939
B(  7-C , 15-C ) :   1.2615 B(  8-C ,  9-O ) :   2.1081 B(  8-C , 10-N ) :   1.0837
B( 10-N , 11-C ) :   0.9200 B( 10-N , 13-C ) :   1.0939 B( 11-C , 12-C ) :   1.1251
B( 11-C , 56-H ) :   0.9406 B( 11-C , 57-H ) :   0.9410 B( 12-C , 58-H ) :   0.9687
B( 12-C , 59-H ) :   0.9707 B( 12-C , 60-H ) :   0.9693 B( 13-C , 14-O ) :   2.0680
B( 13-C , 15-C ) :   0.9075 B( 14-O , 62-H ) :   0.1022 B( 15-C , 16-C ) :   1.4879
B( 16-C , 17-C ) :   1.1366 B( 17-C , 18-C ) :   1.6055 B( 17-C , 61-H ) :   0.9392
B( 18-C , 19-C ) :   1.1677 B( 18-C , 62-H ) :   0.9385 B( 19-C , 20-N ) :   1.1706
B( 19-C , 26-C ) :   1.3108 B( 20-N , 21-C ) :   0.9407 B( 20-N , 23-C ) :   1.0403
B( 21-C , 22-C ) :   1.1256 B( 21-C , 63-H ) :   0.9473 B( 21-C , 64-H ) :   0.9281
B( 22-C , 65-H ) :   0.9669 B( 22-C , 66-H ) :   0.9672 B( 22-C , 67-H ) :   0.9639
B( 23-C , 24-O ) :   2.1264 B( 23-C , 25-C ) :   0.9713 B( 25-C , 26-C ) :   1.2496
B( 25-C , 32-C ) :   1.3487 B( 26-C , 27-C ) :   0.9908 B( 27-C , 28-O ) :   2.0227
B( 27-C , 29-N ) :   1.0644 B( 28-O , 61-H ) :   0.1085 B( 29-N , 30-C ) :   0.9402
B( 29-N , 32-C ) :   1.1600 B( 30-C , 31-C ) :   1.1183 B( 30-C , 68-H ) :   0.9518
B( 30-C , 69-H ) :   0.9241 B( 31-C , 70-H ) :   0.9683 B( 31-C , 71-H ) :   0.9681
B( 31-C , 72-H ) :   0.9618 B( 32-C , 33-C ) :   1.1900 B( 33-C , 34-C ) :   1.5404
B( 33-C , 73-H ) :   0.9469 B( 34-C , 35-C ) :   1.1867 B( 34-C , 74-H ) :   0.9712
B( 35-C , 36-S ) :   1.0998 B( 35-C , 37-C ) :   1.4916 B( 36-S , 46-C ) :   1.1292
B( 37-C , 38-C ) :   0.9016 B( 37-C , 45-C ) :   1.2620 B( 38-C , 39-O ) :   2.1621
B( 38-C , 40-N ) :   1.0756 B( 40-N , 41-C ) :   0.9216 B( 40-N , 43-C ) :   1.0853
B( 41-C , 42-C ) :   1.1279 B( 41-C , 75-H ) :   0.9404 B( 41-C , 76-H ) :   0.9411
B( 42-C , 77-H ) :   0.9685 B( 42-C , 78-H ) :   0.9700 B( 42-C , 79-H ) :   0.9689
B( 43-C , 44-O ) :   2.0893 B( 43-C , 45-C ) :   0.9029 B( 45-C , 46-C ) :   1.4882
B( 46-C , 47-C ) :   1.1251 B( 47-C , 48-C ) :   1.7143 B( 47-C , 80-H ) :   0.9626
B( 48-C , 49-C ) :   1.0942 B( 48-C , 81-H ) :   0.9266 B( 49-C , 50-S ) :   1.1219
B( 49-C , 53-N ) :   1.7110 B( 50-S , 51-C ) :   1.1790 B( 51-C , 52-C ) :   1.5458
B( 51-C , 82-H ) :   0.9711 B( 52-C , 53-N ) :   1.3739 B( 52-C , 83-H ) :   0.9941

-----------------------------------------------------------------------------
         ABSORPTION SPECTRUM VIA TRANSITION ELECTRIC DIPOLE MOMENTS
-----------------------------------------------------------------------------
State   Energy  Wavelength   fosc         T2         TX        TY        TZ
        (cm-1)    (nm)                  (au**2)     (au)      (au)      (au)
-----------------------------------------------------------------------------
   0   14230.6    702.7   1.172972649  27.13573   3.22853   4.08733   0.07775
   1   22650.1    441.5   0.080752825   1.17372   0.28995   0.71364   0.76182
   2   24302.8    411.5   0.475598457   6.44257   0.88747   1.80372   1.54970
   3   25145.4    397.7   0.093421679   1.22311  -0.62158  -0.48323   0.77668
   4   26207.6    381.6   0.167113707   2.09923  -0.73622  -1.14669  -0.49226
   5   26472.3    377.8   0.218008579   2.71117   0.57917   1.12427   1.05440
   6   27520.7    363.4   0.148208768   1.77292  -0.11621  -0.72112  -1.11329
   7   28271.9    353.7   0.000938227   0.01093  -0.04185   0.07977   0.05302
   8   30664.8    326.1   0.324481409   3.48357  -0.28239  -0.98594  -1.55941
   9   31751.0    315.0   0.001121007   0.01162  -0.05288  -0.08704  -0.03537
  10   32927.0    303.7   0.287471748   2.87421  -0.53133  -1.16233  -1.11395
  11   34281.7    291.7   0.311503533   2.99141  -0.87112  -1.38647  -0.55700
  12   34664.3    288.5   0.077093852   0.73217  -0.13773  -0.51527  -0.66910
  13   35172.5    284.3   0.045761112   0.42832   0.40423   0.39475  -0.33028
  14   35752.6    279.7   0.274334269   2.52609   0.06269  -0.73313  -1.40879
  15   36485.0    274.1   0.091353680   0.82430  -0.51239  -0.40064   0.63344
  16   37103.8    269.5   0.023899580   0.21205  -0.26894  -0.34459  -0.14485
  17   37682.8    265.4   0.000525440   0.00459  -0.05290   0.04231   0.00139
  18   38133.8    262.2   0.084681247   0.73106  -0.37360  -0.65925  -0.39608
  19   38510.1    259.7   0.002377649   0.02033  -0.00239   0.01955  -0.14120
  20   39019.3    256.3   0.036646120   0.30919   0.24244   0.11879  -0.48611
  21   39403.2    253.8   0.050408155   0.42116   0.05569  -0.21617  -0.60937
  22   39833.5    251.0   0.041756485   0.34510  -0.36764  -0.42686   0.16654

FINAL SINGLE POINT ENERGY     -3835.580018254815

DIPOLE MOMENT
-------------
                                X             Y             Z
Electronic contribution:     -2.54622      -9.14975      -7.64750
Nuclear contribution   :      2.16846       8.58039       7.54704
                        -----------------------------------------
Total Dipole Moment    :     -0.37776      -0.56936      -0.10046
                        -----------------------------------------
Magnitude (a.u.)       :      0.69063
Magnitude (Debye)      :      1.75544

Rotational constants in cm-1:     0.003221     0.000396     0.000355
Rotational constants in MHz :    96.556752    11.859377    10.639895

                             ****ORCA TERMINATED NORMALLY****
TOTAL RUN TIME: 0 days 0 hours 5 minutes 49 seconds 332 msec
