                         Program Version 4.2.0 -  RELEASE  -
|  1> # ORCA input file
|  2> # SCF done       -150.067542768508          0.000489585198
|  3> ! CAM-B3LYP def2-SVP def2/J RIJCOSX Grid4 TightSCF
|  4> %maxcore 5000
|  5> %tddft
|  6>     Mode sTDDFT
|  7>     Ethresh 5.0
|  8>     maxcore 5000
|  9> end
| 10>
| 11> %pal
| 12>   nprocs 6
| 13>   end
| 14> * xyz 0 1
| 15>    C       -2.53120         3.92802         4.48335
| 16>    S       -2.07948         3.57888         2.84351
| 17>    C       -0.93532         4.84095         2.95020
| 18>    C       -0.96141         5.42748         4.19089
| 19>    N       -1.87511         4.87596         5.03726
| 20>    C       -0.12428         6.54961         4.57656
| 21>    C        0.06239         7.70522         3.83982
| 22>    N       -0.63041         8.14104         2.69421
| 23>    O       -0.29113         9.21171         2.21740
| 24>    O       -1.52854         7.45185         2.24037
| 25>    C        1.05451         8.53562         4.48222
| 26>    C        1.52847         7.86908         5.55569
| 27>    C        0.82963         6.60718         5.67761
| 28>    C        1.04783         5.67547         6.67551
| 29>    C        0.08676         4.78844         7.23796
| 30>    C        0.56310         4.31731         8.42704
| 31>    C        1.88936         4.80858         8.63472
| 32>    N        2.67146         4.42676         9.72535
| 33>    O        2.15931         3.69914        10.56246
| 34>    O        3.82859         4.83363         9.80714
| 35>    C        2.25451         5.60221         7.53578
| 36>    C        3.54993         6.05327         7.27277
| 37>    C        4.05849         6.41429         6.04544
| 38>    C        5.36079         6.84846         5.78753
| 39>    S        5.64662         7.56003         4.22177
| 40>    C        7.26326         8.02297         4.61057
| 41>    C        7.62812         7.53029         5.88176
| 42>    C        6.55512         6.87193         6.55767
| 43>    C        6.79402         6.28031         7.80624
| 44>    C        8.03950         6.35030         8.38959
| 45>    C        8.29695         5.71535         9.71653
| 46>    C        9.09027         6.99346         7.70836
| 47>    C        8.90292         7.55751         6.47639
| 48>    C        7.95811         8.84364         3.68571
| 49>    C        8.99455         9.66375         3.97894
| 50>    C        9.67897        10.50223         3.02628
| 51>    C        9.79042        10.08980         1.68658
| 52>    C       10.54519        10.83782         0.81873
| 53>    C       11.22317        11.98573         1.25204
| 54>    C       11.96761        12.54192         0.09634
| 55>    O       12.67932        13.51141         0.03720
| 56>    N       11.69004        11.68893        -0.96284
| 57>    C       10.84639        10.64289        -0.62065
| 58>    O       10.47414         9.77641        -1.36989
| 59>    C       12.19836        11.89717        -2.30237
| 60>    C       11.30957        12.85600        -3.08635
| 61>    C       11.12986        12.41125         2.55416
| 62>    C       10.32303        11.69255         3.45109
| 63>    C       10.16452        12.23750         4.78106
| 64>    C        9.05967        12.14706         5.54556
| 65>    C        8.98165        12.71544         6.85321
| 66>    S        7.50458        12.54914         7.80805
| 67>    C        8.28120        13.41802         9.06345
| 68>    C        9.54851        13.76157         8.69287
| 69>    N        9.92040        13.36147         7.46682
| 70>    H       -3.30609         3.37478         4.97488
| 71>    H       -0.31045         5.08370         2.11551
| 72>    H        1.31851         9.51580         4.13573
| 73>    H        2.22870         8.23622         6.28039
| 74>    H       -0.89608         4.63728         6.83620
| 75>    H        0.05268         3.67936         9.12420
| 76>    H        4.20749         6.03869         8.12652
| 77>    H        3.40402         6.38064         5.18375
| 78>    H        6.02246         5.73111         8.31774
| 79>    H        7.37944         5.32188        10.14503
| 80>    H        8.72767         6.44006        10.40588
| 81>    H        9.01072         4.89885         9.60926
| 82>    H       10.07021         7.01117         8.16196
| 83>    H        9.73943         7.97864         5.94348
| 84>    H        7.53016         8.87298         2.69160
| 85>    H        9.33592         9.74282         5.00034
| 86>    H        9.31970         9.17873         1.35209
| 87>    H       12.23261        10.92039        -2.79044
| 88>    H       13.20825        12.30480        -2.21226
| 89>    H       10.30132        12.45593        -3.16586
| 90>    H       11.71084        12.99440        -4.08611
| 91>    H       11.26984        13.82200        -2.58836
| 92>    H       11.64530        13.30142         2.88075
| 93>    H       10.98998        12.82285         5.16367
| 94>    H        8.16131        11.66400         5.18798
| 95>    H        7.77294        13.62460         9.98305
| 96>    H       10.24550        14.31307         9.29740
| 97> *
| 98>
| 99>                          ****END OF INPUT****

CARTESIAN COORDINATES (ANGSTROEM)
---------------------------------
  C     -2.531200    3.928020    4.483350
  S     -2.079480    3.578880    2.843510
  C     -0.935320    4.840950    2.950200
  C     -0.961410    5.427480    4.190890
  N     -1.875110    4.875960    5.037260
  C     -0.124280    6.549610    4.576560
  C      0.062390    7.705220    3.839820
  N     -0.630410    8.141040    2.694210
  O     -0.291130    9.211710    2.217400
  O     -1.528540    7.451850    2.240370
  C      1.054510    8.535620    4.482220
  C      1.528470    7.869080    5.555690
  C      0.829630    6.607180    5.677610
  C      1.047830    5.675470    6.675510
  C      0.086760    4.788440    7.237960
  C      0.563100    4.317310    8.427040
  C      1.889360    4.808580    8.634720
  N      2.671460    4.426760    9.725350
  O      2.159310    3.699140   10.562460
  O      3.828590    4.833630    9.807140
  C      2.254510    5.602210    7.535780
  C      3.549930    6.053270    7.272770
  C      4.058490    6.414290    6.045440
  C      5.360790    6.848460    5.787530
  S      5.646620    7.560030    4.221770
  C      7.263260    8.022970    4.610570
  C      7.628120    7.530290    5.881760
  C      6.555120    6.871930    6.557670
  C      6.794020    6.280310    7.806240
  C      8.039500    6.350300    8.389590
  C      8.296950    5.715350    9.716530
  C      9.090270    6.993460    7.708360
  C      8.902920    7.557510    6.476390
  C      7.958110    8.843640    3.685710
  C      8.994550    9.663750    3.978940
  C      9.678970   10.502230    3.026280
  C      9.790420   10.089800    1.686580
  C     10.545190   10.837820    0.818730
  C     11.223170   11.985730    1.252040
  C     11.967610   12.541920    0.096340
  O     12.679320   13.511410    0.037200
  N     11.690040   11.688930   -0.962840
  C     10.846390   10.642890   -0.620650
  O     10.474140    9.776410   -1.369890
  C     12.198360   11.897170   -2.302370
  C     11.309570   12.856000   -3.086350
  C     11.129860   12.411250    2.554160
  C     10.323030   11.692550    3.451090
  C     10.164520   12.237500    4.781060
  C      9.059670   12.147060    5.545560
  C      8.981650   12.715440    6.853210
  S      7.504580   12.549140    7.808050
  C      8.281200   13.418020    9.063450
  C      9.548510   13.761570    8.692870
  N      9.920400   13.361470    7.466820
  H     -3.306090    3.374780    4.974880
  H     -0.310450    5.083700    2.115510
  H      1.318510    9.515800    4.135730
  H      2.228700    8.236220    6.280390
  H     -0.896080    4.637280    6.836200
  H      0.052680    3.679360    9.124200
  H      4.207490    6.038690    8.126520
  H      3.404020    6.380640    5.183750
  H      6.022460    5.731110    8.317740
  H      7.379440    5.321880   10.145030
  H      8.727670    6.440060   10.405880
  H      9.010720    4.898850    9.609260
  H     10.070210    7.011170    8.161960
  H      9.739430    7.978640    5.943480
  H      7.530160    8.872980    2.691600
  H      9.335920    9.742820    5.000340
  H      9.319700    9.178730    1.352090
  H     12.232610   10.920390   -2.790440
  H     13.208250   12.304800   -2.212260
  H     10.301320   12.455930   -3.165860
  H     11.710840   12.994400   -4.086110
  H     11.269840   13.822000   -2.588360
  H     11.645300   13.301420    2.880750
  H     10.989980   12.822850    5.163670
  H      8.161310   11.664000    5.187980
  H      7.772940   13.624600    9.983050
  H     10.245500   14.313070    9.297400

 Total Charge           Charge          ....    0
 Multiplicity           Mult            ....    1
 Number of Electrons    NEL             ....  404
 Basis Dimension        Dim             ....  917

ORBITAL ENERGIES
----------------

  NO   OCC          E(Eh)            E(eV)
   0   2.0000     -88.985033     -2421.4059
   1   2.0000     -88.969914     -2420.9945
   2   2.0000     -88.967323     -2420.9239
   3   2.0000     -19.230029      -523.2757
   4   2.0000     -19.227151      -523.1974
   5   2.0000     -19.218317      -522.9570
   6   2.0000     -19.218130      -522.9519
   7   2.0000     -19.213429      -522.8240
   8   2.0000     -19.213346      -522.8217
   9   2.0000     -14.637974      -398.3195
  10   2.0000     -14.628089      -398.0506
  11   2.0000     -14.454842      -393.3362
  12   2.0000     -14.413366      -392.2076
  13   2.0000     -14.412530      -392.1849
  14   2.0000     -10.393622      -282.8248
  15   2.0000     -10.393246      -282.8146
  16   2.0000     -10.340775      -281.3868
  17   2.0000     -10.335337      -281.2388
  18   2.0000     -10.329355      -281.0760
  19   2.0000     -10.321975      -280.8752
  20   2.0000     -10.319214      -280.8001
  21   2.0000     -10.318319      -280.7757
  22   2.0000     -10.313134      -280.6346
  23   2.0000     -10.311826      -280.5990
  24   2.0000     -10.311161      -280.5810
  25   2.0000     -10.310840      -280.5722
  26   2.0000     -10.310750      -280.5698
  27   2.0000     -10.308998      -280.5221
  28   2.0000     -10.307185      -280.4728
  29   2.0000     -10.306615      -280.4572
  30   2.0000     -10.306219      -280.4465
  31   2.0000     -10.305733      -280.4333
  32   2.0000     -10.305466      -280.4260
  33   2.0000     -10.304933      -280.4115
  34   2.0000     -10.303857      -280.3822
  35   2.0000     -10.303757      -280.3795
  36   2.0000     -10.303729      -280.3787
  37   2.0000     -10.302340      -280.3409
  38   2.0000     -10.302287      -280.3395
  39   2.0000     -10.301173      -280.3092
  40   2.0000     -10.299470      -280.2628
  41   2.0000     -10.299353      -280.2596
  42   2.0000     -10.298994      -280.2499
  43   2.0000     -10.295792      -280.1627
  44   2.0000     -10.293747      -280.1071
  45   2.0000     -10.292684      -280.0782
  46   2.0000     -10.288261      -279.9578
  47   2.0000     -10.287310      -279.9319
  48   2.0000     -10.284938      -279.8674
  49   2.0000     -10.280826      -279.7555
  50   2.0000     -10.277777      -279.6725
  51   2.0000     -10.273937      -279.5681
  52   2.0000     -10.269197      -279.4391
  53   2.0000     -10.260086      -279.1911
  54   2.0000     -10.259570      -279.1771
  55   2.0000      -8.080500      -219.8816
  56   2.0000      -8.066272      -219.4944
  57   2.0000      -8.064061      -219.4343
  58   2.0000      -6.049343      -164.6110
  59   2.0000      -6.045367      -164.5028
  60   2.0000      -6.043366      -164.4483
  61   2.0000      -6.035187      -164.2258
  62   2.0000      -6.033010      -164.1666
  63   2.0000      -6.031189      -164.1170
  64   2.0000      -6.028885      -164.0543
  65   2.0000      -6.028743      -164.0504
  66   2.0000      -6.026807      -163.9977
  67   2.0000      -1.308177       -35.5973
  68   2.0000      -1.295118       -35.2420
  69   2.0000      -1.159500       -31.5516
  70   2.0000      -1.135982       -30.9117
  71   2.0000      -1.124581       -30.6014
  72   2.0000      -1.111383       -30.2423
  73   2.0000      -1.068998       -29.0889
  74   2.0000      -1.068247       -29.0685
  75   2.0000      -1.050513       -28.5859
  76   2.0000      -1.015613       -27.6362
  77   2.0000      -1.002110       -27.2688
  78   2.0000      -0.989481       -26.9251
  79   2.0000      -0.982689       -26.7403
  80   2.0000      -0.951732       -25.8980
  81   2.0000      -0.935651       -25.4604
  82   2.0000      -0.924749       -25.1637
  83   2.0000      -0.906956       -24.6795
  84   2.0000      -0.899596       -24.4792
  85   2.0000      -0.898302       -24.4440
  86   2.0000      -0.895402       -24.3651
  87   2.0000      -0.886842       -24.1322
  88   2.0000      -0.874778       -23.8039
  89   2.0000      -0.869592       -23.6628
  90   2.0000      -0.868752       -23.6399
  91   2.0000      -0.862072       -23.4582
  92   2.0000      -0.854761       -23.2592
  93   2.0000      -0.843414       -22.9505
  94   2.0000      -0.830570       -22.6010
  95   2.0000      -0.813936       -22.1483
  96   2.0000      -0.807679       -21.9781
  97   2.0000      -0.789997       -21.4969
  98   2.0000      -0.782497       -21.2928
  99   2.0000      -0.773832       -21.0570
 100   2.0000      -0.762473       -20.7479
 101   2.0000      -0.752169       -20.4676
 102   2.0000      -0.732554       -19.9338
 103   2.0000      -0.719583       -19.5809
 104   2.0000      -0.715054       -19.4576
 105   2.0000      -0.711761       -19.3680
 106   2.0000      -0.705082       -19.1863
 107   2.0000      -0.697082       -18.9686
 108   2.0000      -0.689678       -18.7671
 109   2.0000      -0.687729       -18.7141
 110   2.0000      -0.681938       -18.5565
 111   2.0000      -0.674668       -18.3587
 112   2.0000      -0.663142       -18.0450
 113   2.0000      -0.656979       -17.8773
 114   2.0000      -0.649022       -17.6608
 115   2.0000      -0.644704       -17.5433
 116   2.0000      -0.631195       -17.1757
 117   2.0000      -0.622832       -16.9481
 118   2.0000      -0.619188       -16.8490
 119   2.0000      -0.619056       -16.8454
 120   2.0000      -0.614196       -16.7131
 121   2.0000      -0.612132       -16.6569
 122   2.0000      -0.608897       -16.5689
 123   2.0000      -0.605175       -16.4676
 124   2.0000      -0.604547       -16.4506
 125   2.0000      -0.598607       -16.2889
 126   2.0000      -0.594373       -16.1737
 127   2.0000      -0.586943       -15.9715
 128   2.0000      -0.578724       -15.7479
 129   2.0000      -0.575704       -15.6657
 130   2.0000      -0.571138       -15.5414
 131   2.0000      -0.566685       -15.4203
 132   2.0000      -0.563429       -15.3317
 133   2.0000      -0.561219       -15.2716
 134   2.0000      -0.560003       -15.2385
 135   2.0000      -0.545782       -14.8515
 136   2.0000      -0.541249       -14.7281
 137   2.0000      -0.537882       -14.6365
 138   2.0000      -0.534444       -14.5430
 139   2.0000      -0.531132       -14.4528
 140   2.0000      -0.528106       -14.3705
 141   2.0000      -0.524568       -14.2742
 142   2.0000      -0.522522       -14.2186
 143   2.0000      -0.520247       -14.1567
 144   2.0000      -0.518685       -14.1141
 145   2.0000      -0.516166       -14.0456
 146   2.0000      -0.513596       -13.9757
 147   2.0000      -0.509907       -13.8753
 148   2.0000      -0.508963       -13.8496
 149   2.0000      -0.505591       -13.7578
 150   2.0000      -0.504952       -13.7404
 151   2.0000      -0.499711       -13.5978
 152   2.0000      -0.494559       -13.4576
 153   2.0000      -0.490688       -13.3523
 154   2.0000      -0.489861       -13.3298
 155   2.0000      -0.482892       -13.1402
 156   2.0000      -0.482492       -13.1293
 157   2.0000      -0.479809       -13.0563
 158   2.0000      -0.479601       -13.0506
 159   2.0000      -0.478376       -13.0173
 160   2.0000      -0.472980       -12.8704
 161   2.0000      -0.468550       -12.7499
 162   2.0000      -0.464503       -12.6398
 163   2.0000      -0.463468       -12.6116
 164   2.0000      -0.462433       -12.5834
 165   2.0000      -0.456065       -12.4101
 166   2.0000      -0.454239       -12.3605
 167   2.0000      -0.451163       -12.2768
 168   2.0000      -0.449408       -12.2290
 169   2.0000      -0.445787       -12.1305
 170   2.0000      -0.444038       -12.0829
 171   2.0000      -0.438782       -11.9399
 172   2.0000      -0.430601       -11.7172
 173   2.0000      -0.427312       -11.6277
 174   2.0000      -0.427041       -11.6204
 175   2.0000      -0.423755       -11.5310
 176   2.0000      -0.417162       -11.3515
 177   2.0000      -0.404373       -11.0036
 178   2.0000      -0.384411       -10.4604
 179   2.0000      -0.379035       -10.3141
 180   2.0000      -0.370062       -10.0699
 181   2.0000      -0.368822       -10.0362
 182   2.0000      -0.367167        -9.9911
 183   2.0000      -0.364425        -9.9165
 184   2.0000      -0.363272        -9.8851
 185   2.0000      -0.361855        -9.8466
 186   2.0000      -0.356460        -9.6998
 187   2.0000      -0.354741        -9.6530
 188   2.0000      -0.354394        -9.6436
 189   2.0000      -0.350293        -9.5319
 190   2.0000      -0.350124        -9.5274
 191   2.0000      -0.345638        -9.4053
 192   2.0000      -0.344982        -9.3874
 193   2.0000      -0.343866        -9.3571
 194   2.0000      -0.331627        -9.0240
 195   2.0000      -0.327889        -8.9223
 196   2.0000      -0.325997        -8.8708
 197   2.0000      -0.323462        -8.8018
 198   2.0000      -0.300153        -8.1676
 199   2.0000      -0.288625        -7.8539
 200   2.0000      -0.283400        -7.7117
 201   2.0000      -0.237316        -6.4577
 202   0.0000      -0.125180        -3.4063
 203   0.0000      -0.081573        -2.2197
 204   0.0000      -0.060594        -1.6488
 205   0.0000      -0.035610        -0.9690
 206   0.0000      -0.026116        -0.7106

MULLIKEN ATOMIC CHARGES
-----------------------
   0 C :    0.011494
   1 S :    0.107953
   2 C :   -0.046256
   3 C :   -0.075692
   4 N :   -0.086045
   5 C :    0.106786
   6 C :    0.053351
   7 N :    0.263049
   8 O :   -0.249651
   9 O :   -0.244956
  10 C :   -0.001516
  11 C :   -0.021223
  12 C :    0.017041
  13 C :    0.036022
  14 C :   -0.000074
  15 C :    0.025459
  16 C :    0.061527
  17 N :    0.284292
  18 O :   -0.265530
  19 O :   -0.289040
  20 C :    0.042289
  21 C :   -0.083791
  22 C :    0.077973
  23 C :   -0.154422
  24 S :    0.185399
  25 C :   -0.116115
  26 C :    0.088290
  27 C :    0.158269
  28 C :   -0.096006
  29 C :   -0.043519
  30 C :    0.085670
  31 C :   -0.001335
  32 C :   -0.032384
  33 C :    0.049375
  34 C :   -0.065312
  35 C :    0.084448
  36 C :   -0.086545
  37 C :    0.015341
  38 C :    0.015095
  39 C :    0.191138
  40 O :   -0.155394
  41 N :   -0.303702
  42 C :    0.189093
  43 O :   -0.157025
  44 C :    0.133780
  45 C :   -0.007408
  46 C :   -0.085230
  47 C :    0.087052
  48 C :   -0.022981
  49 C :    0.070176
  50 C :   -0.165198
  51 S :    0.114647
  52 C :   -0.076106
  53 C :    0.064266
  54 N :   -0.062697
  55 H :    0.041592
  56 H :    0.022019
  57 H :   -0.008644
  58 H :   -0.000038
  59 H :   -0.010660
  60 H :    0.002432
  61 H :    0.019581
  62 H :    0.017296
  63 H :   -0.012560
  64 H :    0.035042
  65 H :    0.028640
  66 H :    0.035041
  67 H :   -0.020554
  68 H :   -0.014220
  69 H :   -0.001173
  70 H :    0.031289
  71 H :   -0.006459
  72 H :    0.033176
  73 H :    0.029728
  74 H :    0.024154
  75 H :    0.022970
  76 H :    0.029247
  77 H :   -0.003369
  78 H :    0.023952
  79 H :    0.012478
  80 H :    0.037522
  81 H :    0.007395
Sum of atomic charges:   -0.0000000

LOEWDIN ATOMIC CHARGES
----------------------
   0 C :   -0.129231
   1 S :    0.439165
   2 C :   -0.167145
   3 C :   -0.056223
   4 N :   -0.080412
   5 C :   -0.001212
   6 C :   -0.041524
   7 N :    0.283675
   8 O :   -0.214285
   9 O :   -0.211316
  10 C :   -0.022511
  11 C :   -0.041332
  12 C :    0.010511
  13 C :    0.057148
  14 C :   -0.056047
  15 C :    0.037288
  16 C :   -0.084110
  17 N :    0.288644
  18 O :   -0.229424
  19 O :   -0.253213
  20 C :    0.024839
  21 C :   -0.034242
  22 C :    0.002587
  23 C :   -0.181486
  24 S :    0.497274
  25 C :   -0.146424
  26 C :   -0.050169
  27 C :   -0.021313
  28 C :   -0.023602
  29 C :   -0.002661
  30 C :   -0.042837
  31 C :   -0.017628
  32 C :   -0.008421
  33 C :   -0.048755
  34 C :   -0.004072
  35 C :   -0.011117
  36 C :    0.019841
  37 C :   -0.050183
  38 C :   -0.049753
  39 C :    0.087950
  40 O :   -0.156511
  41 N :   -0.035379
  42 C :    0.087451
  43 O :   -0.158277
  44 C :    0.044735
  45 C :   -0.059318
  46 C :    0.021898
  47 C :   -0.005706
  48 C :    0.005827
  49 C :   -0.043735
  50 C :   -0.138175
  51 S :    0.418299
  52 C :   -0.199827
  53 C :   -0.031547
  54 N :   -0.096069
  55 H :    0.019300
  56 H :    0.026783
  57 H :    0.032717
  58 H :    0.029076
  59 H :    0.024175
  60 H :    0.037184
  61 H :    0.032321
  62 H :    0.035424
  63 H :    0.035044
  64 H :    0.039017
  65 H :    0.037758
  66 H :    0.040107
  67 H :    0.030685
  68 H :    0.031373
  69 H :    0.031864
  70 H :    0.034348
  71 H :    0.038212
  72 H :    0.032675
  73 H :    0.032007
  74 H :    0.027572
  75 H :    0.030621
  76 H :    0.028704
  77 H :    0.041602
  78 H :    0.040683
  79 H :    0.033434
  80 H :    0.028633
  81 H :    0.026740

  Mayer bond orders larger than 0.100000
B(  0-C ,  1-S ) :   1.1599 B(  0-C ,  4-N ) :   1.6802 B(  0-C , 55-H ) :   0.9654
B(  1-S ,  2-C ) :   1.1798 B(  2-C ,  3-C ) :   1.5900 B(  2-C , 56-H ) :   0.9657
B(  3-C ,  4-N ) :   1.3655 B(  3-C ,  5-C ) :   0.9489 B(  5-C ,  6-C ) :   1.5921
B(  5-C , 12-C ) :   1.1254 B(  6-C ,  7-N ) :   0.9336 B(  6-C , 10-C ) :   1.1257
B(  7-N ,  8-O ) :   1.5304 B(  7-N ,  9-O ) :   1.5218 B(  8-O ,  9-O ) :   0.2633
B( 10-C , 11-C ) :   1.5922 B( 10-C , 57-H ) :   1.0165 B( 11-C , 12-C ) :   1.1062
B( 11-C , 58-H ) :   0.9951 B( 12-C , 13-C ) :   1.4592 B( 13-C , 14-C ) :   1.1961
B( 13-C , 20-C ) :   0.9729 B( 14-C , 15-C ) :   1.5046 B( 14-C , 59-H ) :   0.9831
B( 15-C , 16-C ) :   1.1511 B( 15-C , 60-H ) :   1.0110 B( 16-C , 17-N ) :   0.9914
B( 16-C , 20-C ) :   1.4066 B( 17-N , 18-O ) :   1.5208 B( 17-N , 19-O ) :   1.4492
B( 18-O , 19-O ) :   0.2342 B( 20-C , 21-C ) :   1.3138 B( 21-C , 22-C ) :   1.4410
B( 21-C , 61-H ) :   0.9452 B( 22-C , 23-C ) :   1.2801 B( 22-C , 62-H ) :   0.9347
B( 23-C , 24-S ) :   1.1227 B( 23-C , 27-C ) :   1.2328 B( 24-S , 25-C ) :   1.1955
B( 25-C , 26-C ) :   1.2854 B( 25-C , 33-C ) :   1.1440 B( 26-C , 27-C ) :   1.2405
B( 26-C , 32-C ) :   1.2176 B( 27-C , 28-C ) :   1.2223 B( 28-C , 29-C ) :   1.5056
B( 28-C , 63-H ) :   0.9956 B( 29-C , 30-C ) :   1.0520 B( 29-C , 31-C ) :   1.2406
B( 30-C , 64-H ) :   0.9610 B( 30-C , 65-H ) :   0.9531 B( 30-C , 66-H ) :   0.9522
B( 31-C , 32-C ) :   1.5206 B( 31-C , 67-H ) :   0.9927 B( 32-C , 68-H ) :   0.9913
B( 33-C , 34-C ) :   1.6816 B( 33-C , 69-H ) :   0.9505 B( 34-C , 35-C ) :   1.0743
B( 34-C , 70-H ) :   0.9569 B( 35-C , 36-C ) :   1.3016 B( 35-C , 47-C ) :   1.3262
B( 36-C , 37-C ) :   1.4070 B( 36-C , 71-H ) :   1.0054 B( 37-C , 38-C ) :   1.3384
B( 37-C , 42-C ) :   0.8757 B( 38-C , 39-C ) :   0.8763 B( 38-C , 46-C ) :   1.4007
B( 39-C , 40-O ) :   2.2300 B( 39-C , 41-N ) :   1.0611 B( 41-N , 42-C ) :   1.0659
B( 41-N , 44-C ) :   0.9173 B( 42-C , 43-O ) :   2.2288 B( 44-C , 45-C ) :   1.1249
B( 44-C , 72-H ) :   0.9416 B( 44-C , 73-H ) :   0.9431 B( 45-C , 74-H ) :   0.9691
B( 45-C , 75-H ) :   0.9700 B( 45-C , 76-H ) :   0.9696 B( 46-C , 47-C ) :   1.2853
B( 46-C , 77-H ) :   1.0161 B( 47-C , 48-C ) :   1.0580 B( 48-C , 49-C ) :   1.7470
B( 48-C , 78-H ) :   0.9674 B( 49-C , 50-C ) :   1.0766 B( 49-C , 79-H ) :   0.9491
B( 50-C , 51-S ) :   1.1202 B( 50-C , 54-N ) :   1.7293 B( 51-S , 52-C ) :   1.1728
B( 52-C , 53-C ) :   1.5565 B( 52-C , 80-H ) :   0.9711 B( 53-C , 54-N ) :   1.3611
B( 53-C , 81-H ) :   0.9945

-----------------------------------------------------------------------------
         ABSORPTION SPECTRUM VIA TRANSITION ELECTRIC DIPOLE MOMENTS
-----------------------------------------------------------------------------
State   Energy  Wavelength   fosc         T2         TX        TY        TZ
        (cm-1)    (nm)                  (au**2)     (au)      (au)      (au)
-----------------------------------------------------------------------------
   0    7993.0   1251.1   0.297540201  12.25494  -3.35346  -0.98593   0.19290
   1   15943.7    627.2   0.009008116   0.18600   0.22644  -0.15961  -0.33054
   2   18509.3    540.3   0.711297424  12.65136   2.27307   2.25516  -1.54879
   3   19825.3    504.4   0.051483404   0.85491  -0.75365  -0.51982  -0.12926
   4   22857.3    437.5   0.028025484   0.40365  -0.49988   0.33244   0.20796
   5   23721.5    421.6   0.014261604   0.19793  -0.09341  -0.18661  -0.39291
   6   23865.9    419.0   0.107332167   1.48056   0.65297  -0.70503  -0.74642
   7   26924.5    371.4   0.047055047   0.57535  -0.04003   0.48779  -0.57949
   8   27124.2    368.7   0.018098607   0.21967  -0.10508   0.19209  -0.41440
   9   27385.1    365.2   0.393473447   4.73017  -0.09132   1.34108  -1.70978
  10   27958.2    357.7   0.037690569   0.44381  -0.53621   0.31044  -0.24477
  11   28534.9    350.4   0.024075556   0.27776  -0.28795   0.14855   0.41567
  12   29161.6    342.9   0.166286745   1.87725  -0.25952   0.17488  -1.33391
  13   29300.8    341.3   0.013101617   0.14720  -0.37068   0.03693  -0.09185
  14   29743.8    336.2   0.152335071   1.68608  -0.51451  -0.60664   1.02633
  15   30208.2    331.0   0.196150893   2.13767  -0.13578   0.26525   1.43139
  16   31442.8    318.0   0.035024411   0.36671  -0.38567  -0.01014   0.46676
  17   31466.4    317.8   0.145847986   1.52591   0.16667   0.70277  -1.00212
  18   32129.4    311.2   0.170954438   1.75167   0.52394  -0.20048  -1.19874
  19   32487.3    307.8   0.147319773   1.49287   0.29444  -0.80499   0.87073
  20   32553.7    307.2   0.059445850   0.60117   0.33808   0.24184  -0.65451
  21   33103.3    302.1   0.011961341   0.11896   0.01640   0.30145  -0.16678
  22   33379.5    299.6   0.011469959   0.11312  -0.24583  -0.13437  -0.18611
  23   33778.6    296.0   0.187582770   1.82822  -0.61117  -0.00513   1.20609
  24   34215.4    292.3   0.059532644   0.57281   0.25231  -0.18157   0.69006
  25   34567.2    289.3   0.117812551   1.12203   0.34207  -0.17472  -0.98716
  26   34678.3    288.4   0.136278612   1.29374   0.40417  -0.21400  -1.04143
  27   35551.4    281.3   0.026285257   0.24341  -0.13923   0.46208   0.10247
  28   35879.0    278.7   0.087607547   0.80385  -0.10480   0.55922  -0.69292
  29   36176.9    276.4   0.023712215   0.21578   0.01679   0.46085  -0.05584
  30   36358.2    275.0   0.010208104   0.09243   0.07509   0.28861  -0.05915
  31   36833.6    271.5   0.229959147   2.05533  -0.07999   0.37970  -1.38013
  32   37265.6    268.3   0.042903869   0.37902  -0.01421  -0.04541  -0.61381
  33   37575.3    266.1   0.070285610   0.61580  -0.57161   0.32008  -0.43198
  34   37677.5    265.4   0.140253106   1.22548   0.97140  -0.34268   0.40551
  35   37904.1    263.8   0.017787273   0.15449   0.28450   0.25641  -0.08834
  36   38244.3    261.5   0.094280326   0.81158   0.43295   0.78655   0.07392
  37   38530.0    259.5   0.224960690   1.92213  -0.10120   0.26598  -1.35689
  38   39134.3    255.5   0.017722738   0.14909  -0.35914   0.04577   0.13421
  39   39245.7    254.8   0.002597098   0.02179  -0.02749   0.03689  -0.14025
  40   39312.4    254.4   0.061264353   0.51304  -0.69765   0.15871   0.03380
  41   39515.4    253.1   0.001989942   0.01658  -0.10828  -0.04050   0.05670
  42   39654.3    252.2   0.063903075   0.53053  -0.66271   0.10349  -0.28395
  43   39796.4    251.3   0.049775581   0.41176  -0.10154   0.05102   0.63155
  44   40098.9    249.4   0.008944826   0.07344   0.06665  -0.15714  -0.21048

FINAL SINGLE POINT ENERGY     -3494.812875414358

DIPOLE MOMENT
-------------
                                X             Y             Z
Electronic contribution:    -37.85915     -12.51704       2.54304
Nuclear contribution   :     39.61106      12.62437      -2.25150
                        -----------------------------------------
Total Dipole Moment    :      1.75191       0.10732       0.29155
                        -----------------------------------------
Magnitude (a.u.)       :      1.77924
Magnitude (Debye)      :      4.52247

Rotational constants in cm-1:     0.001760     0.000645     0.000537
Rotational constants in MHz :    52.760930    19.329141    16.103342

                             ****ORCA TERMINATED NORMALLY****
TOTAL RUN TIME: 0 days 0 hours 7 minutes 26 seconds 723 msec
