                         Program Version 4.2.0 -  RELEASE  -
|  1> # ORCA input file
|  2> # SCF done       -142.012207088432          0.000518015558
|  3> ! CAM-B3LYP def2-SVP def2/J RIJCOSX Grid4 TightSCF
|  4> %maxcore 5000
|  5> %tddft
|  6>     Mode sTDDFT
|  7>     Ethresh 5.0
|  8>     maxcore 5000
|  9> end
| 10>
| 11> %pal
| 12>   nprocs 6
| 13>   end
| 14> * xyz 0 1
| 15>    C        0.95019         1.87310         4.84325
| 16>    S       -0.36258         1.19417         3.92109
| 17>    C        0.57623         1.41730         2.51230
| 18>    C        1.78969         1.97779         2.82989
| 19>    N        1.96860         2.22266         4.15751
| 20>    C        2.81787         2.30381         1.88784
| 21>    S        4.33638         3.01286         2.37958
| 22>    C        4.73849         2.98951         0.65820
| 23>    N        3.78085         2.49203        -0.06776
| 24>    N        2.72890         2.11575         0.60428
| 25>    C        5.98476         3.48380         0.17831
| 26>    C        6.28735         3.49216        -1.14152
| 27>    C        7.44789         3.97499        -1.80460
| 28>    N        8.59176         4.54554        -1.29075
| 29>    C        8.98940         4.70370         0.08708
| 30>    C        9.42166         3.37864         0.71049
| 31>    C        9.48685         4.93707        -2.31458
| 32>    O       10.55148         5.47572        -2.10167
| 33>    C        8.81641         4.56104        -3.53750
| 34>    C        7.57805         3.97819        -3.19278
| 35>    C        6.90775         3.61126        -4.42260
| 36>    O        5.85043         3.06734        -4.64558
| 37>    N        7.80110         4.02281        -5.44301
| 38>    C        7.46277         3.77245        -6.82395
| 39>    C        6.67707         4.92884        -7.43907
| 40>    C        8.93539         4.59246        -4.92487
| 41>    C       10.07190         5.13485        -5.58667
| 42>    C       10.19966         5.50250        -6.88035
| 43>    C       11.40176         6.09244        -7.40332
| 44>    C       11.38277         7.12936        -8.36066
| 45>    C       10.13387         7.65999        -8.94109
| 46>    O        9.00811         7.33118        -8.70010
| 47>    S       10.52742         8.94468       -10.11965
| 48>    C       12.29298         8.83928        -9.79121
| 49>    O       13.07730         9.56889       -10.31735
| 50>    C       12.54070         7.76085        -8.81314
| 51>    C       13.83226         7.42039        -8.35108
| 52>    C       13.85128         6.31470        -7.47771
| 53>    C       12.69516         5.68211        -7.03332
| 54>    C       13.11038         4.45974        -6.29999
| 55>    O       12.46275         3.58210        -5.82146
| 56>    O       14.48318         4.43537        -6.30830
| 57>    C       15.00110         5.50590        -6.99309
| 58>    O       16.17447         5.64664        -7.14380
| 59>    C       15.00767         8.12152        -8.78764
| 60>    C       16.09625         8.34555        -8.02471
| 61>    C       17.23731         9.03876        -8.52163
| 62>    S       18.62597         9.33665        -7.47307
| 63>    C       19.39413        10.10238        -8.79367
| 64>    C       18.58435        10.08383        -9.89603
| 65>    N       17.39626         9.49269        -9.72506
| 66>    H        0.88039         1.97894         5.90693
| 67>    H        0.22298         1.14302         1.54024
| 68>    H        6.65134         3.85358         0.93968
| 69>    H        5.54243         3.09542        -1.82040
| 70>    H        8.18386         5.17491         0.65550
| 71>    H        9.84270         5.38906         0.06796
| 72>    H        8.62569         2.63931         0.65930
| 73>    H        9.69379         3.53210         1.75120
| 74>    H       10.28647         2.98848         0.17971
| 75>    H        6.82975         2.87927        -6.82361
| 76>    H        8.37536         3.55715        -7.38333
| 77>    H        5.74908         5.06908        -6.89056
| 78>    H        6.43630         4.69759        -8.47296
| 79>    H        7.23733         5.86013        -7.41381
| 80>    H       10.88781         5.32495        -4.90128
| 81>    H        9.36143         5.46908        -7.55654
| 82>    H       14.98946         8.54984        -9.77968
| 83>    H       16.14521         8.03090        -6.99340
| 84>    H       20.37721        10.51608        -8.69590
| 85>    H       18.83090        10.49911       -10.85634
| 86> *
| 87>
| 88>                          ****END OF INPUT****

CARTESIAN COORDINATES (ANGSTROEM)
---------------------------------
  C      0.950190    1.873100    4.843250
  S     -0.362580    1.194170    3.921090
  C      0.576230    1.417300    2.512300
  C      1.789690    1.977790    2.829890
  N      1.968600    2.222660    4.157510
  C      2.817870    2.303810    1.887840
  S      4.336380    3.012860    2.379580
  C      4.738490    2.989510    0.658200
  N      3.780850    2.492030   -0.067760
  N      2.728900    2.115750    0.604280
  C      5.984760    3.483800    0.178310
  C      6.287350    3.492160   -1.141520
  C      7.447890    3.974990   -1.804600
  N      8.591760    4.545540   -1.290750
  C      8.989400    4.703700    0.087080
  C      9.421660    3.378640    0.710490
  C      9.486850    4.937070   -2.314580
  O     10.551480    5.475720   -2.101670
  C      8.816410    4.561040   -3.537500
  C      7.578050    3.978190   -3.192780
  C      6.907750    3.611260   -4.422600
  O      5.850430    3.067340   -4.645580
  N      7.801100    4.022810   -5.443010
  C      7.462770    3.772450   -6.823950
  C      6.677070    4.928840   -7.439070
  C      8.935390    4.592460   -4.924870
  C     10.071900    5.134850   -5.586670
  C     10.199660    5.502500   -6.880350
  C     11.401760    6.092440   -7.403320
  C     11.382770    7.129360   -8.360660
  C     10.133870    7.659990   -8.941090
  O      9.008110    7.331180   -8.700100
  S     10.527420    8.944680  -10.119650
  C     12.292980    8.839280   -9.791210
  O     13.077300    9.568890  -10.317350
  C     12.540700    7.760850   -8.813140
  C     13.832260    7.420390   -8.351080
  C     13.851280    6.314700   -7.477710
  C     12.695160    5.682110   -7.033320
  C     13.110380    4.459740   -6.299990
  O     12.462750    3.582100   -5.821460
  O     14.483180    4.435370   -6.308300
  C     15.001100    5.505900   -6.993090
  O     16.174470    5.646640   -7.143800
  C     15.007670    8.121520   -8.787640
  C     16.096250    8.345550   -8.024710
  C     17.237310    9.038760   -8.521630
  S     18.625970    9.336650   -7.473070
  C     19.394130   10.102380   -8.793670
  C     18.584350   10.083830   -9.896030
  N     17.396260    9.492690   -9.725060
  H      0.880390    1.978940    5.906930
  H      0.222980    1.143020    1.540240
  H      6.651340    3.853580    0.939680
  H      5.542430    3.095420   -1.820400
  H      8.183860    5.174910    0.655500
  H      9.842700    5.389060    0.067960
  H      8.625690    2.639310    0.659300
  H      9.693790    3.532100    1.751200
  H     10.286470    2.988480    0.179710
  H      6.829750    2.879270   -6.823610
  H      8.375360    3.557150   -7.383330
  H      5.749080    5.069080   -6.890560
  H      6.436300    4.697590   -8.472960
  H      7.237330    5.860130   -7.413810
  H     10.887810    5.324950   -4.901280
  H      9.361430    5.469080   -7.556540
  H     14.989460    8.549840   -9.779680
  H     16.145210    8.030900   -6.993400
  H     20.377210   10.516080   -8.695900
  H     18.830900   10.499110  -10.856340

 Total Charge           Charge          ....    0
 Multiplicity           Mult            ....    1
 Number of Electrons    NEL             ....  386
 Basis Dimension        Dim             ....  830

ORBITAL ENERGIES
----------------

  NO   OCC          E(Eh)            E(eV)
   0   2.0000     -88.975702     -2421.1519
   1   2.0000     -88.970623     -2421.0137
   2   2.0000     -88.966853     -2420.9112
   3   2.0000     -88.957125     -2420.6464
   4   2.0000     -19.295228      -525.0498
   5   2.0000     -19.251232      -523.8527
   6   2.0000     -19.249418      -523.8033
   7   2.0000     -19.242219      -523.6074
   8   2.0000     -19.241141      -523.5781
   9   2.0000     -19.191735      -522.2337
  10   2.0000     -19.188369      -522.1421
  11   2.0000     -14.453394      -393.2969
  12   2.0000     -14.451918      -393.2567
  13   2.0000     -14.434477      -392.7821
  14   2.0000     -14.433240      -392.7484
  15   2.0000     -14.422380      -392.4529
  16   2.0000     -14.409126      -392.0922
  17   2.0000     -10.437644      -284.0227
  18   2.0000     -10.436190      -283.9832
  19   2.0000     -10.413278      -283.3597
  20   2.0000     -10.411623      -283.3147
  21   2.0000     -10.374835      -282.3136
  22   2.0000     -10.372023      -282.2371
  23   2.0000     -10.341537      -281.4075
  24   2.0000     -10.340784      -281.3870
  25   2.0000     -10.340693      -281.3846
  26   2.0000     -10.340662      -281.3837
  27   2.0000     -10.339911      -281.3633
  28   2.0000     -10.339125      -281.3419
  29   2.0000     -10.337661      -281.3020
  30   2.0000     -10.335468      -281.2424
  31   2.0000     -10.334122      -281.2057
  32   2.0000     -10.333432      -281.1870
  33   2.0000     -10.333271      -281.1826
  34   2.0000     -10.332925      -281.1732
  35   2.0000     -10.320915      -280.8464
  36   2.0000     -10.310762      -280.5701
  37   2.0000     -10.307894      -280.4921
  38   2.0000     -10.303404      -280.3699
  39   2.0000     -10.302717      -280.3512
  40   2.0000     -10.302703      -280.3508
  41   2.0000     -10.302329      -280.3406
  42   2.0000     -10.302166      -280.3362
  43   2.0000     -10.299959      -280.2761
  44   2.0000     -10.298605      -280.2393
  45   2.0000     -10.295097      -280.1438
  46   2.0000     -10.288187      -279.9558
  47   2.0000     -10.263801      -279.2922
  48   2.0000     -10.263175      -279.2752
  49   2.0000     -10.262635      -279.2605
  50   2.0000     -10.252841      -278.9940
  51   2.0000      -8.072515      -219.6643
  52   2.0000      -8.066678      -219.5055
  53   2.0000      -8.063212      -219.4112
  54   2.0000      -8.056448      -219.2271
  55   2.0000      -6.041469      -164.3967
  56   2.0000      -6.037190      -164.2803
  57   2.0000      -6.035370      -164.2308
  58   2.0000      -6.035178      -164.2256
  59   2.0000      -6.032050      -164.1404
  60   2.0000      -6.031946      -164.1376
  61   2.0000      -6.029069      -164.0593
  62   2.0000      -6.028090      -164.0327
  63   2.0000      -6.025920      -163.9736
  64   2.0000      -6.025315      -163.9572
  65   2.0000      -6.022031      -163.8678
  66   2.0000      -6.017479      -163.7439
  67   2.0000      -1.245935       -33.9036
  68   2.0000      -1.175795       -31.9950
  69   2.0000      -1.171659       -31.8825
  70   2.0000      -1.170666       -31.8554
  71   2.0000      -1.139198       -30.9992
  72   2.0000      -1.132935       -30.8287
  73   2.0000      -1.132279       -30.8109
  74   2.0000      -1.125959       -30.6389
  75   2.0000      -1.077356       -29.3163
  76   2.0000      -1.065684       -28.9987
  77   2.0000      -1.062414       -28.9097
  78   2.0000      -1.053155       -28.6578
  79   2.0000      -1.021957       -27.8089
  80   2.0000      -0.958892       -26.0928
  81   2.0000      -0.944164       -25.6920
  82   2.0000      -0.943345       -25.6697
  83   2.0000      -0.928332       -25.2612
  84   2.0000      -0.920007       -25.0347
  85   2.0000      -0.909316       -24.7437
  86   2.0000      -0.904787       -24.6205
  87   2.0000      -0.895482       -24.3673
  88   2.0000      -0.887705       -24.1557
  89   2.0000      -0.883461       -24.0402
  90   2.0000      -0.877376       -23.8746
  91   2.0000      -0.867067       -23.5941
  92   2.0000      -0.839545       -22.8452
  93   2.0000      -0.826900       -22.5011
  94   2.0000      -0.818257       -22.2659
  95   2.0000      -0.807796       -21.9813
  96   2.0000      -0.803904       -21.8754
  97   2.0000      -0.791789       -21.5457
  98   2.0000      -0.772351       -21.0167
  99   2.0000      -0.761480       -20.7209
 100   2.0000      -0.757812       -20.6211
 101   2.0000      -0.733457       -19.9584
 102   2.0000      -0.722847       -19.6697
 103   2.0000      -0.720764       -19.6130
 104   2.0000      -0.714400       -19.4398
 105   2.0000      -0.705027       -19.1848
 106   2.0000      -0.694560       -18.8999
 107   2.0000      -0.684374       -18.6228
 108   2.0000      -0.683198       -18.5908
 109   2.0000      -0.680285       -18.5115
 110   2.0000      -0.661757       -18.0073
 111   2.0000      -0.652186       -17.7469
 112   2.0000      -0.646123       -17.5819
 113   2.0000      -0.642920       -17.4947
 114   2.0000      -0.635210       -17.2850
 115   2.0000      -0.630118       -17.1464
 116   2.0000      -0.627868       -17.0852
 117   2.0000      -0.609843       -16.5947
 118   2.0000      -0.606871       -16.5138
 119   2.0000      -0.601796       -16.3757
 120   2.0000      -0.596989       -16.2449
 121   2.0000      -0.592658       -16.1270
 122   2.0000      -0.582080       -15.8392
 123   2.0000      -0.578516       -15.7422
 124   2.0000      -0.573051       -15.5935
 125   2.0000      -0.569922       -15.5084
 126   2.0000      -0.564469       -15.3600
 127   2.0000      -0.563261       -15.3271
 128   2.0000      -0.561046       -15.2668
 129   2.0000      -0.555026       -15.1030
 130   2.0000      -0.550671       -14.9845
 131   2.0000      -0.548963       -14.9380
 132   2.0000      -0.545961       -14.8563
 133   2.0000      -0.544187       -14.8081
 134   2.0000      -0.533677       -14.5221
 135   2.0000      -0.531973       -14.4757
 136   2.0000      -0.526591       -14.3293
 137   2.0000      -0.524695       -14.2777
 138   2.0000      -0.522125       -14.2078
 139   2.0000      -0.520429       -14.1616
 140   2.0000      -0.515906       -14.0385
 141   2.0000      -0.514483       -13.9998
 142   2.0000      -0.509739       -13.8707
 143   2.0000      -0.509468       -13.8633
 144   2.0000      -0.509110       -13.8536
 145   2.0000      -0.507731       -13.8161
 146   2.0000      -0.506578       -13.7847
 147   2.0000      -0.502976       -13.6867
 148   2.0000      -0.499796       -13.6001
 149   2.0000      -0.498787       -13.5727
 150   2.0000      -0.494401       -13.4533
 151   2.0000      -0.486636       -13.2420
 152   2.0000      -0.483706       -13.1623
 153   2.0000      -0.475986       -12.9522
 154   2.0000      -0.470331       -12.7984
 155   2.0000      -0.469780       -12.7834
 156   2.0000      -0.466374       -12.6907
 157   2.0000      -0.463155       -12.6031
 158   2.0000      -0.461911       -12.5692
 159   2.0000      -0.457011       -12.4359
 160   2.0000      -0.453691       -12.3456
 161   2.0000      -0.450698       -12.2641
 162   2.0000      -0.446821       -12.1586
 163   2.0000      -0.442818       -12.0497
 164   2.0000      -0.440411       -11.9842
 165   2.0000      -0.436193       -11.8694
 166   2.0000      -0.423361       -11.5202
 167   2.0000      -0.419617       -11.4184
 168   2.0000      -0.416994       -11.3470
 169   2.0000      -0.414094       -11.2681
 170   2.0000      -0.402496       -10.9525
 171   2.0000      -0.399535       -10.8719
 172   2.0000      -0.388219       -10.5640
 173   2.0000      -0.381088       -10.3699
 174   2.0000      -0.380246       -10.3470
 175   2.0000      -0.376677       -10.2499
 176   2.0000      -0.375952       -10.2302
 177   2.0000      -0.371846       -10.1185
 178   2.0000      -0.365267        -9.9394
 179   2.0000      -0.361037        -9.8243
 180   2.0000      -0.357472        -9.7273
 181   2.0000      -0.352790        -9.5999
 182   2.0000      -0.351307        -9.5595
 183   2.0000      -0.347646        -9.4599
 184   2.0000      -0.346552        -9.4302
 185   2.0000      -0.342078        -9.3084
 186   2.0000      -0.333311        -9.0699
 187   2.0000      -0.329880        -8.9765
 188   2.0000      -0.321044        -8.7360
 189   2.0000      -0.315615        -8.5883
 190   2.0000      -0.295940        -8.0529
 191   2.0000      -0.286119        -7.7857
 192   2.0000      -0.240333        -6.5398
 193   0.0000      -0.100618        -2.7380
 194   0.0000      -0.099853        -2.7171
 195   0.0000      -0.068162        -1.8548
 196   0.0000      -0.040981        -1.1152
 197   0.0000      -0.019529        -0.5314

MULLIKEN ATOMIC CHARGES
-----------------------
   0 C :   -0.000218
   1 S :    0.115623
   2 C :   -0.097044
   3 C :    0.045263
   4 N :   -0.082722
   5 C :   -0.081845
   6 S :    0.131768
   7 C :   -0.111925
   8 N :   -0.041705
   9 N :   -0.038637
  10 C :    0.070755
  11 C :   -0.028037
  12 C :    0.127317
  13 N :   -0.278296
  14 C :    0.094939
  15 C :   -0.000763
  16 C :    0.152992
  17 O :   -0.191822
  18 C :   -0.037809
  19 C :   -0.035739
  20 C :    0.153631
  21 O :   -0.179525
  22 N :   -0.271143
  23 C :    0.102888
  24 C :    0.002478
  25 C :    0.096571
  26 C :    0.037725
  27 C :   -0.047436
  28 C :    0.038598
  29 C :    0.031284
  30 C :    0.039405
  31 O :   -0.128092
  32 S :    0.027955
  33 C :    0.032366
  34 O :   -0.113914
  35 C :    0.038425
  36 C :    0.044983
  37 C :   -0.082844
  38 C :   -0.079064
  39 C :    0.224630
  40 O :   -0.091030
  41 O :   -0.224188
  42 C :    0.226362
  43 O :   -0.096792
  44 C :   -0.041498
  45 C :    0.141770
  46 C :   -0.174545
  47 S :    0.128905
  48 C :   -0.079003
  49 C :    0.067745
  50 N :   -0.055516
  51 H :    0.046656
  52 H :    0.042208
  53 H :   -0.018352
  54 H :    0.038986
  55 H :    0.025139
  56 H :    0.046429
  57 H :    0.023288
  58 H :    0.021961
  59 H :    0.030325
  60 H :    0.037346
  61 H :    0.024517
  62 H :    0.027883
  63 H :    0.019037
  64 H :    0.030782
  65 H :    0.013449
  66 H :    0.023811
  67 H :    0.042768
  68 H :   -0.004254
  69 H :    0.037753
  70 H :    0.007041
Sum of atomic charges:    0.0000000

LOEWDIN ATOMIC CHARGES
----------------------
   0 C :   -0.122889
   1 S :    0.439157
   2 C :   -0.166098
   3 C :   -0.081391
   4 N :   -0.095560
   5 C :   -0.150727
   6 S :    0.412992
   7 C :   -0.153193
   8 N :   -0.068589
   9 N :   -0.075955
  10 C :   -0.039843
  11 C :    0.003435
  12 C :    0.075151
  13 N :   -0.008408
  14 C :    0.033647
  15 C :   -0.063398
  16 C :    0.083147
  17 O :   -0.191864
  18 C :   -0.110120
  19 C :   -0.109612
  20 C :    0.082744
  21 O :   -0.181754
  22 N :   -0.001936
  23 C :    0.035583
  24 C :   -0.063357
  25 C :    0.075030
  26 C :    0.015797
  27 C :   -0.024166
  28 C :    0.024791
  29 C :   -0.051118
  30 C :   -0.043171
  31 O :   -0.114826
  32 S :    0.312293
  33 C :   -0.041244
  34 O :   -0.098869
  35 C :   -0.052622
  36 C :    0.029963
  37 C :   -0.046173
  38 C :   -0.044154
  39 C :    0.104713
  40 O :   -0.090761
  41 O :   -0.051944
  42 C :    0.105846
  43 O :   -0.094161
  44 C :   -0.017481
  45 C :   -0.002199
  46 C :   -0.138279
  47 S :    0.431903
  48 C :   -0.198288
  49 C :   -0.030209
  50 N :   -0.084432
  51 H :    0.021413
  52 H :    0.037607
  53 H :    0.028896
  54 H :    0.056426
  55 H :    0.020095
  56 H :    0.038098
  57 H :    0.022462
  58 H :    0.030485
  59 H :    0.033663
  60 H :    0.036179
  61 H :    0.024010
  62 H :    0.032463
  63 H :    0.030405
  64 H :    0.022967
  65 H :    0.044635
  66 H :    0.035160
  67 H :    0.042562
  68 H :    0.029428
  69 H :    0.028614
  70 H :    0.027032

  Mayer bond orders larger than 0.100000
B(  0-C ,  1-S ) :   1.1637 B(  0-C ,  4-N ) :   1.7271 B(  0-C , 51-H ) :   0.9654
B(  1-S ,  2-C ) :   1.1746 B(  2-C ,  3-C ) :   1.5640 B(  2-C , 52-H ) :   0.9634
B(  3-C ,  4-N ) :   1.4012 B(  3-C ,  5-C ) :   1.0413 B(  5-C ,  6-S ) :   1.1160
B(  5-C ,  9-N ) :   1.7488 B(  6-S ,  7-C ) :   1.0818 B(  7-C ,  8-N ) :   1.6938
B(  7-C , 10-C ) :   1.0964 B(  8-N ,  9-N ) :   1.2232 B( 10-C , 11-C ) :   1.6393
B( 10-C , 53-H ) :   0.9471 B( 11-C , 12-C ) :   1.1522 B( 11-C , 54-H ) :   0.9531
B( 12-C , 13-N ) :   1.1631 B( 12-C , 19-C ) :   1.3569 B( 13-N , 14-C ) :   0.9444
B( 13-N , 16-C ) :   1.0339 B( 14-C , 15-C ) :   1.1162 B( 14-C , 55-H ) :   0.9502
B( 14-C , 56-H ) :   0.9232 B( 15-C , 57-H ) :   0.9683 B( 15-C , 58-H ) :   0.9678
B( 15-C , 59-H ) :   0.9615 B( 16-C , 17-O ) :   2.1252 B( 16-C , 18-C ) :   0.9787
B( 18-C , 19-C ) :   1.2365 B( 18-C , 25-C ) :   1.3471 B( 19-C , 20-C ) :   0.9726
B( 20-C , 21-O ) :   2.1421 B( 20-C , 22-N ) :   1.0250 B( 22-N , 23-C ) :   0.9382
B( 22-N , 25-C ) :   1.1852 B( 23-C , 24-C ) :   1.1190 B( 23-C , 60-H ) :   0.9270
B( 23-C , 61-H ) :   0.9491 B( 24-C , 62-H ) :   0.9589 B( 24-C , 63-H ) :   0.9677
B( 24-C , 64-H ) :   0.9624 B( 25-C , 26-C ) :   1.1971 B( 26-C , 27-C ) :   1.6219
B( 26-C , 65-H ) :   0.9371 B( 27-C , 28-C ) :   1.1016 B( 27-C , 66-H ) :   0.9471
B( 28-C , 29-C ) :   1.3619 B( 28-C , 38-C ) :   1.3155 B( 29-C , 30-C ) :   0.8540
B( 29-C , 35-C ) :   1.3161 B( 30-C , 31-O ) :   2.1389 B( 30-C , 32-S ) :   1.0433
B( 31-O , 32-S ) :   0.1060 B( 32-S , 33-C ) :   1.0242 B( 32-S , 34-O ) :   0.1039
B( 33-C , 34-O ) :   2.1741 B( 33-C , 35-C ) :   0.8485 B( 35-C , 36-C ) :   1.3533
B( 36-C , 37-C ) :   1.3080 B( 36-C , 44-C ) :   1.1056 B( 37-C , 38-C ) :   1.3737
B( 37-C , 42-C ) :   0.9032 B( 38-C , 39-C ) :   0.9049 B( 39-C , 40-O ) :   2.2640
B( 39-C , 41-O ) :   1.0521 B( 41-O , 42-C ) :   1.0573 B( 42-C , 43-O ) :   2.2532
B( 44-C , 45-C ) :   1.7320 B( 44-C , 67-H ) :   0.9433 B( 45-C , 46-C ) :   1.1046
B( 45-C , 68-H ) :   0.9409 B( 46-C , 47-S ) :   1.1161 B( 46-C , 50-N ) :   1.7113
B( 47-S , 48-C ) :   1.1883 B( 47-S , 50-N ) :   0.1002 B( 48-C , 49-C ) :   1.5394
B( 48-C , 69-H ) :   0.9705 B( 49-C , 50-N ) :   1.3783 B( 49-C , 70-H ) :   0.9944

-----------------------------------------------------------------------------
         ABSORPTION SPECTRUM VIA TRANSITION ELECTRIC DIPOLE MOMENTS
-----------------------------------------------------------------------------
State   Energy  Wavelength   fosc         T2         TX        TY        TZ
        (cm-1)    (nm)                  (au**2)     (au)      (au)      (au)
-----------------------------------------------------------------------------
   0   15274.3    654.7   0.319464067   6.88550  -1.06861  -0.93531   2.20653
   1   15517.7    644.4   0.698312251  14.81485   2.32417   0.79667  -2.96284
   2   22080.9    452.9   0.037378949   0.55730   0.37383  -0.45780   0.45603
   3   23444.2    426.5   0.079159113   1.11158   0.42622   0.40336   0.87591
   4   25897.1    386.1   0.199943307   2.54174   1.41304   0.73828   0.00259
   5   26168.7    382.1   0.535612068   6.73819  -2.27788  -1.09083   0.59962
   6   27674.0    361.3   0.006214079   0.07392   0.06836   0.07186  -0.25315
   7   27977.2    357.4   0.008916301   0.10492  -0.31336   0.07817   0.02480
   8   28250.9    354.0   0.252009751   2.93671   1.26701   0.55054  -1.01405
   9   28731.2    348.1   0.021573926   0.24720   0.46431   0.03705  -0.17390
  10   28813.2    347.1   0.222308481   2.54004   1.37407   0.47142  -0.65555
  11   30733.1    325.4   0.012807186   0.13719  -0.04985   0.31065  -0.19545
  12   31398.5    318.5   0.000089711   0.00094  -0.02175  -0.00310  -0.02140
  13   32055.5    312.0   0.023154796   0.23780   0.18241  -0.10131   0.44076
  14   32221.9    310.3   0.034902514   0.35660  -0.11111   0.20661  -0.54915
  15   32878.4    304.2   0.312564225   3.12972   1.61504   0.69375  -0.20013
  16   33086.8    302.2   0.098452040   0.97959   0.88743   0.40743  -0.16147
  17   33643.5    297.2   0.012415354   0.12149   0.34341   0.03447   0.04865
  18   34036.9    293.8   0.003967625   0.03838  -0.17976  -0.07317   0.02663
  19   34755.1    287.7   0.039796193   0.37696   0.35241   0.06938  -0.49795
  20   34911.9    286.4   0.059399964   0.56013  -0.25598  -0.52805   0.46451
  21   35362.8    282.8   0.011018974   0.10258   0.31886  -0.03007   0.00171
  22   35777.6    279.5   0.001457676   0.01341  -0.08349   0.00875   0.07979
  23   36201.3    276.2   0.036590891   0.33276   0.43940   0.27875  -0.24897
  24   37343.4    267.8   0.012887159   0.11361  -0.16286  -0.08413   0.28286
  25   37927.3    263.7   0.035492166   0.30807   0.16966   0.06315  -0.52469
  26   37970.5    263.4   0.028799892   0.24970  -0.20285  -0.08900   0.44792
  27   38474.0    259.9   0.053955189   0.46168  -0.25818  -0.44060   0.44821
  28   38815.6    257.6   0.038273892   0.32462  -0.52768  -0.18570   0.10809
  29   39185.6    255.2   0.129755096   1.09012   1.04284  -0.02980  -0.04152
  30   39421.4    253.7   0.056652365   0.47311  -0.09275  -0.54704   0.40652
  31   39685.9    252.0   0.003151028   0.02614   0.12139   0.04267  -0.09789
  32   39837.2    251.0   0.088559002   0.73185   0.51630   0.20411  -0.65086
  33   40002.0    250.0   0.000038698   0.00032   0.00964   0.00803  -0.01269
  34   40244.7    248.5   0.008737058   0.07147  -0.10977   0.24354  -0.01050

FINAL SINGLE POINT ENERGY     -3752.392995346937

DIPOLE MOMENT
-------------
                                X             Y             Z
Electronic contribution:      5.61353       6.26408      -7.28722
Nuclear contribution   :     -5.53524      -5.60495       8.74178
                        -----------------------------------------
Total Dipole Moment    :      0.07829       0.65913       1.45456
                        -----------------------------------------
Magnitude (a.u.)       :      1.59885
Magnitude (Debye)      :      4.06395

Rotational constants in cm-1:     0.004141     0.000434     0.000409
Rotational constants in MHz :   124.135832    13.020948    12.267884

                             ****ORCA TERMINATED NORMALLY****
TOTAL RUN TIME: 0 days 0 hours 5 minutes 2 seconds 695 msec
