                         Program Version 4.2.0 -  RELEASE  -
|  1> # ORCA input file
|  2> # SCF done       -188.581226104106          0.000854591295
|  3> ! CAM-B3LYP def2-SVP def2/J RIJCOSX Grid4 TightSCF
|  4> %maxcore 5000
|  5> %tddft
|  6>     Mode sTDDFT
|  7>     Ethresh 5.0
|  8>     maxcore 5000
|  9> end
| 10>
| 11> %pal
| 12>   nprocs 6
| 13>   end
| 14> * xyz 0 1
| 15>    C        2.68916        -1.47702        -4.21293
| 16>    S        3.52336        -0.12987        -3.57873
| 17>    C        2.73855         0.93937        -4.71975
| 18>    C        1.86022         0.23706        -5.53075
| 19>    C        1.84237        -1.14365        -5.23300
| 20>    C        0.96263        -2.12853        -5.94066
| 21>    C        0.47654        -1.57317        -7.28916
| 22>    C        1.58460        -1.64181        -8.33418
| 23>    O        2.12719        -0.69843        -8.82879
| 24>    O        1.92588        -2.89022        -8.69433
| 25>    C       -0.06698        -0.13980        -7.10736
| 26>    O       -1.19165        -0.14253        -6.26004
| 27>    C        1.01882         0.82461        -6.61712
| 28>    C        3.07438         2.32078        -4.67788
| 29>    C        3.78292         2.93513        -3.66688
| 30>    C        3.90809         4.31829        -3.94959
| 31>    C        3.25842         4.52730        -5.25927
| 32>    C        2.76987         3.33270        -5.68243
| 33>    C        3.23227         5.70830        -6.01040
| 34>    N        3.21801         6.63906        -6.68339
| 35>    C        4.50268         5.29256        -3.17707
| 36>    C        4.49800         6.69291        -3.40452
| 37>    C        5.26505         7.31694        -2.43747
| 38>    C        5.76981         6.28854        -1.54396
| 39>    C        5.29913         5.08036        -1.95926
| 40>    C        5.56381         3.86144        -1.32754
| 41>    N        5.79976         2.87960        -0.77862
| 42>    C        5.45061         8.72464        -2.39126
| 43>    N        6.48171         9.41575        -1.80011
| 44>    C        7.61592         8.88123        -1.08540
| 45>    C        7.36275         8.84231         0.42015
| 46>    C        6.37486        10.80124        -2.01204
| 47>    O        7.19687        11.60264        -1.60671
| 48>    C        5.15863        10.95947        -2.77356
| 49>    C        4.62075         9.66895        -2.99680
| 50>    C        3.36815         9.82181        -3.70582
| 51>    O        2.53011         9.02979        -4.07622
| 52>    N        3.24780        11.21693        -3.88991
| 53>    C        2.14464        11.76790        -4.63890
| 54>    C        2.53873        12.07652        -6.08124
| 55>    C        4.30520        11.90274        -3.35027
| 56>    C        4.43842        13.31590        -3.40543
| 57>    C        5.51063        13.95823        -2.88611
| 58>    C        5.74516        15.37711        -2.91051
| 59>    C        4.86736        16.29884        -3.48017
| 60>    C        5.15515        17.65358        -3.48986
| 61>    N        4.21118        18.50127        -4.16814
| 62>    O        3.07870        18.08026        -4.29599
| 63>    O        4.59377        19.57023        -4.59784
| 64>    C        6.33554        18.16701        -2.91476
| 65>    C        7.20702        17.22583        -2.34312
| 66>    C        6.92887        15.88175        -2.34274
| 67>    C        6.62605        19.57668        -2.84545
| 68>    C        7.86971        20.09489        -2.85588
| 69>    C        8.15563        21.48864        -2.77106
| 70>    S        6.90958        22.65158        -2.40809
| 71>    C        8.03059        23.93916        -2.51973
| 72>    C        9.29517        23.52046        -2.81838
| 73>    C        9.37285        22.11649        -2.95887
| 74>    C       10.63740        21.41226        -3.34732
| 75>    C       11.87891        22.31243        -3.19626
| 76>    C       12.36331        22.31667        -1.75102
| 77>    O       12.32049        23.24897        -1.00460
| 78>    O       12.88060        21.14348        -1.34328
| 79>    C       11.60906        23.73636        -3.73074
| 80>    O       11.35326        23.69930        -5.11492
| 81>    C       10.48055        24.41985        -2.95555
| 82>    H        2.86083        -2.45253        -3.80180
| 83>    H        0.08918        -2.34953        -5.31713
| 84>    H        1.50459        -3.06971        -6.07121
| 85>    H       -0.35417        -2.19583        -7.64618
| 86>    H        1.39483        -3.57081        -8.25969
| 87>    H       -0.44233         0.21396        -8.07364
| 88>    H       -0.89075        -0.22700        -5.34785
| 89>    H        0.52822         1.73829        -6.27310
| 90>    H        1.65985         1.07215        -7.46644
| 91>    H        4.14794         2.45558        -2.77930
| 92>    H        2.28532         3.15659        -6.62216
| 93>    H        3.97338         7.18332        -4.19951
| 94>    H        6.36917         6.44486        -0.66785
| 95>    H        8.45606         9.55326        -1.28637
| 96>    H        7.85420         7.89162        -1.48044
| 97>    H        7.22654         9.85430         0.79323
| 98>    H        8.21317         8.39520         0.92782
| 99>    H        6.46873         8.26845         0.65516
|100>    H        1.76693        12.66155        -4.13445
|101>    H        1.36401        11.00201        -4.63090
|102>    H        3.35343        12.79672        -6.11924
|103>    H        1.68542        12.48404        -6.61599
|104>    H        2.85804        11.16452        -6.57938
|105>    H        3.64475        13.86496        -3.88965
|106>    H        6.28221        13.36883        -2.40840
|107>    H        3.94582        15.98159        -3.94333
|108>    H        8.10563        17.58259        -1.86399
|109>    H        7.62199        15.18793        -1.89069
|110>    H        5.78858        20.25990        -2.81740
|111>    H        8.72446        19.44393        -2.98508
|112>    H        7.69949        24.94515        -2.35452
|113>    H       10.55939        21.09376        -4.39323
|114>    H       10.75376        20.50546        -2.74549
|115>    H       12.68552        21.88786        -3.80893
|116>    H       12.91312        20.47868        -2.04410
|117>    H       12.52686        24.32477        -3.62575
|118>    H       10.45133        23.38546        -5.25089
|119>    H       10.20287        25.34297        -3.46857
|120>    H       10.84960        24.68265        -1.96221
|121> *
|122>
|123>                          ****END OF INPUT****

CARTESIAN COORDINATES (ANGSTROEM)
---------------------------------
  C      2.689160   -1.477020   -4.212930
  S      3.523360   -0.129870   -3.578730
  C      2.738550    0.939370   -4.719750
  C      1.860220    0.237060   -5.530750
  C      1.842370   -1.143650   -5.233000
  C      0.962630   -2.128530   -5.940660
  C      0.476540   -1.573170   -7.289160
  C      1.584600   -1.641810   -8.334180
  O      2.127190   -0.698430   -8.828790
  O      1.925880   -2.890220   -8.694330
  C     -0.066980   -0.139800   -7.107360
  O     -1.191650   -0.142530   -6.260040
  C      1.018820    0.824610   -6.617120
  C      3.074380    2.320780   -4.677880
  C      3.782920    2.935130   -3.666880
  C      3.908090    4.318290   -3.949590
  C      3.258420    4.527300   -5.259270
  C      2.769870    3.332700   -5.682430
  C      3.232270    5.708300   -6.010400
  N      3.218010    6.639060   -6.683390
  C      4.502680    5.292560   -3.177070
  C      4.498000    6.692910   -3.404520
  C      5.265050    7.316940   -2.437470
  C      5.769810    6.288540   -1.543960
  C      5.299130    5.080360   -1.959260
  C      5.563810    3.861440   -1.327540
  N      5.799760    2.879600   -0.778620
  C      5.450610    8.724640   -2.391260
  N      6.481710    9.415750   -1.800110
  C      7.615920    8.881230   -1.085400
  C      7.362750    8.842310    0.420150
  C      6.374860   10.801240   -2.012040
  O      7.196870   11.602640   -1.606710
  C      5.158630   10.959470   -2.773560
  C      4.620750    9.668950   -2.996800
  C      3.368150    9.821810   -3.705820
  O      2.530110    9.029790   -4.076220
  N      3.247800   11.216930   -3.889910
  C      2.144640   11.767900   -4.638900
  C      2.538730   12.076520   -6.081240
  C      4.305200   11.902740   -3.350270
  C      4.438420   13.315900   -3.405430
  C      5.510630   13.958230   -2.886110
  C      5.745160   15.377110   -2.910510
  C      4.867360   16.298840   -3.480170
  C      5.155150   17.653580   -3.489860
  N      4.211180   18.501270   -4.168140
  O      3.078700   18.080260   -4.295990
  O      4.593770   19.570230   -4.597840
  C      6.335540   18.167010   -2.914760
  C      7.207020   17.225830   -2.343120
  C      6.928870   15.881750   -2.342740
  C      6.626050   19.576680   -2.845450
  C      7.869710   20.094890   -2.855880
  C      8.155630   21.488640   -2.771060
  S      6.909580   22.651580   -2.408090
  C      8.030590   23.939160   -2.519730
  C      9.295170   23.520460   -2.818380
  C      9.372850   22.116490   -2.958870
  C     10.637400   21.412260   -3.347320
  C     11.878910   22.312430   -3.196260
  C     12.363310   22.316670   -1.751020
  O     12.320490   23.248970   -1.004600
  O     12.880600   21.143480   -1.343280
  C     11.609060   23.736360   -3.730740
  O     11.353260   23.699300   -5.114920
  C     10.480550   24.419850   -2.955550
  H      2.860830   -2.452530   -3.801800
  H      0.089180   -2.349530   -5.317130
  H      1.504590   -3.069710   -6.071210
  H     -0.354170   -2.195830   -7.646180
  H      1.394830   -3.570810   -8.259690
  H     -0.442330    0.213960   -8.073640
  H     -0.890750   -0.227000   -5.347850
  H      0.528220    1.738290   -6.273100
  H      1.659850    1.072150   -7.466440
  H      4.147940    2.455580   -2.779300
  H      2.285320    3.156590   -6.622160
  H      3.973380    7.183320   -4.199510
  H      6.369170    6.444860   -0.667850
  H      8.456060    9.553260   -1.286370
  H      7.854200    7.891620   -1.480440
  H      7.226540    9.854300    0.793230
  H      8.213170    8.395200    0.927820
  H      6.468730    8.268450    0.655160
  H      1.766930   12.661550   -4.134450
  H      1.364010   11.002010   -4.630900
  H      3.353430   12.796720   -6.119240
  H      1.685420   12.484040   -6.615990
  H      2.858040   11.164520   -6.579380
  H      3.644750   13.864960   -3.889650
  H      6.282210   13.368830   -2.408400
  H      3.945820   15.981590   -3.943330
  H      8.105630   17.582590   -1.863990
  H      7.621990   15.187930   -1.890690
  H      5.788580   20.259900   -2.817400
  H      8.724460   19.443930   -2.985080
  H      7.699490   24.945150   -2.354520
  H     10.559390   21.093760   -4.393230
  H     10.753760   20.505460   -2.745490
  H     12.685520   21.887860   -3.808930
  H     12.913120   20.478680   -2.044100
  H     12.526860   24.324770   -3.625750
  H     10.451330   23.385460   -5.250890
  H     10.202870   25.342970   -3.468570
  H     10.849600   24.682650   -1.962210

 Total Charge           Charge          ....    0
 Multiplicity           Mult            ....    1
 Number of Electrons    NEL             ....  486
 Basis Dimension        Dim             .... 1141

ORBITAL ENERGIES
----------------

  NO   OCC          E(Eh)            E(eV)
   0   2.0000     -88.964307     -2420.8419
   1   2.0000     -88.954000     -2420.5614
   2   2.0000     -19.269722      -524.3558
   3   2.0000     -19.265355      -524.2370
   4   2.0000     -19.245877      -523.7069
   5   2.0000     -19.243628      -523.6458
   6   2.0000     -19.222209      -523.0629
   7   2.0000     -19.214045      -522.8407
   8   2.0000     -19.210793      -522.7522
   9   2.0000     -19.206031      -522.6227
  10   2.0000     -19.191638      -522.2310
  11   2.0000     -19.191058      -522.2152
  12   2.0000     -14.650531      -398.6612
  13   2.0000     -14.456224      -393.3738
  14   2.0000     -14.454063      -393.3150
  15   2.0000     -14.404718      -391.9723
  16   2.0000     -14.400753      -391.8644
  17   2.0000     -10.409785      -283.2646
  18   2.0000     -10.404674      -283.1256
  19   2.0000     -10.374279      -282.2985
  20   2.0000     -10.373820      -282.2860
  21   2.0000     -10.343706      -281.4665
  22   2.0000     -10.339645      -281.3560
  23   2.0000     -10.334197      -281.2078
  24   2.0000     -10.331182      -281.1258
  25   2.0000     -10.322828      -280.8984
  26   2.0000     -10.320303      -280.8297
  27   2.0000     -10.315738      -280.7055
  28   2.0000     -10.313479      -280.6440
  29   2.0000     -10.312543      -280.6185
  30   2.0000     -10.311419      -280.5880
  31   2.0000     -10.310289      -280.5572
  32   2.0000     -10.309883      -280.5462
  33   2.0000     -10.308360      -280.5047
  34   2.0000     -10.307111      -280.4707
  35   2.0000     -10.307082      -280.4700
  36   2.0000     -10.306736      -280.4605
  37   2.0000     -10.305659      -280.4312
  38   2.0000     -10.305480      -280.4264
  39   2.0000     -10.303101      -280.3616
  40   2.0000     -10.302654      -280.3495
  41   2.0000     -10.301983      -280.3312
  42   2.0000     -10.301619      -280.3213
  43   2.0000     -10.300715      -280.2967
  44   2.0000     -10.300672      -280.2955
  45   2.0000     -10.299207      -280.2557
  46   2.0000     -10.298387      -280.2334
  47   2.0000     -10.297404      -280.2066
  48   2.0000     -10.296163      -280.1728
  49   2.0000     -10.295669      -280.1594
  50   2.0000     -10.295008      -280.1414
  51   2.0000     -10.293916      -280.1117
  52   2.0000     -10.293802      -280.1086
  53   2.0000     -10.293240      -280.0933
  54   2.0000     -10.290826      -280.0276
  55   2.0000     -10.290432      -280.0169
  56   2.0000     -10.284334      -279.8509
  57   2.0000     -10.283921      -279.8397
  58   2.0000     -10.279393      -279.7165
  59   2.0000     -10.276725      -279.6439
  60   2.0000     -10.276437      -279.6361
  61   2.0000     -10.275234      -279.6033
  62   2.0000     -10.265696      -279.3438
  63   2.0000     -10.263700      -279.2895
  64   2.0000     -10.263535      -279.2850
  65   2.0000     -10.260880      -279.2127
  66   2.0000     -10.260499      -279.2024
  67   2.0000      -8.059912      -219.3214
  68   2.0000      -8.049756      -219.0450
  69   2.0000      -6.029111      -164.0605
  70   2.0000      -6.024840      -163.9442
  71   2.0000      -6.022303      -163.8752
  72   2.0000      -6.018906      -163.7828
  73   2.0000      -6.014767      -163.6701
  74   2.0000      -6.012156      -163.5991
  75   2.0000      -1.325476       -36.0680
  76   2.0000      -1.193700       -32.4822
  77   2.0000      -1.188808       -32.3491
  78   2.0000      -1.143398       -31.1134
  79   2.0000      -1.134591       -30.8738
  80   2.0000      -1.127899       -30.6917
  81   2.0000      -1.115482       -30.3538
  82   2.0000      -1.108901       -30.1747
  83   2.0000      -1.107703       -30.1421
  84   2.0000      -1.103699       -30.0332
  85   2.0000      -1.064901       -28.9774
  86   2.0000      -1.056860       -28.7586
  87   2.0000      -1.013032       -27.5660
  88   2.0000      -1.000728       -27.2312
  89   2.0000      -0.994339       -27.0573
  90   2.0000      -0.991903       -26.9911
  91   2.0000      -0.988395       -26.8956
  92   2.0000      -0.979432       -26.6517
  93   2.0000      -0.973129       -26.4802
  94   2.0000      -0.932761       -25.3817
  95   2.0000      -0.927206       -25.2306
  96   2.0000      -0.925669       -25.1887
  97   2.0000      -0.918071       -24.9820
  98   2.0000      -0.905987       -24.6532
  99   2.0000      -0.895085       -24.3565
 100   2.0000      -0.886557       -24.1244
 101   2.0000      -0.878383       -23.9020
 102   2.0000      -0.868341       -23.6288
 103   2.0000      -0.866162       -23.5695
 104   2.0000      -0.860233       -23.4081
 105   2.0000      -0.849008       -23.1027
 106   2.0000      -0.842531       -22.9264
 107   2.0000      -0.835979       -22.7481
 108   2.0000      -0.834966       -22.7206
 109   2.0000      -0.821191       -22.3458
 110   2.0000      -0.814044       -22.1513
 111   2.0000      -0.802993       -21.8505
 112   2.0000      -0.796476       -21.6732
 113   2.0000      -0.788425       -21.4541
 114   2.0000      -0.769968       -20.9519
 115   2.0000      -0.761560       -20.7231
 116   2.0000      -0.760780       -20.7019
 117   2.0000      -0.750428       -20.4202
 118   2.0000      -0.742757       -20.2115
 119   2.0000      -0.737114       -20.0579
 120   2.0000      -0.724410       -19.7122
 121   2.0000      -0.715243       -19.4627
 122   2.0000      -0.713506       -19.4155
 123   2.0000      -0.711549       -19.3622
 124   2.0000      -0.709427       -19.3045
 125   2.0000      -0.699435       -19.0326
 126   2.0000      -0.695648       -18.9295
 127   2.0000      -0.692142       -18.8341
 128   2.0000      -0.690623       -18.7928
 129   2.0000      -0.681291       -18.5389
 130   2.0000      -0.679531       -18.4910
 131   2.0000      -0.664760       -18.0890
 132   2.0000      -0.653915       -17.7939
 133   2.0000      -0.651548       -17.7295
 134   2.0000      -0.646464       -17.5912
 135   2.0000      -0.643945       -17.5226
 136   2.0000      -0.634863       -17.2755
 137   2.0000      -0.633776       -17.2459
 138   2.0000      -0.628091       -17.0912
 139   2.0000      -0.624406       -16.9910
 140   2.0000      -0.620147       -16.8750
 141   2.0000      -0.605748       -16.4832
 142   2.0000      -0.600093       -16.3294
 143   2.0000      -0.598498       -16.2860
 144   2.0000      -0.594725       -16.1833
 145   2.0000      -0.593329       -16.1453
 146   2.0000      -0.588445       -16.0124
 147   2.0000      -0.585130       -15.9222
 148   2.0000      -0.576378       -15.6840
 149   2.0000      -0.574668       -15.6375
 150   2.0000      -0.568365       -15.4660
 151   2.0000      -0.565588       -15.3904
 152   2.0000      -0.563697       -15.3390
 153   2.0000      -0.561547       -15.2805
 154   2.0000      -0.558930       -15.2093
 155   2.0000      -0.557247       -15.1635
 156   2.0000      -0.554824       -15.0975
 157   2.0000      -0.551680       -15.0120
 158   2.0000      -0.550403       -14.9772
 159   2.0000      -0.541619       -14.7382
 160   2.0000      -0.539100       -14.6697
 161   2.0000      -0.537193       -14.6178
 162   2.0000      -0.535333       -14.5671
 163   2.0000      -0.533334       -14.5127
 164   2.0000      -0.530415       -14.4333
 165   2.0000      -0.524473       -14.2716
 166   2.0000      -0.523524       -14.2458
 167   2.0000      -0.521990       -14.2041
 168   2.0000      -0.518255       -14.1024
 169   2.0000      -0.516818       -14.0633
 170   2.0000      -0.511657       -13.9229
 171   2.0000      -0.511066       -13.9068
 172   2.0000      -0.510118       -13.8810
 173   2.0000      -0.506116       -13.7721
 174   2.0000      -0.504263       -13.7217
 175   2.0000      -0.503659       -13.7053
 176   2.0000      -0.502706       -13.6793
 177   2.0000      -0.499925       -13.6036
 178   2.0000      -0.497605       -13.5405
 179   2.0000      -0.496756       -13.5174
 180   2.0000      -0.492439       -13.3999
 181   2.0000      -0.492027       -13.3887
 182   2.0000      -0.488918       -13.3041
 183   2.0000      -0.486218       -13.2307
 184   2.0000      -0.485264       -13.2047
 185   2.0000      -0.482941       -13.1415
 186   2.0000      -0.478001       -13.0071
 187   2.0000      -0.474563       -12.9135
 188   2.0000      -0.471771       -12.8375
 189   2.0000      -0.470179       -12.7942
 190   2.0000      -0.465953       -12.6792
 191   2.0000      -0.465269       -12.6606
 192   2.0000      -0.463435       -12.6107
 193   2.0000      -0.462297       -12.5797
 194   2.0000      -0.458423       -12.4743
 195   2.0000      -0.455391       -12.3918
 196   2.0000      -0.455098       -12.3838
 197   2.0000      -0.454098       -12.3566
 198   2.0000      -0.452231       -12.3058
 199   2.0000      -0.449440       -12.2299
 200   2.0000      -0.444083       -12.0841
 201   2.0000      -0.442258       -12.0345
 202   2.0000      -0.440059       -11.9746
 203   2.0000      -0.436335       -11.8733
 204   2.0000      -0.435265       -11.8442
 205   2.0000      -0.433543       -11.7973
 206   2.0000      -0.431420       -11.7395
 207   2.0000      -0.429837       -11.6964
 208   2.0000      -0.429369       -11.6837
 209   2.0000      -0.428178       -11.6513
 210   2.0000      -0.424292       -11.5456
 211   2.0000      -0.421732       -11.4759
 212   2.0000      -0.421118       -11.4592
 213   2.0000      -0.410747       -11.1770
 214   2.0000      -0.410378       -11.1669
 215   2.0000      -0.407366       -11.0850
 216   2.0000      -0.403188       -10.9713
 217   2.0000      -0.402127       -10.9424
 218   2.0000      -0.400257       -10.8915
 219   2.0000      -0.398068       -10.8320
 220   2.0000      -0.392332       -10.6759
 221   2.0000      -0.391497       -10.6532
 222   2.0000      -0.387462       -10.5434
 223   2.0000      -0.382371       -10.4048
 224   2.0000      -0.371767       -10.1163
 225   2.0000      -0.369712       -10.0604
 226   2.0000      -0.362094        -9.8531
 227   2.0000      -0.354671        -9.6511
 228   2.0000      -0.353700        -9.6247
 229   2.0000      -0.349787        -9.5182
 230   2.0000      -0.348911        -9.4944
 231   2.0000      -0.348394        -9.4803
 232   2.0000      -0.346427        -9.4268
 233   2.0000      -0.332886        -9.0583
 234   2.0000      -0.323221        -8.7953
 235   2.0000      -0.320598        -8.7239
 236   2.0000      -0.320264        -8.7148
 237   2.0000      -0.316701        -8.6179
 238   2.0000      -0.310803        -8.4574
 239   2.0000      -0.306385        -8.3372
 240   2.0000      -0.275462        -7.4957
 241   2.0000      -0.267515        -7.2795
 242   2.0000      -0.234874        -6.3912
 243   0.0000      -0.123706        -3.3662
 244   0.0000      -0.076020        -2.0686
 245   0.0000      -0.052621        -1.4319
 246   0.0000      -0.028411        -0.7731
 247   0.0000      -0.009543        -0.2597

MULLIKEN ATOMIC CHARGES
-----------------------
   0 C :   -0.105563
   1 S :    0.154391
   2 C :   -0.150771
   3 C :   -0.061967
   4 C :   -0.085923
   5 C :    0.144290
   6 C :   -0.144151
   7 C :    0.155047
   8 O :   -0.167915
   9 O :   -0.149817
  10 C :    0.155792
  11 O :   -0.289185
  12 C :    0.111199
  13 C :    0.114960
  14 C :   -0.155851
  15 C :    0.125991
  16 C :   -0.086114
  17 C :   -0.025897
  18 C :   -0.174670
  19 N :    0.145197
  20 C :    0.116319
  21 C :   -0.108198
  22 C :    0.041348
  23 C :   -0.031408
  24 C :   -0.100654
  25 C :   -0.180079
  26 N :    0.133400
  27 C :    0.146600
  28 N :   -0.256245
  29 C :    0.108240
  30 C :    0.001785
  31 C :    0.159372
  32 O :   -0.225793
  33 C :   -0.070411
  34 C :   -0.051088
  35 C :    0.144105
  36 O :   -0.182783
  37 N :   -0.259926
  38 C :    0.095025
  39 C :    0.000923
  40 C :    0.142994
  41 C :    0.002477
  42 C :    0.006185
  43 C :    0.103884
  44 C :   -0.061570
  45 C :    0.144591
  46 N :    0.244728
  47 O :   -0.235597
  48 O :   -0.229577
  49 C :    0.054309
  50 C :   -0.034217
  51 C :    0.018188
  52 C :   -0.008616
  53 C :   -0.001014
  54 C :   -0.128044
  55 S :    0.126417
  56 C :   -0.117060
  57 C :   -0.089641
  58 C :   -0.056847
  59 C :    0.121234
  60 C :   -0.130061
  61 C :    0.148302
  62 O :   -0.165972
  63 O :   -0.154002
  64 C :    0.129672
  65 O :   -0.294391
  66 C :    0.168665
  67 H :    0.017578
  68 H :    0.030059
  69 H :   -0.002108
  70 H :    0.026453
  71 H :    0.185192
  72 H :    0.008943
  73 H :    0.170080
  74 H :    0.027691
  75 H :    0.068315
  76 H :    0.008200
  77 H :   -0.002486
  78 H :    0.023514
  79 H :   -0.017131
  80 H :    0.036268
  81 H :    0.025002
  82 H :    0.033414
  83 H :    0.023816
  84 H :    0.019733
  85 H :    0.025127
  86 H :    0.047945
  87 H :    0.013653
  88 H :    0.025946
  89 H :    0.040475
  90 H :   -0.027977
  91 H :    0.008241
  92 H :   -0.000668
  93 H :   -0.013713
  94 H :    0.006774
  95 H :    0.014161
  96 H :   -0.012536
  97 H :    0.015877
  98 H :    0.033096
  99 H :    0.000094
 100 H :    0.021740
 101 H :    0.183805
 102 H :    0.006387
 103 H :    0.170824
 104 H :    0.009828
 105 H :    0.053777
Sum of atomic charges:   -0.0000000

LOEWDIN ATOMIC CHARGES
----------------------
   0 C :   -0.174111
   1 S :    0.472464
   2 C :   -0.176469
   3 C :   -0.043818
   4 C :   -0.081927
   5 C :   -0.021178
   6 C :   -0.087101
   7 C :    0.085612
   8 O :   -0.145198
   9 O :   -0.027508
  10 C :    0.076459
  11 O :   -0.118526
  12 C :   -0.047575
  13 C :   -0.012864
  14 C :   -0.055513
  15 C :    0.051178
  16 C :   -0.070466
  17 C :    0.047877
  18 C :   -0.032320
  19 N :   -0.052962
  20 C :    0.022394
  21 C :    0.013731
  22 C :   -0.040895
  23 C :    0.038885
  24 C :   -0.082665
  25 C :   -0.030938
  26 N :   -0.068185
  27 C :    0.068230
  28 N :    0.002770
  29 C :    0.037349
  30 C :   -0.062277
  31 C :    0.078723
  32 O :   -0.213753
  33 C :   -0.128928
  34 C :   -0.107184
  35 C :    0.083565
  36 O :   -0.177388
  37 N :    0.000739
  38 C :    0.035701
  39 C :   -0.060757
  40 C :    0.087601
  41 C :   -0.048466
  42 C :    0.040400
  43 C :   -0.036413
  44 C :    0.019607
  45 C :   -0.030778
  46 N :    0.285646
  47 O :   -0.205496
  48 O :   -0.190717
  49 C :    0.004640
  50 C :   -0.013414
  51 C :    0.019974
  52 C :   -0.030196
  53 C :   -0.023044
  54 C :   -0.181507
  55 S :    0.451415
  56 C :   -0.181849
  57 C :   -0.072371
  58 C :   -0.066359
  59 C :   -0.023484
  60 C :   -0.085584
  61 C :    0.085421
  62 O :   -0.143425
  63 O :   -0.031488
  64 C :    0.073700
  65 O :   -0.121793
  66 C :   -0.040537
  67 H :    0.024813
  68 H :    0.035341
  69 H :    0.027163
  70 H :    0.038584
  71 H :    0.094239
  72 H :    0.029630
  73 H :    0.072816
  74 H :    0.035671
  75 H :    0.046349
  76 H :    0.027655
  77 H :    0.037200
  78 H :    0.038376
  79 H :    0.033903
  80 H :    0.036182
  81 H :    0.024825
  82 H :    0.034344
  83 H :    0.030969
  84 H :    0.020648
  85 H :    0.023051
  86 H :    0.039528
  87 H :    0.020984
  88 H :    0.031837
  89 H :    0.036421
  90 H :    0.028096
  91 H :    0.038297
  92 H :    0.036398
  93 H :    0.033151
  94 H :    0.041456
  95 H :    0.023156
  96 H :    0.028362
  97 H :    0.023962
  98 H :    0.036746
  99 H :    0.024501
 100 H :    0.037120
 101 H :    0.092769
 102 H :    0.027390
 103 H :    0.073281
 104 H :    0.033422
 105 H :    0.044706

  Mayer bond orders larger than 0.100000
B(  0-C ,  1-S ) :   1.1842 B(  0-C ,  4-C ) :   1.5427 B(  0-C , 67-H ) :   0.9729
B(  1-S ,  2-C ) :   1.1450 B(  2-C ,  3-C ) :   1.4909 B(  2-C , 13-C ) :   1.1116
B(  3-C ,  4-C ) :   1.3111 B(  3-C , 12-C ) :   1.0412 B(  4-C ,  5-C ) :   1.0142
B(  5-C ,  6-C ) :   1.0298 B(  5-C , 68-H ) :   0.9172 B(  5-C , 69-H ) :   0.9164
B(  6-C ,  7-C ) :   0.9073 B(  6-C , 10-C ) :   0.9818 B(  6-C , 70-H ) :   0.8999
B(  7-C ,  8-O ) :   2.1565 B(  7-C ,  9-O ) :   1.2254 B(  9-O , 71-H ) :   0.9531
B( 10-C , 11-O ) :   1.0649 B( 10-C , 12-C ) :   1.0299 B( 10-C , 72-H ) :   0.9218
B( 11-O , 73-H ) :   0.9791 B( 12-C , 74-H ) :   0.9090 B( 12-C , 75-H ) :   0.8812
B( 13-C , 14-C ) :   1.5284 B( 13-C , 17-C ) :   1.0480 B( 14-C , 15-C ) :   1.1576
B( 14-C , 76-H ) :   0.9958 B( 15-C , 16-C ) :   1.0942 B( 15-C , 20-C ) :   1.3731
B( 16-C , 17-C ) :   1.6742 B( 16-C , 18-C ) :   1.0884 B( 17-C , 77-H ) :   1.0181
B( 18-C , 19-N ) :   2.9796 B( 20-C , 21-C ) :   1.1271 B( 20-C , 24-C ) :   1.1096
B( 21-C , 22-C ) :   1.5430 B( 21-C , 78-H ) :   0.9938 B( 22-C , 23-C ) :   1.0414
B( 22-C , 27-C ) :   1.0315 B( 23-C , 24-C ) :   1.6489 B( 23-C , 79-H ) :   1.0245
B( 24-C , 25-C ) :   1.0867 B( 25-C , 26-N ) :   2.9650 B( 27-C , 28-N ) :   1.1910
B( 27-C , 34-C ) :   1.3814 B( 28-N , 29-C ) :   0.9435 B( 28-N , 31-C ) :   1.0604
B( 29-C , 30-C ) :   1.1179 B( 29-C , 80-H ) :   0.9285 B( 29-C , 81-H ) :   0.9495
B( 30-C , 82-H ) :   0.9605 B( 30-C , 83-H ) :   0.9689 B( 30-C , 84-H ) :   0.9649
B( 31-C , 32-O ) :   1.9996 B( 31-C , 33-C ) :   0.9998 B( 32-O , 91-H ) :   0.1182
B( 33-C , 34-C ) :   1.2415 B( 33-C , 40-C ) :   1.3165 B( 34-C , 35-C ) :   0.9699
B( 35-C , 36-O ) :   2.1053 B( 35-C , 37-N ) :   1.0326 B( 37-N , 38-C ) :   0.9425
B( 37-N , 40-C ) :   1.1800 B( 38-C , 39-C ) :   1.1217 B( 38-C , 85-H ) :   0.9498
B( 38-C , 86-H ) :   0.9261 B( 39-C , 87-H ) :   0.9680 B( 39-C , 88-H ) :   0.9679
B( 39-C , 89-H ) :   0.9633 B( 40-C , 41-C ) :   1.1492 B( 41-C , 42-C ) :   1.6084
B( 41-C , 90-H ) :   0.9566 B( 42-C , 43-C ) :   1.0788 B( 42-C , 91-H ) :   0.9652
B( 43-C , 44-C ) :   1.2935 B( 43-C , 51-C ) :   1.3007 B( 44-C , 45-C ) :   1.3898
B( 44-C , 92-H ) :   0.9841 B( 45-C , 46-N ) :   0.8823 B( 45-C , 49-C ) :   1.3270
B( 46-N , 47-O ) :   1.5443 B( 46-N , 48-O ) :   1.5262 B( 47-O , 48-O ) :   0.2637
B( 49-C , 50-C ) :   1.3357 B( 49-C , 52-C ) :   1.0801 B( 50-C , 51-C ) :   1.3967
B( 50-C , 93-H ) :   0.9885 B( 51-C , 94-H ) :   1.0014 B( 52-C , 53-C ) :   1.7174
B( 52-C , 95-H ) :   0.9472 B( 53-C , 54-C ) :   1.1490 B( 53-C , 96-H ) :   0.9643
B( 54-C , 55-S ) :   1.1370 B( 54-C , 58-C ) :   1.4972 B( 55-S , 56-C ) :   1.1683
B( 56-C , 57-C ) :   1.5603 B( 56-C , 97-H ) :   0.9705 B( 57-C , 58-C ) :   1.3040
B( 57-C , 66-C ) :   1.0043 B( 58-C , 59-C ) :   1.0486 B( 59-C , 60-C ) :   1.0270
B( 59-C , 98-H ) :   0.9136 B( 59-C , 99-H ) :   0.9014 B( 60-C , 61-C ) :   0.9093
B( 60-C , 64-C ) :   0.9814 B( 60-C ,100-H ) :   0.8983 B( 61-C , 62-O ) :   2.1658
B( 61-C , 63-O ) :   1.2150 B( 63-O ,101-H ) :   0.9530 B( 64-C , 65-O ) :   1.0577
B( 64-C , 66-C ) :   1.0457 B( 64-C ,102-H ) :   0.9272 B( 65-O ,103-H ) :   0.9799
B( 66-C ,104-H ) :   0.9158 B( 66-C ,105-H ) :   0.8962

-----------------------------------------------------------------------------
         ABSORPTION SPECTRUM VIA TRANSITION ELECTRIC DIPOLE MOMENTS
-----------------------------------------------------------------------------
State   Energy  Wavelength   fosc         T2         TX        TY        TZ
        (cm-1)    (nm)                  (au**2)     (au)      (au)      (au)
-----------------------------------------------------------------------------
   0    8952.2   1117.0   0.425426371  15.64475   0.65743   3.83826   0.69301
   1   14806.6    675.4   0.091622202   2.03714   0.64809   1.07054   0.68634
   2   19019.8    525.8   0.634781630  10.98740  -0.15368   3.25971  -0.58146
   3   20272.2    493.3   0.009332519   0.15156  -0.01246  -0.38222   0.07284
   4   22564.5    443.2   0.248340706   3.62324   0.85595   1.68764   0.20606
   5   24329.4    411.0   0.005623489   0.07609   0.25586   0.05160   0.08927
   6   24798.1    403.3   0.073399318   0.97443   0.90006   0.23009   0.33374
   7   25418.3    393.4   0.481444963   6.23556   1.09999   2.02217   0.96768
   8   25813.1    387.4   0.016634487   0.21215   0.33541   0.24224   0.20242
   9   26035.2    384.1   0.026641516   0.33688  -0.04518   0.56002  -0.14564
  10   27592.7    362.4   0.271041736   3.23383  -0.70652  -1.65175  -0.07994
  11   29656.5    337.2   0.209415360   2.32469  -0.71443  -1.33686  -0.16455
  12   30108.7    332.1   0.043562312   0.47632  -0.51343   0.38044  -0.26072
  13   30763.8    325.1   0.004646150   0.04972   0.07502  -0.20024   0.06321
  14   31455.8    317.9   0.151418377   1.58472  -0.76320  -0.93895  -0.34733
  15   31653.2    315.9   0.161982220   1.68471  -0.64944  -1.08751  -0.28328
  16   31899.6    313.5   0.008727653   0.09007   0.21565   0.12001   0.17078
  17   33873.6    295.2   0.080764830   0.78494   0.32611   0.81968  -0.08200
  18   33930.3    294.7   0.120881449   1.17286   0.34749   0.63822   0.80299
  19   34069.3    293.5   0.096989106   0.93721  -0.64751  -0.28182  -0.66221
  20   34870.2    286.8   0.027311730   0.25785   0.33532  -0.31499   0.21493
  21   35075.7    285.1   0.217428532   2.04073   0.42490   1.34742   0.21128
  22   35370.5    282.7   0.002500059   0.02327   0.00937   0.06329  -0.13848
  23   35631.2    280.7   0.012461177   0.11513   0.21066   0.05494   0.26027
  24   36041.2    277.5   0.005799173   0.05297   0.09043   0.00971   0.21142
  25   36481.9    274.1   0.111190270   1.00338   0.18628   0.98192  -0.06720
  26   36692.5    272.5   0.026012059   0.23338   0.39279   0.28039   0.02210
  27   36975.5    270.4   0.046525788   0.41424  -0.22105  -0.58199  -0.16332
  28   37413.5    267.3   0.064695470   0.56927  -0.51346   0.48396  -0.26724
  29   37514.5    266.6   0.081947268   0.71914   0.31446   0.73891  -0.27251
  30   38082.1    262.6   0.012246456   0.10587   0.26966  -0.06402  -0.17045
  31   38146.5    262.1   0.010655999   0.09196   0.07221  -0.28368  -0.07922
  32   38891.3    257.1   0.176990090   1.49821   0.45462   1.13596  -0.03340
  33   40225.6    248.6   0.006941319   0.05681  -0.01138  -0.21381   0.10470

FINAL SINGLE POINT ENERGY     -3747.179009335195

DIPOLE MOMENT
-------------
                                X             Y             Z
Electronic contribution:     -7.40382     -13.11240       4.18584
Nuclear contribution   :      7.15036      10.70670      -3.88507
                        -----------------------------------------
Total Dipole Moment    :     -0.25347      -2.40570       0.30077
                        -----------------------------------------
Magnitude (a.u.)       :      2.43764
Magnitude (Debye)      :      6.19598

Rotational constants in cm-1:     0.002873     0.000212     0.000205
Rotational constants in MHz :    86.135392     6.369215     6.152866

                             ****ORCA TERMINATED NORMALLY****
TOTAL RUN TIME: 0 days 0 hours 9 minutes 55 seconds 363 msec
