                         Program Version 4.2.0 -  RELEASE  -
|  1> # ORCA input file
|  2> # SCF done       -147.352494496272          0.000902171525
|  3> ! CAM-B3LYP def2-SVP def2/J RIJCOSX Grid4 TightSCF
|  4> %maxcore 5000
|  5> %tddft
|  6>     Mode sTDDFT
|  7>     Ethresh 5.0
|  8>     maxcore 5000
|  9> end
| 10>
| 11> %pal
| 12>   nprocs 6
| 13>   end
| 14> * xyz 0 1
| 15>    C        2.13185        -2.04267         2.02827
| 16>    O        1.28759        -1.71792         3.03051
| 17>    C        0.15717        -1.31542         2.39872
| 18>    C        0.39475        -1.42556         0.99995
| 19>    N        1.68057        -1.89757         0.83885
| 20>    C       -0.56443        -1.09127         0.06039
| 21>    C       -1.76293        -0.64394         0.59358
| 22>    C       -1.97506        -0.54101         1.99871
| 23>    C       -1.02987        -0.87135         2.94916
| 24>    O       -3.23070        -0.07565         2.18580
| 25>    C       -3.72961         0.08512         0.92561
| 26>    N       -2.91269        -0.23350        -0.02781
| 27>    C       -5.06856         0.58032         0.75380
| 28>    C       -5.89386         0.93366         1.83237
| 29>    N       -7.10447         1.39853         1.65572
| 30>    C       -7.55151         1.52917         0.40411
| 31>    N       -6.85272         1.19816        -0.68938
| 32>    C       -5.63595         0.73800        -0.51771
| 33>    C       -8.87621         2.08592         0.27465
| 34>    N       -9.59452         2.19353        -0.88730
| 35>    C       -9.24501         1.68918        -2.19403
| 36>    C       -9.44609         0.17944        -2.28348
| 37>    C      -10.84053         2.81362        -0.66984
| 38>    O      -11.64789         3.02022        -1.55342
| 39>    C      -10.85203         3.10832         0.74458
| 40>    C       -9.62764         2.64414         1.29842
| 41>    C       -9.63021         2.95794         2.71650
| 42>    O       -8.83640         2.78861         3.61004
| 43>    N      -10.88744         3.58104         2.91967
| 44>    C      -11.25655         4.09879         4.21419
| 45>    C      -11.05666         5.61042         4.29816
| 46>    C      -11.61090         3.68138         1.75931
| 47>    C      -12.90701         4.26930         1.69497
| 48>    C      -13.59798         4.43079         0.54861
| 49>    C      -14.91237         5.03989         0.53405
| 50>    N      -15.46142         5.39853         1.70210
| 51>    C      -16.66049         5.94512         1.65856
| 52>    C      -17.34075         6.15820         0.46949
| 53>    C      -16.68741         5.76245        -0.70557
| 54>    N      -15.48065         5.20304        -0.65402
| 55>    C      -17.29743         5.95614        -2.00664
| 56>    C      -16.69050         5.60544        -3.15146
| 57>    C      -17.27359         5.80652        -4.44269
| 58>    O      -18.51500         6.37770        -4.55594
| 59>    C      -18.75165         6.42416        -5.88496
| 60>    C      -17.61585         5.86508        -6.54117
| 61>    N      -16.72236         5.49604        -5.57387
| 62>    C      -17.53894         5.76442        -7.92174
| 63>    C      -18.64516         6.24683        -8.59813
| 64>    C      -19.76670         6.80005        -7.91940
| 65>    C      -19.86271         6.90950        -6.54519
| 66>    O      -20.66479         7.17262        -8.86516
| 67>    C      -20.07371         6.84260       -10.03387
| 68>    N      -18.91373         6.30775        -9.94980
| 69>    H        3.11055        -2.39572         2.28897
| 70>    H       -0.39423        -1.17159        -0.99835
| 71>    H       -1.20032        -0.79064         4.00867
| 72>    H       -5.55994         0.83583         2.85676
| 73>    H       -5.07634         0.47912        -1.40648
| 74>    H       -8.20729         1.94382        -2.41148
| 75>    H       -9.91320         2.19488        -2.89682
| 76>    H       -8.77886        -0.33210        -1.59448
| 77>    H       -9.23017        -0.15907        -3.29269
| 78>    H      -10.47419        -0.07893        -2.04049
| 79>    H      -10.60058         3.60156         4.93465
| 80>    H      -12.29346         3.83135         4.43543
| 81>    H      -10.01532         5.85722         4.10572
| 82>    H      -11.31903         5.96194         5.29224
| 83>    H      -11.67678         6.12628         3.56824
| 84>    H      -13.36239         4.60633         2.61559
| 85>    H      -13.20521         4.12264        -0.40974
| 86>    H      -17.08753         6.22306         2.61467
| 87>    H      -18.31993         6.60812         0.44742
| 88>    H      -18.27860         6.41086        -2.01949
| 89>    H      -15.71174         5.15110        -3.13847
| 90>    H      -16.68638         5.34486        -8.42477
| 91>    H      -20.71612         7.33028        -6.04248
| 92>    H      -20.60630         7.04678       -10.94223
| 93> *
| 94>
| 95>                          ****END OF INPUT****

CARTESIAN COORDINATES (ANGSTROEM)
---------------------------------
  C      2.131850   -2.042670    2.028270
  O      1.287590   -1.717920    3.030510
  C      0.157170   -1.315420    2.398720
  C      0.394750   -1.425560    0.999950
  N      1.680570   -1.897570    0.838850
  C     -0.564430   -1.091270    0.060390
  C     -1.762930   -0.643940    0.593580
  C     -1.975060   -0.541010    1.998710
  C     -1.029870   -0.871350    2.949160
  O     -3.230700   -0.075650    2.185800
  C     -3.729610    0.085120    0.925610
  N     -2.912690   -0.233500   -0.027810
  C     -5.068560    0.580320    0.753800
  C     -5.893860    0.933660    1.832370
  N     -7.104470    1.398530    1.655720
  C     -7.551510    1.529170    0.404110
  N     -6.852720    1.198160   -0.689380
  C     -5.635950    0.738000   -0.517710
  C     -8.876210    2.085920    0.274650
  N     -9.594520    2.193530   -0.887300
  C     -9.245010    1.689180   -2.194030
  C     -9.446090    0.179440   -2.283480
  C    -10.840530    2.813620   -0.669840
  O    -11.647890    3.020220   -1.553420
  C    -10.852030    3.108320    0.744580
  C     -9.627640    2.644140    1.298420
  C     -9.630210    2.957940    2.716500
  O     -8.836400    2.788610    3.610040
  N    -10.887440    3.581040    2.919670
  C    -11.256550    4.098790    4.214190
  C    -11.056660    5.610420    4.298160
  C    -11.610900    3.681380    1.759310
  C    -12.907010    4.269300    1.694970
  C    -13.597980    4.430790    0.548610
  C    -14.912370    5.039890    0.534050
  N    -15.461420    5.398530    1.702100
  C    -16.660490    5.945120    1.658560
  C    -17.340750    6.158200    0.469490
  C    -16.687410    5.762450   -0.705570
  N    -15.480650    5.203040   -0.654020
  C    -17.297430    5.956140   -2.006640
  C    -16.690500    5.605440   -3.151460
  C    -17.273590    5.806520   -4.442690
  O    -18.515000    6.377700   -4.555940
  C    -18.751650    6.424160   -5.884960
  C    -17.615850    5.865080   -6.541170
  N    -16.722360    5.496040   -5.573870
  C    -17.538940    5.764420   -7.921740
  C    -18.645160    6.246830   -8.598130
  C    -19.766700    6.800050   -7.919400
  C    -19.862710    6.909500   -6.545190
  O    -20.664790    7.172620   -8.865160
  C    -20.073710    6.842600  -10.033870
  N    -18.913730    6.307750   -9.949800
  H      3.110550   -2.395720    2.288970
  H     -0.394230   -1.171590   -0.998350
  H     -1.200320   -0.790640    4.008670
  H     -5.559940    0.835830    2.856760
  H     -5.076340    0.479120   -1.406480
  H     -8.207290    1.943820   -2.411480
  H     -9.913200    2.194880   -2.896820
  H     -8.778860   -0.332100   -1.594480
  H     -9.230170   -0.159070   -3.292690
  H    -10.474190   -0.078930   -2.040490
  H    -10.600580    3.601560    4.934650
  H    -12.293460    3.831350    4.435430
  H    -10.015320    5.857220    4.105720
  H    -11.319030    5.961940    5.292240
  H    -11.676780    6.126280    3.568240
  H    -13.362390    4.606330    2.615590
  H    -13.205210    4.122640   -0.409740
  H    -17.087530    6.223060    2.614670
  H    -18.319930    6.608120    0.447420
  H    -18.278600    6.410860   -2.019490
  H    -15.711740    5.151100   -3.138470
  H    -16.686380    5.344860   -8.424770
  H    -20.716120    7.330280   -6.042480
  H    -20.606300    7.046780  -10.942230

 Total Charge           Charge          ....    0
 Multiplicity           Mult            ....    1
 Number of Electrons    NEL             ....  370
 Basis Dimension        Dim             ....  876

ORBITAL ENERGIES
----------------

  NO   OCC          E(Eh)            E(eV)
   0   2.0000     -19.304888      -525.3127
   1   2.0000     -19.300808      -525.2017
   2   2.0000     -19.297602      -525.1144
   3   2.0000     -19.295644      -525.0612
   4   2.0000     -19.181982      -521.9683
   5   2.0000     -19.177414      -521.8440
   6   2.0000     -14.444625      -393.0582
   7   2.0000     -14.441361      -392.9694
   8   2.0000     -14.421668      -392.4335
   9   2.0000     -14.414447      -392.2370
  10   2.0000     -14.413784      -392.2190
  11   2.0000     -14.412414      -392.1817
  12   2.0000     -14.410763      -392.1368
  13   2.0000     -14.409417      -392.1002
  14   2.0000     -14.406174      -392.0119
  15   2.0000     -14.406042      -392.0083
  16   2.0000     -10.379079      -282.4291
  17   2.0000     -10.366760      -282.0939
  18   2.0000     -10.366501      -282.0868
  19   2.0000     -10.366316      -282.0818
  20   2.0000     -10.362908      -281.9891
  21   2.0000     -10.360832      -281.9326
  22   2.0000     -10.356213      -281.8069
  23   2.0000     -10.345034      -281.5027
  24   2.0000     -10.344059      -281.4762
  25   2.0000     -10.342557      -281.4353
  26   2.0000     -10.340251      -281.3725
  27   2.0000     -10.339215      -281.3443
  28   2.0000     -10.335705      -281.2488
  29   2.0000     -10.331975      -281.1473
  30   2.0000     -10.331780      -281.1420
  31   2.0000     -10.330045      -281.0948
  32   2.0000     -10.325157      -280.9618
  33   2.0000     -10.324914      -280.9552
  34   2.0000     -10.309073      -280.5241
  35   2.0000     -10.306702      -280.4596
  36   2.0000     -10.305601      -280.4297
  37   2.0000     -10.302723      -280.3513
  38   2.0000     -10.302593      -280.3478
  39   2.0000     -10.300938      -280.3028
  40   2.0000     -10.296121      -280.1717
  41   2.0000     -10.291775      -280.0534
  42   2.0000     -10.290887      -280.0293
  43   2.0000     -10.289612      -279.9946
  44   2.0000     -10.288279      -279.9583
  45   2.0000     -10.284493      -279.8553
  46   2.0000     -10.283587      -279.8306
  47   2.0000     -10.282161      -279.7918
  48   2.0000     -10.280281      -279.7407
  49   2.0000     -10.277967      -279.6777
  50   2.0000     -10.259329      -279.1705
  51   2.0000     -10.257527      -279.1215
  52   2.0000     -10.252238      -278.9776
  53   2.0000     -10.243996      -278.7533
  54   2.0000      -1.234324       -33.5877
  55   2.0000      -1.231327       -33.5061
  56   2.0000      -1.228035       -33.4165
  57   2.0000      -1.224042       -33.3079
  58   2.0000      -1.124420       -30.5970
  59   2.0000      -1.116152       -30.3721
  60   2.0000      -1.093767       -29.7629
  61   2.0000      -1.085203       -29.5299
  62   2.0000      -1.054166       -28.6853
  63   2.0000      -1.042600       -28.3706
  64   2.0000      -1.027660       -27.9640
  65   2.0000      -1.020689       -27.7744
  66   2.0000      -1.019914       -27.7533
  67   2.0000      -1.014919       -27.6174
  68   2.0000      -0.987646       -26.8752
  69   2.0000      -0.984815       -26.7982
  70   2.0000      -0.958775       -26.0896
  71   2.0000      -0.952524       -25.9195
  72   2.0000      -0.922042       -25.0900
  73   2.0000      -0.918152       -24.9842
  74   2.0000      -0.914492       -24.8846
  75   2.0000      -0.896535       -24.3960
  76   2.0000      -0.873774       -23.7766
  77   2.0000      -0.860488       -23.4151
  78   2.0000      -0.852816       -23.2063
  79   2.0000      -0.850694       -23.1486
  80   2.0000      -0.847878       -23.0719
  81   2.0000      -0.833917       -22.6920
  82   2.0000      -0.816971       -22.2309
  83   2.0000      -0.808304       -21.9951
  84   2.0000      -0.796552       -21.6753
  85   2.0000      -0.782817       -21.3015
  86   2.0000      -0.765666       -20.8348
  87   2.0000      -0.755575       -20.5602
  88   2.0000      -0.748488       -20.3674
  89   2.0000      -0.738000       -20.0820
  90   2.0000      -0.734279       -19.9808
  91   2.0000      -0.721996       -19.6465
  92   2.0000      -0.721024       -19.6201
  93   2.0000      -0.719549       -19.5799
  94   2.0000      -0.705052       -19.1854
  95   2.0000      -0.700194       -19.0532
  96   2.0000      -0.696418       -18.9505
  97   2.0000      -0.693742       -18.8777
  98   2.0000      -0.677908       -18.4468
  99   2.0000      -0.667494       -18.1634
 100   2.0000      -0.657398       -17.8887
 101   2.0000      -0.652165       -17.7463
 102   2.0000      -0.648613       -17.6496
 103   2.0000      -0.644816       -17.5463
 104   2.0000      -0.639686       -17.4067
 105   2.0000      -0.635729       -17.2991
 106   2.0000      -0.630475       -17.1561
 107   2.0000      -0.625243       -17.0137
 108   2.0000      -0.610358       -16.6087
 109   2.0000      -0.603004       -16.4086
 110   2.0000      -0.586995       -15.9729
 111   2.0000      -0.584723       -15.9111
 112   2.0000      -0.584107       -15.8944
 113   2.0000      -0.579490       -15.7687
 114   2.0000      -0.579182       -15.7603
 115   2.0000      -0.575018       -15.6470
 116   2.0000      -0.571218       -15.5436
 117   2.0000      -0.570433       -15.5223
 118   2.0000      -0.565123       -15.3778
 119   2.0000      -0.559613       -15.2278
 120   2.0000      -0.558378       -15.1942
 121   2.0000      -0.556049       -15.1309
 122   2.0000      -0.546828       -14.8800
 123   2.0000      -0.545121       -14.8335
 124   2.0000      -0.541211       -14.7271
 125   2.0000      -0.538919       -14.6647
 126   2.0000      -0.536933       -14.6107
 127   2.0000      -0.535884       -14.5821
 128   2.0000      -0.530849       -14.4451
 129   2.0000      -0.527978       -14.3670
 130   2.0000      -0.526251       -14.3200
 131   2.0000      -0.519363       -14.1326
 132   2.0000      -0.516883       -14.0651
 133   2.0000      -0.511390       -13.9156
 134   2.0000      -0.509873       -13.8743
 135   2.0000      -0.507394       -13.8069
 136   2.0000      -0.501768       -13.6538
 137   2.0000      -0.499971       -13.6049
 138   2.0000      -0.497120       -13.5273
 139   2.0000      -0.492859       -13.4114
 140   2.0000      -0.489995       -13.3334
 141   2.0000      -0.487913       -13.2768
 142   2.0000      -0.484308       -13.1787
 143   2.0000      -0.477737       -12.9999
 144   2.0000      -0.464049       -12.6274
 145   2.0000      -0.461126       -12.5479
 146   2.0000      -0.455410       -12.3923
 147   2.0000      -0.453590       -12.3428
 148   2.0000      -0.448655       -12.2085
 149   2.0000      -0.448433       -12.2025
 150   2.0000      -0.446777       -12.1574
 151   2.0000      -0.443365       -12.0646
 152   2.0000      -0.442493       -12.0408
 153   2.0000      -0.440239       -11.9795
 154   2.0000      -0.437367       -11.9014
 155   2.0000      -0.434356       -11.8194
 156   2.0000      -0.433232       -11.7889
 157   2.0000      -0.427524       -11.6335
 158   2.0000      -0.417646       -11.3647
 159   2.0000      -0.414460       -11.2780
 160   2.0000      -0.411258       -11.1909
 161   2.0000      -0.409020       -11.1300
 162   2.0000      -0.405847       -11.0437
 163   2.0000      -0.402658       -10.9569
 164   2.0000      -0.398718       -10.8497
 165   2.0000      -0.386604       -10.5200
 166   2.0000      -0.384964       -10.4754
 167   2.0000      -0.381564       -10.3829
 168   2.0000      -0.373267       -10.1571
 169   2.0000      -0.366881        -9.9833
 170   2.0000      -0.366684        -9.9780
 171   2.0000      -0.361683        -9.8419
 172   2.0000      -0.359123        -9.7722
 173   2.0000      -0.348219        -9.4755
 174   2.0000      -0.338484        -9.2106
 175   2.0000      -0.327463        -8.9107
 176   2.0000      -0.325811        -8.8658
 177   2.0000      -0.319694        -8.6993
 178   2.0000      -0.314977        -8.5710
 179   2.0000      -0.304655        -8.2901
 180   2.0000      -0.304603        -8.2887
 181   2.0000      -0.299990        -8.1631
 182   2.0000      -0.292218        -7.9517
 183   2.0000      -0.280039        -7.6203
 184   2.0000      -0.237433        -6.4609
 185   0.0000      -0.083636        -2.2759
 186   0.0000      -0.056456        -1.5362
 187   0.0000      -0.036852        -1.0028
 188   0.0000      -0.004658        -0.1267
 189   0.0000      -0.002119        -0.0577

MULLIKEN ATOMIC CHARGES
-----------------------
   0 C :    0.176516
   1 O :   -0.195828
   2 C :    0.196645
   3 C :    0.007673
   4 N :   -0.075255
   5 C :   -0.090391
   6 C :    0.033688
   7 C :    0.219990
   8 C :   -0.159051
   9 O :   -0.205228
  10 C :    0.128463
  11 N :   -0.045871
  12 C :   -0.052607
  13 C :    0.055713
  14 N :    0.002402
  15 C :   -0.182901
  16 N :   -0.057325
  17 C :    0.068440
  18 C :    0.196018
  19 N :   -0.259845
  20 C :    0.135380
  21 C :    0.004193
  22 C :    0.155762
  23 O :   -0.205060
  24 C :   -0.070412
  25 C :   -0.051505
  26 C :    0.147981
  27 O :   -0.156337
  28 N :   -0.269287
  29 C :    0.099996
  30 C :    0.004676
  31 C :    0.160154
  32 C :   -0.000124
  33 C :    0.046891
  34 C :   -0.073921
  35 N :   -0.078012
  36 C :    0.082592
  37 C :   -0.038853
  38 C :    0.045281
  39 N :   -0.033966
  40 C :    0.007270
  41 C :    0.022400
  42 C :    0.116274
  43 O :   -0.214672
  44 C :    0.218793
  45 C :    0.017807
  46 N :   -0.031968
  47 C :   -0.077865
  48 C :    0.002962
  49 C :    0.195937
  50 C :   -0.153602
  51 O :   -0.198376
  52 C :    0.172675
  53 N :   -0.073322
  54 H :    0.031840
  55 H :   -0.020013
  56 H :   -0.010509
  57 H :    0.022397
  58 H :    0.022468
  59 H :    0.027952
  60 H :    0.033037
  61 H :    0.010348
  62 H :    0.014808
  63 H :    0.017626
  64 H :    0.041451
  65 H :    0.024697
  66 H :    0.026501
  67 H :    0.019712
  68 H :    0.019177
  69 H :   -0.006346
  70 H :    0.018607
  71 H :    0.006853
  72 H :   -0.004377
  73 H :   -0.002040
  74 H :    0.041340
  75 H :   -0.020464
  76 H :   -0.016829
  77 H :    0.030775
Sum of atomic charges:   -0.0000000

LOEWDIN ATOMIC CHARGES
----------------------
   0 C :    0.084649
   1 O :   -0.007346
   2 C :    0.031623
   3 C :   -0.038194
   4 N :   -0.097562
   5 C :   -0.013141
   6 C :   -0.035416
   7 C :    0.035812
   8 C :   -0.059682
   9 O :   -0.008338
  10 C :    0.064192
  11 N :   -0.099396
  12 C :   -0.095954
  13 C :    0.069046
  14 N :   -0.043405
  15 C :    0.025449
  16 N :   -0.070011
  17 C :    0.079273
  18 C :    0.047016
  19 N :    0.009449
  20 C :    0.034174
  21 C :   -0.060608
  22 C :    0.077357
  23 O :   -0.197897
  24 C :   -0.125029
  25 C :   -0.093097
  26 C :    0.084585
  27 O :   -0.164681
  28 N :   -0.006009
  29 C :    0.035351
  30 C :   -0.060981
  31 C :    0.088402
  32 C :   -0.022281
  33 C :    0.023650
  34 C :    0.026941
  35 N :   -0.088990
  36 C :    0.050960
  37 C :   -0.060604
  38 C :    0.033711
  39 N :   -0.073615
  40 C :   -0.018537
  41 C :    0.005860
  42 C :    0.058637
  43 O :   -0.016146
  44 C :    0.036995
  45 C :   -0.038299
  46 N :   -0.087661
  47 C :   -0.009859
  48 C :   -0.040380
  49 C :    0.032464
  50 C :   -0.063567
  51 O :   -0.009007
  52 C :    0.082298
  53 N :   -0.097092
  54 H :    0.026089
  55 H :    0.044255
  56 H :    0.044933
  57 H :    0.033039
  58 H :    0.034234
  59 H :    0.022489
  60 H :    0.030535
  61 H :    0.017969
  62 H :    0.028262
  63 H :    0.025943
  64 H :    0.036340
  65 H :    0.023753
  66 H :    0.031042
  67 H :    0.029414
  68 H :    0.023463
  69 H :    0.031880
  70 H :    0.041362
  71 H :    0.026703
  72 H :    0.034143
  73 H :    0.031899
  74 H :    0.054529
  75 H :    0.044523
  76 H :    0.042620
  77 H :    0.025474

  Mayer bond orders larger than 0.100000
B(  0-C ,  1-O ) :   1.1263 B(  0-C ,  4-N ) :   1.8012 B(  0-C , 54-H ) :   0.9837
B(  1-O ,  2-C ) :   1.1161 B(  2-C ,  3-C ) :   1.2827 B(  2-C ,  8-C ) :   1.3122
B(  3-C ,  4-N ) :   1.2812 B(  3-C ,  5-C ) :   1.2956 B(  5-C ,  6-C ) :   1.2811
B(  5-C ,  8-C ) :   0.1558 B(  5-C , 55-H ) :   1.0551 B(  6-C ,  7-C ) :   1.2555
B(  6-C , 11-N ) :   1.2734 B(  7-C ,  8-C ) :   1.3200 B(  7-C ,  9-O ) :   1.0969
B(  8-C , 56-H ) :   1.0482 B(  9-O , 10-C ) :   1.1574 B( 10-C , 11-N ) :   1.7953
B( 10-C , 12-C ) :   1.0111 B( 12-C , 13-C ) :   1.2891 B( 12-C , 17-C ) :   1.3353
B( 13-C , 14-N ) :   1.5788 B( 13-C , 57-H ) :   0.9907 B( 14-N , 15-C ) :   1.6391
B( 14-N , 18-C ) :  -0.1268 B( 15-C , 16-N ) :   1.4901 B( 15-C , 18-C ) :   0.9818
B( 16-N , 17-C ) :   1.5511 B( 17-C , 58-H ) :   0.9823 B( 18-C , 19-N ) :   1.2022
B( 18-C , 25-C ) :   1.4027 B( 19-N , 20-C ) :   0.9386 B( 19-N , 22-C ) :   1.0557
B( 20-C , 21-C ) :   1.1244 B( 20-C , 59-H ) :   0.9343 B( 20-C , 60-H ) :   0.9263
B( 21-C , 61-H ) :   0.9668 B( 21-C , 62-H ) :   0.9684 B( 21-C , 63-H ) :   0.9662
B( 22-C , 23-O ) :   2.0474 B( 22-C , 24-C ) :   0.9848 B( 24-C , 25-C ) :   1.2412
B( 24-C , 31-C ) :   1.3432 B( 25-C , 26-C ) :   0.9414 B( 26-C , 27-O ) :   2.1839
B( 26-C , 28-N ) :   1.0116 B( 28-N , 29-C ) :   0.9488 B( 28-N , 31-C ) :   1.1824
B( 29-C , 30-C ) :   1.1207 B( 29-C , 64-H ) :   0.9269 B( 29-C , 65-H ) :   0.9502
B( 30-C , 66-H ) :   0.9639 B( 30-C , 67-H ) :   0.9680 B( 30-C , 68-H ) :   0.9683
B( 31-C , 32-C ) :   1.1020 B( 32-C , 33-C ) :   1.6483 B( 32-C , 69-H ) :   0.9594
B( 33-C , 34-C ) :   1.0187 B( 33-C , 70-H ) :   0.9576 B( 34-C , 35-N ) :   1.5077
B( 34-C , 39-N ) :   1.5574 B( 35-N , 36-C ) :   1.5592 B( 36-C , 37-C ) :   1.3586
B( 36-C , 71-H ) :   0.9805 B( 37-C , 38-C ) :   1.3422 B( 37-C , 72-H ) :   0.9756
B( 38-C , 39-N ) :   1.5211 B( 38-C , 40-C ) :   1.0511 B( 40-C , 41-C ) :   1.7070
B( 40-C , 73-H ) :   0.9779 B( 41-C , 42-C ) :   1.0706 B( 41-C , 74-H ) :   0.9655
B( 42-C , 43-O ) :   1.1222 B( 42-C , 46-N ) :   1.7436 B( 43-O , 44-C ) :   1.1103
B( 44-C , 45-C ) :   1.2557 B( 44-C , 50-C ) :   1.3214 B( 45-C , 46-N ) :   1.2873
B( 45-C , 47-C ) :   1.2822 B( 47-C , 48-C ) :   1.2976 B( 47-C , 50-C ) :   0.1557
B( 47-C , 75-H ) :   1.0540 B( 48-C , 49-C ) :   1.2823 B( 48-C , 53-N ) :   1.2811
B( 49-C , 50-C ) :   1.3141 B( 49-C , 51-O ) :   1.1134 B( 50-C , 76-H ) :   1.0462
B( 51-O , 52-C ) :   1.1268 B( 52-C , 53-N ) :   1.8020 B( 52-C , 77-H ) :   0.9839

-----------------------------------------------------------------------------
         ABSORPTION SPECTRUM VIA TRANSITION ELECTRIC DIPOLE MOMENTS
-----------------------------------------------------------------------------
State   Energy  Wavelength   fosc         T2         TX        TY        TZ
        (cm-1)    (nm)                  (au**2)     (au)      (au)      (au)
-----------------------------------------------------------------------------
   0   16884.8    592.2   0.678573735  13.23053  -3.14481   1.63191   0.82314
   1   25253.8    396.0   0.018948191   0.24701   0.46117  -0.15822   0.09643
   2   25887.5    386.3   0.001619718   0.02060  -0.00270   0.04319  -0.13684
   3   26514.9    377.1   0.003853913   0.04785  -0.14569   0.13057   0.09786
   4   27844.8    359.1   0.016284366   0.19253  -0.35221   0.06857   0.25254
   5   29040.9    344.3   0.011976210   0.13576   0.32901  -0.16502   0.01692
   6   30932.7    323.3   0.162679452   1.73137   1.05404  -0.43107  -0.65920
   7   31013.2    322.4   0.000959749   0.01019  -0.09540   0.03284  -0.00304
   8   31039.6    322.2   0.017891773   0.18976   0.01733  -0.10311  -0.42289
   9   31175.6    320.8   1.304729478  13.77782   2.98774  -1.06505   1.92793
  10   31552.3    316.9   0.021838305   0.22786   0.35841  -0.10506  -0.29726
  11   31885.6    313.6   1.001723248  10.34259   0.79616  -0.21915   3.10816
  12   33507.5    298.4   0.005711099   0.05611   0.07911   0.22325  -0.00364
  13   34760.1    287.7   0.061716831   0.58452   0.08401  -0.15176  -0.74460
  14   35165.8    284.4   0.015288287   0.14312  -0.24353   0.14699  -0.24943
  15   35691.8    280.2   0.122104056   1.12626  -0.00468   0.12038   1.05439
  16   36895.9    271.0   0.645347807   5.75827  -2.19727   0.80788  -0.52686
  17   37776.2    264.7   0.015304347   0.13337  -0.24809  -0.25471  -0.08334
  18   38376.1    260.6   0.005005509   0.04294   0.14507  -0.07072  -0.12998
  19   40175.3    248.9   0.058030070   0.47552  -0.61361   0.14520  -0.27914

FINAL SINGLE POINT ENERGY     -2458.386532179224

DIPOLE MOMENT
-------------
                                X             Y             Z
Electronic contribution:      9.52055      -4.49582     -11.62054
Nuclear contribution   :    -10.57302       5.16287      13.03694
                        -----------------------------------------
Total Dipole Moment    :     -1.05247       0.66705       1.41640
                        -----------------------------------------
Magnitude (a.u.)       :      1.88649
Magnitude (Debye)      :      4.79508

Rotational constants in cm-1:     0.003139     0.000390     0.000349
Rotational constants in MHz :    94.099113    11.701648    10.469427

                             ****ORCA TERMINATED NORMALLY****
TOTAL RUN TIME: 0 days 0 hours 4 minutes 47 seconds 500 msec
