                         Program Version 4.2.0 -  RELEASE  -
|  1> # ORCA input file
|  2> # SCF done       -171.652341604537          0.000303887473
|  3> ! CAM-B3LYP def2-SVP def2/J RIJCOSX Grid4 TightSCF
|  4> %maxcore 5000
|  5> %tddft
|  6>     Mode sTDDFT
|  7>     Ethresh 5.0
|  8>     maxcore 5000
|  9> end
| 10>
| 11> %pal
| 12>   nprocs 6
| 13>   end
| 14> * xyz 0 1
| 15>    C       -3.14786        -1.68223        -4.76370
| 16>    S       -3.62023        -2.47825        -3.32322
| 17>    C       -2.12509        -3.38273        -3.25216
| 18>    C       -1.31664        -3.04963        -4.33635
| 19>    C       -1.91319        -2.07264        -5.18429
| 20>    N       -1.26023        -1.41360        -6.28816
| 21>    O       -1.95402        -1.12280        -7.23400
| 22>    O       -0.09355        -1.14107        -6.14551
| 23>    N       -0.11291        -3.72715        -4.67836
| 24>    O        0.54740        -4.22089        -3.78552
| 25>    O        0.14909        -3.80100        -5.86092
| 26>    C       -1.86603        -4.32428        -2.23297
| 27>    C       -2.73068        -4.62216        -1.22757
| 28>    C       -2.44886        -5.55165        -0.20483
| 29>    S       -0.93870        -6.42456        -0.16170
| 30>    C       -1.39372        -7.22736         1.30442
| 31>    C       -2.65426        -6.82222         1.73785
| 32>    C       -3.25043        -5.89440         0.87986
| 33>    C       -4.61404        -5.32473         1.11970
| 34>    C       -5.38754        -6.15817         2.14690
| 35>    C       -6.66568        -5.41351         2.51788
| 36>    F       -7.32630        -4.99555         1.42328
| 37>    F       -7.53096        -6.15733         3.21125
| 38>    F       -6.41757        -4.31402         3.24704
| 39>    C       -4.49645        -6.40246         3.37641
| 40>    C       -5.21644        -7.02124         4.46981
| 41>    N       -5.75595        -7.52573         5.34006
| 42>    C       -3.31769        -7.30925         2.98697
| 43>    C       -0.49766        -8.16219         1.87955
| 44>    S       -0.82498        -9.10314         3.30257
| 45>    C        0.72649        -9.88894         3.21152
| 46>    C        1.47443        -9.40963         2.15549
| 47>    C        0.76864        -8.44593         1.38083
| 48>    O        1.15504        -7.80040         0.26307
| 49>    C        2.46232        -7.94586        -0.25338
| 50>    O        2.75129        -9.74997         1.81812
| 51>    C        3.62985       -10.18926         2.83449
| 52>    C        1.03398       -10.85321         4.23964
| 53>    S        0.83360       -10.34074         5.89091
| 54>    C        1.25624       -11.91338         6.48439
| 55>    C        1.58609       -12.76893         5.45393
| 56>    C        1.41249       -12.17722         4.16639
| 57>    O        1.60425       -12.91691         3.03535
| 58>    C        0.83546       -12.61013         1.88979
| 59>    O        2.00707       -14.01734         5.77155
| 60>    C        2.06139       -15.01461         4.77349
| 61>    C        1.33800       -12.20022         7.88414
| 62>    S        2.72634       -13.01389         8.51014
| 63>    C        2.18607       -12.87997        10.14715
| 64>    C        0.96664       -12.20358        10.20954
| 65>    C        0.46427       -11.85602         8.90935
| 66>    C       -0.84403       -11.29674         8.80805
| 67>    C       -1.51937       -11.18027         7.57495
| 68>    N       -2.14308       -11.13272         6.61232
| 69>    C       -1.52731       -10.96327         9.95578
| 70>    C       -0.95551       -11.16897        11.22258
| 71>    C        0.25054       -11.79558        11.35686
| 72>    C        3.00192       -13.46764        11.17513
| 73>    C        2.59478       -13.89769        12.36840
| 74>    H       -3.77766        -0.94258        -5.21685
| 75>    H       -0.90245        -4.81427        -2.26797
| 76>    H       -3.68634        -4.11399        -1.18562
| 77>    H       -5.17416        -5.28758         0.18291
| 78>    H       -4.52046        -4.29675         1.48824
| 79>    H       -5.69004        -7.11748         1.71351
| 80>    H       -4.11663        -5.43579         3.73128
| 81>    H       -3.67362        -8.33501         2.84469
| 82>    H       -2.60120        -7.33397         3.81108
| 83>    H        2.47755        -7.33245        -1.15300
| 84>    H        2.67796        -8.98519        -0.50661
| 85>    H        3.21068        -7.58121         0.45316
| 86>    H        3.49976       -11.25202         3.04781
| 87>    H        3.49475        -9.61506         3.75378
| 88>    H        4.63256       -10.02401         2.44168
| 89>    H        0.81660       -13.52398         1.29652
| 90>    H        1.29246       -11.81196         1.30064
| 91>    H       -0.18406       -12.32572         2.15946
| 92>    H        2.37491       -15.91814         5.29447
| 93>    H        2.78660       -14.76601         3.99620
| 94>    H        1.08185       -15.17684         4.31743
| 95>    H       -2.51850       -10.54194         9.87702
| 96>    H       -1.50017       -10.84777        12.09725
| 97>    H        0.67391       -11.96344        12.33335
| 98>    H        4.03970       -13.60171        10.89483
| 99>    H        1.56678       -13.86098        12.68126
|100>    H        3.29147       -14.33099        13.06442
|101> *
|102>
|103>                          ****END OF INPUT****

CARTESIAN COORDINATES (ANGSTROEM)
---------------------------------
  C     -3.147860   -1.682230   -4.763700
  S     -3.620230   -2.478250   -3.323220
  C     -2.125090   -3.382730   -3.252160
  C     -1.316640   -3.049630   -4.336350
  C     -1.913190   -2.072640   -5.184290
  N     -1.260230   -1.413600   -6.288160
  O     -1.954020   -1.122800   -7.234000
  O     -0.093550   -1.141070   -6.145510
  N     -0.112910   -3.727150   -4.678360
  O      0.547400   -4.220890   -3.785520
  O      0.149090   -3.801000   -5.860920
  C     -1.866030   -4.324280   -2.232970
  C     -2.730680   -4.622160   -1.227570
  C     -2.448860   -5.551650   -0.204830
  S     -0.938700   -6.424560   -0.161700
  C     -1.393720   -7.227360    1.304420
  C     -2.654260   -6.822220    1.737850
  C     -3.250430   -5.894400    0.879860
  C     -4.614040   -5.324730    1.119700
  C     -5.387540   -6.158170    2.146900
  C     -6.665680   -5.413510    2.517880
  F     -7.326300   -4.995550    1.423280
  F     -7.530960   -6.157330    3.211250
  F     -6.417570   -4.314020    3.247040
  C     -4.496450   -6.402460    3.376410
  C     -5.216440   -7.021240    4.469810
  N     -5.755950   -7.525730    5.340060
  C     -3.317690   -7.309250    2.986970
  C     -0.497660   -8.162190    1.879550
  S     -0.824980   -9.103140    3.302570
  C      0.726490   -9.888940    3.211520
  C      1.474430   -9.409630    2.155490
  C      0.768640   -8.445930    1.380830
  O      1.155040   -7.800400    0.263070
  C      2.462320   -7.945860   -0.253380
  O      2.751290   -9.749970    1.818120
  C      3.629850  -10.189260    2.834490
  C      1.033980  -10.853210    4.239640
  S      0.833600  -10.340740    5.890910
  C      1.256240  -11.913380    6.484390
  C      1.586090  -12.768930    5.453930
  C      1.412490  -12.177220    4.166390
  O      1.604250  -12.916910    3.035350
  C      0.835460  -12.610130    1.889790
  O      2.007070  -14.017340    5.771550
  C      2.061390  -15.014610    4.773490
  C      1.338000  -12.200220    7.884140
  S      2.726340  -13.013890    8.510140
  C      2.186070  -12.879970   10.147150
  C      0.966640  -12.203580   10.209540
  C      0.464270  -11.856020    8.909350
  C     -0.844030  -11.296740    8.808050
  C     -1.519370  -11.180270    7.574950
  N     -2.143080  -11.132720    6.612320
  C     -1.527310  -10.963270    9.955780
  C     -0.955510  -11.168970   11.222580
  C      0.250540  -11.795580   11.356860
  C      3.001920  -13.467640   11.175130
  C      2.594780  -13.897690   12.368400
  H     -3.777660   -0.942580   -5.216850
  H     -0.902450   -4.814270   -2.267970
  H     -3.686340   -4.113990   -1.185620
  H     -5.174160   -5.287580    0.182910
  H     -4.520460   -4.296750    1.488240
  H     -5.690040   -7.117480    1.713510
  H     -4.116630   -5.435790    3.731280
  H     -3.673620   -8.335010    2.844690
  H     -2.601200   -7.333970    3.811080
  H      2.477550   -7.332450   -1.153000
  H      2.677960   -8.985190   -0.506610
  H      3.210680   -7.581210    0.453160
  H      3.499760  -11.252020    3.047810
  H      3.494750   -9.615060    3.753780
  H      4.632560  -10.024010    2.441680
  H      0.816600  -13.523980    1.296520
  H      1.292460  -11.811960    1.300640
  H     -0.184060  -12.325720    2.159460
  H      2.374910  -15.918140    5.294470
  H      2.786600  -14.766010    3.996200
  H      1.081850  -15.176840    4.317430
  H     -2.518500  -10.541940    9.877020
  H     -1.500170  -10.847770   12.097250
  H      0.673910  -11.963440   12.333350
  H      4.039700  -13.601710   10.894830
  H      1.566780  -13.860980   12.681260
  H      3.291470  -14.330990   13.064420

 Total Charge           Charge          ....    0
 Multiplicity           Mult            ....    1
 Number of Electrons    NEL             ....  460
 Basis Dimension        Dim             ....  981

ORBITAL ENERGIES
----------------

  NO   OCC          E(Eh)            E(eV)
   0   2.0000     -88.990683     -2421.5596
   1   2.0000     -88.968452     -2420.9547
   2   2.0000     -88.965319     -2420.8694
   3   2.0000     -88.958147     -2420.6742
   4   2.0000     -88.956778     -2420.6370
   5   2.0000     -24.805985      -675.0052
   6   2.0000     -24.802196      -674.9021
   7   2.0000     -24.800606      -674.8588
   8   2.0000     -19.264454      -524.2124
   9   2.0000     -19.261032      -524.1193
  10   2.0000     -19.256870      -524.0061
  11   2.0000     -19.249486      -523.8052
  12   2.0000     -19.242207      -523.6071
  13   2.0000     -19.241152      -523.5784
  14   2.0000     -19.240225      -523.5531
  15   2.0000     -19.240013      -523.5474
  16   2.0000     -14.650365      -398.6567
  17   2.0000     -14.649969      -398.6459
  18   2.0000     -14.400219      -391.8499
  19   2.0000     -14.394743      -391.7009
  20   2.0000     -10.517768      -286.2030
  21   2.0000     -10.349805      -281.6325
  22   2.0000     -10.348227      -281.5896
  23   2.0000     -10.344768      -281.4954
  24   2.0000     -10.344699      -281.4936
  25   2.0000     -10.343811      -281.4694
  26   2.0000     -10.340444      -281.3778
  27   2.0000     -10.338453      -281.3236
  28   2.0000     -10.331892      -281.1451
  29   2.0000     -10.330839      -281.1164
  30   2.0000     -10.327421      -281.0234
  31   2.0000     -10.325557      -280.9727
  32   2.0000     -10.325518      -280.9716
  33   2.0000     -10.320690      -280.8402
  34   2.0000     -10.318895      -280.7914
  35   2.0000     -10.318167      -280.7716
  36   2.0000     -10.315596      -280.7016
  37   2.0000     -10.311260      -280.5836
  38   2.0000     -10.310015      -280.5498
  39   2.0000     -10.309562      -280.5374
  40   2.0000     -10.309286      -280.5299
  41   2.0000     -10.305575      -280.4290
  42   2.0000     -10.305430      -280.4250
  43   2.0000     -10.301422      -280.3159
  44   2.0000     -10.300020      -280.2778
  45   2.0000     -10.299168      -280.2546
  46   2.0000     -10.297984      -280.2224
  47   2.0000     -10.297902      -280.2201
  48   2.0000     -10.295914      -280.1661
  49   2.0000     -10.293572      -280.1023
  50   2.0000     -10.293348      -280.0962
  51   2.0000     -10.291698      -280.0513
  52   2.0000     -10.288097      -279.9534
  53   2.0000     -10.287972      -279.9499
  54   2.0000     -10.287954      -279.9495
  55   2.0000     -10.287528      -279.9379
  56   2.0000     -10.287374      -279.9337
  57   2.0000     -10.280345      -279.7424
  58   2.0000     -10.272681      -279.5339
  59   2.0000      -8.086371      -220.0413
  60   2.0000      -8.063589      -219.4214
  61   2.0000      -8.059744      -219.3168
  62   2.0000      -8.052319      -219.1147
  63   2.0000      -8.051672      -219.0971
  64   2.0000      -6.055647      -164.7825
  65   2.0000      -6.051519      -164.6702
  66   2.0000      -6.048398      -164.5853
  67   2.0000      -6.032404      -164.1501
  68   2.0000      -6.029321      -164.0662
  69   2.0000      -6.028312      -164.0387
  70   2.0000      -6.026641      -163.9932
  71   2.0000      -6.025216      -163.9545
  72   2.0000      -6.021677      -163.8582
  73   2.0000      -6.021273      -163.8472
  74   2.0000      -6.021147      -163.8438
  75   2.0000      -6.017431      -163.7426
  76   2.0000      -6.017218      -163.7368
  77   2.0000      -6.014392      -163.6599
  78   2.0000      -6.013189      -163.6272
  79   2.0000      -1.393874       -37.9292
  80   2.0000      -1.326753       -36.1028
  81   2.0000      -1.320069       -35.9209
  82   2.0000      -1.296940       -35.2915
  83   2.0000      -1.293823       -35.2067
  84   2.0000      -1.174670       -31.9644
  85   2.0000      -1.164174       -31.6788
  86   2.0000      -1.155063       -31.4309
  87   2.0000      -1.146560       -31.1995
  88   2.0000      -1.145268       -31.1643
  89   2.0000      -1.139471       -31.0066
  90   2.0000      -1.026861       -27.9423
  91   2.0000      -1.009499       -27.4699
  92   2.0000      -1.007409       -27.4130
  93   2.0000      -0.995105       -27.0782
  94   2.0000      -0.987889       -26.8818
  95   2.0000      -0.979976       -26.6665
  96   2.0000      -0.973691       -26.4955
  97   2.0000      -0.954684       -25.9783
  98   2.0000      -0.939300       -25.5597
  99   2.0000      -0.928199       -25.2576
 100   2.0000      -0.912211       -24.8225
 101   2.0000      -0.903232       -24.5782
 102   2.0000      -0.898080       -24.4380
 103   2.0000      -0.878480       -23.9046
 104   2.0000      -0.875970       -23.8364
 105   2.0000      -0.862033       -23.4571
 106   2.0000      -0.861176       -23.4338
 107   2.0000      -0.853742       -23.2315
 108   2.0000      -0.847406       -23.0591
 109   2.0000      -0.841514       -22.8988
 110   2.0000      -0.833996       -22.6942
 111   2.0000      -0.824839       -22.4450
 112   2.0000      -0.806646       -21.9500
 113   2.0000      -0.800204       -21.7747
 114   2.0000      -0.790053       -21.4984
 115   2.0000      -0.779180       -21.2026
 116   2.0000      -0.769951       -20.9514
 117   2.0000      -0.766131       -20.8475
 118   2.0000      -0.763105       -20.7651
 119   2.0000      -0.755900       -20.5691
 120   2.0000      -0.746934       -20.3251
 121   2.0000      -0.736630       -20.0447
 122   2.0000      -0.731742       -19.9117
 123   2.0000      -0.727496       -19.7962
 124   2.0000      -0.706196       -19.2166
 125   2.0000      -0.699229       -19.0270
 126   2.0000      -0.685060       -18.6414
 127   2.0000      -0.681239       -18.5375
 128   2.0000      -0.676170       -18.3995
 129   2.0000      -0.673816       -18.3355
 130   2.0000      -0.666673       -18.1411
 131   2.0000      -0.660392       -17.9702
 132   2.0000      -0.655062       -17.8251
 133   2.0000      -0.651596       -17.7308
 134   2.0000      -0.643622       -17.5138
 135   2.0000      -0.640352       -17.4249
 136   2.0000      -0.631714       -17.1898
 137   2.0000      -0.629956       -17.1420
 138   2.0000      -0.624564       -16.9953
 139   2.0000      -0.623534       -16.9672
 140   2.0000      -0.622265       -16.9327
 141   2.0000      -0.618888       -16.8408
 142   2.0000      -0.608940       -16.5701
 143   2.0000      -0.599185       -16.3046
 144   2.0000      -0.598763       -16.2932
 145   2.0000      -0.592634       -16.1264
 146   2.0000      -0.587864       -15.9966
 147   2.0000      -0.581595       -15.8260
 148   2.0000      -0.579842       -15.7783
 149   2.0000      -0.578163       -15.7326
 150   2.0000      -0.571575       -15.5533
 151   2.0000      -0.568429       -15.4677
 152   2.0000      -0.567607       -15.4454
 153   2.0000      -0.565111       -15.3775
 154   2.0000      -0.562612       -15.3094
 155   2.0000      -0.561100       -15.2683
 156   2.0000      -0.556115       -15.1326
 157   2.0000      -0.553284       -15.0556
 158   2.0000      -0.551248       -15.0002
 159   2.0000      -0.545538       -14.8448
 160   2.0000      -0.543253       -14.7827
 161   2.0000      -0.540934       -14.7196
 162   2.0000      -0.538717       -14.6592
 163   2.0000      -0.533265       -14.5109
 164   2.0000      -0.533117       -14.5069
 165   2.0000      -0.527385       -14.3509
 166   2.0000      -0.524376       -14.2690
 167   2.0000      -0.521697       -14.1961
 168   2.0000      -0.521030       -14.1779
 169   2.0000      -0.513021       -13.9600
 170   2.0000      -0.512158       -13.9365
 171   2.0000      -0.511706       -13.9242
 172   2.0000      -0.505020       -13.7423
 173   2.0000      -0.503706       -13.7066
 174   2.0000      -0.502082       -13.6624
 175   2.0000      -0.499297       -13.5865
 176   2.0000      -0.495467       -13.4823
 177   2.0000      -0.492872       -13.4117
 178   2.0000      -0.489795       -13.3280
 179   2.0000      -0.489120       -13.3096
 180   2.0000      -0.486038       -13.2258
 181   2.0000      -0.482987       -13.1428
 182   2.0000      -0.477448       -12.9920
 183   2.0000      -0.469643       -12.7796
 184   2.0000      -0.466446       -12.6926
 185   2.0000      -0.464184       -12.6311
 186   2.0000      -0.460958       -12.5433
 187   2.0000      -0.459049       -12.4914
 188   2.0000      -0.457230       -12.4419
 189   2.0000      -0.454581       -12.3698
 190   2.0000      -0.450550       -12.2601
 191   2.0000      -0.445789       -12.1305
 192   2.0000      -0.442541       -12.0422
 193   2.0000      -0.441969       -12.0266
 194   2.0000      -0.436773       -11.8852
 195   2.0000      -0.433644       -11.8001
 196   2.0000      -0.430608       -11.7174
 197   2.0000      -0.430406       -11.7119
 198   2.0000      -0.428381       -11.6568
 199   2.0000      -0.424955       -11.5636
 200   2.0000      -0.420701       -11.4479
 201   2.0000      -0.416766       -11.3408
 202   2.0000      -0.415303       -11.3010
 203   2.0000      -0.413546       -11.2532
 204   2.0000      -0.410445       -11.1688
 205   2.0000      -0.408725       -11.1220
 206   2.0000      -0.400234       -10.8909
 207   2.0000      -0.398813       -10.8522
 208   2.0000      -0.393301       -10.7023
 209   2.0000      -0.390048       -10.6138
 210   2.0000      -0.389059       -10.5868
 211   2.0000      -0.387535       -10.5454
 212   2.0000      -0.385273       -10.4838
 213   2.0000      -0.382132       -10.3983
 214   2.0000      -0.381154       -10.3717
 215   2.0000      -0.378216       -10.2918
 216   2.0000      -0.374575       -10.1927
 217   2.0000      -0.371596       -10.1116
 218   2.0000      -0.366173        -9.9641
 219   2.0000      -0.353275        -9.6131
 220   2.0000      -0.344209        -9.3664
 221   2.0000      -0.335719        -9.1354
 222   2.0000      -0.320943        -8.7333
 223   2.0000      -0.319728        -8.7003
 224   2.0000      -0.314677        -8.5628
 225   2.0000      -0.295885        -8.0514
 226   2.0000      -0.293336        -7.9821
 227   2.0000      -0.283327        -7.7097
 228   2.0000      -0.252026        -6.8580
 229   2.0000      -0.235428        -6.4063
 230   0.0000      -0.076875        -2.0919
 231   0.0000      -0.057262        -1.5582
 232   0.0000      -0.037918        -1.0318
 233   0.0000      -0.025260        -0.6874
 234   0.0000      -0.004073        -0.1108

MULLIKEN ATOMIC CHARGES
-----------------------
   0 C :   -0.090474
   1 S :    0.153965
   2 C :   -0.134307
   3 C :    0.168527
   4 C :    0.127886
   5 N :    0.260792
   6 O :   -0.236338
   7 O :   -0.218389
   8 N :    0.260328
   9 O :   -0.244419
  10 O :   -0.232018
  11 C :   -0.031595
  12 C :   -0.008951
  13 C :   -0.091447
  14 S :    0.154460
  15 C :   -0.060448
  16 C :   -0.083657
  17 C :   -0.083687
  18 C :    0.200789
  19 C :   -0.191920
  20 C :    0.513191
  21 F :   -0.168397
  22 F :   -0.140641
  23 F :   -0.166264
  24 C :   -0.092376
  25 C :   -0.260407
  26 N :    0.163511
  27 C :    0.151124
  28 C :   -0.166359
  29 S :    0.152127
  30 C :   -0.232556
  31 C :    0.200935
  32 C :    0.158603
  33 O :   -0.329185
  34 C :    0.199271
  35 O :   -0.338063
  36 C :    0.194486
  37 C :   -0.234728
  38 S :    0.184301
  39 C :   -0.207560
  40 C :    0.164558
  41 C :    0.192565
  42 O :   -0.341277
  43 C :    0.192783
  44 O :   -0.312429
  45 C :    0.199157
  46 C :   -0.150191
  47 S :    0.212999
  48 C :   -0.151866
  49 C :    0.081702
  50 C :    0.179612
  51 C :   -0.111751
  52 C :   -0.209073
  53 N :    0.108124
  54 C :    0.027854
  55 C :    0.021223
  56 C :   -0.010876
  57 C :    0.018123
  58 C :   -0.026560
  59 H :    0.046008
  60 H :    0.025879
  61 H :   -0.005606
  62 H :    0.036335
  63 H :    0.029851
  64 H :    0.043652
  65 H :    0.049434
  66 H :    0.039657
  67 H :    0.050431
  68 H :    0.044058
  69 H :    0.032203
  70 H :    0.023677
  71 H :    0.035780
  72 H :    0.031959
  73 H :    0.031296
  74 H :    0.032299
  75 H :    0.031550
  76 H :    0.035585
  77 H :    0.029237
  78 H :    0.029383
  79 H :    0.017887
  80 H :   -0.002145
  81 H :   -0.007701
  82 H :   -0.018280
  83 H :   -0.001591
  84 H :    0.025596
  85 H :    0.028782
Sum of atomic charges:   -0.0000000

LOEWDIN ATOMIC CHARGES
----------------------
   0 C :   -0.155246
   1 S :    0.476859
   2 C :   -0.123695
   3 C :   -0.078485
   4 C :   -0.053964
   5 N :    0.281447
   6 O :   -0.197557
   7 O :   -0.184881
   8 N :    0.286668
   9 O :   -0.208076
  10 O :   -0.195744
  11 C :   -0.075176
  12 C :   -0.008542
  13 C :   -0.199689
  14 S :    0.485704
  15 C :   -0.158606
  16 C :   -0.081419
  17 C :   -0.045743
  18 C :   -0.018876
  19 C :   -0.047881
  20 C :    0.161416
  21 F :   -0.063614
  22 F :   -0.041599
  23 F :   -0.061697
  24 C :   -0.040168
  25 C :   -0.046789
  26 N :   -0.047375
  27 C :   -0.015964
  28 C :   -0.227603
  29 S :    0.464902
  30 C :   -0.236498
  31 C :   -0.012001
  32 C :    0.007940
  33 O :   -0.097674
  34 C :    0.085215
  35 O :   -0.108831
  36 C :    0.081692
  37 C :   -0.241639
  38 S :    0.469030
  39 C :   -0.231711
  40 C :    0.005541
  41 C :   -0.011067
  42 O :   -0.110559
  43 C :    0.080873
  44 O :   -0.108517
  45 C :    0.080007
  46 C :   -0.195864
  47 S :    0.518194
  48 C :   -0.182677
  49 C :   -0.047248
  50 C :   -0.035801
  51 C :   -0.071183
  52 C :   -0.041771
  53 N :   -0.069706
  54 C :    0.018364
  55 C :   -0.034162
  56 C :    0.008076
  57 C :   -0.043335
  58 C :   -0.042055
  59 H :    0.040955
  60 H :    0.030013
  61 H :    0.024069
  62 H :    0.038731
  63 H :    0.039925
  64 H :    0.047751
  65 H :    0.056042
  66 H :    0.040754
  67 H :    0.033231
  68 H :    0.029822
  69 H :    0.018605
  70 H :    0.018120
  71 H :    0.018832
  72 H :    0.021026
  73 H :    0.025446
  74 H :    0.025404
  75 H :    0.016883
  76 H :    0.022555
  77 H :    0.023826
  78 H :    0.014953
  79 H :    0.015534
  80 H :    0.041220
  81 H :    0.032938
  82 H :    0.031807
  83 H :    0.030005
  84 H :    0.022522
  85 H :    0.027793

  Mayer bond orders larger than 0.100000
B(  0-C ,  1-S ) :   1.1410 B(  0-C ,  4-C ) :   1.6054 B(  0-C , 59-H ) :   0.9643
B(  1-S ,  2-C ) :   1.1405 B(  2-C ,  3-C ) :   1.4623 B(  2-C , 11-C ) :   1.2009
B(  3-C ,  4-C ) :   1.2119 B(  3-C ,  8-N ) :   0.9366 B(  4-C ,  5-N ) :   0.8801
B(  5-N ,  6-O ) :   1.5371 B(  5-N ,  7-O ) :   1.5642 B(  6-O ,  7-O ) :   0.2810
B(  8-N ,  9-O ) :   1.4967 B(  8-N , 10-O ) :   1.5496 B(  9-O , 10-O ) :   0.2653
B( 11-C , 12-C ) :   1.5737 B( 11-C , 60-H ) :   0.9644 B( 12-C , 13-C ) :   1.2102
B( 12-C , 61-H ) :   0.9662 B( 13-C , 14-S ) :   1.0651 B( 13-C , 17-C ) :   1.4559
B( 14-S , 15-C ) :   1.1600 B( 15-C , 16-C ) :   1.4595 B( 15-C , 28-C ) :   1.1817
B( 16-C , 17-C ) :   1.3571 B( 16-C , 27-C ) :   1.0528 B( 17-C , 18-C ) :   1.0327
B( 18-C , 19-C ) :   1.0410 B( 18-C , 62-H ) :   0.9075 B( 18-C , 63-H ) :   0.8972
B( 19-C , 20-C ) :   0.9848 B( 19-C , 24-C ) :   1.0105 B( 19-C , 64-H ) :   0.8937
B( 20-C , 21-F ) :   1.1363 B( 20-C , 22-F ) :   1.1715 B( 20-C , 23-F ) :   1.1486
B( 24-C , 25-C ) :   1.0787 B( 24-C , 27-C ) :   1.0796 B( 24-C , 65-H ) :   0.8703
B( 25-C , 26-N ) :   3.1266 B( 27-C , 66-H ) :   0.8949 B( 27-C , 67-H ) :   0.9040
B( 28-C , 29-S ) :   1.0770 B( 28-C , 30-C ) :   0.1318 B( 28-C , 32-C ) :   1.4894
B( 29-S , 30-C ) :   1.1087 B( 30-C , 31-C ) :   1.5012 B( 30-C , 37-C ) :   1.0069
B( 31-C , 32-C ) :   1.1957 B( 31-C , 35-O ) :   1.1504 B( 32-C , 33-O ) :   1.1593
B( 33-O , 34-C ) :   0.9190 B( 34-C , 68-H ) :   0.9767 B( 34-C , 69-H ) :   0.9751
B( 34-C , 70-H ) :   0.9769 B( 35-O , 36-C ) :   0.9282 B( 36-C , 71-H ) :   0.9722
B( 36-C , 72-H ) :   0.9634 B( 36-C , 73-H ) :   0.9772 B( 37-C , 38-S ) :   1.1235
B( 37-C , 39-C ) :   0.1348 B( 37-C , 41-C ) :   1.5003 B( 38-S , 39-C ) :   1.1137
B( 39-C , 40-C ) :   1.5517 B( 39-C , 46-C ) :   1.0419 B( 40-C , 41-C ) :   1.1807
B( 40-C , 44-O ) :   1.2028 B( 41-C , 42-O ) :   1.1344 B( 42-O , 43-C ) :   0.9311
B( 43-C , 74-H ) :   0.9772 B( 43-C , 75-H ) :   0.9723 B( 43-C , 76-H ) :   0.9636
B( 44-O , 45-C ) :   0.9366 B( 45-C , 77-H ) :   0.9785 B( 45-C , 78-H ) :   0.9733
B( 45-C , 79-H ) :   0.9749 B( 46-C , 47-S ) :   1.1770 B( 46-C , 48-C ) :   0.1187
B( 46-C , 50-C ) :   1.4127 B( 47-S , 48-C ) :   1.1769 B( 48-C , 49-C ) :   1.3776
B( 48-C , 57-C ) :   1.0896 B( 49-C , 50-C ) :   1.1867 B( 49-C , 56-C ) :   1.1980
B( 50-C , 51-C ) :   1.1857 B( 51-C , 52-C ) :   1.0837 B( 51-C , 54-C ) :   1.5690
B( 52-C , 53-N ) :   3.0321 B( 54-C , 55-C ) :   1.1957 B( 54-C , 80-H ) :   0.9928
B( 55-C , 56-C ) :   1.5374 B( 55-C , 81-H ) :   0.9845 B( 56-C , 82-H ) :   0.9921
B( 57-C , 58-C ) :   1.9373 B( 57-C , 83-H ) :   0.9502 B( 58-C , 84-H ) :   0.9594
B( 58-C , 85-H ) :   0.9475

-----------------------------------------------------------------------------
         ABSORPTION SPECTRUM VIA TRANSITION ELECTRIC DIPOLE MOMENTS
-----------------------------------------------------------------------------
State   Energy  Wavelength   fosc         T2         TX        TY        TZ
        (cm-1)    (nm)                  (au**2)     (au)      (au)      (au)
-----------------------------------------------------------------------------
   0   19638.0    509.2   1.420812592  23.81860  -0.85822   2.89839  -3.83163
   1   22888.8    436.9   0.179311034   2.57905   0.50992  -0.11383   1.51857
   2   26239.8    381.1   0.004782104   0.06000  -0.23228  -0.04678   0.06210
   3   28826.1    346.9   0.126622965   1.44611   0.80239  -0.89177   0.08389
   4   29579.4    338.1   0.047238424   0.52575   0.68765  -0.22533   0.04610
   5   30399.8    328.9   0.022636178   0.24514  -0.32680   0.32596   0.17913
   6   31012.4    322.5   0.416239415   4.41858  -0.52519   1.16183  -1.67120
   7   31244.8    320.1   0.112680053   1.18726  -0.85078  -0.15174   0.66363
   8   32779.3    305.1   0.033432042   0.33577   0.17560  -0.48145  -0.27044
   9   33154.9    301.6   0.110525258   1.09746   0.84644  -0.38803  -0.48003
  10   33905.4    294.9   0.028336031   0.27513  -0.03781   0.03349   0.52210
  11   34431.6    290.4   0.002640358   0.02525  -0.10643   0.06891   0.09575
  12   34868.5    286.8   0.032120896   0.30327  -0.51860   0.11860   0.14233
  13   36163.5    276.5   0.076229850   0.69395   0.28513  -0.39032   0.67846
  14   36579.7    273.4   0.050182128   0.45163   0.20483   0.17134  -0.61670
  15   36979.2    270.4   0.078364367   0.69765   0.74069  -0.04731  -0.38313
  16   37550.9    266.3   0.003864205   0.03388   0.05260   0.04859  -0.16956
  17   37727.6    265.1   0.107248724   0.93586   0.82806  -0.49515  -0.07068
  18   38284.2    261.2   0.023752855   0.20425   0.38219  -0.23753   0.04201
  19   38729.8    258.2   0.031342220   0.26642  -0.11830  -0.07558   0.49670
  20   39966.9    250.2   0.187140384   1.54150   1.09297  -0.11668  -0.57731

FINAL SINGLE POINT ENERGY     -4609.621571805456

DIPOLE MOMENT
-------------
                                X             Y             Z
Electronic contribution:    -39.35031      46.53153     -28.07670
Nuclear contribution   :     40.83766     -48.63875      30.51246
                        -----------------------------------------
Total Dipole Moment    :      1.48735      -2.10722       2.43575
                        -----------------------------------------
Magnitude (a.u.)       :      3.54760
Magnitude (Debye)      :      9.01729

Rotational constants in cm-1:     0.002103     0.000481     0.000408
Rotational constants in MHz :    63.040885    14.431131    12.242747

                             ****ORCA TERMINATED NORMALLY****
TOTAL RUN TIME: 0 days 0 hours 7 minutes 1 seconds 750 msec
