                         Program Version 4.2.0 -  RELEASE  -
|  1> # ORCA input file
|  2> # SCF done       -183.884068250142          0.000907016768
|  3> ! CAM-B3LYP def2-SVP def2/J RIJCOSX Grid4 TightSCF
|  4> %maxcore 5000
|  5> %tddft
|  6>     Mode sTDDFT
|  7>     Ethresh 5.0
|  8>     maxcore 5000
|  9> end
| 10>
| 11> %pal
| 12>   nprocs 6
| 13>   end
| 14> * xyz 0 1
| 15>    C        0.62620         0.54026        -4.28560
| 16>    S        0.23360        -1.01741        -4.83704
| 17>    C        0.25736        -1.67878        -3.21686
| 18>    C        0.57188        -0.69203        -2.31207
| 19>    C        0.77994         0.57038        -2.92441
| 20>    N        1.15652         1.74773        -2.20385
| 21>    O        1.20991         2.78260        -2.82771
| 22>    O        1.40712         1.61060        -1.02754
| 23>    N        0.71006        -0.91184        -0.87723
| 24>    O       -0.24503        -0.63712        -0.19818
| 25>    O        1.74673        -1.40157        -0.51200
| 26>    C       -0.03615        -3.07002        -3.04057
| 27>    C       -0.35112        -3.66885        -1.87752
| 28>    C       -0.63814        -5.07526        -1.70757
| 29>    C       -1.14698        -5.51067        -0.48675
| 30>    C       -1.41255        -6.85111        -0.24171
| 31>    N       -2.03398        -7.13415         1.02860
| 32>    O       -2.77682        -6.28176         1.46595
| 33>    O       -1.79389        -8.18358         1.58758
| 34>    C       -1.19240        -7.82774        -1.22881
| 35>    C       -0.74366        -7.36079        -2.47601
| 36>    C       -0.45058        -6.04041        -2.70900
| 37>    C       -1.45663        -9.24998        -1.13369
| 38>    C       -1.05650       -10.09284        -0.16177
| 39>    C       -1.36740       -11.48497        -0.20194
| 40>    N       -1.04798       -12.35936         0.80871
| 41>    C       -0.43479       -12.03107         2.07378
| 42>    C       -1.40951       -11.33278         3.01845
| 43>    C       -1.47815       -13.66674         0.52732
| 44>    O       -1.29563       -14.60997         1.27572
| 45>    C       -2.10090       -13.56890        -0.77179
| 46>    C       -2.01176       -12.21356        -1.19368
| 47>    C       -2.61917       -12.11763        -2.50090
| 48>    O       -2.77289       -11.17737        -3.26020
| 49>    N       -3.05373       -13.42108        -2.78106
| 50>    C       -3.68107       -13.74964        -4.03844
| 51>    C       -2.70714       -14.42948        -4.99748
| 52>    C       -2.75331       -14.29617        -1.76129
| 53>    C       -3.11686       -15.67199        -1.78742
| 54>    C       -2.78320       -16.50779        -0.78086
| 55>    C       -3.08298       -17.90621        -0.63270
| 56>    C       -2.50456       -18.57480         0.42098
| 57>    S       -2.94980       -20.21921         0.52837
| 58>    C       -3.96229       -20.05828        -0.82871
| 59>    C       -3.95133       -18.79469        -1.37032
| 60>    C       -4.77651       -18.51351        -2.54354
| 61>    O       -4.67906       -17.61420        -3.33870
| 62>    O       -5.75027       -19.47376        -2.67058
| 63>    C       -6.61710       -19.37432        -3.69903
| 64>    C       -7.60464       -20.26837        -3.85260
| 65>    C       -8.55949       -20.20108        -4.90923
| 66>    S       -8.52145       -18.95384        -6.11160
| 67>    C       -9.89372       -19.60764        -6.97117
| 68>    C      -10.35004       -20.73426        -6.33543
| 69>    C       -9.60384       -21.07545        -5.17377
| 70>    N       -9.87935       -22.27409        -4.44969
| 71>    O       -9.43307       -22.39185        -3.32924
| 72>    O      -10.53328       -23.11289        -5.03300
| 73>    N      -11.58483       -21.42518        -6.67658
| 74>    O      -11.63969       -21.99143        -7.73635
| 75>    O      -12.47298       -21.31435        -5.86984
| 76>    C      -10.36010       -18.88560        -8.13143
| 77>    C      -11.11247       -19.36764        -9.11723
| 78>    H        0.74113         1.36895        -4.95633
| 79>    H       -0.02035        -3.64080        -3.95815
| 80>    H       -0.44061        -3.08729        -0.97195
| 81>    H       -1.35382        -4.79820         0.29903
| 82>    H       -0.60857        -8.08649        -3.26369
| 83>    H       -0.07144        -5.75119        -3.67606
| 84>    H       -1.96368        -9.66365        -1.99875
| 85>    H       -0.47640        -9.74096         0.67560
| 86>    H        0.45030       -11.41178         1.90327
| 87>    H       -0.11877       -12.98507         2.50595
| 88>    H       -1.73142       -10.37598         2.61553
| 89>    H       -0.92698       -11.16150         3.97662
| 90>    H       -2.28414       -11.95888         3.17793
| 91>    H       -4.01704       -12.80006        -4.46464
| 92>    H       -4.55082       -14.38722        -3.86018
| 93>    H       -1.85091       -13.78412        -5.17972
| 94>    H       -3.20275       -14.62718        -5.94392
| 95>    H       -2.35365       -15.37198        -4.58591
| 96>    H       -3.67247       -16.02377        -2.63939
| 97>    H       -2.20057       -16.10745         0.03969
| 98>    H       -1.82704       -18.15542         1.13861
| 99>    H       -4.51574       -20.90425        -1.18524
|100>    H       -6.46425       -18.53248        -4.36813
|101>    H       -7.71416       -21.07754        -3.14491
|102>    H      -10.00447       -17.86401        -8.17570
|103>    H      -11.45109       -20.38820        -9.15620
|104>    H      -11.39937       -18.73493        -9.93881
|105> *
|106>
|107>                          ****END OF INPUT****

CARTESIAN COORDINATES (ANGSTROEM)
---------------------------------
  C      0.626200    0.540260   -4.285600
  S      0.233600   -1.017410   -4.837040
  C      0.257360   -1.678780   -3.216860
  C      0.571880   -0.692030   -2.312070
  C      0.779940    0.570380   -2.924410
  N      1.156520    1.747730   -2.203850
  O      1.209910    2.782600   -2.827710
  O      1.407120    1.610600   -1.027540
  N      0.710060   -0.911840   -0.877230
  O     -0.245030   -0.637120   -0.198180
  O      1.746730   -1.401570   -0.512000
  C     -0.036150   -3.070020   -3.040570
  C     -0.351120   -3.668850   -1.877520
  C     -0.638140   -5.075260   -1.707570
  C     -1.146980   -5.510670   -0.486750
  C     -1.412550   -6.851110   -0.241710
  N     -2.033980   -7.134150    1.028600
  O     -2.776820   -6.281760    1.465950
  O     -1.793890   -8.183580    1.587580
  C     -1.192400   -7.827740   -1.228810
  C     -0.743660   -7.360790   -2.476010
  C     -0.450580   -6.040410   -2.709000
  C     -1.456630   -9.249980   -1.133690
  C     -1.056500  -10.092840   -0.161770
  C     -1.367400  -11.484970   -0.201940
  N     -1.047980  -12.359360    0.808710
  C     -0.434790  -12.031070    2.073780
  C     -1.409510  -11.332780    3.018450
  C     -1.478150  -13.666740    0.527320
  O     -1.295630  -14.609970    1.275720
  C     -2.100900  -13.568900   -0.771790
  C     -2.011760  -12.213560   -1.193680
  C     -2.619170  -12.117630   -2.500900
  O     -2.772890  -11.177370   -3.260200
  N     -3.053730  -13.421080   -2.781060
  C     -3.681070  -13.749640   -4.038440
  C     -2.707140  -14.429480   -4.997480
  C     -2.753310  -14.296170   -1.761290
  C     -3.116860  -15.671990   -1.787420
  C     -2.783200  -16.507790   -0.780860
  C     -3.082980  -17.906210   -0.632700
  C     -2.504560  -18.574800    0.420980
  S     -2.949800  -20.219210    0.528370
  C     -3.962290  -20.058280   -0.828710
  C     -3.951330  -18.794690   -1.370320
  C     -4.776510  -18.513510   -2.543540
  O     -4.679060  -17.614200   -3.338700
  O     -5.750270  -19.473760   -2.670580
  C     -6.617100  -19.374320   -3.699030
  C     -7.604640  -20.268370   -3.852600
  C     -8.559490  -20.201080   -4.909230
  S     -8.521450  -18.953840   -6.111600
  C     -9.893720  -19.607640   -6.971170
  C    -10.350040  -20.734260   -6.335430
  C     -9.603840  -21.075450   -5.173770
  N     -9.879350  -22.274090   -4.449690
  O     -9.433070  -22.391850   -3.329240
  O    -10.533280  -23.112890   -5.033000
  N    -11.584830  -21.425180   -6.676580
  O    -11.639690  -21.991430   -7.736350
  O    -12.472980  -21.314350   -5.869840
  C    -10.360100  -18.885600   -8.131430
  C    -11.112470  -19.367640   -9.117230
  H      0.741130    1.368950   -4.956330
  H     -0.020350   -3.640800   -3.958150
  H     -0.440610   -3.087290   -0.971950
  H     -1.353820   -4.798200    0.299030
  H     -0.608570   -8.086490   -3.263690
  H     -0.071440   -5.751190   -3.676060
  H     -1.963680   -9.663650   -1.998750
  H     -0.476400   -9.740960    0.675600
  H      0.450300  -11.411780    1.903270
  H     -0.118770  -12.985070    2.505950
  H     -1.731420  -10.375980    2.615530
  H     -0.926980  -11.161500    3.976620
  H     -2.284140  -11.958880    3.177930
  H     -4.017040  -12.800060   -4.464640
  H     -4.550820  -14.387220   -3.860180
  H     -1.850910  -13.784120   -5.179720
  H     -3.202750  -14.627180   -5.943920
  H     -2.353650  -15.371980   -4.585910
  H     -3.672470  -16.023770   -2.639390
  H     -2.200570  -16.107450    0.039690
  H     -1.827040  -18.155420    1.138610
  H     -4.515740  -20.904250   -1.185240
  H     -6.464250  -18.532480   -4.368130
  H     -7.714160  -21.077540   -3.144910
  H    -10.004470  -17.864010   -8.175700
  H    -11.451090  -20.388200   -9.156200
  H    -11.399370  -18.734930   -9.938810

 Total Charge           Charge          ....    0
 Multiplicity           Mult            ....    1
 Number of Electrons    NEL             ....  470
 Basis Dimension        Dim             .... 1029

ORBITAL ENERGIES
----------------

  NO   OCC          E(Eh)            E(eV)
   0   2.0000     -89.007099     -2422.0063
   1   2.0000     -88.996554     -2421.7194
   2   2.0000     -88.985168     -2421.4095
   3   2.0000     -19.306881      -525.3669
   4   2.0000     -19.260751      -524.1117
   5   2.0000     -19.260147      -524.0953
   6   2.0000     -19.257959      -524.0357
   7   2.0000     -19.255883      -523.9792
   8   2.0000     -19.255831      -523.9778
   9   2.0000     -19.253913      -523.9256
  10   2.0000     -19.252275      -523.8810
  11   2.0000     -19.252216      -523.8794
  12   2.0000     -19.250671      -523.8374
  13   2.0000     -19.248153      -523.7689
  14   2.0000     -19.244012      -523.6562
  15   2.0000     -19.191205      -522.2192
  16   2.0000     -19.187034      -522.1057
  17   2.0000     -14.667764      -399.1302
  18   2.0000     -14.666648      -399.0998
  19   2.0000     -14.662516      -398.9873
  20   2.0000     -14.661972      -398.9725
  21   2.0000     -14.654546      -398.7705
  22   2.0000     -14.451615      -393.2484
  23   2.0000     -14.449863      -393.2008
  24   2.0000     -10.441293      -284.1220
  25   2.0000     -10.372989      -282.2634
  26   2.0000     -10.369780      -282.1761
  27   2.0000     -10.367455      -282.1128
  28   2.0000     -10.358989      -281.8824
  29   2.0000     -10.358111      -281.8585
  30   2.0000     -10.356518      -281.8152
  31   2.0000     -10.352097      -281.6949
  32   2.0000     -10.352044      -281.6934
  33   2.0000     -10.351609      -281.6816
  34   2.0000     -10.346909      -281.5537
  35   2.0000     -10.345865      -281.5253
  36   2.0000     -10.340451      -281.3780
  37   2.0000     -10.335164      -281.2341
  38   2.0000     -10.333540      -281.1899
  39   2.0000     -10.326955      -281.0107
  40   2.0000     -10.319839      -280.8171
  41   2.0000     -10.313578      -280.6467
  42   2.0000     -10.313077      -280.6331
  43   2.0000     -10.312375      -280.6140
  44   2.0000     -10.309594      -280.5383
  45   2.0000     -10.308698      -280.5139
  46   2.0000     -10.307705      -280.4869
  47   2.0000     -10.306231      -280.4468
  48   2.0000     -10.305288      -280.4211
  49   2.0000     -10.304753      -280.4066
  50   2.0000     -10.303479      -280.3719
  51   2.0000     -10.302788      -280.3531
  52   2.0000     -10.302210      -280.3374
  53   2.0000     -10.298341      -280.2321
  54   2.0000     -10.290180      -280.0100
  55   2.0000     -10.289961      -280.0041
  56   2.0000     -10.288676      -279.9691
  57   2.0000     -10.287609      -279.9401
  58   2.0000     -10.278575      -279.6942
  59   2.0000     -10.262315      -279.2518
  60   2.0000     -10.257774      -279.1282
  61   2.0000     -10.255562      -279.0680
  62   2.0000     -10.252194      -278.9764
  63   2.0000      -8.102817      -220.4889
  64   2.0000      -8.092343      -220.2039
  65   2.0000      -8.081704      -219.9143
  66   2.0000      -6.071999      -165.2275
  67   2.0000      -6.067770      -165.1124
  68   2.0000      -6.065154      -165.0412
  69   2.0000      -6.061604      -164.9446
  70   2.0000      -6.057618      -164.8362
  71   2.0000      -6.054217      -164.7436
  72   2.0000      -6.050651      -164.6466
  73   2.0000      -6.046237      -164.5265
  74   2.0000      -6.044604      -164.4820
  75   2.0000      -1.345431       -36.6110
  76   2.0000      -1.340829       -36.4858
  77   2.0000      -1.338924       -36.4340
  78   2.0000      -1.333334       -36.2819
  79   2.0000      -1.330671       -36.2094
  80   2.0000      -1.238023       -33.6883
  81   2.0000      -1.165250       -31.7081
  82   2.0000      -1.160980       -31.5919
  83   2.0000      -1.160448       -31.5774
  84   2.0000      -1.154413       -31.4132
  85   2.0000      -1.148746       -31.2590
  86   2.0000      -1.142728       -31.0952
  87   2.0000      -1.131158       -30.7804
  88   2.0000      -1.123840       -30.5813
  89   2.0000      -1.060964       -28.8703
  90   2.0000      -1.052577       -28.6421
  91   2.0000      -1.043033       -28.3824
  92   2.0000      -1.037374       -28.2284
  93   2.0000      -1.011196       -27.5161
  94   2.0000      -0.998002       -27.1570
  95   2.0000      -0.945344       -25.7241
  96   2.0000      -0.941074       -25.6079
  97   2.0000      -0.930639       -25.3240
  98   2.0000      -0.929041       -25.2805
  99   2.0000      -0.925286       -25.1783
 100   2.0000      -0.916893       -24.9499
 101   2.0000      -0.909984       -24.7619
 102   2.0000      -0.906447       -24.6657
 103   2.0000      -0.901995       -24.5445
 104   2.0000      -0.887499       -24.1501
 105   2.0000      -0.875075       -23.8120
 106   2.0000      -0.870884       -23.6980
 107   2.0000      -0.866119       -23.5683
 108   2.0000      -0.859091       -23.3771
 109   2.0000      -0.850555       -23.1448
 110   2.0000      -0.815713       -22.1967
 111   2.0000      -0.813688       -22.1416
 112   2.0000      -0.805402       -21.9161
 113   2.0000      -0.802518       -21.8376
 114   2.0000      -0.781620       -21.2690
 115   2.0000      -0.781395       -21.2628
 116   2.0000      -0.775941       -21.1144
 117   2.0000      -0.766366       -20.8539
 118   2.0000      -0.761658       -20.7258
 119   2.0000      -0.756164       -20.5763
 120   2.0000      -0.740758       -20.1571
 121   2.0000      -0.719443       -19.5770
 122   2.0000      -0.715455       -19.4685
 123   2.0000      -0.710821       -19.3424
 124   2.0000      -0.704871       -19.1805
 125   2.0000      -0.700046       -19.0492
 126   2.0000      -0.696040       -18.9402
 127   2.0000      -0.687395       -18.7050
 128   2.0000      -0.681823       -18.5534
 129   2.0000      -0.679798       -18.4982
 130   2.0000      -0.672895       -18.3104
 131   2.0000      -0.661869       -18.0104
 132   2.0000      -0.659087       -17.9347
 133   2.0000      -0.652830       -17.7644
 134   2.0000      -0.650345       -17.6968
 135   2.0000      -0.648088       -17.6354
 136   2.0000      -0.647673       -17.6241
 137   2.0000      -0.644866       -17.5477
 138   2.0000      -0.642473       -17.4826
 139   2.0000      -0.637655       -17.3515
 140   2.0000      -0.634744       -17.2723
 141   2.0000      -0.630128       -17.1467
 142   2.0000      -0.621126       -16.9017
 143   2.0000      -0.617846       -16.8125
 144   2.0000      -0.615902       -16.7595
 145   2.0000      -0.611008       -16.6264
 146   2.0000      -0.606810       -16.5121
 147   2.0000      -0.603306       -16.4168
 148   2.0000      -0.602120       -16.3845
 149   2.0000      -0.598803       -16.2943
 150   2.0000      -0.597367       -16.2552
 151   2.0000      -0.596147       -16.2220
 152   2.0000      -0.594152       -16.1677
 153   2.0000      -0.590299       -16.0629
 154   2.0000      -0.587724       -15.9928
 155   2.0000      -0.584677       -15.9099
 156   2.0000      -0.584350       -15.9010
 157   2.0000      -0.575833       -15.6692
 158   2.0000      -0.569774       -15.5043
 159   2.0000      -0.566369       -15.4117
 160   2.0000      -0.564503       -15.3609
 161   2.0000      -0.560333       -15.2474
 162   2.0000      -0.557844       -15.1797
 163   2.0000      -0.545826       -14.8527
 164   2.0000      -0.544917       -14.8280
 165   2.0000      -0.542753       -14.7690
 166   2.0000      -0.533750       -14.5241
 167   2.0000      -0.532330       -14.4854
 168   2.0000      -0.527543       -14.3552
 169   2.0000      -0.525538       -14.3006
 170   2.0000      -0.524370       -14.2688
 171   2.0000      -0.523686       -14.2502
 172   2.0000      -0.519298       -14.1308
 173   2.0000      -0.517650       -14.0860
 174   2.0000      -0.514060       -13.9883
 175   2.0000      -0.509417       -13.8620
 176   2.0000      -0.504353       -13.7241
 177   2.0000      -0.500872       -13.6294
 178   2.0000      -0.499403       -13.5894
 179   2.0000      -0.496240       -13.5034
 180   2.0000      -0.493672       -13.4335
 181   2.0000      -0.492789       -13.4095
 182   2.0000      -0.490285       -13.3413
 183   2.0000      -0.480899       -13.0859
 184   2.0000      -0.479705       -13.0534
 185   2.0000      -0.476095       -12.9552
 186   2.0000      -0.471129       -12.8201
 187   2.0000      -0.469633       -12.7794
 188   2.0000      -0.463283       -12.6066
 189   2.0000      -0.463047       -12.6002
 190   2.0000      -0.461185       -12.5495
 191   2.0000      -0.456737       -12.4284
 192   2.0000      -0.456157       -12.4127
 193   2.0000      -0.454363       -12.3638
 194   2.0000      -0.449960       -12.2440
 195   2.0000      -0.448873       -12.2144
 196   2.0000      -0.442933       -12.0528
 197   2.0000      -0.439277       -11.9533
 198   2.0000      -0.435062       -11.8386
 199   2.0000      -0.432540       -11.7700
 200   2.0000      -0.426486       -11.6053
 201   2.0000      -0.425964       -11.5911
 202   2.0000      -0.421572       -11.4716
 203   2.0000      -0.416753       -11.3404
 204   2.0000      -0.409682       -11.1480
 205   2.0000      -0.401933       -10.9372
 206   2.0000      -0.401112       -10.9148
 207   2.0000      -0.399613       -10.8740
 208   2.0000      -0.396709       -10.7950
 209   2.0000      -0.395229       -10.7547
 210   2.0000      -0.395132       -10.7521
 211   2.0000      -0.393482       -10.7072
 212   2.0000      -0.390883       -10.6365
 213   2.0000      -0.390365       -10.6224
 214   2.0000      -0.389201       -10.5907
 215   2.0000      -0.388871       -10.5817
 216   2.0000      -0.386218       -10.5095
 217   2.0000      -0.384824       -10.4716
 218   2.0000      -0.382489       -10.4080
 219   2.0000      -0.382410       -10.4059
 220   2.0000      -0.379713       -10.3325
 221   2.0000      -0.374762       -10.1978
 222   2.0000      -0.360634        -9.8134
 223   2.0000      -0.359283        -9.7766
 224   2.0000      -0.352765        -9.5992
 225   2.0000      -0.349373        -9.5069
 226   2.0000      -0.345992        -9.4149
 227   2.0000      -0.343323        -9.3423
 228   2.0000      -0.335327        -9.1247
 229   2.0000      -0.329224        -8.9586
 230   2.0000      -0.312837        -8.5127
 231   2.0000      -0.309974        -8.4348
 232   2.0000      -0.294887        -8.0243
 233   2.0000      -0.293914        -7.9978
 234   2.0000      -0.238051        -6.4777
 235   0.0000      -0.084514        -2.2997
 236   0.0000      -0.073745        -2.0067
 237   0.0000      -0.063002        -1.7144
 238   0.0000      -0.055233        -1.5030
 239   0.0000      -0.045583        -1.2404

MULLIKEN ATOMIC CHARGES
-----------------------
   0 C :   -0.110168
   1 S :    0.190832
   2 C :   -0.155550
   3 C :    0.144309
   4 C :    0.175852
   5 N :    0.260067
   6 O :   -0.233663
   7 O :   -0.227610
   8 N :    0.230886
   9 O :   -0.207589
  10 O :   -0.202520
  11 C :    0.058621
  12 C :    0.006808
  13 C :    0.093661
  14 C :   -0.061917
  15 C :    0.131450
  16 N :    0.256858
  17 O :   -0.224561
  18 O :   -0.235810
  19 C :    0.072079
  20 C :   -0.014669
  21 C :    0.020045
  22 C :   -0.085415
  23 C :    0.060753
  24 C :    0.099738
  25 N :   -0.253240
  26 C :    0.097071
  27 C :   -0.003617
  28 C :    0.163346
  29 O :   -0.223949
  30 C :   -0.064713
  31 C :   -0.057987
  32 C :    0.163247
  33 O :   -0.220925
  34 N :   -0.256736
  35 C :    0.102918
  36 C :    0.007188
  37 C :    0.121633
  38 C :   -0.025154
  39 C :   -0.003690
  40 C :    0.131110
  41 C :   -0.132156
  42 S :    0.174590
  43 C :   -0.078454
  44 C :   -0.038003
  45 C :    0.239498
  46 O :   -0.186918
  47 O :   -0.241731
  48 C :    0.149855
  49 C :    0.000284
  50 C :   -0.143374
  51 S :    0.158622
  52 C :   -0.143390
  53 C :    0.142997
  54 C :    0.165593
  55 N :    0.259385
  56 O :   -0.237803
  57 O :   -0.231946
  58 N :    0.245929
  59 O :   -0.212742
  60 O :   -0.206902
  61 C :    0.009528
  62 C :   -0.011964
  63 H :    0.053075
  64 H :   -0.014231
  65 H :    0.002394
  66 H :    0.010068
  67 H :    0.001215
  68 H :   -0.012792
  69 H :    0.042719
  70 H :   -0.008624
  71 H :    0.021577
  72 H :    0.038897
  73 H :    0.033046
  74 H :    0.019150
  75 H :    0.021428
  76 H :    0.037384
  77 H :    0.030261
  78 H :    0.023269
  79 H :    0.018929
  80 H :    0.020958
  81 H :   -0.014665
  82 H :    0.003396
  83 H :    0.053193
  84 H :    0.046104
  85 H :    0.038495
  86 H :    0.038196
  87 H :    0.002730
  88 H :    0.057060
  89 H :    0.036883
Sum of atomic charges:   -0.0000000

LOEWDIN ATOMIC CHARGES
----------------------
   0 C :   -0.148050
   1 S :    0.506523
   2 C :   -0.153832
   3 C :   -0.045199
   4 C :   -0.066873
   5 N :    0.282734
   6 O :   -0.195838
   7 O :   -0.190464
   8 N :    0.274783
   9 O :   -0.176631
  10 O :   -0.170064
  11 C :   -0.052042
  12 C :    0.012458
  13 C :   -0.029117
  14 C :    0.013834
  15 C :   -0.024817
  16 N :    0.287544
  17 O :   -0.192612
  18 O :   -0.189828
  19 C :    0.001440
  20 C :    0.000753
  21 C :    0.010740
  22 C :    0.000893
  23 C :   -0.015278
  24 C :    0.070675
  25 N :    0.003807
  26 C :    0.035758
  27 C :   -0.063643
  28 C :    0.079572
  29 O :   -0.211720
  30 C :   -0.127992
  31 C :   -0.120292
  32 C :    0.081280
  33 O :   -0.207857
  34 N :    0.001732
  35 C :    0.036920
  36 C :   -0.060100
  37 C :    0.081986
  38 C :   -0.052759
  39 C :    0.026435
  40 C :   -0.045213
  41 C :   -0.165234
  42 S :    0.495791
  43 C :   -0.143945
  44 C :   -0.111716
  45 C :    0.127108
  46 O :   -0.150276
  47 O :   -0.036595
  48 C :    0.080486
  49 C :   -0.082313
  50 C :   -0.128301
  51 S :    0.479299
  52 C :   -0.149303
  53 C :   -0.047005
  54 C :   -0.071591
  55 N :    0.285842
  56 O :   -0.198269
  57 O :   -0.194067
  58 N :    0.281110
  59 O :   -0.173175
  60 O :   -0.175275
  61 C :   -0.060560
  62 C :   -0.000769
  63 H :    0.044854
  64 H :    0.029123
  65 H :    0.033083
  66 H :    0.043182
  67 H :    0.041258
  68 H :    0.031774
  69 H :    0.041415
  70 H :    0.028665
  71 H :    0.022446
  72 H :    0.035052
  73 H :    0.025124
  74 H :    0.029941
  75 H :    0.029293
  76 H :    0.035212
  77 H :    0.026022
  78 H :    0.029420
  79 H :    0.029315
  80 H :    0.024745
  81 H :    0.024436
  82 H :    0.038833
  83 H :    0.035938
  84 H :    0.031739
  85 H :    0.018863
  86 H :    0.046505
  87 H :    0.032448
  88 H :    0.027651
  89 H :    0.032778

  Mayer bond orders larger than 0.100000
B(  0-C ,  1-S ) :   1.1935 B(  0-C ,  4-C ) :   1.5337 B(  0-C , 63-H ) :   0.9559
B(  1-S ,  2-C ) :   1.1533 B(  2-C ,  3-C ) :   1.5410 B(  2-C , 11-C ) :   1.1092
B(  3-C ,  4-C ) :   1.2755 B(  3-C ,  8-N ) :   0.8416 B(  4-C ,  5-N ) :   0.9059
B(  5-N ,  6-O ) :   1.5511 B(  5-N ,  7-O ) :   1.5410 B(  6-O ,  7-O ) :   0.2782
B(  8-N ,  9-O ) :   1.5398 B(  8-N , 10-O ) :   1.5691 B(  9-O , 10-O ) :   0.2933
B( 11-C , 12-C ) :   1.7137 B( 11-C , 64-H ) :   0.9443 B( 12-C , 13-C ) :   1.0847
B( 12-C , 65-H ) :   0.9795 B( 13-C , 14-C ) :   1.3147 B( 13-C , 21-C ) :   1.3056
B( 14-C , 15-C ) :   1.3499 B( 14-C , 66-H ) :   1.0008 B( 15-C , 16-N ) :   0.8762
B( 15-C , 19-C ) :   1.3940 B( 16-N , 17-O ) :   1.5634 B( 16-N , 18-O ) :   1.5023
B( 17-O , 18-O ) :   0.2642 B( 19-C , 20-C ) :   1.3309 B( 19-C , 22-C ) :   1.0133
B( 20-C , 21-C ) :   1.4302 B( 20-C , 67-H ) :   0.9917 B( 21-C , 68-H ) :   0.9903
B( 22-C , 23-C ) :   1.7239 B( 22-C , 69-H ) :   0.9251 B( 23-C , 24-C ) :   1.1427
B( 23-C , 70-H ) :   0.9494 B( 24-C , 25-N ) :   1.1619 B( 24-C , 31-C ) :   1.3582
B( 25-N , 26-C ) :   0.9427 B( 25-N , 28-C ) :   1.0684 B( 26-C , 27-C ) :   1.1203
B( 26-C , 71-H ) :   0.9494 B( 26-C , 72-H ) :   0.9279 B( 27-C , 73-H ) :   0.9629
B( 27-C , 74-H ) :   0.9656 B( 27-C , 75-H ) :   0.9613 B( 28-C , 29-O ) :   2.0050
B( 28-C , 30-C ) :   0.9937 B( 29-O , 82-H ) :   0.1195 B( 30-C , 31-C ) :   1.2382
B( 30-C , 37-C ) :   1.3438 B( 31-C , 32-C ) :   0.9852 B( 32-C , 33-O ) :   2.0117
B( 32-C , 34-N ) :   1.0688 B( 33-O , 69-H ) :   0.1159 B( 34-N , 35-C ) :   0.9452
B( 34-N , 37-C ) :   1.1586 B( 35-C , 36-C ) :   1.1234 B( 35-C , 76-H ) :   0.9280
B( 35-C , 77-H ) :   0.9478 B( 36-C , 78-H ) :   0.9637 B( 36-C , 79-H ) :   0.9676
B( 36-C , 80-H ) :   0.9679 B( 37-C , 38-C ) :   1.1427 B( 38-C , 39-C ) :   1.6276
B( 38-C , 81-H ) :   0.9452 B( 39-C , 40-C ) :   1.1195 B( 39-C , 82-H ) :   0.9441
B( 40-C , 41-C ) :   1.5189 B( 40-C , 44-C ) :   1.1875 B( 41-C , 42-S ) :   1.1726
B( 41-C , 83-H ) :   0.9612 B( 42-S , 43-C ) :   1.2234 B( 43-C , 44-C ) :   1.5242
B( 43-C , 84-H ) :   0.9614 B( 44-C , 45-C ) :   0.9757 B( 45-C , 46-O ) :   2.0453
B( 45-C , 47-O ) :   1.1043 B( 47-O , 48-C ) :   1.0604 B( 48-C , 49-C ) :   1.6602
B( 48-C , 85-H ) :   0.9709 B( 49-C , 50-C ) :   1.1528 B( 49-C , 86-H ) :   0.9629
B( 50-C , 51-S ) :   1.1328 B( 50-C , 54-C ) :   1.5033 B( 51-S , 52-C ) :   1.1155
B( 52-C , 53-C ) :   1.5941 B( 52-C , 61-C ) :   1.0785 B( 53-C , 54-C ) :   1.2366
B( 53-C , 58-N ) :   0.8567 B( 54-C , 55-N ) :   0.9266 B( 55-N , 56-O ) :   1.5135
B( 55-N , 57-O ) :   1.5423 B( 56-O , 57-O ) :   0.2661 B( 58-N , 59-O ) :   1.5317
B( 58-N , 60-O ) :   1.5713 B( 59-O , 60-O ) :   0.2827 B( 61-C , 62-C ) :   1.9594
B( 61-C , 87-H ) :   0.9433 B( 62-C , 88-H ) :   0.9495 B( 62-C , 89-H ) :   0.9444

-----------------------------------------------------------------------------
         ABSORPTION SPECTRUM VIA TRANSITION ELECTRIC DIPOLE MOMENTS
-----------------------------------------------------------------------------
State   Energy  Wavelength   fosc         T2         TX        TY        TZ
        (cm-1)    (nm)                  (au**2)     (au)      (au)      (au)
-----------------------------------------------------------------------------
   0   17634.6    567.1   0.762479105  14.23437  -1.14363  -3.51878  -0.73801
   1   23898.2    418.4   0.031932143   0.43989  -0.50236  -0.01883  -0.43263
   2   25058.9    399.1   0.004866673   0.06394   0.19901   0.02235   0.15437
   3   26688.9    374.7   0.054915681   0.67739   0.20293   0.43731  -0.66707
   4   27683.0    361.2   0.018343713   0.21815   0.02897   0.34650  -0.31184
   5   29116.9    343.4   0.508017765   5.74394   1.77952   1.31082   0.92682
   6   29743.0    336.2   0.375271760   4.15372   0.01999  -1.94726   0.60123
   7   30243.9    330.6   0.020919023   0.22771  -0.03778   0.31856  -0.35327
   8   30459.4    328.3   0.440516159   4.76120   0.24271   2.10262  -0.53037
   9   30874.9    323.9   0.002323217   0.02477  -0.08438  -0.03181  -0.12900
  10   31611.2    316.3   0.032531997   0.33880  -0.01792  -0.56767   0.12738
  11   31826.3    314.2   0.035924363   0.37160  -0.04667  -0.42673   0.43281
  12   32047.0    312.0   0.004988232   0.05124   0.12139   0.17612   0.07408
  13   33628.4    297.4   0.018406350   0.18019  -0.05151   0.41916  -0.04294
  14   33752.1    296.3   0.001097108   0.01070   0.02277  -0.08954   0.04653
  15   33867.0    295.3   0.031453433   0.30575  -0.06766   0.44610   0.31964
  16   34014.3    294.0   0.347085199   3.35931   0.16222   1.53935  -0.98153
  17   34795.1    287.4   0.299127026   2.83018   0.55015   1.37721  -0.79423
  18   35393.3    282.5   0.039750498   0.36974   0.31408   0.38120  -0.35466
  19   35835.4    279.1   0.062577198   0.57488  -0.40917   0.18175  -0.61190
  20   35906.7    278.5   0.005703736   0.05229   0.04309  -0.22407   0.01522
  21   37211.6    268.7   0.187121709   1.65547  -0.41867  -1.20372   0.17676
  22   37680.5    265.4   0.069296992   0.60544  -0.36363   0.25411  -0.63925
  23   37861.8    264.1   0.422690784   3.67533  -1.02369   0.46656  -1.55232
  24   38133.2    262.2   0.023799321   0.20546  -0.32378  -0.29548   0.11542
  25   38697.8    258.4   0.020967458   0.17838  -0.24854   0.19710  -0.27885
  26   38896.4    257.1   0.003881484   0.03285  -0.13776   0.11650   0.01740
  27   39471.4    253.3   0.027886694   0.23259   0.14004   0.45479  -0.07837
  28   39658.0    252.2   0.038208086   0.31718  -0.07289   0.42101  -0.36690
  29   40197.2    248.8   0.000873035   0.00715   0.07560   0.03655  -0.00993

FINAL SINGLE POINT ENERGY     -4128.940820292627

DIPOLE MOMENT
-------------
                                X             Y             Z
Electronic contribution:     -9.40408      11.29913      -3.85520
Nuclear contribution   :     11.19027     -11.55211       1.03508
                        -----------------------------------------
Total Dipole Moment    :      1.78620      -0.25298      -2.82013
                        -----------------------------------------
Magnitude (a.u.)       :      3.34778
Magnitude (Debye)      :      8.50938

Rotational constants in cm-1:     0.001861     0.000246     0.000223
Rotational constants in MHz :    55.797878     7.364643     6.684080

                             ****ORCA TERMINATED NORMALLY****
TOTAL RUN TIME: 0 days 0 hours 6 minutes 33 seconds 892 msec
