                         Program Version 4.2.0 -  RELEASE  -
|  1> # ORCA input file
|  2> # SCF done       -178.453274711453          0.000607278079
|  3> ! CAM-B3LYP def2-SVP def2/J RIJCOSX Grid4 TightSCF
|  4> %maxcore 5000
|  5> %tddft
|  6>     Mode sTDDFT
|  7>     Ethresh 5.0
|  8>     maxcore 5000
|  9> end
| 10>
| 11> %pal
| 12>   nprocs 6
| 13>   end
| 14> * xyz 0 1
| 15>    C       -3.65852        -0.39643        -0.59162
| 16>    S       -3.19120        -2.04239        -0.61197
| 17>    C       -2.29120        -1.87406         0.87615
| 18>    C       -2.38831        -0.56804         1.34686
| 19>    C       -3.16487         0.26527         0.49116
| 20>    N       -3.31606         1.69448         0.62668
| 21>    O       -4.38119         2.15930         0.29749
| 22>    O       -2.34452         2.31044         0.98819
| 23>    N       -1.96437        -0.14662         2.64100
| 24>    O       -1.03834        -0.72993         3.16698
| 25>    O       -2.61020         0.74120         3.15574
| 26>    C       -1.61268        -2.96357         1.47490
| 27>    C       -1.72021        -4.24347         1.03484
| 28>    C       -1.05816        -5.36872         1.58221
| 29>    S       -1.15313        -6.87824         0.72145
| 30>    C       -0.08773        -7.63614         1.84541
| 31>    C        0.30965        -6.76530         2.85974
| 32>    C       -0.25493        -5.47935         2.72111
| 33>    O       -0.01797        -4.44767         3.58735
| 34>    C       -1.08188        -4.12980         4.47342
| 35>    O        1.15546        -7.25130         3.78928
| 36>    C        1.74064        -6.37035         4.72975
| 37>    C        0.34604        -8.97095         1.69392
| 38>    S        1.50212        -9.68827         2.75253
| 39>    C        1.51984       -11.14201         1.79575
| 40>    C        0.63069       -11.07543         0.72754
| 41>    C       -0.04738        -9.83733         0.68245
| 42>    O       -1.00286        -9.46230        -0.22845
| 43>    C       -2.31421        -9.89929         0.09846
| 44>    O        0.46246       -12.14686        -0.07204
| 45>    C        0.08795       -11.93152        -1.42657
| 46>    C        2.37754       -12.23026         2.12889
| 47>    S        2.73068       -12.60624         3.79295
| 48>    C        3.69351       -13.99439         3.36148
| 49>    C        3.73255       -14.13018         1.97860
| 50>    C        2.99377       -13.13475         1.29202
| 51>    N        2.88827       -13.07164        -0.14944
| 52>    O        2.51504       -14.06838        -0.71367
| 53>    O        3.16555       -12.01607        -0.66531
| 54>    N        4.56015       -15.06944         1.29044
| 55>    O        4.81488       -16.12056         1.83895
| 56>    O        4.98303       -14.72350         0.20847
| 57>    C        4.34591       -14.79159         4.33495
| 58>    C        4.23252       -14.59432         5.66878
| 59>    C        4.86825       -15.39563         6.65297
| 60>    S        5.93859       -16.70326         6.22122
| 61>    C        6.21855       -17.06495         7.86771
| 62>    C        5.53198       -16.24287         8.71674
| 63>    C        4.75606       -15.28721         8.02860
| 64>    C        3.93193       -14.25861         8.73763
| 65>    C        3.72537       -14.62968        10.21169
| 66>    C        3.10398       -13.43592        10.92981
| 67>    F        2.05143       -12.94705        10.25058
| 68>    F        2.65403       -13.72947        12.15206
| 69>    F        3.96995       -12.41877        11.06145
| 70>    C        5.06988       -15.02934        10.84590
| 71>    C        4.97191       -15.22786        12.27679
| 72>    N        4.92475       -15.42992        13.39927
| 73>    C        5.56108       -16.33999        10.20940
| 74>    H       -4.24711         0.01990        -1.38518
| 75>    H       -0.96861        -2.71695         2.30506
| 76>    H       -2.33780        -4.45016         0.16801
| 77>    H       -1.15056        -4.87206         5.27640
| 78>    H       -2.04166        -4.07959         3.95368
| 79>    H       -0.83984        -3.15488         4.89181
| 80>    H        2.16557        -5.49141         4.24277
| 81>    H        2.52740        -6.94824         5.21140
| 82>    H        1.01316        -6.05204         5.48035
| 83>    H       -2.95037        -9.56575        -0.71810
| 84>    H       -2.65627        -9.45131         1.03644
| 85>    H       -2.36316       -10.98869         0.18801
| 86>    H        0.62250       -11.07833        -1.84607
| 87>    H       -0.98803       -11.77923        -1.52660
| 88>    H        0.37873       -12.84256        -1.94806
| 89>    H        4.94102       -15.61376         3.95988
| 90>    H        3.61456       -13.78212         6.03085
| 91>    H        6.87516       -17.87049         8.13085
| 92>    H        2.96032       -14.14934         8.25090
| 93>    H        4.43881       -13.28800         8.68115
| 94>    H        3.01616       -15.45995        10.30111
| 95>    H        5.79978       -14.23020        10.66399
| 96>    H        4.91430       -17.16187        10.53469
| 97>    H        6.57166       -16.56495        10.55565
| 98> *
| 99>
|100>                          ****END OF INPUT****

CARTESIAN COORDINATES (ANGSTROEM)
---------------------------------
  C     -3.658520   -0.396430   -0.591620
  S     -3.191200   -2.042390   -0.611970
  C     -2.291200   -1.874060    0.876150
  C     -2.388310   -0.568040    1.346860
  C     -3.164870    0.265270    0.491160
  N     -3.316060    1.694480    0.626680
  O     -4.381190    2.159300    0.297490
  O     -2.344520    2.310440    0.988190
  N     -1.964370   -0.146620    2.641000
  O     -1.038340   -0.729930    3.166980
  O     -2.610200    0.741200    3.155740
  C     -1.612680   -2.963570    1.474900
  C     -1.720210   -4.243470    1.034840
  C     -1.058160   -5.368720    1.582210
  S     -1.153130   -6.878240    0.721450
  C     -0.087730   -7.636140    1.845410
  C      0.309650   -6.765300    2.859740
  C     -0.254930   -5.479350    2.721110
  O     -0.017970   -4.447670    3.587350
  C     -1.081880   -4.129800    4.473420
  O      1.155460   -7.251300    3.789280
  C      1.740640   -6.370350    4.729750
  C      0.346040   -8.970950    1.693920
  S      1.502120   -9.688270    2.752530
  C      1.519840  -11.142010    1.795750
  C      0.630690  -11.075430    0.727540
  C     -0.047380   -9.837330    0.682450
  O     -1.002860   -9.462300   -0.228450
  C     -2.314210   -9.899290    0.098460
  O      0.462460  -12.146860   -0.072040
  C      0.087950  -11.931520   -1.426570
  C      2.377540  -12.230260    2.128890
  S      2.730680  -12.606240    3.792950
  C      3.693510  -13.994390    3.361480
  C      3.732550  -14.130180    1.978600
  C      2.993770  -13.134750    1.292020
  N      2.888270  -13.071640   -0.149440
  O      2.515040  -14.068380   -0.713670
  O      3.165550  -12.016070   -0.665310
  N      4.560150  -15.069440    1.290440
  O      4.814880  -16.120560    1.838950
  O      4.983030  -14.723500    0.208470
  C      4.345910  -14.791590    4.334950
  C      4.232520  -14.594320    5.668780
  C      4.868250  -15.395630    6.652970
  S      5.938590  -16.703260    6.221220
  C      6.218550  -17.064950    7.867710
  C      5.531980  -16.242870    8.716740
  C      4.756060  -15.287210    8.028600
  C      3.931930  -14.258610    8.737630
  C      3.725370  -14.629680   10.211690
  C      3.103980  -13.435920   10.929810
  F      2.051430  -12.947050   10.250580
  F      2.654030  -13.729470   12.152060
  F      3.969950  -12.418770   11.061450
  C      5.069880  -15.029340   10.845900
  C      4.971910  -15.227860   12.276790
  N      4.924750  -15.429920   13.399270
  C      5.561080  -16.339990   10.209400
  H     -4.247110    0.019900   -1.385180
  H     -0.968610   -2.716950    2.305060
  H     -2.337800   -4.450160    0.168010
  H     -1.150560   -4.872060    5.276400
  H     -2.041660   -4.079590    3.953680
  H     -0.839840   -3.154880    4.891810
  H      2.165570   -5.491410    4.242770
  H      2.527400   -6.948240    5.211400
  H      1.013160   -6.052040    5.480350
  H     -2.950370   -9.565750   -0.718100
  H     -2.656270   -9.451310    1.036440
  H     -2.363160  -10.988690    0.188010
  H      0.622500  -11.078330   -1.846070
  H     -0.988030  -11.779230   -1.526600
  H      0.378730  -12.842560   -1.948060
  H      4.941020  -15.613760    3.959880
  H      3.614560  -13.782120    6.030850
  H      6.875160  -17.870490    8.130850
  H      2.960320  -14.149340    8.250900
  H      4.438810  -13.288000    8.681150
  H      3.016160  -15.459950   10.301110
  H      5.799780  -14.230200   10.663990
  H      4.914300  -17.161870   10.534690
  H      6.571660  -16.564950   10.555650

 Total Charge           Charge          ....    0
 Multiplicity           Mult            ....    1
 Number of Electrons    NEL             ....  466
 Basis Dimension        Dim             ....  966

ORBITAL ENERGIES
----------------

  NO   OCC          E(Eh)            E(eV)
   0   2.0000     -88.998335     -2421.7678
   1   2.0000     -88.990645     -2421.5586
   2   2.0000     -88.975610     -2421.1494
   3   2.0000     -88.972936     -2421.0767
   4   2.0000     -88.969915     -2420.9945
   5   2.0000     -24.813037      -675.1971
   6   2.0000     -24.809451      -675.0995
   7   2.0000     -24.808103      -675.0628
   8   2.0000     -19.271972      -524.4170
   9   2.0000     -19.260684      -524.1099
  10   2.0000     -19.259150      -524.0681
  11   2.0000     -19.257966      -524.0359
  12   2.0000     -19.249498      -523.8055
  13   2.0000     -19.249419      -523.8033
  14   2.0000     -19.248094      -523.7673
  15   2.0000     -19.247260      -523.7446
  16   2.0000     -19.247211      -523.7433
  17   2.0000     -19.246788      -523.7317
  18   2.0000     -19.244104      -523.6587
  19   2.0000     -19.243237      -523.6351
  20   2.0000     -14.659251      -398.8985
  21   2.0000     -14.656462      -398.8226
  22   2.0000     -14.656454      -398.8224
  23   2.0000     -14.651174      -398.6787
  24   2.0000     -14.409472      -392.1017
  25   2.0000     -10.525127      -286.4033
  26   2.0000     -10.355116      -281.7770
  27   2.0000     -10.353139      -281.7232
  28   2.0000     -10.352180      -281.6971
  29   2.0000     -10.351649      -281.6827
  30   2.0000     -10.351589      -281.6810
  31   2.0000     -10.349213      -281.6164
  32   2.0000     -10.346633      -281.5462
  33   2.0000     -10.345698      -281.5207
  34   2.0000     -10.344816      -281.4968
  35   2.0000     -10.342363      -281.4300
  36   2.0000     -10.342099      -281.4228
  37   2.0000     -10.340340      -281.3750
  38   2.0000     -10.338292      -281.3192
  39   2.0000     -10.335219      -281.2356
  40   2.0000     -10.334665      -281.2205
  41   2.0000     -10.332947      -281.1738
  42   2.0000     -10.328998      -281.0663
  43   2.0000     -10.323615      -280.9199
  44   2.0000     -10.321785      -280.8700
  45   2.0000     -10.320763      -280.8422
  46   2.0000     -10.317028      -280.7406
  47   2.0000     -10.315845      -280.7084
  48   2.0000     -10.314580      -280.6740
  49   2.0000     -10.311030      -280.5774
  50   2.0000     -10.309635      -280.5394
  51   2.0000     -10.308858      -280.5183
  52   2.0000     -10.308509      -280.5088
  53   2.0000     -10.307902      -280.4923
  54   2.0000     -10.307317      -280.4764
  55   2.0000     -10.299963      -280.2762
  56   2.0000     -10.299156      -280.2543
  57   2.0000     -10.296423      -280.1799
  58   2.0000     -10.295418      -280.1526
  59   2.0000      -8.094061      -220.2506
  60   2.0000      -8.086015      -220.0317
  61   2.0000      -8.070046      -219.5971
  62   2.0000      -8.067248      -219.5210
  63   2.0000      -8.065561      -219.4751
  64   2.0000      -6.063334      -164.9917
  65   2.0000      -6.059156      -164.8780
  66   2.0000      -6.056115      -164.7953
  67   2.0000      -6.055317      -164.7736
  68   2.0000      -6.051382      -164.6665
  69   2.0000      -6.047821      -164.5696
  70   2.0000      -6.039428      -164.3412
  71   2.0000      -6.036770      -164.2689
  72   2.0000      -6.035437      -164.2326
  73   2.0000      -6.034728      -164.2133
  74   2.0000      -6.032703      -164.1582
  75   2.0000      -6.031878      -164.1357
  76   2.0000      -6.030515      -164.0987
  77   2.0000      -6.028863      -164.0537
  78   2.0000      -6.027975      -164.0295
  79   2.0000      -1.401190       -38.1283
  80   2.0000      -1.334371       -36.3101
  81   2.0000      -1.331559       -36.2336
  82   2.0000      -1.328675       -36.1551
  83   2.0000      -1.324448       -36.0401
  84   2.0000      -1.304183       -35.4886
  85   2.0000      -1.301290       -35.4099
  86   2.0000      -1.179531       -32.0967
  87   2.0000      -1.170322       -31.8461
  88   2.0000      -1.156434       -31.4682
  89   2.0000      -1.153861       -31.3982
  90   2.0000      -1.152731       -31.3674
  91   2.0000      -1.150030       -31.2939
  92   2.0000      -1.148627       -31.2557
  93   2.0000      -1.145470       -31.1698
  94   2.0000      -1.034713       -28.1560
  95   2.0000      -1.031647       -28.0725
  96   2.0000      -1.013247       -27.5719
  97   2.0000      -1.006592       -27.3908
  98   2.0000      -0.998263       -27.1641
  99   2.0000      -0.987087       -26.8600
 100   2.0000      -0.963169       -26.2092
 101   2.0000      -0.936209       -25.4755
 102   2.0000      -0.932276       -25.3685
 103   2.0000      -0.921109       -25.0647
 104   2.0000      -0.919298       -25.0154
 105   2.0000      -0.903021       -24.5724
 106   2.0000      -0.898067       -24.4376
 107   2.0000      -0.882703       -24.0196
 108   2.0000      -0.870574       -23.6895
 109   2.0000      -0.869030       -23.6475
 110   2.0000      -0.862076       -23.4583
 111   2.0000      -0.852432       -23.1958
 112   2.0000      -0.837802       -22.7978
 113   2.0000      -0.832778       -22.6610
 114   2.0000      -0.813897       -22.1473
 115   2.0000      -0.803706       -21.8700
 116   2.0000      -0.793239       -21.5851
 117   2.0000      -0.786046       -21.3894
 118   2.0000      -0.777589       -21.1593
 119   2.0000      -0.774965       -21.0879
 120   2.0000      -0.773346       -21.0438
 121   2.0000      -0.770316       -20.9614
 122   2.0000      -0.764091       -20.7920
 123   2.0000      -0.752807       -20.4849
 124   2.0000      -0.744625       -20.2623
 125   2.0000      -0.729463       -19.8497
 126   2.0000      -0.720616       -19.6090
 127   2.0000      -0.698783       -19.0148
 128   2.0000      -0.687764       -18.7150
 129   2.0000      -0.687297       -18.7023
 130   2.0000      -0.682266       -18.5654
 131   2.0000      -0.677909       -18.4468
 132   2.0000      -0.670316       -18.2402
 133   2.0000      -0.668163       -18.1816
 134   2.0000      -0.659779       -17.9535
 135   2.0000      -0.658511       -17.9190
 136   2.0000      -0.647255       -17.6127
 137   2.0000      -0.645111       -17.5544
 138   2.0000      -0.641958       -17.4686
 139   2.0000      -0.637083       -17.3359
 140   2.0000      -0.633247       -17.2315
 141   2.0000      -0.633042       -17.2259
 142   2.0000      -0.629092       -17.1185
 143   2.0000      -0.628010       -17.0890
 144   2.0000      -0.627248       -17.0683
 145   2.0000      -0.623836       -16.9754
 146   2.0000      -0.620206       -16.8767
 147   2.0000      -0.613602       -16.6969
 148   2.0000      -0.608573       -16.5601
 149   2.0000      -0.604254       -16.4426
 150   2.0000      -0.599845       -16.3226
 151   2.0000      -0.596638       -16.2353
 152   2.0000      -0.591156       -16.0862
 153   2.0000      -0.588149       -16.0043
 154   2.0000      -0.585945       -15.9444
 155   2.0000      -0.581697       -15.8288
 156   2.0000      -0.578245       -15.7349
 157   2.0000      -0.575897       -15.6710
 158   2.0000      -0.571998       -15.5649
 159   2.0000      -0.570179       -15.5154
 160   2.0000      -0.567779       -15.4501
 161   2.0000      -0.560685       -15.2570
 162   2.0000      -0.560134       -15.2420
 163   2.0000      -0.553047       -15.0492
 164   2.0000      -0.552173       -15.0254
 165   2.0000      -0.551678       -15.0119
 166   2.0000      -0.548840       -14.9347
 167   2.0000      -0.547031       -14.8855
 168   2.0000      -0.543541       -14.7905
 169   2.0000      -0.538063       -14.6414
 170   2.0000      -0.535414       -14.5693
 171   2.0000      -0.530387       -14.4326
 172   2.0000      -0.527028       -14.3412
 173   2.0000      -0.523887       -14.2557
 174   2.0000      -0.520923       -14.1750
 175   2.0000      -0.517629       -14.0854
 176   2.0000      -0.513214       -13.9653
 177   2.0000      -0.511548       -13.9199
 178   2.0000      -0.510061       -13.8795
 179   2.0000      -0.509764       -13.8714
 180   2.0000      -0.505289       -13.7496
 181   2.0000      -0.500019       -13.6062
 182   2.0000      -0.498418       -13.5626
 183   2.0000      -0.496336       -13.5060
 184   2.0000      -0.492772       -13.4090
 185   2.0000      -0.491197       -13.3661
 186   2.0000      -0.484482       -13.1834
 187   2.0000      -0.481056       -13.0902
 188   2.0000      -0.476844       -12.9756
 189   2.0000      -0.472229       -12.8500
 190   2.0000      -0.468634       -12.7522
 191   2.0000      -0.464999       -12.6533
 192   2.0000      -0.459613       -12.5067
 193   2.0000      -0.457218       -12.4415
 194   2.0000      -0.453424       -12.3383
 195   2.0000      -0.450381       -12.2555
 196   2.0000      -0.449162       -12.2223
 197   2.0000      -0.445554       -12.1241
 198   2.0000      -0.442795       -12.0491
 199   2.0000      -0.438802       -11.9404
 200   2.0000      -0.434352       -11.8193
 201   2.0000      -0.428986       -11.6733
 202   2.0000      -0.425459       -11.5773
 203   2.0000      -0.423734       -11.5304
 204   2.0000      -0.419058       -11.4032
 205   2.0000      -0.410282       -11.1643
 206   2.0000      -0.408677       -11.1207
 207   2.0000      -0.405924       -11.0458
 208   2.0000      -0.402887       -10.9631
 209   2.0000      -0.397233       -10.8093
 210   2.0000      -0.393833       -10.7167
 211   2.0000      -0.392848       -10.6899
 212   2.0000      -0.390880       -10.6364
 213   2.0000      -0.388978       -10.5846
 214   2.0000      -0.387079       -10.5329
 215   2.0000      -0.385763       -10.4972
 216   2.0000      -0.383234       -10.4283
 217   2.0000      -0.381029       -10.3683
 218   2.0000      -0.377849       -10.2818
 219   2.0000      -0.375465       -10.2169
 220   2.0000      -0.373680       -10.1684
 221   2.0000      -0.372309       -10.1310
 222   2.0000      -0.368531       -10.0282
 223   2.0000      -0.360227        -9.8023
 224   2.0000      -0.352831        -9.6010
 225   2.0000      -0.347366        -9.4523
 226   2.0000      -0.342699        -9.3253
 227   2.0000      -0.328137        -8.9291
 228   2.0000      -0.317884        -8.6501
 229   2.0000      -0.308606        -8.3976
 230   2.0000      -0.304836        -8.2950
 231   2.0000      -0.276733        -7.5303
 232   2.0000      -0.245034        -6.6677
 233   0.0000      -0.088919        -2.4196
 234   0.0000      -0.074919        -2.0387
 235   0.0000      -0.046519        -1.2658
 236   0.0000      -0.042495        -1.1564
 237   0.0000      -0.022197        -0.6040

MULLIKEN ATOMIC CHARGES
-----------------------
   0 C :   -0.087512
   1 S :    0.161760
   2 C :   -0.138578
   3 C :    0.166993
   4 C :    0.126121
   5 N :    0.260154
   6 O :   -0.233603
   7 O :   -0.216446
   8 N :    0.258246
   9 O :   -0.243498
  10 O :   -0.227360
  11 C :   -0.047970
  12 C :    0.040800
  13 C :   -0.126552
  14 S :    0.172909
  15 C :   -0.146548
  16 C :    0.178503
  17 C :    0.103696
  18 O :   -0.344895
  19 C :    0.185929
  20 O :   -0.326516
  21 C :    0.193201
  22 C :   -0.066269
  23 S :    0.187034
  24 C :   -0.190596
  25 C :    0.217058
  26 C :    0.029779
  27 O :   -0.351174
  28 C :    0.200015
  29 O :   -0.320202
  30 C :    0.182194
  31 C :   -0.119508
  32 S :    0.159548
  33 C :   -0.127681
  34 C :    0.154610
  35 C :    0.171234
  36 N :    0.255534
  37 O :   -0.218452
  38 O :   -0.226060
  39 N :    0.255836
  40 O :   -0.237854
  41 O :   -0.227282
  42 C :   -0.012932
  43 C :   -0.015879
  44 C :   -0.121940
  45 S :    0.141581
  46 C :   -0.121319
  47 C :   -0.038323
  48 C :   -0.063831
  49 C :    0.205714
  50 C :   -0.196179
  51 C :    0.513579
  52 F :   -0.167600
  53 F :   -0.139788
  54 F :   -0.165762
  55 C :   -0.126356
  56 C :   -0.254156
  57 N :    0.157371
  58 C :    0.196095
  59 H :    0.047750
  60 H :    0.049448
  61 H :   -0.010365
  62 H :    0.020280
  63 H :    0.029760
  64 H :    0.058243
  65 H :    0.045566
  66 H :    0.036449
  67 H :    0.018044
  68 H :    0.040734
  69 H :    0.019968
  70 H :    0.031089
  71 H :    0.042222
  72 H :    0.013339
  73 H :    0.048699
  74 H :    0.027295
  75 H :   -0.001954
  76 H :    0.020802
  77 H :    0.037649
  78 H :    0.031056
  79 H :    0.045371
  80 H :    0.054276
  81 H :    0.035453
  82 H :    0.031955
Sum of atomic charges:    0.0000000

LOEWDIN ATOMIC CHARGES
----------------------
   0 C :   -0.152700
   1 S :    0.483092
   2 C :   -0.125975
   3 C :   -0.075044
   4 C :   -0.054012
   5 N :    0.280733
   6 O :   -0.195366
   7 O :   -0.183119
   8 N :    0.287057
   9 O :   -0.206271
  10 O :   -0.191449
  11 C :   -0.065314
  12 C :   -0.016438
  13 C :   -0.204735
  14 S :    0.480570
  15 C :   -0.210458
  16 C :    0.003207
  17 C :   -0.006441
  18 O :   -0.122535
  19 C :    0.082213
  20 O :   -0.101375
  21 C :    0.086120
  22 C :   -0.190776
  23 S :    0.471982
  24 C :   -0.250031
  25 C :    0.016726
  26 C :   -0.030193
  27 O :   -0.132353
  28 C :    0.076489
  29 O :   -0.102244
  30 C :    0.084046
  31 C :   -0.153821
  32 S :    0.465767
  33 C :   -0.137895
  34 C :   -0.063069
  35 C :   -0.055045
  36 N :    0.284920
  37 O :   -0.182453
  38 O :   -0.188073
  39 N :    0.285147
  40 O :   -0.200644
  41 O :   -0.190872
  42 C :   -0.054018
  43 C :   -0.022276
  44 C :   -0.181170
  45 S :    0.464378
  46 C :   -0.176716
  47 C :   -0.074638
  48 C :   -0.055379
  49 C :   -0.018661
  50 C :   -0.047951
  51 C :    0.161213
  52 F :   -0.062677
  53 F :   -0.040839
  54 F :   -0.061381
  55 C :   -0.043466
  56 C :   -0.046766
  57 N :   -0.049640
  58 C :   -0.000278
  59 H :    0.041936
  60 H :    0.039904
  61 H :    0.021958
  62 H :    0.011737
  63 H :    0.017283
  64 H :    0.033395
  65 H :    0.024931
  66 H :    0.027513
  67 H :    0.016647
  68 H :    0.027453
  69 H :    0.011346
  70 H :    0.016403
  71 H :    0.024715
  72 H :    0.012210
  73 H :    0.029507
  74 H :    0.032203
  75 H :    0.025051
  76 H :    0.026387
  77 H :    0.039344
  78 H :    0.040127
  79 H :    0.047738
  80 H :    0.056619
  81 H :    0.043110
  82 H :    0.043386

  Mayer bond orders larger than 0.100000
B(  0-C ,  1-S ) :   1.1465 B(  0-C ,  4-C ) :   1.6061 B(  0-C , 59-H ) :   0.9639
B(  1-S ,  2-C ) :   1.1441 B(  2-C ,  3-C ) :   1.4687 B(  2-C , 11-C ) :   1.1795
B(  3-C ,  4-C ) :   1.2076 B(  3-C ,  8-N ) :   0.9349 B(  4-C ,  5-N ) :   0.8802
B(  5-N ,  6-O ) :   1.5388 B(  5-N ,  7-O ) :   1.5650 B(  6-O ,  7-O ) :   0.2817
B(  8-N ,  9-O ) :   1.4984 B(  8-N , 10-O ) :   1.5556 B(  9-O , 10-O ) :   0.2645
B( 11-C , 12-C ) :   1.5940 B( 11-C , 60-H ) :   0.9634 B( 12-C , 13-C ) :   1.1703
B( 12-C , 61-H ) :   0.9502 B( 13-C , 14-S ) :   1.0790 B( 13-C , 15-C ) :   0.1216
B( 13-C , 17-C ) :   1.4215 B( 14-S , 15-C ) :   1.1288 B( 15-C , 16-C ) :   1.4256
B( 15-C , 22-C ) :   1.1900 B( 16-C , 17-C ) :   1.2521 B( 16-C , 20-O ) :   1.1762
B( 17-C , 18-O ) :   1.1389 B( 18-O , 19-C ) :   0.9073 B( 19-C , 62-H ) :   0.9664
B( 19-C , 63-H ) :   0.9677 B( 19-C , 64-H ) :   0.9815 B( 20-O , 21-C ) :   0.9247
B( 21-C , 65-H ) :   0.9732 B( 21-C , 66-H ) :   0.9778 B( 21-C , 67-H ) :   0.9762
B( 22-C , 23-S ) :   1.1399 B( 22-C , 24-C ) :   0.1341 B( 22-C , 26-C ) :   1.4537
B( 23-S , 24-C ) :   1.0690 B( 24-C , 25-C ) :   1.5011 B( 24-C , 31-C ) :   1.0825
B( 25-C , 26-C ) :   1.2295 B( 25-C , 29-O ) :   1.2145 B( 26-C , 27-O ) :   1.1277
B( 27-O , 28-C ) :   0.9212 B( 28-C , 68-H ) :   0.9830 B( 28-C , 69-H ) :   0.9658
B( 28-C , 70-H ) :   0.9679 B( 29-O , 30-C ) :   0.9158 B( 30-C , 71-H ) :   0.9710
B( 30-C , 72-H ) :   0.9738 B( 30-C , 73-H ) :   0.9751 B( 31-C , 32-S ) :   1.1242
B( 31-C , 33-C ) :   0.1096 B( 31-C , 35-C ) :   1.5945 B( 32-S , 33-C ) :   1.1077
B( 33-C , 34-C ) :   1.4959 B( 33-C , 42-C ) :   1.1797 B( 34-C , 35-C ) :   1.2457
B( 34-C , 39-N ) :   0.9150 B( 35-C , 36-N ) :   0.8674 B( 36-N , 37-O ) :   1.5510
B( 36-N , 38-O ) :   1.5402 B( 37-O , 38-O ) :   0.2773 B( 39-N , 40-O ) :   1.5027
B( 39-N , 41-O ) :   1.5496 B( 40-O , 41-O ) :   0.2682 B( 42-C , 43-C ) :   1.6202
B( 42-C , 74-H ) :   0.9649 B( 43-C , 44-C ) :   1.1670 B( 43-C , 75-H ) :   0.9660
B( 44-C , 45-S ) :   1.1335 B( 44-C , 48-C ) :   1.4936 B( 45-S , 46-C ) :   1.1741
B( 46-C , 47-C ) :   1.5539 B( 46-C , 76-H ) :   0.9736 B( 47-C , 48-C ) :   1.3131
B( 47-C , 58-C ) :   1.0279 B( 48-C , 49-C ) :   1.0368 B( 49-C , 50-C ) :   1.0369
B( 49-C , 77-H ) :   0.9059 B( 49-C , 78-H ) :   0.9014 B( 50-C , 51-C ) :   0.9818
B( 50-C , 55-C ) :   1.0070 B( 50-C , 79-H ) :   0.8962 B( 51-C , 52-F ) :   1.1369
B( 51-C , 53-F ) :   1.1722 B( 51-C , 54-F ) :   1.1486 B( 55-C , 56-C ) :   1.0759
B( 55-C , 58-C ) :   1.0866 B( 55-C , 80-H ) :   0.8774 B( 56-C , 57-N ) :   3.1265
B( 58-C , 81-H ) :   0.9010 B( 58-C , 82-H ) :   0.9199

-----------------------------------------------------------------------------
         ABSORPTION SPECTRUM VIA TRANSITION ELECTRIC DIPOLE MOMENTS
-----------------------------------------------------------------------------
State   Energy  Wavelength   fosc         T2         TX        TY        TZ
        (cm-1)    (nm)                  (au**2)     (au)      (au)      (au)
-----------------------------------------------------------------------------
   0   18871.8    529.9   1.731109228  30.19866  -2.22671   4.86270  -1.26274
   1   22548.0    443.5   0.249913354   3.64886   0.19882   0.70701   1.76337
   2   25686.8    389.3   0.032168610   0.41228   0.44039  -0.09996  -0.45645
   3   27413.6    364.8   0.223992024   2.68993   0.31233   0.19994   1.59762
   4   29285.6    341.5   0.049581057   0.55736  -0.01366  -0.39354   0.63427
   5   30338.6    329.6   0.046219402   0.50154   0.08025  -0.66051   0.24254
   6   30790.0    324.8   0.186711680   1.99635  -0.80328   0.56836  -1.01393
   7   31358.2    318.9   0.191689949   2.01244   0.44603  -1.34192   0.11299
   8   32325.7    309.4   0.174279950   1.77490   0.66502  -0.93942   0.67093
   9   33783.3    296.0   0.065909526   0.64228   0.31899   0.19109   0.70993
  10   34442.4    290.3   0.031541487   0.30148   0.08055   0.41438   0.35111
  11   34929.6    286.3   0.012101327   0.11406   0.09229   0.10523   0.30735
  12   35971.6    278.0   0.030706290   0.28102  -0.23871   0.30952  -0.35810
  13   37316.5    268.0   0.005895992   0.05202  -0.15688  -0.00553  -0.16545
  14   37516.8    266.5   0.109234744   0.95854  -0.40804   0.11943  -0.88192
  15   37693.3    265.3   0.014913005   0.13025   0.15740  -0.07238   0.31660
  16   38164.4    262.0   0.186074362   1.60511  -0.49491   0.52004   1.04390
  17   38284.8    261.2   0.037741213   0.32454  -0.01422   0.39725   0.40808
  18   38574.8    259.2   0.067112769   0.57277  -0.40732   0.63741   0.02381
  19   38657.7    258.7   0.048374769   0.41196  -0.43504   0.43094  -0.19235
  20   39854.0    250.9   0.004763091   0.03935  -0.16455   0.03148  -0.10620
  21   40308.5    248.1   0.013945018   0.11389  -0.29875   0.13775   0.07528

FINAL SINGLE POINT ENERGY     -4772.623162351777

DIPOLE MOMENT
-------------
                                X             Y             Z
Electronic contribution:      5.84868       1.89151       6.99848
Nuclear contribution   :     -7.10995      -3.45232      -7.11792
                        -----------------------------------------
Total Dipole Moment    :     -1.26128      -1.56081      -0.11944
                        -----------------------------------------
Magnitude (a.u.)       :      2.01028
Magnitude (Debye)      :      5.10972

Rotational constants in cm-1:     0.001689     0.000390     0.000326
Rotational constants in MHz :    50.647861    11.705249     9.785138

                             ****ORCA TERMINATED NORMALLY****
TOTAL RUN TIME: 0 days 0 hours 6 minutes 26 seconds 424 msec
