                         Program Version 4.2.0 -  RELEASE  -
|  1> # ORCA input file
|  2> # SCF done       -178.437864615168          0.000573310362
|  3> ! CAM-B3LYP def2-SVP def2/J RIJCOSX Grid4 TightSCF
|  4> %maxcore 5000
|  5> %tddft
|  6>     Mode sTDDFT
|  7>     Ethresh 5.0
|  8>     maxcore 5000
|  9> end
| 10>
| 11> %pal
| 12>   nprocs 6
| 13>   end
| 14> * xyz 0 1
| 15>    C        5.86342         2.06602         5.77561
| 16>    C        5.25543         1.58872         4.69223
| 17>    C        5.74620         1.77188         3.35403
| 18>    S        7.23040         2.62891         3.03152
| 19>    C        7.11938         2.33773         1.31840
| 20>    C        8.07990         2.87374         0.41292
| 21>    S        8.51461         4.56156         0.56033
| 22>    C        9.43577         4.51008        -0.90988
| 23>    C       10.04536         5.71829        -1.38448
| 24>    S        9.17942         7.21256        -1.17888
| 25>    C       10.47076         8.11940        -1.91070
| 26>    C       10.33854         9.53979        -2.01731
| 27>    S        9.46365        10.39248        -0.78455
| 28>    C        9.74932        11.91663        -1.55583
| 29>    C        9.31498        13.15355        -1.01544
| 30>    C        8.50711        13.27286         0.06189
| 31>    C        8.00409        14.49503         0.59418
| 32>    S        7.37355        14.51167         2.22492
| 33>    C        7.03336        16.17887         2.15297
| 34>    C        7.37701        16.71484         0.94201
| 35>    N        7.09215        18.07554         0.59366
| 36>    O        6.90155        18.84659         1.50596
| 37>    O        7.03250        18.33786        -0.58580
| 38>    C        7.92511        15.75966         0.04550
| 39>    N        8.37039        16.09657        -1.28892
| 40>    O        9.27742        16.88592        -1.37148
| 41>    O        7.83181        15.52582        -2.20823
| 42>    C       10.44408        11.75258        -2.74933
| 43>    O       10.77956        12.80291        -3.55619
| 44>    C        9.71440        13.41003        -4.27941
| 45>    C       10.78055        10.39988        -3.01609
| 46>    O       11.40336         9.89287        -4.10286
| 47>    C       12.01640        10.77476        -5.02706
| 48>    C       11.51791         7.29296        -2.25948
| 49>    C       11.27550         5.93336        -1.96760
| 50>    C       12.31784         4.87948        -2.16348
| 51>    C       13.43732         5.36513        -3.09628
| 52>    C       14.48329         4.36517        -3.10014
| 53>    N       15.27498         3.54258        -3.08155
| 54>    C       13.93298         6.74250        -2.62716
| 55>    C       15.15316         7.19999        -3.41799
| 56>    F       16.25446         6.49177        -3.15100
| 57>    F       14.95334         7.12873        -4.74386
| 58>    F       15.46078         8.48165        -3.15400
| 59>    C       12.81658         7.77234        -2.82370
| 60>    C        9.43605         3.24355        -1.45747
| 61>    O       10.03839         3.00253        -2.64469
| 62>    C        9.55588         1.92667        -3.43801
| 63>    C        8.71667         2.28765        -0.67031
| 64>    O        8.85044         0.98616        -0.96230
| 65>    C        8.41349        -0.00779        -0.06533
| 66>    C        5.95290         1.65049         1.01992
| 67>    N        5.39221         1.61995        -0.29103
| 68>    O        6.14859         1.67533        -1.24158
| 69>    O        4.18221         1.61997        -0.35897
| 70>    C        5.20031         1.30488         2.18022
| 71>    N        4.09304         0.38946         2.11792
| 72>    O        3.18266         0.53762         2.89715
| 73>    O        4.20519        -0.50943         1.31560
| 74>    H        5.45468         1.91358         6.75794
| 75>    H        6.78218         2.62694         5.71017
| 76>    H        4.32397         1.04469         4.77163
| 77>    H        9.70779        14.02234        -1.52219
| 78>    H        8.20712        12.37643         0.58834
| 79>    H        6.57868        16.69938         2.97258
| 80>    H        8.91713        13.77267        -3.62713
| 81>    H        9.28823        12.70782        -5.00394
| 82>    H       10.16363        14.24973        -4.80492
| 83>    H       11.27369        11.30431        -5.62747
| 84>    H       12.61500        10.13787        -5.67722
| 85>    H       12.66006        11.49801        -4.52451
| 86>    H       11.86601         3.97681        -2.57438
| 87>    H       12.74644         4.61622        -1.18999
| 88>    H       13.05275         5.45763        -4.11963
| 89>    H       14.23409         6.69089        -1.57516
| 90>    H       12.69194         7.96647        -3.89320
| 91>    H       13.09364         8.71846        -2.35402
| 92>    H        9.98052         0.97627        -3.11096
| 93>    H        9.88560         2.14739        -4.45238
| 94>    H        8.46726         1.86907        -3.40486
| 95>    H        7.33963        -0.18699        -0.14843
| 96>    H        8.66583         0.24851         0.96771
| 97>    H        8.94370        -0.91335        -0.35818
| 98> *
| 99>
|100>                          ****END OF INPUT****

CARTESIAN COORDINATES (ANGSTROEM)
---------------------------------
  C      5.863420    2.066020    5.775610
  C      5.255430    1.588720    4.692230
  C      5.746200    1.771880    3.354030
  S      7.230400    2.628910    3.031520
  C      7.119380    2.337730    1.318400
  C      8.079900    2.873740    0.412920
  S      8.514610    4.561560    0.560330
  C      9.435770    4.510080   -0.909880
  C     10.045360    5.718290   -1.384480
  S      9.179420    7.212560   -1.178880
  C     10.470760    8.119400   -1.910700
  C     10.338540    9.539790   -2.017310
  S      9.463650   10.392480   -0.784550
  C      9.749320   11.916630   -1.555830
  C      9.314980   13.153550   -1.015440
  C      8.507110   13.272860    0.061890
  C      8.004090   14.495030    0.594180
  S      7.373550   14.511670    2.224920
  C      7.033360   16.178870    2.152970
  C      7.377010   16.714840    0.942010
  N      7.092150   18.075540    0.593660
  O      6.901550   18.846590    1.505960
  O      7.032500   18.337860   -0.585800
  C      7.925110   15.759660    0.045500
  N      8.370390   16.096570   -1.288920
  O      9.277420   16.885920   -1.371480
  O      7.831810   15.525820   -2.208230
  C     10.444080   11.752580   -2.749330
  O     10.779560   12.802910   -3.556190
  C      9.714400   13.410030   -4.279410
  C     10.780550   10.399880   -3.016090
  O     11.403360    9.892870   -4.102860
  C     12.016400   10.774760   -5.027060
  C     11.517910    7.292960   -2.259480
  C     11.275500    5.933360   -1.967600
  C     12.317840    4.879480   -2.163480
  C     13.437320    5.365130   -3.096280
  C     14.483290    4.365170   -3.100140
  N     15.274980    3.542580   -3.081550
  C     13.932980    6.742500   -2.627160
  C     15.153160    7.199990   -3.417990
  F     16.254460    6.491770   -3.151000
  F     14.953340    7.128730   -4.743860
  F     15.460780    8.481650   -3.154000
  C     12.816580    7.772340   -2.823700
  C      9.436050    3.243550   -1.457470
  O     10.038390    3.002530   -2.644690
  C      9.555880    1.926670   -3.438010
  C      8.716670    2.287650   -0.670310
  O      8.850440    0.986160   -0.962300
  C      8.413490   -0.007790   -0.065330
  C      5.952900    1.650490    1.019920
  N      5.392210    1.619950   -0.291030
  O      6.148590    1.675330   -1.241580
  O      4.182210    1.619970   -0.358970
  C      5.200310    1.304880    2.180220
  N      4.093040    0.389460    2.117920
  O      3.182660    0.537620    2.897150
  O      4.205190   -0.509430    1.315600
  H      5.454680    1.913580    6.757940
  H      6.782180    2.626940    5.710170
  H      4.323970    1.044690    4.771630
  H      9.707790   14.022340   -1.522190
  H      8.207120   12.376430    0.588340
  H      6.578680   16.699380    2.972580
  H      8.917130   13.772670   -3.627130
  H      9.288230   12.707820   -5.003940
  H     10.163630   14.249730   -4.804920
  H     11.273690   11.304310   -5.627470
  H     12.615000   10.137870   -5.677220
  H     12.660060   11.498010   -4.524510
  H     11.866010    3.976810   -2.574380
  H     12.746440    4.616220   -1.189990
  H     13.052750    5.457630   -4.119630
  H     14.234090    6.690890   -1.575160
  H     12.691940    7.966470   -3.893200
  H     13.093640    8.718460   -2.354020
  H      9.980520    0.976270   -3.110960
  H      9.885600    2.147390   -4.452380
  H      8.467260    1.869070   -3.404860
  H      7.339630   -0.186990   -0.148430
  H      8.665830    0.248510    0.967710
  H      8.943700   -0.913350   -0.358180

 Total Charge           Charge          ....    0
 Multiplicity           Mult            ....    1
 Number of Electrons    NEL             ....  466
 Basis Dimension        Dim             ....  966

ORBITAL ENERGIES
----------------

  NO   OCC          E(Eh)            E(eV)
   0   2.0000     -89.002205     -2421.8731
   1   2.0000     -89.000601     -2421.8295
   2   2.0000     -88.970644     -2421.0143
   3   2.0000     -88.969558     -2420.9848
   4   2.0000     -88.963361     -2420.8161
   5   2.0000     -24.803301      -674.9321
   6   2.0000     -24.798923      -674.8130
   7   2.0000     -24.798111      -674.7909
   8   2.0000     -19.273611      -524.4616
   9   2.0000     -19.261926      -524.1436
  10   2.0000     -19.260838      -524.1141
  11   2.0000     -19.260125      -524.0947
  12   2.0000     -19.258970      -524.0632
  13   2.0000     -19.256161      -523.9868
  14   2.0000     -19.255131      -523.9588
  15   2.0000     -19.254983      -523.9547
  16   2.0000     -19.253450      -523.9130
  17   2.0000     -19.252957      -523.8996
  18   2.0000     -19.251572      -523.8619
  19   2.0000     -19.249445      -523.8040
  20   2.0000     -14.668159      -399.1409
  21   2.0000     -14.663973      -399.0270
  22   2.0000     -14.663525      -399.0148
  23   2.0000     -14.659815      -398.9138
  24   2.0000     -14.399363      -391.8266
  25   2.0000     -10.513990      -286.1002
  26   2.0000     -10.366586      -282.0892
  27   2.0000     -10.362905      -281.9890
  28   2.0000     -10.355921      -281.7989
  29   2.0000     -10.355302      -281.7821
  30   2.0000     -10.353543      -281.7342
  31   2.0000     -10.353025      -281.7201
  32   2.0000     -10.352528      -281.7066
  33   2.0000     -10.350771      -281.6588
  34   2.0000     -10.350761      -281.6585
  35   2.0000     -10.349211      -281.6164
  36   2.0000     -10.349009      -281.6108
  37   2.0000     -10.341833      -281.4156
  38   2.0000     -10.336391      -281.2675
  39   2.0000     -10.326990      -281.0117
  40   2.0000     -10.326448      -280.9969
  41   2.0000     -10.325591      -280.9736
  42   2.0000     -10.321915      -280.8736
  43   2.0000     -10.321587      -280.8647
  44   2.0000     -10.320800      -280.8432
  45   2.0000     -10.317505      -280.7536
  46   2.0000     -10.314114      -280.6613
  47   2.0000     -10.313896      -280.6554
  48   2.0000     -10.313517      -280.6451
  49   2.0000     -10.313400      -280.6419
  50   2.0000     -10.311045      -280.5778
  51   2.0000     -10.306095      -280.4431
  52   2.0000     -10.304811      -280.4082
  53   2.0000     -10.298841      -280.2457
  54   2.0000     -10.298687      -280.2415
  55   2.0000     -10.290385      -280.0156
  56   2.0000     -10.289222      -279.9840
  57   2.0000     -10.287395      -279.9342
  58   2.0000     -10.287310      -279.9319
  59   2.0000      -8.098041      -220.3589
  60   2.0000      -8.096138      -220.3071
  61   2.0000      -8.066243      -219.4936
  62   2.0000      -8.065100      -219.4625
  63   2.0000      -8.059184      -219.3015
  64   2.0000      -6.067247      -165.0982
  65   2.0000      -6.065448      -165.0492
  66   2.0000      -6.063021      -164.9832
  67   2.0000      -6.061396      -164.9390
  68   2.0000      -6.060268      -164.9083
  69   2.0000      -6.057950      -164.8452
  70   2.0000      -6.035811      -164.2428
  71   2.0000      -6.034409      -164.2046
  72   2.0000      -6.031928      -164.1371
  73   2.0000      -6.030633      -164.1019
  74   2.0000      -6.028454      -164.0426
  75   2.0000      -6.027422      -164.0145
  76   2.0000      -6.026769      -163.9967
  77   2.0000      -6.024409      -163.9325
  78   2.0000      -6.021117      -163.8429
  79   2.0000      -1.390943       -37.8495
  80   2.0000      -1.344521       -36.5863
  81   2.0000      -1.339832       -36.4587
  82   2.0000      -1.336455       -36.3668
  83   2.0000      -1.331033       -36.2192
  84   2.0000      -1.294086       -35.2139
  85   2.0000      -1.290914       -35.1275
  86   2.0000      -1.183333       -32.2001
  87   2.0000      -1.168988       -31.8098
  88   2.0000      -1.163941       -31.6724
  89   2.0000      -1.159732       -31.5579
  90   2.0000      -1.157475       -31.4965
  91   2.0000      -1.156328       -31.4653
  92   2.0000      -1.150507       -31.3069
  93   2.0000      -1.148647       -31.2563
  94   2.0000      -1.041675       -28.3454
  95   2.0000      -1.038799       -28.2672
  96   2.0000      -1.012162       -27.5423
  97   2.0000      -0.996970       -27.1289
  98   2.0000      -0.993889       -27.0451
  99   2.0000      -0.982737       -26.7416
 100   2.0000      -0.951095       -25.8806
 101   2.0000      -0.937692       -25.5159
 102   2.0000      -0.936051       -25.4712
 103   2.0000      -0.927318       -25.2336
 104   2.0000      -0.923999       -25.1433
 105   2.0000      -0.902358       -24.5544
 106   2.0000      -0.887975       -24.1630
 107   2.0000      -0.881994       -24.0003
 108   2.0000      -0.871062       -23.7028
 109   2.0000      -0.862669       -23.4744
 110   2.0000      -0.860558       -23.4170
 111   2.0000      -0.851599       -23.1732
 112   2.0000      -0.848264       -23.0824
 113   2.0000      -0.820132       -22.3169
 114   2.0000      -0.817330       -22.2407
 115   2.0000      -0.812206       -22.1012
 116   2.0000      -0.788075       -21.4446
 117   2.0000      -0.782282       -21.2870
 118   2.0000      -0.779293       -21.2057
 119   2.0000      -0.777135       -21.1469
 120   2.0000      -0.771239       -20.9865
 121   2.0000      -0.770332       -20.9618
 122   2.0000      -0.764746       -20.8098
 123   2.0000      -0.748423       -20.3656
 124   2.0000      -0.745544       -20.2873
 125   2.0000      -0.729204       -19.8427
 126   2.0000      -0.711035       -19.3482
 127   2.0000      -0.700987       -19.0748
 128   2.0000      -0.690038       -18.7769
 129   2.0000      -0.678979       -18.4760
 130   2.0000      -0.672764       -18.3068
 131   2.0000      -0.671580       -18.2746
 132   2.0000      -0.668563       -18.1925
 133   2.0000      -0.665941       -18.1212
 134   2.0000      -0.660478       -17.9725
 135   2.0000      -0.658207       -17.9107
 136   2.0000      -0.655770       -17.8444
 137   2.0000      -0.649253       -17.6671
 138   2.0000      -0.644857       -17.5475
 139   2.0000      -0.644179       -17.5290
 140   2.0000      -0.640157       -17.4195
 141   2.0000      -0.639678       -17.4065
 142   2.0000      -0.635390       -17.2899
 143   2.0000      -0.631033       -17.1713
 144   2.0000      -0.628657       -17.1066
 145   2.0000      -0.623919       -16.9777
 146   2.0000      -0.620919       -16.8961
 147   2.0000      -0.613078       -16.6827
 148   2.0000      -0.611275       -16.6336
 149   2.0000      -0.607140       -16.5211
 150   2.0000      -0.605228       -16.4691
 151   2.0000      -0.600614       -16.3435
 152   2.0000      -0.594682       -16.1821
 153   2.0000      -0.594227       -16.1697
 154   2.0000      -0.591527       -16.0963
 155   2.0000      -0.584795       -15.9131
 156   2.0000      -0.580061       -15.7843
 157   2.0000      -0.574547       -15.6342
 158   2.0000      -0.572728       -15.5847
 159   2.0000      -0.568122       -15.4594
 160   2.0000      -0.560277       -15.2459
 161   2.0000      -0.557068       -15.1586
 162   2.0000      -0.553340       -15.0572
 163   2.0000      -0.550224       -14.9723
 164   2.0000      -0.547390       -14.8952
 165   2.0000      -0.544566       -14.8184
 166   2.0000      -0.544350       -14.8125
 167   2.0000      -0.542878       -14.7725
 168   2.0000      -0.537451       -14.6248
 169   2.0000      -0.533570       -14.5192
 170   2.0000      -0.531535       -14.4638
 171   2.0000      -0.524349       -14.2682
 172   2.0000      -0.521852       -14.2003
 173   2.0000      -0.520197       -14.1553
 174   2.0000      -0.518420       -14.1069
 175   2.0000      -0.515165       -14.0184
 176   2.0000      -0.514069       -13.9885
 177   2.0000      -0.508692       -13.8422
 178   2.0000      -0.506218       -13.7749
 179   2.0000      -0.505005       -13.7419
 180   2.0000      -0.500336       -13.6148
 181   2.0000      -0.499614       -13.5952
 182   2.0000      -0.492762       -13.4087
 183   2.0000      -0.488903       -13.3037
 184   2.0000      -0.487187       -13.2570
 185   2.0000      -0.486851       -13.2479
 186   2.0000      -0.484461       -13.1829
 187   2.0000      -0.479100       -13.0370
 188   2.0000      -0.474124       -12.9016
 189   2.0000      -0.472877       -12.8676
 190   2.0000      -0.464355       -12.6358
 191   2.0000      -0.460970       -12.5436
 192   2.0000      -0.458960       -12.4889
 193   2.0000      -0.453702       -12.3459
 194   2.0000      -0.450107       -12.2480
 195   2.0000      -0.443470       -12.0674
 196   2.0000      -0.442501       -12.0411
 197   2.0000      -0.439751       -11.9662
 198   2.0000      -0.436086       -11.8665
 199   2.0000      -0.431638       -11.7455
 200   2.0000      -0.428583       -11.6623
 201   2.0000      -0.425633       -11.5821
 202   2.0000      -0.422893       -11.5075
 203   2.0000      -0.419570       -11.4171
 204   2.0000      -0.414948       -11.2913
 205   2.0000      -0.408181       -11.1072
 206   2.0000      -0.406702       -11.0669
 207   2.0000      -0.405040       -11.0217
 208   2.0000      -0.402435       -10.9508
 209   2.0000      -0.401123       -10.9151
 210   2.0000      -0.398969       -10.8565
 211   2.0000      -0.398226       -10.8363
 212   2.0000      -0.397351       -10.8125
 213   2.0000      -0.396431       -10.7874
 214   2.0000      -0.394474       -10.7342
 215   2.0000      -0.392391       -10.6775
 216   2.0000      -0.391557       -10.6548
 217   2.0000      -0.389663       -10.6033
 218   2.0000      -0.387462       -10.5434
 219   2.0000      -0.382088       -10.3971
 220   2.0000      -0.381335       -10.3766
 221   2.0000      -0.377427       -10.2703
 222   2.0000      -0.368516       -10.0278
 223   2.0000      -0.358596        -9.7579
 224   2.0000      -0.355842        -9.6829
 225   2.0000      -0.355088        -9.6624
 226   2.0000      -0.338494        -9.2109
 227   2.0000      -0.319595        -8.6966
 228   2.0000      -0.316950        -8.6246
 229   2.0000      -0.304660        -8.2902
 230   2.0000      -0.293835        -7.9956
 231   2.0000      -0.287285        -7.8174
 232   2.0000      -0.250162        -6.8073
 233   0.0000      -0.075383        -2.0513
 234   0.0000      -0.065881        -1.7927
 235   0.0000      -0.062310        -1.6955
 236   0.0000      -0.055311        -1.5051
 237   0.0000      -0.036779        -1.0008

MULLIKEN ATOMIC CHARGES
-----------------------
   0 C :   -0.011975
   1 C :    0.002680
   2 C :   -0.119613
   3 S :    0.186895
   4 C :   -0.176596
   5 C :   -0.235863
   6 S :    0.151313
   7 C :   -0.161898
   8 C :   -0.135526
   9 S :    0.140969
  10 C :   -0.111227
  11 C :   -0.197494
  12 S :    0.136535
  13 C :   -0.134201
  14 C :    0.018866
  15 C :    0.014570
  16 C :   -0.151955
  17 S :    0.189986
  18 C :   -0.109435
  19 C :    0.160358
  20 N :    0.259442
  21 O :   -0.233661
  22 O :   -0.228492
  23 C :    0.150143
  24 N :    0.237557
  25 O :   -0.204373
  26 O :   -0.220269
  27 C :    0.108636
  28 O :   -0.345689
  29 C :    0.186367
  30 C :    0.216323
  31 O :   -0.316834
  32 C :    0.192522
  33 C :   -0.100775
  34 C :   -0.029217
  35 C :    0.194542
  36 C :   -0.127793
  37 C :   -0.255335
  38 N :    0.153235
  39 C :   -0.179294
  40 C :    0.506327
  41 F :   -0.142645
  42 F :   -0.167768
  43 F :   -0.167756
  44 C :    0.226316
  45 C :    0.174984
  46 O :   -0.327904
  47 C :    0.191242
  48 C :    0.237405
  49 O :   -0.296727
  50 C :    0.181064
  51 C :    0.148937
  52 N :    0.263141
  53 O :   -0.244337
  54 O :   -0.230108
  55 C :    0.115806
  56 N :    0.258976
  57 O :   -0.225847
  58 O :   -0.223529
  59 H :    0.044935
  60 H :    0.031435
  61 H :    0.030318
  62 H :    0.022728
  63 H :   -0.003923
  64 H :    0.051701
  65 H :    0.037568
  66 H :    0.015620
  67 H :    0.044196
  68 H :    0.016757
  69 H :    0.036179
  70 H :    0.039964
  71 H :    0.043718
  72 H :    0.024073
  73 H :    0.048889
  74 H :    0.038190
  75 H :    0.036105
  76 H :    0.024365
  77 H :    0.034319
  78 H :    0.033207
  79 H :    0.041507
  80 H :    0.044816
  81 H :    0.031202
  82 H :    0.041132
Sum of atomic charges:   -0.0000000

LOEWDIN ATOMIC CHARGES
----------------------
   0 C :   -0.014281
   1 C :   -0.042880
   2 C :   -0.137877
   3 S :    0.479060
   4 C :   -0.152456
   5 C :   -0.269519
   6 S :    0.422767
   7 C :   -0.204695
   8 C :   -0.195421
   9 S :    0.431645
  10 C :   -0.188327
  11 C :   -0.214364
  12 S :    0.439589
  13 C :   -0.203336
  14 C :    0.000610
  15 C :   -0.076119
  16 C :   -0.143532
  17 S :    0.501458
  18 C :   -0.152534
  19 C :   -0.062776
  20 N :    0.282604
  21 O :   -0.196356
  22 O :   -0.191965
  23 C :   -0.061206
  24 N :    0.279849
  25 O :   -0.172529
  26 O :   -0.186141
  27 C :   -0.001879
  28 O :   -0.126048
  29 C :    0.083939
  30 C :    0.002913
  31 O :   -0.094334
  32 C :    0.083098
  33 C :   -0.053619
  34 C :   -0.049266
  35 C :   -0.007466
  36 C :   -0.043458
  37 C :   -0.043548
  38 N :   -0.057809
  39 C :   -0.050061
  40 C :    0.161037
  41 F :   -0.044030
  42 F :   -0.063346
  43 F :   -0.063216
  44 C :   -0.019544
  45 C :    0.001227
  46 O :   -0.096812
  47 C :    0.084940
  48 C :    0.031333
  49 O :   -0.066392
  50 C :    0.082268
  51 C :   -0.079573
  52 N :    0.285413
  53 O :   -0.199611
  54 O :   -0.196169
  55 C :   -0.057582
  56 N :    0.285072
  57 O :   -0.187348
  58 O :   -0.189943
  59 H :    0.036154
  60 H :    0.020105
  61 H :    0.042720
  62 H :    0.036983
  63 H :    0.025648
  64 H :    0.043407
  65 H :    0.015303
  66 H :    0.011626
  67 H :    0.031049
  68 H :    0.015927
  69 H :    0.025226
  70 H :    0.022057
  71 H :    0.039561
  72 H :    0.040791
  73 H :    0.055402
  74 H :    0.044842
  75 H :    0.038234
  76 H :    0.038215
  77 H :    0.018418
  78 H :    0.024723
  79 H :    0.024676
  80 H :    0.017403
  81 H :    0.019001
  82 H :    0.031079

  Mayer bond orders larger than 0.100000
B(  0-C ,  1-C ) :   1.9003 B(  0-C , 59-H ) :   0.9504 B(  0-C , 60-H ) :   0.9575
B(  1-C ,  2-C ) :   1.1260 B(  1-C , 61-H ) :   0.9562 B(  2-C ,  3-S ) :   1.0865
B(  2-C , 55-C ) :   1.5861 B(  3-S ,  4-C ) :   1.1614 B(  4-C ,  5-C ) :   1.0793
B(  4-C , 51-C ) :   1.5280 B(  5-C ,  6-S ) :   1.0598 B(  5-C ,  7-C ) :   0.1340
B(  5-C , 48-C ) :   1.4571 B(  6-S ,  7-C ) :   1.1098 B(  7-C ,  8-C ) :   1.0291
B(  7-C , 45-C ) :   1.5786 B(  8-C ,  9-S ) :   1.1244 B(  8-C , 10-C ) :   0.1257
B(  8-C , 34-C ) :   1.5751 B(  9-S , 10-C ) :   1.1225 B( 10-C , 11-C ) :   1.0475
B( 10-C , 33-C ) :   1.5836 B( 11-C , 12-S ) :   1.1223 B( 11-C , 13-C ) :   0.1322
B( 11-C , 30-C ) :   1.5055 B( 12-S , 13-C ) :   1.0887 B( 13-C , 14-C ) :   1.1870
B( 13-C , 27-C ) :   1.4541 B( 14-C , 15-C ) :   1.6544 B( 14-C , 62-H ) :   0.9688
B( 15-C , 16-C ) :   1.1274 B( 15-C , 63-H ) :   0.9497 B( 16-C , 17-S ) :   1.1567
B( 16-C , 23-C ) :   1.5147 B( 17-S , 18-C ) :   1.1781 B( 18-C , 19-C ) :   1.5508
B( 18-C , 64-H ) :   0.9579 B( 19-C , 20-N ) :   0.8989 B( 19-C , 23-C ) :   1.2647
B( 20-N , 21-O ) :   1.5457 B( 20-N , 22-O ) :   1.5494 B( 21-O , 22-O ) :   0.2781
B( 23-C , 24-N ) :   0.8590 B( 24-N , 25-O ) :   1.5553 B( 24-N , 26-O ) :   1.5243
B( 25-O , 26-O ) :   0.2853 B( 27-C , 28-O ) :   1.1480 B( 27-C , 30-C ) :   1.2062
B( 28-O , 29-C ) :   0.9160 B( 29-C , 65-H ) :   0.9649 B( 29-C , 66-H ) :   0.9615
B( 29-C , 67-H ) :   0.9827 B( 30-C , 31-O ) :   1.1889 B( 31-O , 32-C ) :   0.9285
B( 32-C , 68-H ) :   0.9766 B( 32-C , 69-H ) :   0.9760 B( 32-C , 70-H ) :   0.9719
B( 33-C , 34-C ) :   1.2796 B( 33-C , 44-C ) :   1.0465 B( 34-C , 35-C ) :   1.0749
B( 35-C , 36-C ) :   1.0893 B( 35-C , 71-H ) :   0.8744 B( 35-C , 72-H ) :   0.8902
B( 36-C , 37-C ) :   1.0758 B( 36-C , 39-C ) :   1.0059 B( 36-C , 73-H ) :   0.8749
B( 37-C , 38-N ) :   3.1263 B( 39-C , 40-C ) :   0.9835 B( 39-C , 44-C ) :   1.0219
B( 39-C , 74-H ) :   0.8922 B( 40-C , 41-F ) :   1.1711 B( 40-C , 42-F ) :   1.1456
B( 40-C , 43-F ) :   1.1396 B( 44-C , 75-H ) :   0.8893 B( 44-C , 76-H ) :   0.9078
B( 45-C , 46-O ) :   1.1632 B( 45-C , 48-C ) :   1.1661 B( 46-O , 47-C ) :   0.9152
B( 47-C , 77-H ) :   0.9763 B( 47-C , 78-H ) :   0.9786 B( 47-C , 79-H ) :   0.9730
B( 48-C , 49-O ) :   1.2112 B( 49-O , 50-C ) :   0.9335 B( 50-C , 80-H ) :   0.9620
B( 50-C , 81-H ) :   0.9618 B( 50-C , 82-H ) :   0.9768 B( 51-C , 52-N ) :   0.9380
B( 51-C , 55-C ) :   1.1642 B( 52-N , 53-O ) :   1.4936 B( 52-N , 54-O ) :   1.5552
B( 53-O , 54-O ) :   0.2605 B( 55-C , 56-N ) :   0.8978 B( 56-N , 57-O ) :   1.5167
B( 56-N , 58-O ) :   1.5557 B( 57-O , 58-O ) :   0.2744

-----------------------------------------------------------------------------
         ABSORPTION SPECTRUM VIA TRANSITION ELECTRIC DIPOLE MOMENTS
-----------------------------------------------------------------------------
State   Energy  Wavelength   fosc         T2         TX        TY        TZ
        (cm-1)    (nm)                  (au**2)     (au)      (au)      (au)
-----------------------------------------------------------------------------
   0   21829.4    458.1   1.020117111  15.38449  -0.07885  -3.92117  -0.05173
   1   24885.5    401.8   0.336131290   4.44670  -1.72720   0.12096   1.20368
   2   27480.1    363.9   0.048225649   0.57774   0.44583   0.27385   0.55135
   3   27816.7    359.5   0.126708713   1.49961   0.53850  -0.92828  -0.58986
   4   28307.9    353.3   0.062274769   0.72424   0.59064  -0.41951  -0.44653
   5   29641.0    337.4   0.118267803   1.31356  -0.01399   1.09900  -0.32491
   6   31101.5    321.5   0.108756170   1.15119  -0.74473   0.67417   0.37692
   7   32068.7    311.8   0.061423009   0.63056   0.11814  -0.53056  -0.57889
   8   32201.5    310.5   0.026149977   0.26734  -0.50621   0.09705   0.04093
   9   33751.4    296.3   0.197131015   1.92282  -0.51905  -1.26205   0.24623
  10   33969.0    294.4   0.384683735   3.72818  -1.20803  -0.11497   1.50187
  11   34437.4    290.4   0.071636009   0.68482  -0.07133  -0.03501  -0.82372
  12   35493.4    281.7   0.111958347   1.03845  -0.47740   0.22797   0.87095
  13   36621.4    273.1   0.005118741   0.04602  -0.05071  -0.11285   0.17524
  14   36970.4    270.5   0.060752344   0.54098  -0.65922  -0.04902   0.32250
  15   37622.5    265.8   0.044365555   0.38822  -0.14944  -0.17287   0.57966
  16   38143.0    262.2   0.039946567   0.34478  -0.23594  -0.34752   0.41029
  17   38402.6    260.4   0.008546010   0.07326  -0.12359  -0.23841   0.03386
  18   39334.8    254.2   0.051533193   0.43131  -0.40684   0.33288   0.39367
  19   39513.2    253.1   0.079709626   0.66412  -0.00848  -0.23595  -0.77998
  20   39812.3    251.2   0.077744241   0.64288   0.52419   0.16940  -0.58259
  21   40078.2    249.5   0.008983028   0.07379  -0.13023  -0.15962   0.17706

FINAL SINGLE POINT ENERGY     -4772.608214291002

DIPOLE MOMENT
-------------
                                X             Y             Z
Electronic contribution:      2.39163      16.42987      11.48421
Nuclear contribution   :     -2.40054     -17.10249      -9.41870
                        -----------------------------------------
Total Dipole Moment    :     -0.00891      -0.67262       2.06551
                        -----------------------------------------
Magnitude (a.u.)       :      2.17228
Magnitude (Debye)      :      5.52150

Rotational constants in cm-1:     0.001280     0.000556     0.000415
Rotational constants in MHz :    38.371716    16.679196    12.435221

                             ****ORCA TERMINATED NORMALLY****
TOTAL RUN TIME: 0 days 0 hours 6 minutes 20 seconds 457 msec
