                         Program Version 4.2.0 -  RELEASE  -
|  1> # ORCA input file
|  2> # SCF done       -226.156370809379          0.000542850298
|  3> ! CAM-B3LYP def2-SVP def2/J RIJCOSX Grid4 TightSCF
|  4> %maxcore 5000
|  5> %tddft
|  6>     Mode sTDDFT
|  7>     Ethresh 5.0
|  8>     maxcore 5000
|  9> end
| 10>
| 11> %pal
| 12>   nprocs 6
| 13>   end
| 14> * xyz 0 1
| 15>    C        5.71502        -6.21885        -6.52976
| 16>    S        4.09045        -6.40349        -6.06268
| 17>    C        4.52852        -7.17326        -4.55304
| 18>    C        5.90809        -7.27651        -4.46215
| 19>    C        6.57210        -6.72842        -5.59412
| 20>    N        7.99765        -6.58816        -5.70983
| 21>    O        8.44339        -6.45505        -6.82529
| 22>    O        8.62974        -6.56567        -4.67970
| 23>    N        6.63972        -8.00838        -3.45756
| 24>    O        6.42716        -7.75103        -2.29466
| 25>    O        7.38874        -8.85996        -3.86975
| 26>    C        3.44192        -7.60346        -3.73461
| 27>    C        3.51939        -8.02998        -2.45010
| 28>    C        2.45275        -8.48046        -1.62217
| 29>    C        1.24478        -9.12032        -1.89561
| 30>    N        0.61273        -9.42183        -3.11766
| 31>    O       -0.20222       -10.32756        -3.10154
| 32>    O        0.88920        -8.77747        -4.11634
| 33>    C        0.65874        -9.57653        -0.66356
| 34>    C        1.48291        -9.25534         0.36456
| 35>    C        2.62028        -8.55302        -0.16347
| 36>    C        3.60421        -7.92358         0.57686
| 37>    C        4.30294        -6.73236         0.23025
| 38>    C        4.97474        -6.27506         1.32984
| 39>    C        4.78982        -7.19617         2.40319
| 40>    N        5.43826        -7.06627         3.64764
| 41>    O        5.95613        -5.99161         3.89163
| 42>    O        5.44758        -8.02367         4.40209
| 43>    C        3.97134        -8.24346         1.97825
| 44>    C        3.65845        -9.40295         2.70128
| 45>    C        3.37840       -10.62736         2.14625
| 46>    C        3.01632       -11.73851         2.92399
| 47>    N        2.91603       -13.02678         2.45149
| 48>    C        3.11749       -13.45819         1.08754
| 49>    C        1.89698       -13.17124         0.21660
| 50>    C        2.56104       -13.93374         3.45908
| 51>    O        2.42375       -15.12722         3.28267
| 52>    C        2.42192       -13.11335         4.64841
| 53>    C        2.69382       -11.78220         4.29073
| 54>    C        2.50262       -10.95162         5.46565
| 55>    O        2.57001        -9.75610         5.63512
| 56>    N        2.15650       -11.86726         6.48117
| 57>    C        1.90894       -11.41851         7.83185
| 58>    C        0.41595       -11.25925         8.10944
| 59>    C        2.09177       -13.15025         6.01345
| 60>    C        1.76339       -14.25705         6.83040
| 61>    C        1.79018       -15.53575         6.36651
| 62>    C        1.53595       -16.73112         7.08760
| 63>    S        1.31248       -18.17060         6.14059
| 64>    C        1.07166       -19.14149         7.54706
| 65>    C        1.15004       -18.37235         8.70405
| 66>    C        1.42348       -17.01966         8.44833
| 67>    C        1.63818       -16.03391         9.55629
| 68>    N        2.95436       -15.34644         9.39309
| 69>    O        3.88775       -16.01685         9.04373
| 70>    O        2.98531       -14.17043         9.66436
| 71>    C        1.68955       -16.72665        10.92385
| 72>    C        0.53963       -17.71747        11.03377
| 73>    C        0.79749       -18.88190        10.07203
| 74>    N       -0.47374       -19.66289         9.98950
| 75>    O       -0.54990       -20.67211        10.63757
| 76>    O       -1.34873       -19.20027         9.29986
| 77>    C        0.81504       -20.54192         7.41431
| 78>    C        1.19107       -21.45604         8.33414
| 79>    C        0.86098       -22.83692         8.31026
| 80>    S       -0.17377       -23.53602         7.10535
| 81>    C       -0.06002       -25.11962         7.81182
| 82>    C        0.74545       -25.08874         8.93317
| 83>    C        1.27297       -23.80328         9.21749
| 84>    N        2.26723       -23.58322        10.22804
| 85>    O        2.35626       -22.47772        10.71744
| 86>    O        2.99098       -24.51888        10.47686
| 87>    N        0.89017       -26.21407         9.82564
| 88>    O        1.02011       -27.30801         9.32976
| 89>    O        0.80926       -25.97003        11.00458
| 90>    C       -0.77171       -26.24318         7.26861
| 91>    C       -1.56235       -26.17398         6.19966
| 92>    H        5.99242        -5.73331        -7.44508
| 93>    H        2.47603        -7.53531        -4.21438
| 94>    H        4.47648        -8.01017        -1.94760
| 95>    H       -0.29258       -10.07163        -0.61527
| 96>    H        1.28033        -9.38729         1.40913
| 97>    H        4.21236        -6.21347        -0.70314
| 98>    H        5.56205        -5.37953         1.40794
| 99>    H        3.72604        -9.32170         3.78144
|100>    H        3.49383       -10.76560         1.08068
|101>    H        3.29018       -14.53686         1.13259
|102>    H        4.01040       -12.97524         0.68234
|103>    H        1.02860       -13.69423         0.60923
|104>    H        2.07944       -13.51854        -0.79617
|105>    H        1.67522       -12.10668         0.18473
|106>    H        2.39944       -10.44590         7.92230
|107>    H        2.37234       -12.11145         8.53903
|108>    H       -0.00931       -10.51417         7.44160
|109>    H        0.26947       -10.92979         9.13383
|110>    H       -0.11635       -12.19690         7.96232
|111>    H        1.48545       -14.02446         7.84403
|112>    H        2.00797       -15.68431         5.31503
|113>    H        0.86464       -15.25823         9.56361
|114>    H        1.62599       -15.97850        11.71469
|115>    H        2.63810       -17.25979        11.02498
|116>    H       -0.40006       -17.22637        10.76823
|117>    H        0.46109       -18.09445        12.05366
|118>    H        1.55907       -19.54467        10.49437
|119>    H        0.31322       -20.85816         6.50888
|120>    H        1.78907       -21.15971         9.18219
|121>    H       -0.61229       -27.18368         7.77837
|122>    H       -1.72010       -25.24925         5.66766
|123>    H       -2.07223       -27.04338         5.82631
|124> *
|125>
|126>                          ****END OF INPUT****

CARTESIAN COORDINATES (ANGSTROEM)
---------------------------------
  C      5.715020   -6.218850   -6.529760
  S      4.090450   -6.403490   -6.062680
  C      4.528520   -7.173260   -4.553040
  C      5.908090   -7.276510   -4.462150
  C      6.572100   -6.728420   -5.594120
  N      7.997650   -6.588160   -5.709830
  O      8.443390   -6.455050   -6.825290
  O      8.629740   -6.565670   -4.679700
  N      6.639720   -8.008380   -3.457560
  O      6.427160   -7.751030   -2.294660
  O      7.388740   -8.859960   -3.869750
  C      3.441920   -7.603460   -3.734610
  C      3.519390   -8.029980   -2.450100
  C      2.452750   -8.480460   -1.622170
  C      1.244780   -9.120320   -1.895610
  N      0.612730   -9.421830   -3.117660
  O     -0.202220  -10.327560   -3.101540
  O      0.889200   -8.777470   -4.116340
  C      0.658740   -9.576530   -0.663560
  C      1.482910   -9.255340    0.364560
  C      2.620280   -8.553020   -0.163470
  C      3.604210   -7.923580    0.576860
  C      4.302940   -6.732360    0.230250
  C      4.974740   -6.275060    1.329840
  C      4.789820   -7.196170    2.403190
  N      5.438260   -7.066270    3.647640
  O      5.956130   -5.991610    3.891630
  O      5.447580   -8.023670    4.402090
  C      3.971340   -8.243460    1.978250
  C      3.658450   -9.402950    2.701280
  C      3.378400  -10.627360    2.146250
  C      3.016320  -11.738510    2.923990
  N      2.916030  -13.026780    2.451490
  C      3.117490  -13.458190    1.087540
  C      1.896980  -13.171240    0.216600
  C      2.561040  -13.933740    3.459080
  O      2.423750  -15.127220    3.282670
  C      2.421920  -13.113350    4.648410
  C      2.693820  -11.782200    4.290730
  C      2.502620  -10.951620    5.465650
  O      2.570010   -9.756100    5.635120
  N      2.156500  -11.867260    6.481170
  C      1.908940  -11.418510    7.831850
  C      0.415950  -11.259250    8.109440
  C      2.091770  -13.150250    6.013450
  C      1.763390  -14.257050    6.830400
  C      1.790180  -15.535750    6.366510
  C      1.535950  -16.731120    7.087600
  S      1.312480  -18.170600    6.140590
  C      1.071660  -19.141490    7.547060
  C      1.150040  -18.372350    8.704050
  C      1.423480  -17.019660    8.448330
  C      1.638180  -16.033910    9.556290
  N      2.954360  -15.346440    9.393090
  O      3.887750  -16.016850    9.043730
  O      2.985310  -14.170430    9.664360
  C      1.689550  -16.726650   10.923850
  C      0.539630  -17.717470   11.033770
  C      0.797490  -18.881900   10.072030
  N     -0.473740  -19.662890    9.989500
  O     -0.549900  -20.672110   10.637570
  O     -1.348730  -19.200270    9.299860
  C      0.815040  -20.541920    7.414310
  C      1.191070  -21.456040    8.334140
  C      0.860980  -22.836920    8.310260
  S     -0.173770  -23.536020    7.105350
  C     -0.060020  -25.119620    7.811820
  C      0.745450  -25.088740    8.933170
  C      1.272970  -23.803280    9.217490
  N      2.267230  -23.583220   10.228040
  O      2.356260  -22.477720   10.717440
  O      2.990980  -24.518880   10.476860
  N      0.890170  -26.214070    9.825640
  O      1.020110  -27.308010    9.329760
  O      0.809260  -25.970030   11.004580
  C     -0.771710  -26.243180    7.268610
  C     -1.562350  -26.173980    6.199660
  H      5.992420   -5.733310   -7.445080
  H      2.476030   -7.535310   -4.214380
  H      4.476480   -8.010170   -1.947600
  H     -0.292580  -10.071630   -0.615270
  H      1.280330   -9.387290    1.409130
  H      4.212360   -6.213470   -0.703140
  H      5.562050   -5.379530    1.407940
  H      3.726040   -9.321700    3.781440
  H      3.493830  -10.765600    1.080680
  H      3.290180  -14.536860    1.132590
  H      4.010400  -12.975240    0.682340
  H      1.028600  -13.694230    0.609230
  H      2.079440  -13.518540   -0.796170
  H      1.675220  -12.106680    0.184730
  H      2.399440  -10.445900    7.922300
  H      2.372340  -12.111450    8.539030
  H     -0.009310  -10.514170    7.441600
  H      0.269470  -10.929790    9.133830
  H     -0.116350  -12.196900    7.962320
  H      1.485450  -14.024460    7.844030
  H      2.007970  -15.684310    5.315030
  H      0.864640  -15.258230    9.563610
  H      1.625990  -15.978500   11.714690
  H      2.638100  -17.259790   11.024980
  H     -0.400060  -17.226370   10.768230
  H      0.461090  -18.094450   12.053660
  H      1.559070  -19.544670   10.494370
  H      0.313220  -20.858160    6.508880
  H      1.789070  -21.159710    9.182190
  H     -0.612290  -27.183680    7.778370
  H     -1.720100  -25.249250    5.667660
  H     -2.072230  -27.043380    5.826310

 Total Charge           Charge          ....    0
 Multiplicity           Mult            ....    1
 Number of Electrons    NEL             ....  570
 Basis Dimension        Dim             .... 1250

ORBITAL ENERGIES
----------------

  NO   OCC          E(Eh)            E(eV)
   0   2.0000     -89.005394     -2421.9599
   1   2.0000     -89.003009     -2421.8950
   2   2.0000     -88.989416     -2421.5251
   3   2.0000     -19.271440      -524.4025
   4   2.0000     -19.270749      -524.3837
   5   2.0000     -19.264833      -524.2228
   6   2.0000     -19.263616      -524.1896
   7   2.0000     -19.263461      -524.1854
   8   2.0000     -19.260873      -524.1150
   9   2.0000     -19.259544      -524.0788
  10   2.0000     -19.258923      -524.0619
  11   2.0000     -19.256146      -523.9864
  12   2.0000     -19.256134      -523.9860
  13   2.0000     -19.256038      -523.9834
  14   2.0000     -19.254419      -523.9394
  15   2.0000     -19.249184      -523.7969
  16   2.0000     -19.246602      -523.7267
  17   2.0000     -19.230290      -523.2828
  18   2.0000     -19.230172      -523.2796
  19   2.0000     -19.209391      -522.7141
  20   2.0000     -19.200406      -522.4696
  21   2.0000     -14.671070      -399.2201
  22   2.0000     -14.668878      -399.1605
  23   2.0000     -14.668152      -399.1407
  24   2.0000     -14.664942      -399.0534
  25   2.0000     -14.664611      -399.0443
  26   2.0000     -14.660267      -398.9262
  27   2.0000     -14.655860      -398.8062
  28   2.0000     -14.639820      -398.3698
  29   2.0000     -14.467649      -393.6847
  30   2.0000     -14.463195      -393.5635
  31   2.0000     -10.389556      -282.7142
  32   2.0000     -10.384531      -282.5775
  33   2.0000     -10.364538      -282.0334
  34   2.0000     -10.361114      -281.9402
  35   2.0000     -10.360170      -281.9146
  36   2.0000     -10.358749      -281.8759
  37   2.0000     -10.358552      -281.8705
  38   2.0000     -10.358407      -281.8666
  39   2.0000     -10.358204      -281.8611
  40   2.0000     -10.358071      -281.8574
  41   2.0000     -10.356085      -281.8034
  42   2.0000     -10.354839      -281.7695
  43   2.0000     -10.347208      -281.5618
  44   2.0000     -10.346206      -281.5346
  45   2.0000     -10.339442      -281.3505
  46   2.0000     -10.338472      -281.3241
  47   2.0000     -10.336847      -281.2799
  48   2.0000     -10.333774      -281.1963
  49   2.0000     -10.328513      -281.0531
  50   2.0000     -10.324590      -280.9464
  51   2.0000     -10.324182      -280.9353
  52   2.0000     -10.323645      -280.9207
  53   2.0000     -10.323562      -280.9184
  54   2.0000     -10.321512      -280.8626
  55   2.0000     -10.320749      -280.8418
  56   2.0000     -10.319983      -280.8210
  57   2.0000     -10.318147      -280.7710
  58   2.0000     -10.317775      -280.7609
  59   2.0000     -10.316403      -280.7236
  60   2.0000     -10.315446      -280.6976
  61   2.0000     -10.313196      -280.6363
  62   2.0000     -10.311131      -280.5801
  63   2.0000     -10.309289      -280.5300
  64   2.0000     -10.308694      -280.5138
  65   2.0000     -10.306930      -280.4658
  66   2.0000     -10.305174      -280.4180
  67   2.0000     -10.304922      -280.4112
  68   2.0000     -10.302905      -280.3563
  69   2.0000     -10.299474      -280.2629
  70   2.0000     -10.297181      -280.2005
  71   2.0000     -10.291823      -280.0547
  72   2.0000     -10.286598      -279.9126
  73   2.0000     -10.281643      -279.7777
  74   2.0000     -10.275896      -279.6214
  75   2.0000     -10.272149      -279.5194
  76   2.0000     -10.268118      -279.4097
  77   2.0000      -8.101175      -220.4442
  78   2.0000      -8.098518      -220.3719
  79   2.0000      -8.085204      -220.0096
  80   2.0000      -6.070372      -165.1832
  81   2.0000      -6.067784      -165.1128
  82   2.0000      -6.066076      -165.0663
  83   2.0000      -6.063773      -165.0036
  84   2.0000      -6.063462      -164.9952
  85   2.0000      -6.060414      -164.9122
  86   2.0000      -6.054209      -164.7434
  87   2.0000      -6.050154      -164.6331
  88   2.0000      -6.047653      -164.5650
  89   2.0000      -1.352505       -36.8035
  90   2.0000      -1.347228       -36.6599
  91   2.0000      -1.344603       -36.5885
  92   2.0000      -1.344470       -36.5849
  93   2.0000      -1.337932       -36.4070
  94   2.0000      -1.337812       -36.4037
  95   2.0000      -1.326935       -36.1077
  96   2.0000      -1.310322       -35.6557
  97   2.0000      -1.174069       -31.9480
  98   2.0000      -1.167202       -31.7612
  99   2.0000      -1.165041       -31.7024
 100   2.0000      -1.163805       -31.6687
 101   2.0000      -1.159005       -31.5381
 102   2.0000      -1.158439       -31.5227
 103   2.0000      -1.149229       -31.2721
 104   2.0000      -1.143781       -31.1239
 105   2.0000      -1.139613       -31.0104
 106   2.0000      -1.128068       -30.6963
 107   2.0000      -1.078979       -29.3605
 108   2.0000      -1.068237       -29.0682
 109   2.0000      -1.044076       -28.4107
 110   2.0000      -1.042480       -28.3673
 111   2.0000      -1.034243       -28.1432
 112   2.0000      -1.020872       -27.7793
 113   2.0000      -0.999709       -27.2035
 114   2.0000      -0.982147       -26.7256
 115   2.0000      -0.961725       -26.1699
 116   2.0000      -0.945604       -25.7312
 117   2.0000      -0.940797       -25.6004
 118   2.0000      -0.938113       -25.5274
 119   2.0000      -0.937026       -25.4978
 120   2.0000      -0.927032       -25.2258
 121   2.0000      -0.926274       -25.2052
 122   2.0000      -0.920638       -25.0518
 123   2.0000      -0.913408       -24.8551
 124   2.0000      -0.902842       -24.5676
 125   2.0000      -0.896252       -24.3883
 126   2.0000      -0.883600       -24.0440
 127   2.0000      -0.882308       -24.0088
 128   2.0000      -0.880299       -23.9542
 129   2.0000      -0.873657       -23.7734
 130   2.0000      -0.856088       -23.2953
 131   2.0000      -0.848978       -23.1019
 132   2.0000      -0.846765       -23.0416
 133   2.0000      -0.842808       -22.9340
 134   2.0000      -0.830126       -22.5889
 135   2.0000      -0.813968       -22.1492
 136   2.0000      -0.809271       -22.0214
 137   2.0000      -0.785160       -21.3653
 138   2.0000      -0.783567       -21.3219
 139   2.0000      -0.783049       -21.3079
 140   2.0000      -0.781001       -21.2521
 141   2.0000      -0.769379       -20.9359
 142   2.0000      -0.768472       -20.9112
 143   2.0000      -0.758981       -20.6529
 144   2.0000      -0.750458       -20.4210
 145   2.0000      -0.737896       -20.0792
 146   2.0000      -0.734144       -19.9771
 147   2.0000      -0.727826       -19.8051
 148   2.0000      -0.719449       -19.5772
 149   2.0000      -0.716091       -19.4858
 150   2.0000      -0.713347       -19.4112
 151   2.0000      -0.699667       -19.0389
 152   2.0000      -0.696297       -18.9472
 153   2.0000      -0.689459       -18.7611
 154   2.0000      -0.683256       -18.5924
 155   2.0000      -0.676624       -18.4119
 156   2.0000      -0.673670       -18.3315
 157   2.0000      -0.671029       -18.2596
 158   2.0000      -0.667199       -18.1554
 159   2.0000      -0.664465       -18.0810
 160   2.0000      -0.662622       -18.0309
 161   2.0000      -0.660891       -17.9838
 162   2.0000      -0.658834       -17.9278
 163   2.0000      -0.650816       -17.7096
 164   2.0000      -0.647445       -17.6179
 165   2.0000      -0.647008       -17.6060
 166   2.0000      -0.643398       -17.5078
 167   2.0000      -0.642078       -17.4718
 168   2.0000      -0.639417       -17.3994
 169   2.0000      -0.638966       -17.3871
 170   2.0000      -0.635458       -17.2917
 171   2.0000      -0.633954       -17.2508
 172   2.0000      -0.632961       -17.2238
 173   2.0000      -0.631285       -17.1781
 174   2.0000      -0.630143       -17.1471
 175   2.0000      -0.625494       -17.0205
 176   2.0000      -0.624355       -16.9896
 177   2.0000      -0.621874       -16.9221
 178   2.0000      -0.619809       -16.8659
 179   2.0000      -0.619083       -16.8461
 180   2.0000      -0.611417       -16.6375
 181   2.0000      -0.610855       -16.6222
 182   2.0000      -0.607555       -16.5324
 183   2.0000      -0.605171       -16.4675
 184   2.0000      -0.603527       -16.4228
 185   2.0000      -0.601376       -16.3643
 186   2.0000      -0.597850       -16.2683
 187   2.0000      -0.596815       -16.2402
 188   2.0000      -0.594278       -16.1711
 189   2.0000      -0.591563       -16.0973
 190   2.0000      -0.588401       -16.0112
 191   2.0000      -0.585971       -15.9451
 192   2.0000      -0.581467       -15.8225
 193   2.0000      -0.571631       -15.5549
 194   2.0000      -0.569755       -15.5038
 195   2.0000      -0.564541       -15.3619
 196   2.0000      -0.561559       -15.2808
 197   2.0000      -0.558809       -15.2060
 198   2.0000      -0.555788       -15.1238
 199   2.0000      -0.552269       -15.0280
 200   2.0000      -0.551102       -14.9963
 201   2.0000      -0.549403       -14.9500
 202   2.0000      -0.540697       -14.7131
 203   2.0000      -0.540130       -14.6977
 204   2.0000      -0.537166       -14.6170
 205   2.0000      -0.535946       -14.5838
 206   2.0000      -0.532722       -14.4961
 207   2.0000      -0.532332       -14.4855
 208   2.0000      -0.529830       -14.4174
 209   2.0000      -0.524220       -14.2647
 210   2.0000      -0.523175       -14.2363
 211   2.0000      -0.521585       -14.1931
 212   2.0000      -0.519842       -14.1456
 213   2.0000      -0.516435       -14.0529
 214   2.0000      -0.513754       -13.9799
 215   2.0000      -0.508484       -13.8366
 216   2.0000      -0.507346       -13.8056
 217   2.0000      -0.503397       -13.6981
 218   2.0000      -0.499943       -13.6041
 219   2.0000      -0.496451       -13.5091
 220   2.0000      -0.494860       -13.4658
 221   2.0000      -0.493530       -13.4296
 222   2.0000      -0.489626       -13.3234
 223   2.0000      -0.484600       -13.1866
 224   2.0000      -0.483811       -13.1652
 225   2.0000      -0.482259       -13.1229
 226   2.0000      -0.479456       -13.0467
 227   2.0000      -0.475919       -12.9504
 228   2.0000      -0.474131       -12.9018
 229   2.0000      -0.471971       -12.8430
 230   2.0000      -0.470365       -12.7993
 231   2.0000      -0.466712       -12.6999
 232   2.0000      -0.462839       -12.5945
 233   2.0000      -0.461947       -12.5702
 234   2.0000      -0.460723       -12.5369
 235   2.0000      -0.457717       -12.4551
 236   2.0000      -0.454356       -12.3637
 237   2.0000      -0.451263       -12.2795
 238   2.0000      -0.448283       -12.1984
 239   2.0000      -0.446868       -12.1599
 240   2.0000      -0.442281       -12.0351
 241   2.0000      -0.439662       -11.9638
 242   2.0000      -0.434956       -11.8357
 243   2.0000      -0.430214       -11.7067
 244   2.0000      -0.419715       -11.4210
 245   2.0000      -0.409904       -11.1541
 246   2.0000      -0.408163       -11.1067
 247   2.0000      -0.407532       -11.0895
 248   2.0000      -0.406542       -11.0626
 249   2.0000      -0.404261       -11.0005
 250   2.0000      -0.403834       -10.9889
 251   2.0000      -0.403740       -10.9863
 252   2.0000      -0.401521       -10.9259
 253   2.0000      -0.399279       -10.8649
 254   2.0000      -0.397260       -10.8100
 255   2.0000      -0.396929       -10.8010
 256   2.0000      -0.396142       -10.7796
 257   2.0000      -0.395150       -10.7526
 258   2.0000      -0.394308       -10.7297
 259   2.0000      -0.393035       -10.6950
 260   2.0000      -0.388768       -10.5789
 261   2.0000      -0.387423       -10.5423
 262   2.0000      -0.386762       -10.5243
 263   2.0000      -0.386383       -10.5140
 264   2.0000      -0.385318       -10.4850
 265   2.0000      -0.382901       -10.4193
 266   2.0000      -0.381510       -10.3814
 267   2.0000      -0.374579       -10.1928
 268   2.0000      -0.371876       -10.1193
 269   2.0000      -0.370356       -10.0779
 270   2.0000      -0.366881        -9.9834
 271   2.0000      -0.361732        -9.8432
 272   2.0000      -0.358703        -9.7608
 273   2.0000      -0.357838        -9.7373
 274   2.0000      -0.357483        -9.7276
 275   2.0000      -0.352776        -9.5995
 276   2.0000      -0.351526        -9.5655
 277   2.0000      -0.345134        -9.3916
 278   2.0000      -0.340351        -9.2614
 279   2.0000      -0.329171        -8.9572
 280   2.0000      -0.327100        -8.9008
 281   2.0000      -0.307185        -8.3589
 282   2.0000      -0.291039        -7.9196
 283   2.0000      -0.285845        -7.7782
 284   2.0000      -0.241651        -6.5757
 285   0.0000      -0.143672        -3.9095
 286   0.0000      -0.103608        -2.8193
 287   0.0000      -0.083604        -2.2750
 288   0.0000      -0.066531        -1.8104
 289   0.0000      -0.061647        -1.6775

MULLIKEN ATOMIC CHARGES
-----------------------
   0 C :   -0.089597
   1 S :    0.203588
   2 C :   -0.166392
   3 C :    0.166995
   4 C :    0.131232
   5 N :    0.260500
   6 O :   -0.231625
   7 O :   -0.225123
   8 N :    0.255955
   9 O :   -0.221184
  10 O :   -0.203476
  11 C :    0.055512
  12 C :   -0.095961
  13 C :    0.069043
  14 C :    0.065711
  15 N :    0.270510
  16 O :   -0.241191
  17 O :   -0.249803
  18 C :    0.023928
  19 C :   -0.000373
  20 C :   -0.010635
  21 C :    0.049746
  22 C :   -0.004912
  23 C :    0.030073
  24 C :    0.091985
  25 N :    0.270236
  26 O :   -0.252569
  27 O :   -0.243122
  28 C :    0.046132
  29 C :   -0.032813
  30 C :   -0.044122
  31 C :    0.127667
  32 N :   -0.255342
  33 C :    0.099188
  34 C :    0.008542
  35 C :    0.172387
  36 O :   -0.214653
  37 C :   -0.077999
  38 C :   -0.046299
  39 C :    0.165047
  40 O :   -0.175594
  41 N :   -0.256486
  42 C :    0.090564
  43 C :    0.002201
  44 C :    0.135471
  45 C :   -0.032043
  46 C :    0.069638
  47 C :   -0.129590
  48 S :    0.202878
  49 C :   -0.126129
  50 C :   -0.001102
  51 C :   -0.017924
  52 C :    0.084057
  53 N :    0.198308
  54 O :   -0.194018
  55 O :   -0.229753
  56 C :    0.079376
  57 C :    0.077370
  58 C :    0.090845
  59 N :    0.185887
  60 O :   -0.210218
  61 O :   -0.217392
  62 C :    0.016613
  63 C :   -0.009930
  64 C :   -0.128173
  65 S :    0.171069
  66 C :   -0.124431
  67 C :    0.139065
  68 C :    0.181941
  69 N :    0.261139
  70 O :   -0.237934
  71 O :   -0.216483
  72 N :    0.252393
  73 O :   -0.226862
  74 O :   -0.213298
  75 C :    0.001864
  76 C :   -0.008726
  77 H :    0.053866
  78 H :    0.019696
  79 H :    0.030837
  80 H :    0.002632
  81 H :    0.011918
  82 H :   -0.000835
  83 H :    0.010668
  84 H :    0.051494
  85 H :    0.005804
  86 H :    0.044910
  87 H :    0.026779
  88 H :    0.025616
  89 H :    0.027424
  90 H :    0.009562
  91 H :    0.046383
  92 H :    0.044140
  93 H :    0.030644
  94 H :    0.026976
  95 H :    0.009215
  96 H :   -0.033257
  97 H :    0.012873
  98 H :    0.048827
  99 H :    0.036924
 100 H :    0.036543
 101 H :    0.031895
 102 H :    0.039488
 103 H :    0.058014
 104 H :    0.011352
 105 H :    0.030270
 106 H :    0.030016
 107 H :    0.032017
 108 H :    0.045928
Sum of atomic charges:   -0.0000000

LOEWDIN ATOMIC CHARGES
----------------------
   0 C :   -0.147149
   1 S :    0.518161
   2 C :   -0.143298
   3 C :   -0.056012
   4 C :   -0.062225
   5 N :    0.281957
   6 O :   -0.193617
   7 O :   -0.189873
   8 N :    0.285005
   9 O :   -0.182552
  10 O :   -0.169880
  11 C :   -0.036301
  12 C :   -0.013338
  13 C :   -0.005667
  14 C :   -0.033227
  15 N :    0.286158
  16 O :   -0.205541
  17 O :   -0.209118
  18 C :   -0.008379
  19 C :   -0.033461
  20 C :    0.024597
  21 C :    0.051887
  22 C :   -0.048866
  23 C :    0.044516
  24 C :   -0.053009
  25 N :    0.283655
  26 O :   -0.216031
  27 O :   -0.207396
  28 C :    0.010139
  29 C :    0.024673
  30 C :   -0.012932
  31 C :    0.056511
  32 N :    0.002855
  33 C :    0.038454
  34 C :   -0.062771
  35 C :    0.077500
  36 O :   -0.205128
  37 C :   -0.122754
  38 C :   -0.092159
  39 C :    0.084308
  40 O :   -0.164922
  41 N :    0.007018
  42 C :    0.035091
  43 C :   -0.060931
  44 C :    0.092813
  45 C :   -0.054662
  46 C :    0.012486
  47 C :   -0.164396
  48 S :    0.507850
  49 C :   -0.162242
  50 C :   -0.061198
  51 C :   -0.056851
  52 C :    0.014453
  53 N :    0.275389
  54 O :   -0.173334
  55 O :   -0.197773
  56 C :   -0.014519
  57 C :   -0.014669
  58 C :    0.016163
  59 N :    0.272531
  60 O :   -0.180071
  61 O :   -0.198017
  62 C :   -0.031861
  63 C :   -0.039589
  64 C :   -0.134462
  65 S :    0.492724
  66 C :   -0.134482
  67 C :   -0.053397
  68 C :   -0.053507
  69 N :    0.287689
  70 O :   -0.199494
  71 O :   -0.179682
  72 N :    0.282333
  73 O :   -0.188581
  74 O :   -0.179436
  75 C :   -0.042769
  76 C :   -0.011373
  77 H :    0.044784
  78 H :    0.029703
  79 H :    0.030373
  80 H :    0.036073
  81 H :    0.033921
  82 H :    0.032234
  83 H :    0.042255
  84 H :    0.045963
  85 H :    0.034375
  86 H :    0.038274
  87 H :    0.025159
  88 H :    0.031387
  89 H :    0.033125
  90 H :    0.020641
  91 H :    0.040472
  92 H :    0.027069
  93 H :    0.032159
  94 H :    0.032450
  95 H :    0.018521
  96 H :    0.021436
  97 H :    0.039328
  98 H :    0.041873
  99 H :    0.040917
 100 H :    0.036678
 101 H :    0.033869
 102 H :    0.042144
 103 H :    0.046118
 104 H :    0.029221
 105 H :    0.035209
 106 H :    0.043043
 107 H :    0.020412
 108 H :    0.036804

  Mayer bond orders larger than 0.100000
B(  0-C ,  1-S ) :   1.1817 B(  0-C ,  4-C ) :   1.5602 B(  0-C , 77-H ) :   0.9593
B(  1-S ,  2-C ) :   1.1737 B(  2-C ,  3-C ) :   1.4850 B(  2-C , 11-C ) :   1.1200
B(  3-C ,  4-C ) :   1.2485 B(  3-C ,  8-N ) :   0.8862 B(  4-C ,  5-N ) :   0.8942
B(  5-N ,  6-O ) :   1.5449 B(  5-N ,  7-O ) :   1.5556 B(  6-O ,  7-O ) :   0.2795
B(  8-N ,  9-O ) :   1.4952 B(  8-N , 10-O ) :   1.5706 B(  9-O , 10-O ) :   0.2764
B( 11-C , 12-C ) :   1.6872 B( 11-C , 78-H ) :   0.9284 B( 12-C , 13-C ) :   1.1403
B( 12-C , 79-H ) :   0.9381 B( 13-C , 14-C ) :   1.4911 B( 13-C , 20-C ) :   1.0496
B( 14-C , 15-N ) :   0.9442 B( 14-C , 18-C ) :   1.1529 B( 15-N , 16-O ) :   1.5431
B( 15-N , 17-O ) :   1.4821 B( 16-O , 17-O ) :   0.2593 B( 18-C , 19-C ) :   1.5541
B( 18-C , 80-H ) :   1.0078 B( 19-C , 20-C ) :   1.1373 B( 19-C , 81-H ) :   0.9949
B( 20-C , 21-C ) :   1.4600 B( 21-C , 22-C ) :   1.1788 B( 21-C , 28-C ) :   0.9948
B( 22-C , 23-C ) :   1.5132 B( 22-C , 82-H ) :   1.0049 B( 23-C , 24-C ) :   1.1602
B( 23-C , 83-H ) :   1.0125 B( 24-C , 25-N ) :   0.9436 B( 24-C , 28-C ) :   1.4620
B( 25-N , 26-O ) :   1.5235 B( 25-N , 27-O ) :   1.5028 B( 26-O , 27-O ) :   0.2604
B( 28-C , 29-C ) :   1.2390 B( 29-C , 30-C ) :   1.4732 B( 29-C , 84-H ) :   0.9257
B( 30-C , 31-C ) :   1.2162 B( 30-C , 85-H ) :   0.9520 B( 31-C , 32-N ) :   1.1514
B( 31-C , 38-C ) :   1.3051 B( 32-N , 33-C ) :   0.9393 B( 32-N , 35-C ) :   1.0743
B( 33-C , 34-C ) :   1.1204 B( 33-C , 86-H ) :   0.9285 B( 33-C , 87-H ) :   0.9494
B( 34-C , 88-H ) :   0.9600 B( 34-C , 89-H ) :   0.9656 B( 34-C , 90-H ) :   0.9669
B( 35-C , 36-O ) :   2.0162 B( 35-C , 37-C ) :   0.9870 B( 36-O , 97-H ) :   0.1214
B( 37-C , 38-C ) :   1.3017 B( 37-C , 44-C ) :   1.2750 B( 38-C , 39-C ) :   0.9659
B( 39-C , 40-O ) :   2.0856 B( 39-C , 41-N ) :   1.0377 B( 41-N , 42-C ) :   0.9345
B( 41-N , 44-C ) :   1.1925 B( 42-C , 43-C ) :   1.1163 B( 42-C , 91-H ) :   0.9275
B( 42-C , 92-H ) :   0.9430 B( 43-C , 93-H ) :   0.9636 B( 43-C , 94-H ) :   0.9689
B( 43-C , 95-H ) :   0.9689 B( 44-C , 45-C ) :   1.2042 B( 45-C , 46-C ) :   1.5940
B( 45-C , 96-H ) :   0.9366 B( 46-C , 47-C ) :   1.1522 B( 46-C , 97-H ) :   0.9163
B( 47-C , 48-S ) :   1.1567 B( 47-C , 51-C ) :   1.4532 B( 48-S , 49-C ) :   1.1566
B( 49-C , 50-C ) :   1.4928 B( 49-C , 62-C ) :   1.0939 B( 50-C , 51-C ) :   1.3721
B( 50-C , 58-C ) :   0.9665 B( 51-C , 52-C ) :   0.9731 B( 52-C , 53-N ) :   0.8381
B( 52-C , 56-C ) :   1.0685 B( 52-C , 98-H ) :   0.8926 B( 53-N , 54-O ) :   1.6095
B( 53-N , 55-O ) :   1.5035 B( 54-O , 55-O ) :   0.2707 B( 56-C , 57-C ) :   1.0989
B( 56-C , 99-H ) :   0.9250 B( 56-C ,100-H ) :   0.9213 B( 57-C , 58-C ) :   1.0685
B( 57-C ,101-H ) :   0.9248 B( 57-C ,102-H ) :   0.9256 B( 58-C , 59-N ) :   0.8355
B( 58-C ,103-H ) :   0.8964 B( 59-N , 60-O ) :   1.5544 B( 59-N , 61-O ) :   1.5758
B( 60-O , 61-O ) :   0.2690 B( 62-C , 63-C ) :   1.6616 B( 62-C ,104-H ) :   0.9528
B( 63-C , 64-C ) :   1.1788 B( 63-C ,105-H ) :   0.9566 B( 64-C , 65-S ) :   1.1317
B( 64-C , 68-C ) :   1.5075 B( 65-S , 66-C ) :   1.1138 B( 66-C , 67-C ) :   1.5521
B( 66-C , 75-C ) :   1.1298 B( 67-C , 68-C ) :   1.2223 B( 67-C , 72-N ) :   0.8867
B( 68-C , 69-N ) :   0.9120 B( 69-N , 70-O ) :   1.5004 B( 69-N , 71-O ) :   1.5638
B( 70-O , 71-O ) :   0.2696 B( 72-N , 73-O ) :   1.5139 B( 72-N , 74-O ) :   1.5648
B( 73-O , 74-O ) :   0.2779 B( 75-C , 76-C ) :   1.8995 B( 75-C ,106-H ) :   0.9556
B( 76-C ,107-H ) :   0.9578 B( 76-C ,108-H ) :   0.9498

-----------------------------------------------------------------------------
         ABSORPTION SPECTRUM VIA TRANSITION ELECTRIC DIPOLE MOMENTS
-----------------------------------------------------------------------------
State   Energy  Wavelength   fosc         T2         TX        TY        TZ
        (cm-1)    (nm)                  (au**2)     (au)      (au)      (au)
-----------------------------------------------------------------------------
   0    5939.3   1683.7   0.310642925  17.21868   0.61692   2.77784  -3.02022
   1   13197.3    757.7   0.019724218   0.49203  -0.40195   0.37225   0.43805
   2   15392.5    649.7   0.475798396  10.17630  -1.05008  -2.59037   1.53741
   3   16817.0    594.6   0.008433438   0.16509   0.18952  -0.35510   0.05552
   4   21169.2    472.4   0.018073761   0.28107  -0.08720   0.47919  -0.20939
   5   21475.3    465.7   0.564438104   8.65272   0.35302   2.80261  -0.82067
   6   22984.0    435.1   0.003915488   0.05608  -0.14189  -0.14512   0.12203
   7   24165.1    413.8   0.234759050   3.19823   0.00130  -0.92501  -1.53055
   8   24610.8    406.3   0.026250877   0.35115  -0.45114   0.38383  -0.01722
   9   25227.7    396.4   0.066127940   0.86294   0.87750  -0.29329   0.08322
  10   25591.5    390.8   0.092131865   1.18519   0.87019   0.29361  -0.58460
  11   25843.3    386.9   0.142043469   1.80946   0.38572   0.92099  -0.90136
  12   26502.3    377.3   0.033716705   0.41883  -0.17724  -0.53808  -0.31286
  13   26647.5    375.3   0.166149563   2.05266  -0.16326   1.41496   0.15455
  14   26804.4    373.1   0.135392483   1.66289   0.34903   1.11224  -0.55135
  15   27525.7    363.3   0.055635638   0.66541   0.19771  -0.09142   0.78611
  16   28125.4    355.6   0.092836430   1.08666  -0.22420   0.73930  -0.69988
  17   28815.7    347.0   0.016752878   0.19140   0.20153   0.37949  -0.08226
  18   29361.7    340.6   0.083057524   0.93126   0.73186   0.60786  -0.16173
  19   29549.2    338.4   0.041533477   0.46273  -0.00884  -0.67829   0.05074
  20   29689.9    336.8   0.056172761   0.62286  -0.57384  -0.40642  -0.35832
  21   29940.5    334.0   0.122970247   1.35213  -0.63064  -0.96710  -0.13837
  22   30110.7    332.1   0.067254622   0.73532   0.24663   0.20127   0.79623
  23   30439.8    328.5   0.008112404   0.08774  -0.20554   0.11614   0.17888
  24   30529.4    327.6   0.029009873   0.31283  -0.21001  -0.28902  -0.43034
  25   30765.0    325.0   0.233663686   2.50040   1.28693   0.80103   0.45008
  26   31123.1    321.3   0.043177100   0.45672  -0.27442  -0.60143  -0.14032
  27   31385.1    318.6   0.015882091   0.16659  -0.35932  -0.16916  -0.09419
  28   31453.8    317.9   0.040213089   0.42089  -0.52085  -0.38630  -0.01925
  29   31815.0    314.3   0.122174596   1.26422  -0.91925  -0.19115  -0.61860
  30   32632.1    306.4   0.161540784   1.62972   0.40276   1.10414   0.49838
  31   32926.6    303.7   0.071863616   0.71852   0.29158   0.18696   0.77366
  32   32999.3    303.0   0.020349463   0.20301  -0.07672  -0.35864  -0.26173
  33   33171.4    301.5   0.150935330   1.49797  -0.59530  -0.59151  -0.89090
  34   33558.2    298.0   0.042216810   0.41415  -0.24030   0.11017  -0.58675
  35   33591.8    297.7   0.138361683   1.35600  -0.72500  -0.88020  -0.23583
  36   34387.6    290.8   0.027209762   0.26049   0.18733  -0.17496   0.44135
  37   34489.2    289.9   0.012390883   0.11828  -0.25594  -0.19599   0.11984
  38   34901.5    286.5   0.040377065   0.38086  -0.35013  -0.19275  -0.47023
  39   35004.1    285.7   0.036370748   0.34206   0.50274  -0.16957   0.24611
  40   35203.8    284.1   0.003524337   0.03296  -0.00480   0.00672  -0.18136
  41   35390.2    282.6   0.039402960   0.36654  -0.51610  -0.13867   0.28452
  42   35549.0    281.3   0.030641801   0.28377  -0.33834  -0.15386   0.38160
  43   35765.1    279.6   0.100012042   0.92060   0.56381   0.47266   0.61587
  44   36110.3    276.9   0.003478238   0.03171   0.09733   0.04109  -0.14335
  45   36252.0    275.8   0.153215920   1.39139  -0.31516  -1.13428  -0.07389
  46   36371.6    274.9   0.073969652   0.66953  -0.42338  -0.69691   0.06773
  47   36896.9    271.0   0.008131530   0.07255   0.02964   0.08123  -0.25510
  48   37296.9    268.1   0.000853965   0.00754   0.04761   0.06916  -0.02209
  49   37613.9    265.9   0.128749987   1.12687   0.67510   0.19953   0.79454
  50   37743.7    264.9   0.002634971   0.02298   0.01183   0.11288  -0.10051
  51   38043.3    262.9   0.000805574   0.00697  -0.01766   0.07294  -0.03658
  52   38303.6    261.1   0.029907874   0.25705   0.29259   0.37827  -0.16838
  53   38632.6    258.8   0.030925647   0.26354  -0.18561  -0.18905  -0.43971
  54   38813.4    257.6   0.258252797   2.19048  -0.54670  -0.59967   1.23774
  55   39113.3    255.7   0.045797994   0.38548  -0.16618  -0.55941   0.21195
  56   39221.0    255.0   0.020387021   0.17112  -0.23463   0.15176   0.30503
  57   39492.2    253.2   0.013784075   0.11491  -0.28605  -0.17139  -0.06090
  58   39575.7    252.7   0.006115022   0.05087  -0.01109   0.11190  -0.19551
  59   39647.1    252.2   0.001434458   0.01191   0.06537   0.08256  -0.02866
  60   39849.4    250.9   0.009602879   0.07933  -0.07856   0.14775  -0.22656
  61   40086.9    249.5   0.092456374   0.75929  -0.35763  -0.20788  -0.76693
  62   40236.1    248.5   0.038950299   0.31869  -0.23123   0.20262   0.47347

FINAL SINGLE POINT ENERGY     -4862.612123571409

DIPOLE MOMENT
-------------
                                X             Y             Z
Electronic contribution:     21.89349      -1.92377     -27.50779
Nuclear contribution   :    -25.54935       1.93841      26.86957
                        -----------------------------------------
Total Dipole Moment    :     -3.65587       0.01464      -0.63822
                        -----------------------------------------
Magnitude (a.u.)       :      3.71118
Magnitude (Debye)      :      9.43308

Rotational constants in cm-1:     0.001550     0.000216     0.000203
Rotational constants in MHz :    46.470435     6.482469     6.075657

                             ****ORCA TERMINATED NORMALLY****
TOTAL RUN TIME: 0 days 0 hours 13 minutes 17 seconds 581 msec
