                         Program Version 4.2.0 -  RELEASE  -
|  1> # ORCA input file
|  2> # SCF done       -166.745236399671          0.000862508914
|  3> ! CAM-B3LYP def2-SVP def2/J RIJCOSX Grid4 TightSCF
|  4> %maxcore 5000
|  5> %tddft
|  6>     Mode sTDDFT
|  7>     Ethresh 5.0
|  8>     maxcore 5000
|  9> end
| 10>
| 11> %pal
| 12>   nprocs 6
| 13>   end
| 14> * xyz 0 1
| 15>    C        5.24258        -5.23704         5.77523
| 16>    C        3.76328        -5.57509         5.89809
| 17>    O        3.27985        -6.57956         6.32154
| 18>    O        3.02970        -4.53858         5.44772
| 19>    C        3.85468        -3.51479         4.90953
| 20>    C        5.22168        -3.72230         5.58820
| 21>    C        6.39456        -3.11096         4.83303
| 22>    C        6.41448        -3.51148         3.36436
| 23>    C        5.11967        -3.16087         2.64109
| 24>    C        3.84624        -3.63663         3.36510
| 25>    O        2.80747        -2.80082         2.85979
| 26>    C        3.28868        -1.65450         2.38772
| 27>    O        2.61819        -0.75904         1.97054
| 28>    C        4.82727        -1.67058         2.44502
| 29>    C        5.38681        -1.05919         1.21076
| 30>    S        4.71193         0.39679         0.58572
| 31>    C        5.77850         0.34959        -0.78773
| 32>    C        5.52653         1.28792        -1.85233
| 33>    O        6.06204         1.29737        -2.93724
| 34>    C        6.62764        -0.75229        -0.73250
| 35>    C        6.37974        -1.54330         0.41222
| 36>    C        7.57963        -1.23724        -1.70330
| 37>    N        8.51961        -0.54380        -2.41303
| 38>    C        8.92695         0.83093        -2.24134
| 39>    C        9.37601         1.12555        -0.81461
| 40>    C        9.23069        -1.39206        -3.28378
| 41>    O       10.13455        -0.99808        -4.00354
| 42>    C        8.66392        -2.70112        -3.07260
| 43>    C        7.67152        -2.57236        -2.05864
| 44>    C        7.07889        -3.87011        -1.84078
| 45>    O        6.25751        -4.27366        -1.03907
| 46>    N        7.72568        -4.70215        -2.77513
| 47>    C        7.37842        -6.09633        -2.90428
| 48>    C        6.38363        -6.32931        -4.03912
| 49>    C        8.66711        -4.02108        -3.50955
| 50>    C        9.46594        -4.60367        -4.53894
| 51>    C       10.50366        -3.90745        -5.04442
| 52>    C       11.36245        -4.23841        -6.15173
| 53>    C       12.49648        -3.44290        -6.34547
| 54>    C       13.26786        -3.57959        -7.48650
| 55>    C       12.89643        -4.58250        -8.38104
| 56>    N       11.85341        -5.37279        -8.19649
| 57>    C       11.10130        -5.20730        -7.12795
| 58>    C       14.45223        -2.68844        -7.73744
| 59>    C       15.26990        -2.56265        -6.44809
| 60>    O       15.86395        -3.44112        -5.89892
| 61>    O       15.22999        -1.30800        -5.98804
| 62>    C       14.41990        -0.44782        -6.78129
| 63>    C       14.17262        -1.21484        -8.10080
| 64>    C       12.85344        -0.88435        -8.79943
| 65>    C       11.65068        -0.75451        -7.87161
| 66>    C       11.87770         0.21043        -6.71476
| 67>    C       13.19428        -0.00374        -5.94464
| 68>    O       13.49065         1.26333        -5.36766
| 69>    C       12.86090         2.26292        -6.00769
| 70>    O       13.01986         3.41349        -5.72927
| 71>    C       11.96669         1.68714        -7.09251
| 72>    H        5.64385        -5.75948         4.90556
| 73>    H        5.78622        -5.56888         6.65678
| 74>    H        3.39508        -2.55825         5.17836
| 75>    H        5.16821        -3.25955         6.58005
| 76>    H        7.32350        -3.42737         5.30948
| 77>    H        6.33982        -2.02390         4.91985
| 78>    H        6.57912        -4.58630         3.27487
| 79>    H        7.24711        -3.01325         2.86729
| 80>    H        5.13416        -3.62794         1.64966
| 81>    H        3.57997        -4.66534         3.10515
| 82>    H        5.11503        -1.07987         3.32388
| 83>    H        4.74021         2.02202        -1.59511
| 84>    H        6.92557        -2.44639         0.60877
| 85>    H        8.11365         1.49459        -2.54080
| 86>    H        9.76289         0.97413        -2.93228
| 87>    H        8.55387         1.01137        -0.11172
| 88>    H        9.74114         2.14693        -0.75629
| 89>    H       10.18086         0.45318        -0.52409
| 90>    H        6.92069        -6.38632        -1.95410
| 91>    H        8.28757        -6.68512        -3.05324
| 92>    H        5.47000        -5.77106        -3.85039
| 93>    H        6.13873        -7.38583        -4.10354
| 94>    H        6.79471        -6.00519        -4.99261
| 95>    H        9.22169        -5.59521        -4.88903
| 96>    H       10.71581        -2.94160        -4.60579
| 97>    H       12.75114        -2.71393        -5.59184
| 98>    H       13.46121        -4.76112        -9.28677
| 99>    H       10.24193        -5.85979        -7.05743
|100>    H       15.07423        -3.16135        -8.50183
|101>    H       15.01331         0.45575        -6.96575
|102>    H       14.97688        -0.92030        -8.78486
|103>    H       12.64977        -1.65652        -9.54376
|104>    H       12.98821         0.05569        -9.33905
|105>    H       11.38328        -1.72878        -7.46661
|106>    H       10.79671        -0.40085        -8.45236
|107>    H       11.06205         0.08124        -5.99574
|108>    H       13.07278        -0.69616        -5.10754
|109>    H       12.45431         1.84320        -8.05672
|110>    H       11.00614         2.19695        -7.10795
|111> *
|112>
|113>                          ****END OF INPUT****

CARTESIAN COORDINATES (ANGSTROEM)
---------------------------------
  C      5.242580   -5.237040    5.775230
  C      3.763280   -5.575090    5.898090
  O      3.279850   -6.579560    6.321540
  O      3.029700   -4.538580    5.447720
  C      3.854680   -3.514790    4.909530
  C      5.221680   -3.722300    5.588200
  C      6.394560   -3.110960    4.833030
  C      6.414480   -3.511480    3.364360
  C      5.119670   -3.160870    2.641090
  C      3.846240   -3.636630    3.365100
  O      2.807470   -2.800820    2.859790
  C      3.288680   -1.654500    2.387720
  O      2.618190   -0.759040    1.970540
  C      4.827270   -1.670580    2.445020
  C      5.386810   -1.059190    1.210760
  S      4.711930    0.396790    0.585720
  C      5.778500    0.349590   -0.787730
  C      5.526530    1.287920   -1.852330
  O      6.062040    1.297370   -2.937240
  C      6.627640   -0.752290   -0.732500
  C      6.379740   -1.543300    0.412220
  C      7.579630   -1.237240   -1.703300
  N      8.519610   -0.543800   -2.413030
  C      8.926950    0.830930   -2.241340
  C      9.376010    1.125550   -0.814610
  C      9.230690   -1.392060   -3.283780
  O     10.134550   -0.998080   -4.003540
  C      8.663920   -2.701120   -3.072600
  C      7.671520   -2.572360   -2.058640
  C      7.078890   -3.870110   -1.840780
  O      6.257510   -4.273660   -1.039070
  N      7.725680   -4.702150   -2.775130
  C      7.378420   -6.096330   -2.904280
  C      6.383630   -6.329310   -4.039120
  C      8.667110   -4.021080   -3.509550
  C      9.465940   -4.603670   -4.538940
  C     10.503660   -3.907450   -5.044420
  C     11.362450   -4.238410   -6.151730
  C     12.496480   -3.442900   -6.345470
  C     13.267860   -3.579590   -7.486500
  C     12.896430   -4.582500   -8.381040
  N     11.853410   -5.372790   -8.196490
  C     11.101300   -5.207300   -7.127950
  C     14.452230   -2.688440   -7.737440
  C     15.269900   -2.562650   -6.448090
  O     15.863950   -3.441120   -5.898920
  O     15.229990   -1.308000   -5.988040
  C     14.419900   -0.447820   -6.781290
  C     14.172620   -1.214840   -8.100800
  C     12.853440   -0.884350   -8.799430
  C     11.650680   -0.754510   -7.871610
  C     11.877700    0.210430   -6.714760
  C     13.194280   -0.003740   -5.944640
  O     13.490650    1.263330   -5.367660
  C     12.860900    2.262920   -6.007690
  O     13.019860    3.413490   -5.729270
  C     11.966690    1.687140   -7.092510
  H      5.643850   -5.759480    4.905560
  H      5.786220   -5.568880    6.656780
  H      3.395080   -2.558250    5.178360
  H      5.168210   -3.259550    6.580050
  H      7.323500   -3.427370    5.309480
  H      6.339820   -2.023900    4.919850
  H      6.579120   -4.586300    3.274870
  H      7.247110   -3.013250    2.867290
  H      5.134160   -3.627940    1.649660
  H      3.579970   -4.665340    3.105150
  H      5.115030   -1.079870    3.323880
  H      4.740210    2.022020   -1.595110
  H      6.925570   -2.446390    0.608770
  H      8.113650    1.494590   -2.540800
  H      9.762890    0.974130   -2.932280
  H      8.553870    1.011370   -0.111720
  H      9.741140    2.146930   -0.756290
  H     10.180860    0.453180   -0.524090
  H      6.920690   -6.386320   -1.954100
  H      8.287570   -6.685120   -3.053240
  H      5.470000   -5.771060   -3.850390
  H      6.138730   -7.385830   -4.103540
  H      6.794710   -6.005190   -4.992610
  H      9.221690   -5.595210   -4.889030
  H     10.715810   -2.941600   -4.605790
  H     12.751140   -2.713930   -5.591840
  H     13.461210   -4.761120   -9.286770
  H     10.241930   -5.859790   -7.057430
  H     15.074230   -3.161350   -8.501830
  H     15.013310    0.455750   -6.965750
  H     14.976880   -0.920300   -8.784860
  H     12.649770   -1.656520   -9.543760
  H     12.988210    0.055690   -9.339050
  H     11.383280   -1.728780   -7.466610
  H     10.796710   -0.400850   -8.452360
  H     11.062050    0.081240   -5.995740
  H     13.072780   -0.696160   -5.107540
  H     12.454310    1.843200   -8.056720
  H     11.006140    2.196950   -7.107950

 Total Charge           Charge          ....    0
 Multiplicity           Mult            ....    1
 Number of Electrons    NEL             ....  416
 Basis Dimension        Dim             ....  997

ORBITAL ENERGIES
----------------

  NO   OCC          E(Eh)            E(eV)
   0   2.0000     -88.975494     -2421.1463
   1   2.0000     -19.278698      -524.6000
   2   2.0000     -19.265304      -524.2356
   3   2.0000     -19.263949      -524.1987
   4   2.0000     -19.251265      -523.8536
   5   2.0000     -19.219493      -522.9890
   6   2.0000     -19.218031      -522.9492
   7   2.0000     -19.202724      -522.5327
   8   2.0000     -19.199186      -522.4364
   9   2.0000     -19.198857      -522.4275
  10   2.0000     -19.198708      -522.4234
  11   2.0000     -19.188373      -522.1422
  12   2.0000     -14.461570      -393.5193
  13   2.0000     -14.458770      -393.4431
  14   2.0000     -14.413497      -392.2112
  15   2.0000     -10.415449      -283.4188
  16   2.0000     -10.401517      -283.0397
  17   2.0000     -10.398337      -282.9531
  18   2.0000     -10.387153      -282.6488
  19   2.0000     -10.382753      -282.5291
  20   2.0000     -10.379902      -282.4515
  21   2.0000     -10.367541      -282.1151
  22   2.0000     -10.354833      -281.7693
  23   2.0000     -10.351490      -281.6784
  24   2.0000     -10.349126      -281.6140
  25   2.0000     -10.345635      -281.5190
  26   2.0000     -10.341452      -281.4052
  27   2.0000     -10.334385      -281.2129
  28   2.0000     -10.326889      -281.0089
  29   2.0000     -10.320034      -280.8224
  30   2.0000     -10.317971      -280.7663
  31   2.0000     -10.316612      -280.7293
  32   2.0000     -10.316200      -280.7181
  33   2.0000     -10.312267      -280.6111
  34   2.0000     -10.310889      -280.5736
  35   2.0000     -10.306890      -280.4647
  36   2.0000     -10.304350      -280.3956
  37   2.0000     -10.301789      -280.3259
  38   2.0000     -10.301245      -280.3111
  39   2.0000     -10.300666      -280.2954
  40   2.0000     -10.299583      -280.2659
  41   2.0000     -10.299025      -280.2507
  42   2.0000     -10.298911      -280.2476
  43   2.0000     -10.298147      -280.2268
  44   2.0000     -10.295419      -280.1526
  45   2.0000     -10.295027      -280.1419
  46   2.0000     -10.294280      -280.1216
  47   2.0000     -10.294123      -280.1173
  48   2.0000     -10.290923      -280.0302
  49   2.0000     -10.282173      -279.7922
  50   2.0000     -10.280939      -279.7586
  51   2.0000     -10.278611      -279.6952
  52   2.0000     -10.272401      -279.5262
  53   2.0000     -10.270932      -279.4863
  54   2.0000     -10.265290      -279.3327
  55   2.0000     -10.264542      -279.3124
  56   2.0000     -10.260729      -279.2086
  57   2.0000      -8.070477      -219.6088
  58   2.0000      -6.039605      -164.3460
  59   2.0000      -6.035211      -164.2264
  60   2.0000      -6.033119      -164.1695
  61   2.0000      -1.218217       -33.1494
  62   2.0000      -1.200740       -32.6738
  63   2.0000      -1.200554       -32.6687
  64   2.0000      -1.186317       -32.2813
  65   2.0000      -1.139865       -31.0173
  66   2.0000      -1.133233       -30.8368
  67   2.0000      -1.130834       -30.7715
  68   2.0000      -1.129293       -30.7296
  69   2.0000      -1.111530       -30.2463
  70   2.0000      -1.108341       -30.1595
  71   2.0000      -1.096188       -29.8288
  72   2.0000      -1.070109       -29.1191
  73   2.0000      -1.061200       -28.8767
  74   2.0000      -1.049286       -28.5525
  75   2.0000      -1.005832       -27.3701
  76   2.0000      -0.961923       -26.1752
  77   2.0000      -0.951331       -25.8870
  78   2.0000      -0.937388       -25.5076
  79   2.0000      -0.929254       -25.2863
  80   2.0000      -0.922608       -25.1054
  81   2.0000      -0.917258       -24.9599
  82   2.0000      -0.891650       -24.2630
  83   2.0000      -0.883633       -24.0449
  84   2.0000      -0.876917       -23.8621
  85   2.0000      -0.869488       -23.6600
  86   2.0000      -0.867369       -23.6023
  87   2.0000      -0.859645       -23.3921
  88   2.0000      -0.849492       -23.1158
  89   2.0000      -0.839480       -22.8434
  90   2.0000      -0.834395       -22.7050
  91   2.0000      -0.823047       -22.3962
  92   2.0000      -0.814817       -22.1723
  93   2.0000      -0.799811       -21.7640
  94   2.0000      -0.795781       -21.6543
  95   2.0000      -0.780083       -21.2271
  96   2.0000      -0.764184       -20.7945
  97   2.0000      -0.753242       -20.4968
  98   2.0000      -0.743715       -20.2375
  99   2.0000      -0.737819       -20.0771
 100   2.0000      -0.735302       -20.0086
 101   2.0000      -0.730711       -19.8836
 102   2.0000      -0.724289       -19.7089
 103   2.0000      -0.712400       -19.3854
 104   2.0000      -0.706816       -19.2334
 105   2.0000      -0.696419       -18.9505
 106   2.0000      -0.679261       -18.4836
 107   2.0000      -0.673377       -18.3235
 108   2.0000      -0.668893       -18.2015
 109   2.0000      -0.665379       -18.1059
 110   2.0000      -0.658599       -17.9214
 111   2.0000      -0.654049       -17.7976
 112   2.0000      -0.649518       -17.6743
 113   2.0000      -0.646258       -17.5856
 114   2.0000      -0.635018       -17.2797
 115   2.0000      -0.629366       -17.1259
 116   2.0000      -0.620974       -16.8975
 117   2.0000      -0.620426       -16.8827
 118   2.0000      -0.616194       -16.7675
 119   2.0000      -0.611542       -16.6409
 120   2.0000      -0.603869       -16.4321
 121   2.0000      -0.602530       -16.3957
 122   2.0000      -0.597446       -16.2573
 123   2.0000      -0.594662       -16.1816
 124   2.0000      -0.584365       -15.9014
 125   2.0000      -0.584095       -15.8940
 126   2.0000      -0.576321       -15.6825
 127   2.0000      -0.572865       -15.5884
 128   2.0000      -0.570215       -15.5163
 129   2.0000      -0.567966       -15.4551
 130   2.0000      -0.563085       -15.3223
 131   2.0000      -0.558873       -15.2077
 132   2.0000      -0.553947       -15.0737
 133   2.0000      -0.548774       -14.9329
 134   2.0000      -0.546538       -14.8721
 135   2.0000      -0.543971       -14.8022
 136   2.0000      -0.540387       -14.7047
 137   2.0000      -0.539268       -14.6742
 138   2.0000      -0.537291       -14.6204
 139   2.0000      -0.534916       -14.5558
 140   2.0000      -0.533715       -14.5231
 141   2.0000      -0.531908       -14.4740
 142   2.0000      -0.531240       -14.4558
 143   2.0000      -0.526983       -14.3399
 144   2.0000      -0.523344       -14.2409
 145   2.0000      -0.522164       -14.2088
 146   2.0000      -0.521087       -14.1795
 147   2.0000      -0.516198       -14.0465
 148   2.0000      -0.513810       -13.9815
 149   2.0000      -0.512597       -13.9485
 150   2.0000      -0.508039       -13.8244
 151   2.0000      -0.503290       -13.6952
 152   2.0000      -0.501128       -13.6364
 153   2.0000      -0.498338       -13.5605
 154   2.0000      -0.494665       -13.4605
 155   2.0000      -0.494394       -13.4531
 156   2.0000      -0.490783       -13.3549
 157   2.0000      -0.484707       -13.1895
 158   2.0000      -0.480749       -13.0818
 159   2.0000      -0.478747       -13.0274
 160   2.0000      -0.476466       -12.9653
 161   2.0000      -0.473946       -12.8967
 162   2.0000      -0.472149       -12.8478
 163   2.0000      -0.471878       -12.8405
 164   2.0000      -0.470690       -12.8081
 165   2.0000      -0.466231       -12.6868
 166   2.0000      -0.462651       -12.5894
 167   2.0000      -0.461412       -12.5557
 168   2.0000      -0.458200       -12.4682
 169   2.0000      -0.457701       -12.4547
 170   2.0000      -0.457341       -12.4449
 171   2.0000      -0.455507       -12.3950
 172   2.0000      -0.451094       -12.2749
 173   2.0000      -0.449474       -12.2308
 174   2.0000      -0.448251       -12.1975
 175   2.0000      -0.447172       -12.1682
 176   2.0000      -0.441132       -12.0038
 177   2.0000      -0.438600       -11.9349
 178   2.0000      -0.436409       -11.8753
 179   2.0000      -0.436212       -11.8699
 180   2.0000      -0.433070       -11.7844
 181   2.0000      -0.430556       -11.7160
 182   2.0000      -0.424847       -11.5607
 183   2.0000      -0.420351       -11.4383
 184   2.0000      -0.412635       -11.2284
 185   2.0000      -0.411423       -11.1954
 186   2.0000      -0.409172       -11.1341
 187   2.0000      -0.399626       -10.8744
 188   2.0000      -0.399309       -10.8657
 189   2.0000      -0.396392       -10.7864
 190   2.0000      -0.391048       -10.6410
 191   2.0000      -0.381129       -10.3710
 192   2.0000      -0.369349       -10.0505
 193   2.0000      -0.363598        -9.8940
 194   2.0000      -0.362203        -9.8561
 195   2.0000      -0.356725        -9.7070
 196   2.0000      -0.353195        -9.6109
 197   2.0000      -0.347342        -9.4517
 198   2.0000      -0.343949        -9.3593
 199   2.0000      -0.340441        -9.2639
 200   2.0000      -0.337781        -9.1915
 201   2.0000      -0.333993        -9.0884
 202   2.0000      -0.332076        -9.0363
 203   2.0000      -0.330450        -8.9920
 204   2.0000      -0.322234        -8.7684
 205   2.0000      -0.320806        -8.7296
 206   2.0000      -0.316042        -8.5999
 207   2.0000      -0.250997        -6.8300
 208   0.0000      -0.084319        -2.2944
 209   0.0000      -0.044194        -1.2026
 210   0.0000      -0.007253        -0.1974
 211   0.0000      -0.003869        -0.1053
 212   0.0000       0.028781         0.7832

MULLIKEN ATOMIC CHARGES
-----------------------
   0 C :    0.021828
   1 C :    0.139448
   2 O :   -0.153348
   3 O :   -0.262367
   4 C :    0.150593
   5 C :   -0.128131
   6 C :    0.089244
   7 C :    0.095260
   8 C :   -0.099602
   9 C :    0.165317
  10 O :   -0.242026
  11 C :    0.193406
  12 O :   -0.158055
  13 C :   -0.020547
  14 C :   -0.154061
  15 S :    0.209215
  16 C :   -0.193616
  17 C :    0.187231
  18 O :   -0.195782
  19 C :    0.034363
  20 C :    0.027920
  21 C :    0.102612
  22 N :   -0.225842
  23 C :    0.099659
  24 C :   -0.015052
  25 C :    0.180768
  26 O :   -0.227485
  27 C :   -0.088468
  28 C :   -0.052856
  29 C :    0.144529
  30 O :   -0.211318
  31 N :   -0.263528
  32 C :    0.103283
  33 C :    0.004288
  34 C :    0.135843
  35 C :   -0.004105
  36 C :    0.006870
  37 C :    0.079576
  38 C :   -0.019601
  39 C :    0.000467
  40 C :   -0.005793
  41 N :   -0.051243
  42 C :   -0.007564
  43 C :   -0.004910
  44 C :    0.164975
  45 O :   -0.152000
  46 O :   -0.255842
  47 C :    0.173804
  48 C :   -0.073290
  49 C :    0.101708
  50 C :    0.086364
  51 C :   -0.139041
  52 C :    0.140374
  53 O :   -0.269151
  54 C :    0.134494
  55 O :   -0.165967
  56 C :    0.031778
  57 H :    0.044518
  58 H :    0.046700
  59 H :    0.019749
  60 H :    0.022646
  61 H :    0.014620
  62 H :    0.006600
  63 H :    0.015692
  64 H :    0.012481
  65 H :    0.045485
  66 H :    0.028699
  67 H :    0.054415
  68 H :   -0.008996
  69 H :    0.000824
  70 H :    0.046285
  71 H :    0.040365
  72 H :    0.024275
  73 H :    0.028078
  74 H :    0.018513
  75 H :    0.037954
  76 H :    0.024007
  77 H :    0.032114
  78 H :    0.026206
  79 H :    0.014590
  80 H :   -0.020560
  81 H :    0.015161
  82 H :   -0.003501
  83 H :   -0.002980
  84 H :   -0.002490
  85 H :    0.021505
  86 H :    0.020008
  87 H :    0.015646
  88 H :    0.005847
  89 H :    0.006165
  90 H :    0.022214
  91 H :    0.006448
  92 H :    0.040741
  93 H :    0.037852
  94 H :    0.033753
  95 H :    0.043743
Sum of atomic charges:   -0.0000000

LOEWDIN ATOMIC CHARGES
----------------------
   0 C :   -0.057984
   1 C :    0.075908
   2 O :   -0.143308
   3 O :   -0.076029
   4 C :    0.065685
   5 C :   -0.040120
   6 C :   -0.027645
   7 C :   -0.025418
   8 C :   -0.030271
   9 C :    0.074511
  10 O :   -0.052411
  11 C :    0.077756
  12 O :   -0.147468
  13 C :   -0.071801
  14 C :   -0.154656
  15 S :    0.510261
  16 C :   -0.237505
  17 C :    0.086131
  18 O :   -0.141949
  19 C :   -0.036033
  20 C :   -0.038323
  21 C :    0.078655
  22 N :    0.020066
  23 C :    0.032497
  24 C :   -0.063686
  25 C :    0.088618
  26 O :   -0.213591
  27 C :   -0.132425
  28 C :   -0.123759
  29 C :    0.084133
  30 O :   -0.210844
  31 N :   -0.001577
  32 C :    0.036421
  33 C :   -0.060345
  34 C :    0.088306
  35 C :   -0.048989
  36 C :    0.039662
  37 C :   -0.051956
  38 C :    0.020902
  39 C :   -0.033989
  40 C :    0.024104
  41 N :   -0.061400
  42 C :    0.033755
  43 C :   -0.049587
  44 C :    0.074306
  45 O :   -0.147765
  46 O :   -0.064385
  47 C :    0.068633
  48 C :   -0.032230
  49 C :   -0.028596
  50 C :   -0.029597
  51 C :   -0.040491
  52 C :    0.066573
  53 O :   -0.075019
  54 C :    0.074369
  55 O :   -0.154779
  56 C :   -0.058054
  57 H :    0.041667
  58 H :    0.046922
  59 H :    0.029188
  60 H :    0.035960
  61 H :    0.033800
  62 H :    0.023580
  63 H :    0.028347
  64 H :    0.031912
  65 H :    0.045723
  66 H :    0.034690
  67 H :    0.048852
  68 H :   -0.002360
  69 H :    0.033614
  70 H :    0.024566
  71 H :    0.033814
  72 H :    0.021392
  73 H :    0.033914
  74 H :    0.026111
  75 H :    0.035982
  76 H :    0.024405
  77 H :    0.033398
  78 H :    0.031607
  79 H :    0.021529
  80 H :    0.028484
  81 H :    0.037301
  82 H :    0.030726
  83 H :    0.021980
  84 H :    0.020570
  85 H :    0.048493
  86 H :    0.031380
  87 H :    0.037513
  88 H :    0.031802
  89 H :    0.024419
  90 H :    0.027672
  91 H :    0.031883
  92 H :    0.039076
  93 H :    0.028356
  94 H :    0.038019
  95 H :    0.046445

  Mayer bond orders larger than 0.100000
B(  0-C ,  1-C ) :   0.9619 B(  0-C ,  5-C ) :   1.0247 B(  0-C , 57-H ) :   0.9273
B(  0-C , 58-H ) :   0.9309 B(  1-C ,  2-O ) :   2.2403 B(  1-C ,  3-O ) :   1.1142
B(  3-O ,  4-C ) :   0.9689 B(  4-C ,  5-C ) :   1.0175 B(  4-C ,  9-C ) :   0.9591
B(  4-C , 59-H ) :   0.9215 B(  5-C ,  6-C ) :   1.0596 B(  5-C , 60-H ) :   0.9159
B(  6-C ,  7-C ) :   1.0711 B(  6-C , 61-H ) :   0.9260 B(  6-C , 62-H ) :   0.9370
B(  7-C ,  8-C ) :   1.0531 B(  7-C , 63-H ) :   0.9373 B(  7-C , 64-H ) :   0.9249
B(  8-C ,  9-C ) :   1.0211 B(  8-C , 13-C ) :   1.0155 B(  8-C , 65-H ) :   0.9041
B(  9-C , 10-O ) :   0.9447 B(  9-C , 66-H ) :   0.9224 B( 10-O , 11-C ) :   1.1734
B( 11-C , 12-O ) :   2.1837 B( 11-C , 13-C ) :   0.8989 B( 13-C , 14-C ) :   0.9846
B( 13-C , 67-H ) :   0.8554 B( 14-C , 15-S ) :   1.2025 B( 14-C , 20-C ) :   1.5536
B( 15-S , 16-C ) :   1.1004 B( 16-C , 17-C ) :   1.0204 B( 16-C , 19-C ) :   1.4505
B( 17-C , 18-O ) :   2.0919 B( 17-C , 68-H ) :   0.9516 B( 19-C , 20-C ) :   1.2799
B( 19-C , 21-C ) :   1.0003 B( 20-C , 69-H ) :   0.9907 B( 21-C , 22-N ) :   1.2194
B( 21-C , 28-C ) :   1.4378 B( 22-N , 23-C ) :   0.9351 B( 22-N , 25-C ) :   1.0653
B( 23-C , 24-C ) :   1.1134 B( 23-C , 70-H ) :   0.9345 B( 23-C , 71-H ) :   0.9302
B( 24-C , 72-H ) :   0.9687 B( 24-C , 73-H ) :   0.9668 B( 24-C , 74-H ) :   0.9650
B( 25-C , 26-O ) :   1.9457 B( 25-C , 27-C ) :   1.0144 B( 26-O , 81-H ) :   0.1052
B( 27-C , 28-C ) :   1.2051 B( 27-C , 34-C ) :   1.3619 B( 28-C , 29-C ) :   0.9732
B( 29-C , 30-O ) :   2.0871 B( 29-C , 31-N ) :   1.0438 B( 31-N , 32-C ) :   0.9445
B( 31-N , 34-C ) :   1.1618 B( 32-C , 33-C ) :   1.1224 B( 32-C , 75-H ) :   0.9284
B( 32-C , 76-H ) :   0.9501 B( 33-C , 77-H ) :   0.9635 B( 33-C , 78-H ) :   0.9681
B( 33-C , 79-H ) :   0.9688 B( 34-C , 35-C ) :   1.1303 B( 35-C , 36-C ) :   1.6404
B( 35-C , 80-H ) :   0.9699 B( 36-C , 37-C ) :   1.0525 B( 36-C , 81-H ) :   0.9575
B( 37-C , 38-C ) :   1.3585 B( 37-C , 42-C ) :   1.3176 B( 38-C , 39-C ) :   1.3853
B( 38-C , 82-H ) :   0.9815 B( 39-C , 40-C ) :   1.3737 B( 39-C , 43-C ) :   0.9927
B( 40-C , 41-N ) :   1.5475 B( 40-C , 83-H ) :   0.9869 B( 41-N , 42-C ) :   1.5894
B( 42-C , 84-H ) :   0.9851 B( 43-C , 44-C ) :   0.8977 B( 43-C , 48-C ) :   1.0035
B( 43-C , 85-H ) :   0.8805 B( 44-C , 45-O ) :   2.2532 B( 44-C , 46-O ) :   1.1337
B( 46-O , 47-C ) :   0.9633 B( 47-C , 48-C ) :   1.0146 B( 47-C , 52-C ) :   0.9636
B( 47-C , 86-H ) :   0.9142 B( 48-C , 49-C ) :   1.0726 B( 48-C , 87-H ) :   0.9034
B( 49-C , 50-C ) :   1.0625 B( 49-C , 88-H ) :   0.9212 B( 49-C , 89-H ) :   0.9359
B( 50-C , 51-C ) :   1.0665 B( 50-C , 90-H ) :   0.9379 B( 50-C , 91-H ) :   0.9222
B( 51-C , 52-C ) :   1.0310 B( 51-C , 56-C ) :   1.0253 B( 51-C , 92-H ) :   0.9006
B( 52-C , 53-O ) :   0.9474 B( 52-C , 93-H ) :   0.9183 B( 53-O , 54-C ) :   1.1244
B( 54-C , 55-O ) :   2.2295 B( 54-C , 56-C ) :   0.9648 B( 56-C , 94-H ) :   0.9264
B( 56-C , 95-H ) :   0.9285

-----------------------------------------------------------------------------
         ABSORPTION SPECTRUM VIA TRANSITION ELECTRIC DIPOLE MOMENTS
-----------------------------------------------------------------------------
State   Energy  Wavelength   fosc         T2         TX        TY        TZ
        (cm-1)    (nm)                  (au**2)     (au)      (au)      (au)
-----------------------------------------------------------------------------
   0   19049.8    524.9   0.457083007   7.89917  -1.11912   2.16784   1.39542
   1   26276.6    380.6   0.007152977   0.08962  -0.00255  -0.01343  -0.29905
   2   27855.0    359.0   0.017523948   0.20711  -0.19019   0.15234   0.38436
   3   30475.3    328.1   0.003340071   0.03608   0.08712  -0.01491  -0.16814
   4   31091.6    321.6   0.002386389   0.02527   0.03941   0.08592  -0.12780
   5   32957.1    303.4   0.262296561   2.62011   1.01821  -0.65573  -1.07396
   6   33286.4    300.4   0.042559332   0.42092   0.06783   0.40241  -0.50437
   7   34465.1    290.1   0.063822658   0.60964   0.19045   0.42034  -0.62982
   8   35202.1    284.1   0.048233181   0.45108  -0.18966  -0.25946   0.58974
   9   35964.3    278.1   0.334400279   3.06105  -1.39742  -0.29007   1.01199
  10   36909.3    270.9   0.188233050   1.67894   0.95161   0.08487  -0.87532
  11   37462.5    266.9   0.270953662   2.38108  -1.13354   0.21309   1.02507
  12   38825.2    257.6   0.061950838   0.52530  -0.60227  -0.32784   0.23474
  13   40138.8    249.1   0.068454148   0.56145   0.58599   0.34150  -0.31850

FINAL SINGLE POINT ENERGY     -3010.651568629487

DIPOLE MOMENT
-------------
                                X             Y             Z
Electronic contribution:    -12.65359       7.75399       9.14942
Nuclear contribution   :     13.03961      -8.39350      -9.34183
                        -----------------------------------------
Total Dipole Moment    :      0.38602      -0.63950      -0.19242
                        -----------------------------------------
Magnitude (a.u.)       :      0.77136
Magnitude (Debye)      :      1.96064

Rotational constants in cm-1:     0.002854     0.000611     0.000557
Rotational constants in MHz :    85.558108    18.328792    16.691004

                             ****ORCA TERMINATED NORMALLY****
TOTAL RUN TIME: 0 days 0 hours 7 minutes 32 seconds 858 msec
