                         Program Version 4.2.0 -  RELEASE  -
|  1> # ORCA input file
|  2> # SCF done       -201.811804295476          0.000730203616
|  3> ! CAM-B3LYP def2-SVP def2/J RIJCOSX Grid4 TightSCF
|  4> %maxcore 5000
|  5> %tddft
|  6>     Mode sTDDFT
|  7>     Ethresh 5.0
|  8>     maxcore 5000
|  9> end
| 10>
| 11> %pal
| 12>   nprocs 6
| 13>   end
| 14> * xyz 0 1
| 15>    C       -0.21678         4.92197        -1.91015
| 16>    C       -0.43227         5.74793        -0.64932
| 17>    O       -0.88691         6.84743        -0.57024
| 18>    O       -0.02757         5.04053         0.42281
| 19>    C        0.56927         3.81041         0.03556
| 20>    C       -0.02409         3.51304        -1.35479
| 21>    C        0.80067         2.55195        -2.20209
| 22>    C        2.26812         2.95135        -2.27714
| 23>    C        2.90268         3.10152        -0.90120
| 24>    C        2.10799         3.97595         0.08290
| 25>    O        2.57047         3.57452         1.36715
| 26>    C        3.06806         2.33115         1.34741
| 27>    O        3.44282         1.75319         2.31978
| 28>    C        3.07716         1.80381        -0.09966
| 29>    C        4.32114         1.05638        -0.40197
| 30>    C        4.43459        -0.21558        -0.86613
| 31>    C        5.82990        -0.53791        -1.00761
| 32>    C        6.56802         0.65932        -0.56660
| 33>    C        5.65429         1.59952        -0.20560
| 34>    C        7.95470         0.80754        -0.44154
| 35>    N        9.08129         0.97098        -0.28982
| 36>    C        6.37904        -1.71905        -1.43363
| 37>    C        7.76322        -2.00971        -1.61433
| 38>    C        7.90952        -3.34397        -1.93397
| 39>    C        6.58114        -3.93696        -1.99439
| 40>    C        5.66120        -2.97217        -1.73114
| 41>    C        4.27453        -3.16005        -1.74646
| 42>    N        3.14096        -3.34272        -1.78066
| 43>    C        9.17024        -3.95616        -2.16183
| 44>    N        9.47045        -5.28924        -2.08051
| 45>    C        8.59058        -6.37022        -1.72575
| 46>    C       10.84554        -5.53308        -2.29605
| 47>    O       11.34159        -6.63629        -2.23462
| 48>    C       11.40152        -4.22462        -2.56896
| 49>    C       10.35713        -3.28270        -2.47422
| 50>    C       10.89136        -1.97691        -2.81574
| 51>    O       10.38213        -0.88413        -2.91575
| 52>    N       12.25516        -2.22599        -3.06641
| 53>    C       13.15805        -1.16359        -3.41710
| 54>    C       12.57961        -3.55095        -2.92195
| 55>    C       13.88580        -4.04976        -3.10556
| 56>    C       14.20403        -5.35986        -2.90506
| 57>    C       15.50478        -5.90917        -3.04925
| 58>    C       15.71335        -7.28086        -2.74476
| 59>    C       17.00650        -7.90481        -2.85458
| 60>    N       17.16997        -9.17861        -2.44252
| 61>    C       16.12813        -9.86619        -2.06182
| 62>    C       14.81702        -9.27343        -2.06372
| 63>    N       14.65802        -8.01031        -2.35813
| 64>    C       13.68891       -10.05038        -1.69703
| 65>    N       12.80636       -10.71207        -1.38991
| 66>    C       16.30477       -11.19204        -1.58743
| 67>    N       16.40797       -12.25665        -1.17976
| 68>    C       18.11624        -7.22219        -3.36538
| 69>    C       17.91887        -5.87457        -3.68264
| 70>    C       16.64539        -5.20855        -3.50496
| 71>    N       16.71854        -3.92371        -3.86051
| 72>    S       18.20575        -3.59283        -4.36557
| 73>    N       18.85211        -5.04106        -4.16308
| 74>    C       19.41142        -7.89860        -3.68882
| 75>    C       19.22761        -9.41194        -3.88431
| 76>    O       18.60472        -9.93057        -4.76254
| 77>    O       19.94696       -10.08596        -2.98428
| 78>    C       20.54517        -9.23492        -2.01678
| 79>    C       20.56353        -7.83479        -2.66460
| 80>    C       20.56145        -6.66722        -1.68569
| 81>    C       19.54495        -6.82364        -0.56367
| 82>    C       19.72019        -8.12614         0.20674
| 83>    C       19.78497        -9.38628        -0.67718
| 84>    O       20.46654       -10.34749         0.11893
| 85>    C       21.22100        -9.76289         1.06431
| 86>    O       21.94064       -10.36989         1.79706
| 87>    C       20.99823        -8.25635         1.03069
| 88>    H        0.67300         5.29614        -2.41896
| 89>    H       -1.06468         5.02219        -2.58375
| 90>    H        0.28228         3.06407         0.78288
| 91>    H       -1.01524         3.07275        -1.19876
| 92>    H        0.38081         2.52047        -3.20841
| 93>    H        0.71136         1.54831        -1.78267
| 94>    H        2.36755         3.89788        -2.81181
| 95>    H        2.82382         2.19933        -2.83997
| 96>    H        3.89348         3.55406        -1.02482
| 97>    H        2.33989         5.04061        -0.02091
| 98>    H        2.21403         1.14091        -0.21590
| 99>    H        3.63093        -0.88394        -1.10490
|100>    H        5.87098         2.57377         0.19282
|101>    H        8.55661        -1.29648        -1.51250
|102>    H        6.35640        -4.95371        -2.25296
|103>    H        8.00488        -6.12009        -0.84077
|104>    H        9.22153        -7.23466        -1.51370
|105>    H        7.92468        -6.62453        -2.55302
|106>    H       12.57098        -0.24511        -3.43477
|107>    H       13.59605        -1.33161        -4.40254
|108>    H       13.95376        -1.06706        -2.67658
|109>    H       14.65809        -3.35572        -3.40286
|110>    H       13.43960        -6.06288        -2.59951
|111>    H       19.74426        -7.46399        -4.63689
|112>    H       21.56238        -9.61007        -1.85631
|113>    H       21.48688        -7.76966        -3.25011
|114>    H       20.36193        -5.75038        -2.24272
|115>    H       21.56193        -6.57505        -1.25885
|116>    H       18.53465        -6.79473        -0.97434
|117>    H       19.64090        -5.98750         0.13176
|118>    H       18.86625        -8.24478         0.88349
|119>    H       18.79697        -9.79501        -0.90341
|120>    H       21.85878        -7.79410         0.54481
|121>    H       20.91873        -7.85772         2.03953
|122> *
|123>
|124>                          ****END OF INPUT****

CARTESIAN COORDINATES (ANGSTROEM)
---------------------------------
  C     -0.216780    4.921970   -1.910150
  C     -0.432270    5.747930   -0.649320
  O     -0.886910    6.847430   -0.570240
  O     -0.027570    5.040530    0.422810
  C      0.569270    3.810410    0.035560
  C     -0.024090    3.513040   -1.354790
  C      0.800670    2.551950   -2.202090
  C      2.268120    2.951350   -2.277140
  C      2.902680    3.101520   -0.901200
  C      2.107990    3.975950    0.082900
  O      2.570470    3.574520    1.367150
  C      3.068060    2.331150    1.347410
  O      3.442820    1.753190    2.319780
  C      3.077160    1.803810   -0.099660
  C      4.321140    1.056380   -0.401970
  C      4.434590   -0.215580   -0.866130
  C      5.829900   -0.537910   -1.007610
  C      6.568020    0.659320   -0.566600
  C      5.654290    1.599520   -0.205600
  C      7.954700    0.807540   -0.441540
  N      9.081290    0.970980   -0.289820
  C      6.379040   -1.719050   -1.433630
  C      7.763220   -2.009710   -1.614330
  C      7.909520   -3.343970   -1.933970
  C      6.581140   -3.936960   -1.994390
  C      5.661200   -2.972170   -1.731140
  C      4.274530   -3.160050   -1.746460
  N      3.140960   -3.342720   -1.780660
  C      9.170240   -3.956160   -2.161830
  N      9.470450   -5.289240   -2.080510
  C      8.590580   -6.370220   -1.725750
  C     10.845540   -5.533080   -2.296050
  O     11.341590   -6.636290   -2.234620
  C     11.401520   -4.224620   -2.568960
  C     10.357130   -3.282700   -2.474220
  C     10.891360   -1.976910   -2.815740
  O     10.382130   -0.884130   -2.915750
  N     12.255160   -2.225990   -3.066410
  C     13.158050   -1.163590   -3.417100
  C     12.579610   -3.550950   -2.921950
  C     13.885800   -4.049760   -3.105560
  C     14.204030   -5.359860   -2.905060
  C     15.504780   -5.909170   -3.049250
  C     15.713350   -7.280860   -2.744760
  C     17.006500   -7.904810   -2.854580
  N     17.169970   -9.178610   -2.442520
  C     16.128130   -9.866190   -2.061820
  C     14.817020   -9.273430   -2.063720
  N     14.658020   -8.010310   -2.358130
  C     13.688910  -10.050380   -1.697030
  N     12.806360  -10.712070   -1.389910
  C     16.304770  -11.192040   -1.587430
  N     16.407970  -12.256650   -1.179760
  C     18.116240   -7.222190   -3.365380
  C     17.918870   -5.874570   -3.682640
  C     16.645390   -5.208550   -3.504960
  N     16.718540   -3.923710   -3.860510
  S     18.205750   -3.592830   -4.365570
  N     18.852110   -5.041060   -4.163080
  C     19.411420   -7.898600   -3.688820
  C     19.227610   -9.411940   -3.884310
  O     18.604720   -9.930570   -4.762540
  O     19.946960  -10.085960   -2.984280
  C     20.545170   -9.234920   -2.016780
  C     20.563530   -7.834790   -2.664600
  C     20.561450   -6.667220   -1.685690
  C     19.544950   -6.823640   -0.563670
  C     19.720190   -8.126140    0.206740
  C     19.784970   -9.386280   -0.677180
  O     20.466540  -10.347490    0.118930
  C     21.221000   -9.762890    1.064310
  O     21.940640  -10.369890    1.797060
  C     20.998230   -8.256350    1.030690
  H      0.673000    5.296140   -2.418960
  H     -1.064680    5.022190   -2.583750
  H      0.282280    3.064070    0.782880
  H     -1.015240    3.072750   -1.198760
  H      0.380810    2.520470   -3.208410
  H      0.711360    1.548310   -1.782670
  H      2.367550    3.897880   -2.811810
  H      2.823820    2.199330   -2.839970
  H      3.893480    3.554060   -1.024820
  H      2.339890    5.040610   -0.020910
  H      2.214030    1.140910   -0.215900
  H      3.630930   -0.883940   -1.104900
  H      5.870980    2.573770    0.192820
  H      8.556610   -1.296480   -1.512500
  H      6.356400   -4.953710   -2.252960
  H      8.004880   -6.120090   -0.840770
  H      9.221530   -7.234660   -1.513700
  H      7.924680   -6.624530   -2.553020
  H     12.570980   -0.245110   -3.434770
  H     13.596050   -1.331610   -4.402540
  H     13.953760   -1.067060   -2.676580
  H     14.658090   -3.355720   -3.402860
  H     13.439600   -6.062880   -2.599510
  H     19.744260   -7.463990   -4.636890
  H     21.562380   -9.610070   -1.856310
  H     21.486880   -7.769660   -3.250110
  H     20.361930   -5.750380   -2.242720
  H     21.561930   -6.575050   -1.258850
  H     18.534650   -6.794730   -0.974340
  H     19.640900   -5.987500    0.131760
  H     18.866250   -8.244780    0.883490
  H     18.796970   -9.795010   -0.903410
  H     21.858780   -7.794100    0.544810
  H     20.918730   -7.857720    2.039530

 Total Charge           Charge          ....    0
 Multiplicity           Mult            ....    1
 Number of Electrons    NEL             ....  512
 Basis Dimension        Dim             .... 1196

ORBITAL ENERGIES
----------------

  NO   OCC          E(Eh)            E(eV)
   0   2.0000     -89.067638     -2423.6537
   1   2.0000     -19.275391      -524.5100
   2   2.0000     -19.265942      -524.2529
   3   2.0000     -19.262528      -524.1600
   4   2.0000     -19.256117      -523.9856
   5   2.0000     -19.214602      -522.8559
   6   2.0000     -19.207602      -522.6654
   7   2.0000     -19.203725      -522.5599
   8   2.0000     -19.203126      -522.5436
   9   2.0000     -19.198146      -522.4081
  10   2.0000     -19.194152      -522.2994
  11   2.0000     -14.475383      -393.8952
  12   2.0000     -14.475311      -393.8932
  13   2.0000     -14.475009      -393.8850
  14   2.0000     -14.473145      -393.8343
  15   2.0000     -14.471575      -393.7916
  16   2.0000     -14.468095      -393.6969
  17   2.0000     -14.437353      -392.8604
  18   2.0000     -14.433174      -392.7466
  19   2.0000     -14.419959      -392.3870
  20   2.0000     -14.410751      -392.1365
  21   2.0000     -10.412188      -283.3300
  22   2.0000     -10.402488      -283.0661
  23   2.0000     -10.402029      -283.0536
  24   2.0000     -10.396028      -282.8903
  25   2.0000     -10.393233      -282.8143
  26   2.0000     -10.391463      -282.7661
  27   2.0000     -10.389669      -282.7173
  28   2.0000     -10.387584      -282.6605
  29   2.0000     -10.362834      -281.9871
  30   2.0000     -10.362345      -281.9738
  31   2.0000     -10.361232      -281.9435
  32   2.0000     -10.360517      -281.9240
  33   2.0000     -10.357973      -281.8548
  34   2.0000     -10.355621      -281.7908
  35   2.0000     -10.353402      -281.7304
  36   2.0000     -10.351929      -281.6903
  37   2.0000     -10.344727      -281.4943
  38   2.0000     -10.337396      -281.2948
  39   2.0000     -10.336943      -281.2825
  40   2.0000     -10.333580      -281.1910
  41   2.0000     -10.333013      -281.1756
  42   2.0000     -10.332856      -281.1713
  43   2.0000     -10.329031      -281.0672
  44   2.0000     -10.328098      -281.0418
  45   2.0000     -10.326197      -280.9901
  46   2.0000     -10.324296      -280.9384
  47   2.0000     -10.323856      -280.9264
  48   2.0000     -10.322029      -280.8767
  49   2.0000     -10.319167      -280.7988
  50   2.0000     -10.318686      -280.7857
  51   2.0000     -10.317752      -280.7603
  52   2.0000     -10.316190      -280.7178
  53   2.0000     -10.316033      -280.7135
  54   2.0000     -10.315282      -280.6931
  55   2.0000     -10.312540      -280.6185
  56   2.0000     -10.311872      -280.6003
  57   2.0000     -10.311133      -280.5802
  58   2.0000     -10.305299      -280.4214
  59   2.0000     -10.305244      -280.4200
  60   2.0000     -10.304769      -280.4070
  61   2.0000     -10.304626      -280.4031
  62   2.0000     -10.299044      -280.2512
  63   2.0000     -10.297442      -280.2076
  64   2.0000     -10.296091      -280.1709
  65   2.0000     -10.295951      -280.1671
  66   2.0000     -10.294947      -280.1398
  67   2.0000     -10.294204      -280.1195
  68   2.0000     -10.289039      -279.9790
  69   2.0000     -10.288494      -279.9641
  70   2.0000     -10.288369      -279.9608
  71   2.0000     -10.280608      -279.7496
  72   2.0000     -10.280276      -279.7405
  73   2.0000      -8.158793      -222.0121
  74   2.0000      -6.129768      -166.7995
  75   2.0000      -6.121971      -166.5873
  76   2.0000      -6.121821      -166.5832
  77   2.0000      -1.214160       -33.0390
  78   2.0000      -1.201908       -32.7056
  79   2.0000      -1.201038       -32.6819
  80   2.0000      -1.191335       -32.4179
  81   2.0000      -1.162662       -31.6376
  82   2.0000      -1.149754       -31.2864
  83   2.0000      -1.142395       -31.0861
  84   2.0000      -1.133718       -30.8500
  85   2.0000      -1.123995       -30.5855
  86   2.0000      -1.111857       -30.2552
  87   2.0000      -1.109479       -30.1905
  88   2.0000      -1.102098       -29.9896
  89   2.0000      -1.080188       -29.3934
  90   2.0000      -1.070918       -29.1412
  91   2.0000      -1.059931       -28.8422
  92   2.0000      -1.026441       -27.9309
  93   2.0000      -1.020995       -27.7827
  94   2.0000      -1.017136       -27.6777
  95   2.0000      -1.009432       -27.4680
  96   2.0000      -1.008649       -27.4467
  97   2.0000      -0.995164       -27.0798
  98   2.0000      -0.994475       -27.0611
  99   2.0000      -0.988470       -26.8976
 100   2.0000      -0.962969       -26.2037
 101   2.0000      -0.954774       -25.9807
 102   2.0000      -0.938042       -25.5254
 103   2.0000      -0.931450       -25.3460
 104   2.0000      -0.923226       -25.1223
 105   2.0000      -0.921887       -25.0858
 106   2.0000      -0.909476       -24.7481
 107   2.0000      -0.894239       -24.3335
 108   2.0000      -0.885117       -24.0852
 109   2.0000      -0.879264       -23.9260
 110   2.0000      -0.866798       -23.5868
 111   2.0000      -0.860896       -23.4262
 112   2.0000      -0.859260       -23.3816
 113   2.0000      -0.854675       -23.2569
 114   2.0000      -0.851004       -23.1570
 115   2.0000      -0.846104       -23.0237
 116   2.0000      -0.843824       -22.9616
 117   2.0000      -0.823678       -22.4134
 118   2.0000      -0.817831       -22.2543
 119   2.0000      -0.812296       -22.1037
 120   2.0000      -0.807511       -21.9735
 121   2.0000      -0.788830       -21.4651
 122   2.0000      -0.779767       -21.2185
 123   2.0000      -0.774496       -21.0751
 124   2.0000      -0.755103       -20.5474
 125   2.0000      -0.753403       -20.5011
 126   2.0000      -0.744953       -20.2712
 127   2.0000      -0.737650       -20.0725
 128   2.0000      -0.735554       -20.0154
 129   2.0000      -0.728025       -19.8106
 130   2.0000      -0.723762       -19.6946
 131   2.0000      -0.711677       -19.3657
 132   2.0000      -0.706575       -19.2269
 133   2.0000      -0.702325       -19.1112
 134   2.0000      -0.695345       -18.9213
 135   2.0000      -0.689233       -18.7550
 136   2.0000      -0.682140       -18.5620
 137   2.0000      -0.680719       -18.5233
 138   2.0000      -0.674900       -18.3650
 139   2.0000      -0.672818       -18.3083
 140   2.0000      -0.665573       -18.1112
 141   2.0000      -0.663208       -18.0468
 142   2.0000      -0.659661       -17.9503
 143   2.0000      -0.648612       -17.6496
 144   2.0000      -0.646496       -17.5920
 145   2.0000      -0.643121       -17.5002
 146   2.0000      -0.641498       -17.4560
 147   2.0000      -0.637794       -17.3553
 148   2.0000      -0.623793       -16.9743
 149   2.0000      -0.620842       -16.8940
 150   2.0000      -0.616907       -16.7869
 151   2.0000      -0.613870       -16.7042
 152   2.0000      -0.608875       -16.5683
 153   2.0000      -0.603376       -16.4187
 154   2.0000      -0.596224       -16.2241
 155   2.0000      -0.593895       -16.1607
 156   2.0000      -0.591123       -16.0853
 157   2.0000      -0.587020       -15.9736
 158   2.0000      -0.581702       -15.8289
 159   2.0000      -0.580897       -15.8070
 160   2.0000      -0.575243       -15.6531
 161   2.0000      -0.573395       -15.6029
 162   2.0000      -0.571138       -15.5415
 163   2.0000      -0.569154       -15.4875
 164   2.0000      -0.567945       -15.4546
 165   2.0000      -0.562849       -15.3159
 166   2.0000      -0.559936       -15.2366
 167   2.0000      -0.554492       -15.0885
 168   2.0000      -0.551275       -15.0009
 169   2.0000      -0.549364       -14.9490
 170   2.0000      -0.549060       -14.9407
 171   2.0000      -0.545748       -14.8505
 172   2.0000      -0.542983       -14.7753
 173   2.0000      -0.540264       -14.7013
 174   2.0000      -0.537299       -14.6206
 175   2.0000      -0.536641       -14.6027
 176   2.0000      -0.531577       -14.4650
 177   2.0000      -0.529375       -14.4050
 178   2.0000      -0.528536       -14.3822
 179   2.0000      -0.528119       -14.3708
 180   2.0000      -0.526854       -14.3364
 181   2.0000      -0.521182       -14.1821
 182   2.0000      -0.519878       -14.1466
 183   2.0000      -0.515667       -14.0320
 184   2.0000      -0.515193       -14.0191
 185   2.0000      -0.508872       -13.8471
 186   2.0000      -0.508149       -13.8274
 187   2.0000      -0.506226       -13.7751
 188   2.0000      -0.504522       -13.7287
 189   2.0000      -0.501408       -13.6440
 190   2.0000      -0.498679       -13.5698
 191   2.0000      -0.498301       -13.5595
 192   2.0000      -0.494270       -13.4498
 193   2.0000      -0.493639       -13.4326
 194   2.0000      -0.491439       -13.3727
 195   2.0000      -0.487602       -13.2683
 196   2.0000      -0.486497       -13.2383
 197   2.0000      -0.485182       -13.2025
 198   2.0000      -0.481758       -13.1093
 199   2.0000      -0.480905       -13.0861
 200   2.0000      -0.477784       -13.0012
 201   2.0000      -0.475744       -12.9457
 202   2.0000      -0.472295       -12.8518
 203   2.0000      -0.470450       -12.8016
 204   2.0000      -0.469231       -12.7684
 205   2.0000      -0.468270       -12.7423
 206   2.0000      -0.467163       -12.7121
 207   2.0000      -0.463663       -12.6169
 208   2.0000      -0.461504       -12.5582
 209   2.0000      -0.460115       -12.5204
 210   2.0000      -0.457210       -12.4413
 211   2.0000      -0.456172       -12.4131
 212   2.0000      -0.453139       -12.3305
 213   2.0000      -0.451418       -12.2837
 214   2.0000      -0.450498       -12.2587
 215   2.0000      -0.450225       -12.2513
 216   2.0000      -0.449070       -12.2198
 217   2.0000      -0.448056       -12.1922
 218   2.0000      -0.443042       -12.0558
 219   2.0000      -0.441259       -12.0073
 220   2.0000      -0.440583       -11.9889
 221   2.0000      -0.438744       -11.9388
 222   2.0000      -0.437809       -11.9134
 223   2.0000      -0.434806       -11.8317
 224   2.0000      -0.432352       -11.7649
 225   2.0000      -0.430918       -11.7259
 226   2.0000      -0.425993       -11.5919
 227   2.0000      -0.423918       -11.5354
 228   2.0000      -0.420437       -11.4407
 229   2.0000      -0.418138       -11.3781
 230   2.0000      -0.416976       -11.3465
 231   2.0000      -0.412933       -11.2365
 232   2.0000      -0.410937       -11.1822
 233   2.0000      -0.407453       -11.0874
 234   2.0000      -0.405486       -11.0338
 235   2.0000      -0.404065       -10.9952
 236   2.0000      -0.399632       -10.8745
 237   2.0000      -0.398342       -10.8394
 238   2.0000      -0.385179       -10.4813
 239   2.0000      -0.376790       -10.2530
 240   2.0000      -0.369063       -10.0427
 241   2.0000      -0.368303       -10.0220
 242   2.0000      -0.363100        -9.8805
 243   2.0000      -0.361445        -9.8354
 244   2.0000      -0.360856        -9.8194
 245   2.0000      -0.355561        -9.6753
 246   2.0000      -0.347743        -9.4626
 247   2.0000      -0.347256        -9.4493
 248   2.0000      -0.345820        -9.4102
 249   2.0000      -0.345341        -9.3972
 250   2.0000      -0.338741        -9.2176
 251   2.0000      -0.332848        -9.0573
 252   2.0000      -0.323712        -8.8087
 253   2.0000      -0.314861        -8.5678
 254   2.0000      -0.308167        -8.3857
 255   2.0000      -0.249152        -6.7798
 256   0.0000      -0.144715        -3.9379
 257   0.0000      -0.126598        -3.4449
 258   0.0000      -0.074847        -2.0367
 259   0.0000      -0.056703        -1.5430
 260   0.0000      -0.051671        -1.4060

MULLIKEN ATOMIC CHARGES
-----------------------
   0 C :    0.023988
   1 C :    0.137976
   2 O :   -0.153285
   3 O :   -0.261470
   4 C :    0.150721
   5 C :   -0.130826
   6 C :    0.088932
   7 C :    0.100427
   8 C :   -0.071910
   9 C :    0.164475
  10 O :   -0.249619
  11 C :    0.188561
  12 O :   -0.137130
  13 C :   -0.065260
  14 C :    0.088269
  15 C :   -0.100020
  16 C :    0.096468
  17 C :   -0.088116
  18 C :   -0.003716
  19 C :   -0.180499
  20 N :    0.147608
  21 C :    0.108678
  22 C :   -0.097491
  23 C :    0.038050
  24 C :   -0.022100
  25 C :   -0.090170
  26 C :   -0.177468
  27 N :    0.137499
  28 C :    0.150787
  29 N :   -0.266912
  30 C :    0.113436
  31 C :    0.162241
  32 O :   -0.180510
  33 C :   -0.064247
  34 C :   -0.062843
  35 C :    0.152927
  36 O :   -0.177300
  37 N :   -0.270565
  38 C :    0.119645
  39 C :    0.152118
  40 C :   -0.003075
  41 C :   -0.085790
  42 C :    0.071375
  43 C :   -0.025166
  44 C :   -0.014799
  45 N :   -0.004073
  46 C :   -0.076859
  47 C :   -0.150548
  48 N :    0.084026
  49 C :   -0.189916
  50 N :    0.236164
  51 C :   -0.225412
  52 N :    0.260400
  53 C :   -0.056141
  54 C :    0.016068
  55 C :    0.047601
  56 N :   -0.288789
  57 S :    0.562246
  58 N :   -0.290163
  59 C :   -0.016424
  60 C :    0.196576
  61 O :   -0.166217
  62 O :   -0.251394
  63 C :    0.180160
  64 C :   -0.077564
  65 C :    0.087749
  66 C :    0.106279
  67 C :   -0.143756
  68 C :    0.165937
  69 O :   -0.262412
  70 C :    0.138016
  71 O :   -0.159351
  72 C :    0.028864
  73 H :    0.042101
  74 H :    0.048093
  75 H :    0.023578
  76 H :    0.024167
  77 H :    0.015576
  78 H :    0.010208
  79 H :    0.010035
  80 H :    0.014913
  81 H :    0.017510
  82 H :    0.024933
  83 H :    0.030934
  84 H :   -0.004362
  85 H :    0.008389
  86 H :    0.031556
  87 H :   -0.008904
  88 H :    0.040383
  89 H :    0.070103
  90 H :    0.043428
  91 H :    0.066646
  92 H :    0.035244
  93 H :    0.037802
  94 H :   -0.012366
  95 H :    0.032015
  96 H :    0.040615
  97 H :    0.019317
  98 H :    0.017834
  99 H :    0.009670
 100 H :    0.005660
 101 H :    0.005762
 102 H :    0.008695
 103 H :    0.017063
 104 H :    0.025599
 105 H :    0.039689
 106 H :    0.043154
Sum of atomic charges:   -0.0000000

LOEWDIN ATOMIC CHARGES
----------------------
   0 C :   -0.058041
   1 C :    0.075222
   2 O :   -0.143552
   3 O :   -0.075181
   4 C :    0.066315
   5 C :   -0.039804
   6 C :   -0.026802
   7 C :   -0.025488
   8 C :   -0.029587
   9 C :    0.068881
  10 O :   -0.063236
  11 C :    0.075991
  12 O :   -0.134645
  13 C :   -0.057771
  14 C :    0.003140
  15 C :   -0.028550
  16 C :    0.054758
  17 C :   -0.076613
  18 C :    0.052533
  19 C :   -0.034691
  20 N :   -0.048491
  21 C :    0.029874
  22 C :    0.024921
  23 C :   -0.038867
  24 C :    0.048976
  25 C :   -0.079024
  26 C :   -0.030392
  27 N :   -0.061590
  28 C :    0.075194
  29 N :   -0.004576
  30 C :    0.030020
  31 C :    0.081140
  32 O :   -0.175814
  33 C :   -0.109592
  34 C :   -0.105686
  35 C :    0.081048
  36 O :   -0.175204
  37 N :   -0.005540
  38 C :    0.029862
  39 C :    0.075464
  40 C :   -0.022927
  41 C :    0.026301
  42 C :   -0.016982
  43 C :   -0.000718
  44 C :   -0.009460
  45 N :    0.005429
  46 C :   -0.007789
  47 C :   -0.021844
  48 N :    0.019154
  49 C :   -0.033100
  50 N :    0.003019
  51 C :   -0.038897
  52 N :    0.015842
  53 C :   -0.012511
  54 C :   -0.044539
  55 C :   -0.034717
  56 N :   -0.280516
  57 S :    0.690780
  58 N :   -0.285105
  59 C :   -0.046384
  60 C :    0.073259
  61 O :   -0.160973
  62 O :   -0.057306
  63 C :    0.071149
  64 C :   -0.024563
  65 C :   -0.030988
  66 C :   -0.030146
  67 C :   -0.040241
  68 C :    0.063099
  69 O :   -0.071825
  70 C :    0.073381
  71 O :   -0.148327
  72 C :   -0.058984
  73 H :    0.040717
  74 H :    0.047311
  75 H :    0.030698
  76 H :    0.036671
  77 H :    0.034473
  78 H :    0.025259
  79 H :    0.025832
  80 H :    0.034650
  81 H :    0.033455
  82 H :    0.032358
  83 H :    0.048110
  84 H :    0.034599
  85 H :    0.037767
  86 H :    0.040833
  87 H :    0.036526
  88 H :    0.030136
  89 H :    0.046315
  90 H :    0.026548
  91 H :    0.044813
  92 H :    0.027420
  93 H :    0.028637
  94 H :    0.029127
  95 H :    0.040587
  96 H :    0.058466
  97 H :    0.031592
  98 H :    0.039121
  99 H :    0.028117
 100 H :    0.025124
 101 H :    0.020985
 102 H :    0.031454
 103 H :    0.033961
 104 H :    0.026022
 105 H :    0.039647
 106 H :    0.045498

  Mayer bond orders larger than 0.100000
B(  0-C ,  1-C ) :   0.9606 B(  0-C ,  5-C ) :   1.0242 B(  0-C , 73-H ) :   0.9273
B(  0-C , 74-H ) :   0.9307 B(  1-C ,  2-O ) :   2.2408 B(  1-C ,  3-O ) :   1.1150
B(  3-O ,  4-C ) :   0.9685 B(  4-C ,  5-C ) :   1.0195 B(  4-C ,  9-C ) :   0.9609
B(  4-C , 75-H ) :   0.9216 B(  5-C ,  6-C ) :   1.0587 B(  5-C , 76-H ) :   0.9156
B(  6-C ,  7-C ) :   1.0741 B(  6-C , 77-H ) :   0.9270 B(  6-C , 78-H ) :   0.9385
B(  7-C ,  8-C ) :   1.0620 B(  7-C , 79-H ) :   0.9366 B(  7-C , 80-H ) :   0.9225
B(  8-C ,  9-C ) :   1.0063 B(  8-C , 13-C ) :   0.9740 B(  8-C , 81-H ) :   0.9109
B(  9-C , 10-O ) :   0.9581 B(  9-C , 82-H ) :   0.9209 B( 10-O , 11-C ) :   1.1415
B( 11-C , 12-O ) :   2.2653 B( 11-C , 13-C ) :   0.8672 B( 13-C , 14-C ) :   1.0038
B( 13-C , 83-H ) :   0.8760 B( 14-C , 15-C ) :   1.6557 B( 14-C , 18-C ) :   1.0554
B( 15-C , 16-C ) :   1.0723 B( 15-C , 84-H ) :   1.0114 B( 16-C , 17-C ) :   1.1102
B( 16-C , 21-C ) :   1.4399 B( 17-C , 18-C ) :   1.6793 B( 17-C , 19-C ) :   1.0863
B( 18-C , 85-H ) :   1.0094 B( 19-C , 20-N ) :   2.9804 B( 21-C , 22-C ) :   1.1017
B( 21-C , 25-C ) :   1.0970 B( 22-C , 23-C ) :   1.5567 B( 22-C , 86-H ) :   0.9927
B( 23-C , 24-C ) :   1.0346 B( 23-C , 28-C ) :   1.0356 B( 24-C , 25-C ) :   1.6634
B( 24-C , 87-H ) :   1.0267 B( 25-C , 26-C ) :   1.0853 B( 26-C , 27-N ) :   2.9667
B( 28-C , 29-N ) :   1.2159 B( 28-C , 34-C ) :   1.3633 B( 29-N , 30-C ) :   0.9574
B( 29-N , 31-C ) :   1.0347 B( 30-C , 88-H ) :   0.9711 B( 30-C , 89-H ) :   0.9472
B( 30-C , 90-H ) :   0.9708 B( 31-C , 32-O ) :   2.0647 B( 31-C , 33-C ) :   0.9864
B( 33-C , 34-C ) :   1.2643 B( 33-C , 39-C ) :   1.3055 B( 34-C , 35-C ) :   0.9722
B( 35-C , 36-O ) :   2.1130 B( 35-C , 37-N ) :   1.0399 B( 37-N , 38-C ) :   0.9620
B( 37-N , 39-C ) :   1.1750 B( 38-C , 91-H ) :   0.9505 B( 38-C , 92-H ) :   0.9725
B( 38-C , 93-H ) :   0.9719 B( 39-C , 40-C ) :   1.1628 B( 40-C , 41-C ) :   1.5096
B( 40-C , 94-H ) :   0.9492 B( 41-C , 42-C ) :   1.2158 B( 41-C , 95-H ) :   0.9456
B( 42-C , 43-C ) :   1.2372 B( 42-C , 53-C ) :   0.1399 B( 42-C , 55-C ) :   1.1710
B( 43-C , 44-C ) :   1.1321 B( 43-C , 48-N ) :   1.4570 B( 44-C , 45-N ) :   1.3424
B( 44-C , 53-C ) :   1.3229 B( 45-N , 46-C ) :   1.7235 B( 46-C , 47-C ) :   1.1786
B( 46-C , 51-C ) :   1.1470 B( 47-C , 48-N ) :   1.7623 B( 47-C , 49-C ) :   1.1525
B( 49-C , 50-N ) :   3.0406 B( 51-C , 52-N ) :   3.0402 B( 53-C , 54-C ) :   1.2769
B( 53-C , 59-C ) :   1.0330 B( 54-C , 55-C ) :   1.1199 B( 54-C , 58-N ) :   1.4585
B( 55-C , 56-N ) :   1.4964 B( 56-N , 57-S ) :   1.2833 B( 56-N , 58-N ) :   0.1560
B( 57-S , 58-N ) :   1.2918 B( 59-C , 60-C ) :   0.8976 B( 59-C , 64-C ) :   1.0136
B( 59-C , 96-H ) :   0.8572 B( 60-C , 61-O ) :   2.2313 B( 60-C , 62-O ) :   1.1393
B( 62-O , 63-C ) :   0.9664 B( 63-C , 64-C ) :   1.0168 B( 63-C , 68-C ) :   0.9667
B( 63-C , 97-H ) :   0.9175 B( 64-C , 65-C ) :   1.0858 B( 64-C , 98-H ) :   0.9008
B( 65-C , 66-C ) :   1.0545 B( 65-C , 99-H ) :   0.9160 B( 65-C ,100-H ) :   0.9327
B( 66-C , 67-C ) :   1.0648 B( 66-C ,101-H ) :   0.9356 B( 66-C ,102-H ) :   0.9236
B( 67-C , 68-C ) :   1.0232 B( 67-C , 72-C ) :   1.0269 B( 67-C ,103-H ) :   0.9139
B( 68-C , 69-O ) :   0.9513 B( 68-C ,104-H ) :   0.9123 B( 69-O , 70-C ) :   1.1258
B( 70-C , 71-O ) :   2.2343 B( 70-C , 72-C ) :   0.9603 B( 72-C ,105-H ) :   0.9274
B( 72-C ,106-H ) :   0.9292

-----------------------------------------------------------------------------
         ABSORPTION SPECTRUM VIA TRANSITION ELECTRIC DIPOLE MOMENTS
-----------------------------------------------------------------------------
State   Energy  Wavelength   fosc         T2         TX        TY        TZ
        (cm-1)    (nm)                  (au**2)     (au)      (au)      (au)
-----------------------------------------------------------------------------
   0    8036.4   1244.3   0.449707587  18.42243   3.75823  -1.92896  -0.75975
   1   11509.9    868.8   0.006982810   0.19973   0.04044   0.24978   0.36837
   2   18610.2    537.3   0.009502947   0.16811   0.25307   0.28902   0.14329
   3   19818.5    504.6   0.121658955   2.02092   1.02459  -0.98546   0.00459
   4   20973.7    476.8   0.083951475   1.31774   1.11054   0.22125  -0.18839
   5   21723.5    460.3   0.126523965   1.91743  -1.35826   0.11368   0.24422
   6   23322.7    428.8   0.000571620   0.00807  -0.01200  -0.08884   0.00567
   7   24612.3    406.3   0.010124578   0.13543   0.18565  -0.30470  -0.09012
   8   24850.6    402.4   0.001969942   0.02610  -0.04267   0.14340  -0.06093
   9   25334.2    394.7   0.005047023   0.06558   0.09495  -0.13881  -0.19314
  10   26077.1    383.5   0.042330156   0.53440  -0.71124   0.11325   0.12537
  11   26551.4    376.6   0.077701523   0.96342   0.55810  -0.80691   0.02911
  12   26787.3    373.3   0.001365305   0.01678  -0.04338  -0.11186   0.04884
  13   27159.9    368.2   0.005742844   0.06961  -0.21324   0.12803   0.08801
  14   28197.2    354.6   0.004108835   0.04797   0.06450  -0.20383  -0.04757
  15   28360.0    352.6   0.129330512   1.50131  -0.92336   0.75960   0.26780
  16   29308.4    341.2   0.098220430   1.10328   0.45673  -0.86485  -0.38302
  17   29454.6    339.5   0.124567941   1.39229   0.54788  -0.91863  -0.49823
  18   29545.8    338.5   0.038208902   0.42574  -0.03260   0.64307  -0.10552
  19   29687.0    336.8   0.099893761   1.10776   0.35632   0.97538  -0.17155
  20   30485.0    328.0   0.405634221   4.38050  -0.93229  -1.75488   0.65705
  21   31793.6    314.5   0.203343270   2.10555   0.63661  -1.22851  -0.43709
  22   31959.4    312.9   0.005322374   0.05483  -0.15583  -0.04062   0.16997
  23   32095.0    311.6   0.034450267   0.35337  -0.07573   0.56569   0.16624
  24   33054.5    302.5   0.077988163   0.77674   0.07254   0.87824   0.01311
  25   33506.0    298.5   0.288310285   2.83278   0.47338  -1.59355   0.26320
  26   34233.5    292.1   0.068425102   0.65802  -0.30758   0.74920  -0.04588
  27   34294.4    291.6   0.040961584   0.39321   0.20682  -0.54865   0.22231
  28   35036.7    285.4   0.073468726   0.69033  -0.20813   0.76935   0.23475
  29   35358.9    282.8   0.007362748   0.06855  -0.21728   0.09171  -0.11371
  30   35383.5    282.6   0.025999317   0.24190   0.22547  -0.42613   0.09736
  31   35493.4    281.7   0.034004363   0.31540   0.04130   0.53855   0.15383
  32   36160.8    276.5   0.082905910   0.75478  -0.53884   0.62010   0.28267
  33   36210.9    276.2   0.029902588   0.27186   0.00990   0.50439  -0.13174
  34   36567.2    273.5   0.016045462   0.14446   0.03536  -0.36345  -0.10542
  35   37100.1    269.5   0.045891910   0.40723   0.49471  -0.40310  -0.00063
  36   37548.9    266.3   0.052166852   0.45738   0.31952   0.55875  -0.20757
  37   38029.6    263.0   0.051978794   0.44997   0.54893   0.35041  -0.16080
  38   38449.8    260.1   0.172272080   1.47502  -1.14902   0.01626   0.39307
  39   38547.1    259.4   0.104543634   0.89286  -0.53328  -0.68931   0.36514
  40   38737.5    258.1   0.454552659   3.86303   0.84444   1.66304  -0.61988
  41   39360.0    254.1   0.048939840   0.40934  -0.46099  -0.41839   0.14757
  42   39418.0    253.7   0.016841416   0.14066  -0.10224  -0.36034  -0.01889
  43   39585.7    252.6   0.011249328   0.09355  -0.26826  -0.14567   0.01932
  44   40175.3    248.9   0.081793280   0.67025   0.61103   0.49980  -0.21699
  45   40203.4    248.7   0.228944026   1.87475  -0.52143  -1.16237   0.50175

FINAL SINGLE POINT ENERGY     -3695.730489774596

DIPOLE MOMENT
-------------
                                X             Y             Z
Electronic contribution:     31.52688     -36.80820      -5.93609
Nuclear contribution   :    -30.88343      40.54361       2.88035
                        -----------------------------------------
Total Dipole Moment    :      0.64344       3.73541      -3.05575
                        -----------------------------------------
Magnitude (a.u.)       :      4.86877
Magnitude (Debye)      :     12.37542

Rotational constants in cm-1:     0.002692     0.000238     0.000232
Rotational constants in MHz :    80.715371     7.148925     6.955237

                             ****ORCA TERMINATED NORMALLY****
TOTAL RUN TIME: 0 days 0 hours 11 minutes 45 seconds 930 msec
