                         Program Version 4.2.0 -  RELEASE  -
|  1> # ORCA input file
|  2> # SCF done       -161.360089303241          0.000653047757
|  3> ! CAM-B3LYP def2-SVP def2/J RIJCOSX Grid4 TightSCF
|  4> %maxcore 5000
|  5> %tddft
|  6>     Mode sTDDFT
|  7>     Ethresh 5.0
|  8>     maxcore 5000
|  9> end
| 10>
| 11> %pal
| 12>   nprocs 6
| 13>   end
| 14> * xyz 0 1
| 15>    C        0.18984        -1.70310         1.16726
| 16>    C       -0.56408        -1.71253         0.00963
| 17>    C       -1.95055        -1.73306         0.08393
| 18>    N       -2.66120        -1.88763        -1.16162
| 19>    O       -2.25266        -1.25645        -2.11301
| 20>    O       -3.58431        -2.67225        -1.19216
| 21>    C       -2.61879        -1.70071         1.31618
| 22>    C       -1.82916        -1.72376         2.46945
| 23>    C       -0.45013        -1.72677         2.39837
| 24>    C       -4.05924        -1.58243         1.44832
| 25>    C       -4.84088        -0.84265         0.64321
| 26>    C       -6.25548        -0.70332         0.78278
| 27>    S       -7.11866         0.31028        -0.33725
| 28>    C       -8.64401        -0.03114         0.42605
| 29>    C       -8.45464        -0.89876         1.50380
| 30>    C       -7.11413        -1.27185         1.69536
| 31>    C       -9.49164        -1.35892         2.33558
| 32>    N      -10.29686        -1.75716         3.04770
| 33>    C       -9.86753         0.52000        -0.01566
| 34>    C       -9.96810         1.36094        -1.07972
| 35>    C      -11.19232         1.92383        -1.50831
| 36>    N      -11.30490         2.79884        -2.56830
| 37>    C      -10.22775         3.30936        -3.38072
| 38>    C       -9.45190         4.41677        -2.67144
| 39>    C      -12.62884         3.21652        -2.76847
| 40>    O      -12.96227         3.99541        -3.64273
| 41>    C      -13.38353         2.52112        -1.75064
| 42>    C      -12.47292         1.73681        -0.99589
| 43>    C      -13.22322         1.03325         0.01752
| 44>    O      -12.88824         0.25458         0.88772
| 45>    N      -14.55438         1.43480        -0.19607
| 46>    C      -15.61618         0.96810         0.66210
| 47>    C      -15.99251         2.00443         1.71840
| 48>    C      -14.66340         2.32648        -1.23755
| 49>    C      -15.89644         2.89970        -1.65349
| 50>    C      -15.97052         3.80727        -2.65306
| 51>    C      -17.16913         4.45415        -3.12204
| 52>    C      -18.43786         4.20043        -2.60317
| 53>    C      -19.55576         4.86711        -3.07918
| 54>    N      -20.80412         4.56062        -2.43253
| 55>    O      -20.87145         3.51391        -1.82046
| 56>    O      -21.71720         5.35725        -2.51713
| 57>    C      -19.46540         5.82146        -4.11096
| 58>    C      -18.18491         6.05953        -4.62873
| 59>    C      -17.07401         5.40560        -4.15183
| 60>    C      -20.62447         6.49477        -4.65968
| 61>    C      -20.60784         7.74835        -5.13583
| 62>    C      -21.75598         8.45096        -5.67345
| 63>    C      -21.55803         9.61886        -6.40444
| 64>    C      -22.62767        10.32270        -6.93873
| 65>    N      -22.31702        11.53885        -7.64226
| 66>    O      -21.18879        11.65715        -8.07646
| 67>    O      -23.18388        12.38046        -7.75419
| 68>    C      -23.95150         9.88861        -6.76658
| 69>    C      -24.13406         8.72227        -6.01628
| 70>    C      -23.07669         8.02561        -5.47680
| 71>    C      -25.09928        10.56140        -7.36309
| 72>    C      -26.28528        10.65670        -6.77556
| 73>    H        1.26667        -1.69360         1.11055
| 74>    H       -0.09583        -1.72632        -0.96322
| 75>    H       -2.31882        -1.71469         3.43165
| 76>    H        0.13174        -1.74099         3.30729
| 77>    H       -4.48920        -2.07940         2.30596
| 78>    H       -4.40644        -0.28169        -0.17450
| 79>    H       -6.80247        -1.93829         2.47906
| 80>    H      -10.75231         0.24118         0.54422
| 81>    H       -9.07176         1.61931        -1.62821
| 82>    H      -10.69583         3.71151        -4.28370
| 83>    H       -9.56299         2.48866        -3.66473
| 84>    H      -10.11806         5.24306        -2.43575
| 85>    H       -8.65916         4.78244        -3.31818
| 86>    H       -9.01005         4.05394        -1.74605
| 87>    H      -15.23196         0.06985         1.15372
| 88>    H      -16.48451         0.69345         0.05665
| 89>    H      -15.13152         2.22270         2.34527
| 90>    H      -16.78951         1.61595         2.34614
| 91>    H      -16.32871         2.93089         1.25750
| 92>    H      -16.78439         2.58197        -1.12749
| 93>    H      -15.05761         4.09740        -3.15622
| 94>    H      -18.58472         3.48684        -1.80731
| 95>    H      -18.08110         6.75947        -5.44314
| 96>    H      -16.10295         5.61563        -4.57475
| 97>    H      -21.55168         5.94147        -4.65346
| 98>    H      -19.68750         8.31749        -5.11868
| 99>    H      -20.56143        10.00293        -6.56825
|100>    H      -25.13947         8.35745        -5.87324
|101>    H      -23.27389         7.15046        -4.87813
|102>    H      -24.94670        11.01197        -8.33387
|103>    H      -26.46620        10.28107        -5.78216
|104>    H      -27.11008        11.15020        -7.25813
|105> *
|106>
|107>                          ****END OF INPUT****

CARTESIAN COORDINATES (ANGSTROEM)
---------------------------------
  C      0.189840   -1.703100    1.167260
  C     -0.564080   -1.712530    0.009630
  C     -1.950550   -1.733060    0.083930
  N     -2.661200   -1.887630   -1.161620
  O     -2.252660   -1.256450   -2.113010
  O     -3.584310   -2.672250   -1.192160
  C     -2.618790   -1.700710    1.316180
  C     -1.829160   -1.723760    2.469450
  C     -0.450130   -1.726770    2.398370
  C     -4.059240   -1.582430    1.448320
  C     -4.840880   -0.842650    0.643210
  C     -6.255480   -0.703320    0.782780
  S     -7.118660    0.310280   -0.337250
  C     -8.644010   -0.031140    0.426050
  C     -8.454640   -0.898760    1.503800
  C     -7.114130   -1.271850    1.695360
  C     -9.491640   -1.358920    2.335580
  N    -10.296860   -1.757160    3.047700
  C     -9.867530    0.520000   -0.015660
  C     -9.968100    1.360940   -1.079720
  C    -11.192320    1.923830   -1.508310
  N    -11.304900    2.798840   -2.568300
  C    -10.227750    3.309360   -3.380720
  C     -9.451900    4.416770   -2.671440
  C    -12.628840    3.216520   -2.768470
  O    -12.962270    3.995410   -3.642730
  C    -13.383530    2.521120   -1.750640
  C    -12.472920    1.736810   -0.995890
  C    -13.223220    1.033250    0.017520
  O    -12.888240    0.254580    0.887720
  N    -14.554380    1.434800   -0.196070
  C    -15.616180    0.968100    0.662100
  C    -15.992510    2.004430    1.718400
  C    -14.663400    2.326480   -1.237550
  C    -15.896440    2.899700   -1.653490
  C    -15.970520    3.807270   -2.653060
  C    -17.169130    4.454150   -3.122040
  C    -18.437860    4.200430   -2.603170
  C    -19.555760    4.867110   -3.079180
  N    -20.804120    4.560620   -2.432530
  O    -20.871450    3.513910   -1.820460
  O    -21.717200    5.357250   -2.517130
  C    -19.465400    5.821460   -4.110960
  C    -18.184910    6.059530   -4.628730
  C    -17.074010    5.405600   -4.151830
  C    -20.624470    6.494770   -4.659680
  C    -20.607840    7.748350   -5.135830
  C    -21.755980    8.450960   -5.673450
  C    -21.558030    9.618860   -6.404440
  C    -22.627670   10.322700   -6.938730
  N    -22.317020   11.538850   -7.642260
  O    -21.188790   11.657150   -8.076460
  O    -23.183880   12.380460   -7.754190
  C    -23.951500    9.888610   -6.766580
  C    -24.134060    8.722270   -6.016280
  C    -23.076690    8.025610   -5.476800
  C    -25.099280   10.561400   -7.363090
  C    -26.285280   10.656700   -6.775560
  H      1.266670   -1.693600    1.110550
  H     -0.095830   -1.726320   -0.963220
  H     -2.318820   -1.714690    3.431650
  H      0.131740   -1.740990    3.307290
  H     -4.489200   -2.079400    2.305960
  H     -4.406440   -0.281690   -0.174500
  H     -6.802470   -1.938290    2.479060
  H    -10.752310    0.241180    0.544220
  H     -9.071760    1.619310   -1.628210
  H    -10.695830    3.711510   -4.283700
  H     -9.562990    2.488660   -3.664730
  H    -10.118060    5.243060   -2.435750
  H     -8.659160    4.782440   -3.318180
  H     -9.010050    4.053940   -1.746050
  H    -15.231960    0.069850    1.153720
  H    -16.484510    0.693450    0.056650
  H    -15.131520    2.222700    2.345270
  H    -16.789510    1.615950    2.346140
  H    -16.328710    2.930890    1.257500
  H    -16.784390    2.581970   -1.127490
  H    -15.057610    4.097400   -3.156220
  H    -18.584720    3.486840   -1.807310
  H    -18.081100    6.759470   -5.443140
  H    -16.102950    5.615630   -4.574750
  H    -21.551680    5.941470   -4.653460
  H    -19.687500    8.317490   -5.118680
  H    -20.561430   10.002930   -6.568250
  H    -25.139470    8.357450   -5.873240
  H    -23.273890    7.150460   -4.878130
  H    -24.946700   11.011970   -8.333870
  H    -26.466200   10.281070   -5.782160
  H    -27.110080   11.150200   -7.258130

 Total Charge           Charge          ....    0
 Multiplicity           Mult            ....    1
 Number of Electrons    NEL             ....  412
 Basis Dimension        Dim             ....  976

ORBITAL ENERGIES
----------------

  NO   OCC          E(Eh)            E(eV)
   0   2.0000     -88.975794     -2421.1545
   1   2.0000     -19.249386      -523.8024
   2   2.0000     -19.248029      -523.7655
   3   2.0000     -19.247145      -523.7414
   4   2.0000     -19.246947      -523.7361
   5   2.0000     -19.240100      -523.5497
   6   2.0000     -19.237771      -523.4864
   7   2.0000     -19.189912      -522.1840
   8   2.0000     -19.189803      -522.1811
   9   2.0000     -14.654095      -398.7582
  10   2.0000     -14.651506      -398.6877
  11   2.0000     -14.644575      -398.4991
  12   2.0000     -14.452905      -393.2836
  13   2.0000     -14.452678      -393.2774
  14   2.0000     -14.402097      -391.9010
  15   2.0000     -10.373237      -282.2701
  16   2.0000     -10.371858      -282.2326
  17   2.0000     -10.339229      -281.3447
  18   2.0000     -10.337184      -281.2891
  19   2.0000     -10.336374      -281.2670
  20   2.0000     -10.335426      -281.2413
  21   2.0000     -10.327584      -281.0278
  22   2.0000     -10.326664      -281.0028
  23   2.0000     -10.322803      -280.8978
  24   2.0000     -10.318718      -280.7866
  25   2.0000     -10.316694      -280.7315
  26   2.0000     -10.314818      -280.6805
  27   2.0000     -10.309425      -280.5337
  28   2.0000     -10.306860      -280.4639
  29   2.0000     -10.306067      -280.4423
  30   2.0000     -10.302836      -280.3544
  31   2.0000     -10.302663      -280.3497
  32   2.0000     -10.301700      -280.3235
  33   2.0000     -10.301620      -280.3213
  34   2.0000     -10.301508      -280.3183
  35   2.0000     -10.298158      -280.2271
  36   2.0000     -10.297608      -280.2122
  37   2.0000     -10.297578      -280.2114
  38   2.0000     -10.296998      -280.1955
  39   2.0000     -10.296792      -280.1899
  40   2.0000     -10.296729      -280.1882
  41   2.0000     -10.296655      -280.1862
  42   2.0000     -10.295472      -280.1540
  43   2.0000     -10.295438      -280.1531
  44   2.0000     -10.294885      -280.1381
  45   2.0000     -10.294390      -280.1246
  46   2.0000     -10.292855      -280.0828
  47   2.0000     -10.292205      -280.0651
  48   2.0000     -10.291375      -280.0426
  49   2.0000     -10.290053      -280.0066
  50   2.0000     -10.288816      -279.9729
  51   2.0000     -10.287848      -279.9466
  52   2.0000     -10.277875      -279.6752
  53   2.0000     -10.267921      -279.4043
  54   2.0000     -10.265474      -279.3378
  55   2.0000     -10.262311      -279.2517
  56   2.0000     -10.260381      -279.1992
  57   2.0000     -10.259666      -279.1797
  58   2.0000      -8.071292      -219.6310
  59   2.0000      -6.040385      -164.3672
  60   2.0000      -6.036444      -164.2600
  61   2.0000      -6.033619      -164.1831
  62   2.0000      -1.329030       -36.1647
  63   2.0000      -1.328172       -36.1414
  64   2.0000      -1.319874       -35.9156
  65   2.0000      -1.146715       -31.2037
  66   2.0000      -1.146714       -31.2037
  67   2.0000      -1.137871       -30.9630
  68   2.0000      -1.132659       -30.8212
  69   2.0000      -1.125946       -30.6385
  70   2.0000      -1.062916       -28.9234
  71   2.0000      -1.054875       -28.7046
  72   2.0000      -1.011984       -27.5375
  73   2.0000      -0.995121       -27.0786
  74   2.0000      -0.992785       -27.0151
  75   2.0000      -0.986740       -26.8506
  76   2.0000      -0.981063       -26.6961
  77   2.0000      -0.933460       -25.4007
  78   2.0000      -0.929416       -25.2907
  79   2.0000      -0.924650       -25.1610
  80   2.0000      -0.919137       -25.0110
  81   2.0000      -0.907861       -24.7042
  82   2.0000      -0.901930       -24.5428
  83   2.0000      -0.898704       -24.4550
  84   2.0000      -0.893403       -24.3107
  85   2.0000      -0.885059       -24.0837
  86   2.0000      -0.876123       -23.8405
  87   2.0000      -0.870747       -23.6942
  88   2.0000      -0.856647       -23.3106
  89   2.0000      -0.850032       -23.1305
  90   2.0000      -0.832243       -22.6465
  91   2.0000      -0.824147       -22.4262
  92   2.0000      -0.820277       -22.3209
  93   2.0000      -0.797733       -21.7074
  94   2.0000      -0.794338       -21.6150
  95   2.0000      -0.788357       -21.4523
  96   2.0000      -0.779526       -21.2120
  97   2.0000      -0.773607       -21.0509
  98   2.0000      -0.760742       -20.7008
  99   2.0000      -0.745026       -20.2732
 100   2.0000      -0.741149       -20.1677
 101   2.0000      -0.721804       -19.6413
 102   2.0000      -0.717914       -19.5354
 103   2.0000      -0.712326       -19.3834
 104   2.0000      -0.709367       -19.3029
 105   2.0000      -0.699258       -19.0278
 106   2.0000      -0.695093       -18.9144
 107   2.0000      -0.683027       -18.5861
 108   2.0000      -0.678047       -18.4506
 109   2.0000      -0.662854       -18.0372
 110   2.0000      -0.659254       -17.9392
 111   2.0000      -0.656084       -17.8530
 112   2.0000      -0.651596       -17.7308
 113   2.0000      -0.648913       -17.6578
 114   2.0000      -0.647734       -17.6257
 115   2.0000      -0.639633       -17.4053
 116   2.0000      -0.636881       -17.3304
 117   2.0000      -0.630343       -17.1525
 118   2.0000      -0.628251       -17.0956
 119   2.0000      -0.620408       -16.8822
 120   2.0000      -0.614573       -16.7234
 121   2.0000      -0.612729       -16.6732
 122   2.0000      -0.606373       -16.5002
 123   2.0000      -0.602719       -16.4008
 124   2.0000      -0.598612       -16.2890
 125   2.0000      -0.594825       -16.1860
 126   2.0000      -0.590461       -16.0673
 127   2.0000      -0.589578       -16.0432
 128   2.0000      -0.586846       -15.9689
 129   2.0000      -0.579972       -15.7818
 130   2.0000      -0.579153       -15.7595
 131   2.0000      -0.576678       -15.6922
 132   2.0000      -0.567542       -15.4436
 133   2.0000      -0.566936       -15.4271
 134   2.0000      -0.554036       -15.0761
 135   2.0000      -0.552829       -15.0432
 136   2.0000      -0.550844       -14.9892
 137   2.0000      -0.548807       -14.9338
 138   2.0000      -0.546384       -14.8679
 139   2.0000      -0.540338       -14.7034
 140   2.0000      -0.536810       -14.6073
 141   2.0000      -0.534316       -14.5395
 142   2.0000      -0.531204       -14.4548
 143   2.0000      -0.528732       -14.3875
 144   2.0000      -0.526779       -14.3344
 145   2.0000      -0.519185       -14.1277
 146   2.0000      -0.517280       -14.0759
 147   2.0000      -0.514856       -14.0099
 148   2.0000      -0.513813       -13.9816
 149   2.0000      -0.511574       -13.9206
 150   2.0000      -0.506266       -13.7762
 151   2.0000      -0.498917       -13.5762
 152   2.0000      -0.493625       -13.4322
 153   2.0000      -0.492868       -13.4116
 154   2.0000      -0.491165       -13.3653
 155   2.0000      -0.488108       -13.2821
 156   2.0000      -0.480387       -13.0720
 157   2.0000      -0.479413       -13.0455
 158   2.0000      -0.475983       -12.9522
 159   2.0000      -0.474657       -12.9161
 160   2.0000      -0.469042       -12.7633
 161   2.0000      -0.467729       -12.7275
 162   2.0000      -0.463453       -12.6112
 163   2.0000      -0.460119       -12.5205
 164   2.0000      -0.457955       -12.4616
 165   2.0000      -0.455990       -12.4081
 166   2.0000      -0.454134       -12.3576
 167   2.0000      -0.450382       -12.2555
 168   2.0000      -0.447206       -12.1691
 169   2.0000      -0.443656       -12.0725
 170   2.0000      -0.442904       -12.0520
 171   2.0000      -0.439416       -11.9571
 172   2.0000      -0.436992       -11.8912
 173   2.0000      -0.436510       -11.8780
 174   2.0000      -0.435551       -11.8519
 175   2.0000      -0.434203       -11.8153
 176   2.0000      -0.428870       -11.6701
 177   2.0000      -0.427123       -11.6226
 178   2.0000      -0.424543       -11.5524
 179   2.0000      -0.414582       -11.2813
 180   2.0000      -0.408828       -11.1248
 181   2.0000      -0.404506       -11.0072
 182   2.0000      -0.395591       -10.7646
 183   2.0000      -0.390933       -10.6378
 184   2.0000      -0.389191       -10.5904
 185   2.0000      -0.386127       -10.5070
 186   2.0000      -0.385507       -10.4902
 187   2.0000      -0.385128       -10.4799
 188   2.0000      -0.381600       -10.3839
 189   2.0000      -0.376803       -10.2533
 190   2.0000      -0.373230       -10.1561
 191   2.0000      -0.367413        -9.9978
 192   2.0000      -0.365541        -9.9469
 193   2.0000      -0.352647        -9.5960
 194   2.0000      -0.347722        -9.4620
 195   2.0000      -0.347153        -9.4465
 196   2.0000      -0.343792        -9.3551
 197   2.0000      -0.340363        -9.2617
 198   2.0000      -0.335355        -9.1255
 199   2.0000      -0.332868        -9.0578
 200   2.0000      -0.331187        -9.0121
 201   2.0000      -0.319196        -8.6858
 202   2.0000      -0.314648        -8.5620
 203   2.0000      -0.286139        -7.7862
 204   2.0000      -0.280911        -7.6440
 205   2.0000      -0.233523        -6.3545
 206   0.0000      -0.093339        -2.5399
 207   0.0000      -0.063983        -1.7411
 208   0.0000      -0.054242        -1.4760
 209   0.0000      -0.047617        -1.2957
 210   0.0000      -0.041659        -1.1336

MULLIKEN ATOMIC CHARGES
-----------------------
   0 C :    0.014495
   1 C :    0.022182
   2 C :    0.073483
   3 N :    0.222243
   4 O :   -0.236615
   5 O :   -0.216990
   6 C :    0.101270
   7 C :   -0.034002
   8 C :    0.055972
   9 C :   -0.022693
  10 C :    0.091369
  11 C :   -0.077192
  12 S :    0.135767
  13 C :   -0.045246
  14 C :   -0.062178
  15 C :    0.016498
  16 C :   -0.181809
  17 N :    0.144931
  18 C :    0.000879
  19 C :   -0.038297
  20 C :    0.135840
  21 N :   -0.256297
  22 C :    0.101584
  23 C :    0.004537
  24 C :    0.163773
  25 O :   -0.221880
  26 C :   -0.067190
  27 C :   -0.061422
  28 C :    0.161523
  29 O :   -0.198856
  30 N :   -0.257812
  31 C :    0.100631
  32 C :    0.004019
  33 C :    0.130482
  34 C :    0.007156
  35 C :    0.002430
  36 C :    0.108647
  37 C :   -0.067195
  38 C :    0.148502
  39 N :    0.246624
  40 O :   -0.233194
  41 O :   -0.236402
  42 C :    0.045216
  43 C :   -0.030627
  44 C :    0.017865
  45 C :    0.017324
  46 C :   -0.004648
  47 C :    0.103739
  48 C :   -0.075839
  49 C :    0.141307
  50 N :    0.242433
  51 O :   -0.239227
  52 O :   -0.230012
  53 C :    0.040129
  54 C :   -0.032378
  55 C :    0.018833
  56 C :    0.000404
  57 C :   -0.019989
  58 H :    0.004345
  59 H :    0.005099
  60 H :   -0.011463
  61 H :    0.001265
  62 H :    0.003108
  63 H :   -0.000505
  64 H :   -0.004304
  65 H :    0.039894
  66 H :   -0.020399
  67 H :    0.041305
  68 H :    0.023755
  69 H :    0.028257
  70 H :    0.024091
  71 H :    0.014576
  72 H :    0.048141
  73 H :    0.023997
  74 H :    0.031309
  75 H :    0.025691
  76 H :    0.013167
  77 H :   -0.028528
  78 H :    0.004785
  79 H :   -0.001361
  80 H :   -0.008320
  81 H :    0.007171
  82 H :    0.012554
  83 H :   -0.006527
  84 H :   -0.001682
  85 H :   -0.011238
  86 H :   -0.000095
  87 H :    0.015082
  88 H :    0.021674
  89 H :    0.031063
Sum of atomic charges:   -0.0000000

LOEWDIN ATOMIC CHARGES
----------------------
   0 C :   -0.017277
   1 C :    0.003348
   2 C :   -0.025423
   3 N :    0.278952
   4 O :   -0.203214
   5 O :   -0.191392
   6 C :   -0.007887
   7 C :   -0.008560
   8 C :   -0.000093
   9 C :   -0.010095
  10 C :   -0.026854
  11 C :   -0.155412
  12 S :    0.459343
  13 C :   -0.146154
  14 C :   -0.089018
  15 C :   -0.025500
  16 C :   -0.033174
  17 N :   -0.040455
  18 C :    0.008737
  19 C :   -0.048620
  20 C :    0.069962
  21 N :   -0.000507
  22 C :    0.036537
  23 C :   -0.061144
  24 C :    0.079494
  25 O :   -0.211225
  26 C :   -0.124369
  27 C :   -0.116946
  28 C :    0.079592
  29 O :   -0.189696
  30 N :    0.000790
  31 C :    0.036573
  32 C :   -0.060614
  33 C :    0.078693
  34 C :   -0.043957
  35 C :    0.032329
  36 C :   -0.031325
  37 C :    0.017527
  38 C :   -0.029979
  39 N :    0.286937
  40 O :   -0.202357
  41 O :   -0.196004
  42 C :    0.002224
  43 C :   -0.009416
  44 C :    0.020867
  45 C :   -0.012847
  46 C :   -0.008261
  47 C :   -0.026036
  48 C :    0.006382
  49 C :   -0.029805
  50 N :    0.284721
  51 O :   -0.206782
  52 O :   -0.190297
  53 C :   -0.000488
  54 C :   -0.006229
  55 C :    0.014748
  56 C :   -0.018552
  57 C :   -0.031526
  58 H :    0.036093
  59 H :    0.041503
  60 H :    0.034009
  61 H :    0.035587
  62 H :    0.033188
  63 H :    0.028322
  64 H :    0.038083
  65 H :    0.047532
  66 H :    0.021781
  67 H :    0.037337
  68 H :    0.023275
  69 H :    0.031958
  70 H :    0.030830
  71 H :    0.021506
  72 H :    0.040116
  73 H :    0.023086
  74 H :    0.033102
  75 H :    0.031826
  76 H :    0.020798
  77 H :    0.027654
  78 H :    0.037568
  79 H :    0.036132
  80 H :    0.035485
  81 H :    0.041808
  82 H :    0.027936
  83 H :    0.029634
  84 H :    0.038234
  85 H :    0.035065
  86 H :    0.037071
  87 H :    0.032250
  88 H :    0.022063
  89 H :    0.028903

  Mayer bond orders larger than 0.100000
B(  0-C ,  1-C ) :   1.3661 B(  0-C ,  8-C ) :   1.3657 B(  0-C , 58-H ) :   0.9922
B(  1-C ,  2-C ) :   1.4104 B(  1-C , 59-H ) :   0.9906 B(  2-C ,  3-N ) :   0.8587
B(  2-C ,  6-C ) :   1.3728 B(  3-N ,  4-O ) :   1.5319 B(  3-N ,  5-O ) :   1.5522
B(  4-O ,  5-O ) :   0.2729 B(  6-C ,  7-C ) :   1.3551 B(  6-C ,  9-C ) :   1.0480
B(  7-C ,  8-C ) :   1.3892 B(  7-C , 60-H ) :   0.9963 B(  8-C , 61-H ) :   0.9937
B(  9-C , 10-C ) :   1.7683 B(  9-C , 62-H ) :   0.9585 B( 10-C , 11-C ) :   1.1187
B( 10-C , 63-H ) :   0.9497 B( 11-C , 12-S ) :   1.1246 B( 11-C , 15-C ) :   1.4994
B( 12-S , 13-C ) :   1.1144 B( 13-C , 14-C ) :   1.4353 B( 13-C , 18-C ) :   1.1916
B( 14-C , 15-C ) :   1.2901 B( 14-C , 16-C ) :   1.1061 B( 15-C , 64-H ) :   0.9987
B( 16-C , 17-N ) :   3.0236 B( 18-C , 19-C ) :   1.5738 B( 18-C , 65-H ) :   0.9429
B( 19-C , 20-C ) :   1.1687 B( 19-C , 66-H ) :   0.9600 B( 20-C , 21-N ) :   1.1494
B( 20-C , 27-C ) :   1.3521 B( 21-N , 22-C ) :   0.9483 B( 21-N , 24-C ) :   1.0692
B( 22-C , 23-C ) :   1.1206 B( 22-C , 67-H ) :   0.9276 B( 22-C , 68-H ) :   0.9501
B( 23-C , 69-H ) :   0.9635 B( 23-C , 70-H ) :   0.9678 B( 23-C , 71-H ) :   0.9684
B( 24-C , 25-O ) :   2.0109 B( 24-C , 26-C ) :   0.9895 B( 25-O , 78-H ) :   0.1178
B( 26-C , 27-C ) :   1.2463 B( 26-C , 33-C ) :   1.3453 B( 27-C , 28-C ) :   0.9847
B( 28-C , 29-O ) :   2.0372 B( 28-C , 30-N ) :   1.0539 B( 29-O , 65-H ) :   0.1084
B( 30-N , 31-C ) :   0.9439 B( 30-N , 33-C ) :   1.1672 B( 31-C , 32-C ) :   1.1210
B( 31-C , 72-H ) :   0.9270 B( 31-C , 73-H ) :   0.9497 B( 32-C , 74-H ) :   0.9635
B( 32-C , 75-H ) :   0.9681 B( 32-C , 76-H ) :   0.9683 B( 33-C , 34-C ) :   1.1436
B( 34-C , 35-C ) :   1.6210 B( 34-C , 77-H ) :   0.9558 B( 35-C , 36-C ) :   1.0724
B( 35-C , 78-H ) :   0.9668 B( 36-C , 37-C ) :   1.2939 B( 36-C , 44-C ) :   1.3102
B( 37-C , 38-C ) :   1.3814 B( 37-C , 79-H ) :   0.9867 B( 38-C , 39-N ) :   0.8833
B( 38-C , 42-C ) :   1.3387 B( 39-N , 40-O ) :   1.5503 B( 39-N , 41-O ) :   1.5209
B( 40-O , 41-O ) :   0.2624 B( 42-C , 43-C ) :   1.3478 B( 42-C , 45-C ) :   1.0581
B( 43-C , 44-C ) :   1.3882 B( 43-C , 80-H ) :   0.9906 B( 44-C , 81-H ) :   1.0020
B( 45-C , 46-C ) :   1.7753 B( 45-C , 82-H ) :   0.9358 B( 46-C , 47-C ) :   1.0558
B( 46-C , 83-H ) :   0.9794 B( 47-C , 48-C ) :   1.3036 B( 47-C , 55-C ) :   1.3301
B( 48-C , 49-C ) :   1.3581 B( 48-C , 84-H ) :   1.0010 B( 49-C , 50-N ) :   0.8819
B( 49-C , 53-C ) :   1.3642 B( 50-N , 51-O ) :   1.5511 B( 50-N , 52-O ) :   1.5309
B( 51-O , 52-O ) :   0.2656 B( 53-C , 54-C ) :   1.3524 B( 53-C , 56-C ) :   1.0429
B( 54-C , 55-C ) :   1.4027 B( 54-C , 85-H ) :   0.9897 B( 55-C , 86-H ) :   0.9914
B( 56-C , 57-C ) :   1.9747 B( 56-C , 87-H ) :   0.9448 B( 57-C , 88-H ) :   0.9609
B( 57-C , 89-H ) :   0.9515

-----------------------------------------------------------------------------
         ABSORPTION SPECTRUM VIA TRANSITION ELECTRIC DIPOLE MOMENTS
-----------------------------------------------------------------------------
State   Energy  Wavelength   fosc         T2         TX        TY        TZ
        (cm-1)    (nm)                  (au**2)     (au)      (au)      (au)
-----------------------------------------------------------------------------
   0   15209.2    657.5   1.138407103  24.64147   4.53698  -1.73487   1.02350
   1   23159.3    431.8   0.027176154   0.38631  -0.19291   0.46938  -0.35886
   2   24945.8    400.9   0.028723672   0.37907  -0.06682  -0.45060   0.41421
   3   25867.8    386.6   0.437930025   5.57340  -1.99181   1.03829  -0.72668
   4   27108.7    368.9   0.110522833   1.34221  -0.73509   0.60363  -0.66143
   5   27651.1    361.6   0.070298108   0.83696   0.30652  -0.47828   0.71712
   6   28415.5    351.9   0.694538465   8.04667  -1.91318   1.74435  -1.15916
   7   29028.1    344.5   0.001572124   0.01783   0.05740  -0.00632   0.12040
   8   30630.0    326.5   0.120226206   1.29219  -1.03662   0.26805  -0.38180
   9   31040.0    322.2   0.002706714   0.02871  -0.10175  -0.10224   0.08889
  10   32143.3    311.1   0.262899194   2.69262  -0.61508   0.99149  -1.15379
  11   32556.0    307.2   0.007383869   0.07467  -0.15739   0.17319  -0.14106
  12   33321.8    300.1   0.049107946   0.48518   0.04943  -0.64513   0.25795
  13   34025.6    293.9   0.224532116   2.17244  -1.38034   0.49066  -0.16237
  14   34944.2    286.2   0.027255752   0.25678   0.05313  -0.39513   0.31277
  15   36104.8    277.0   0.128979061   1.17606  -0.67144   0.59119  -0.61296
  16   36384.2    274.8   0.169796149   1.53635   0.49194   0.76907  -0.83838
  17   37501.6    266.7   0.019670392   0.17268  -0.26795  -0.27823   0.15319
  18   37918.2    263.7   0.231029551   2.00584  -0.91230   0.84646  -0.67606
  19   38324.7    260.9   0.021062094   0.18092   0.40193  -0.03861  -0.13375
  20   38503.0    259.7   0.042747458   0.36550   0.50628  -0.20921  -0.25577
  21   39145.7    255.5   0.029706617   0.24983   0.34742  -0.34733   0.09218
  22   39330.0    254.3   0.052450519   0.43904  -0.17903   0.42367  -0.47695

FINAL SINGLE POINT ENERGY     -2982.698432894792

DIPOLE MOMENT
-------------
                                X             Y             Z
Electronic contribution:     11.07753     -11.06143      -3.07314
Nuclear contribution   :     -8.39895      10.73581       3.89845
                        -----------------------------------------
Total Dipole Moment    :      2.67858      -0.32562       0.82532
                        -----------------------------------------
Magnitude (a.u.)       :      2.82170
Magnitude (Debye)      :      7.17219

Rotational constants in cm-1:     0.003975     0.000275     0.000260
Rotational constants in MHz :   119.163700     8.239473     7.791677

                             ****ORCA TERMINATED NORMALLY****
TOTAL RUN TIME: 0 days 0 hours 6 minutes 46 seconds 652 msec
