                         Program Version 4.2.0 -  RELEASE  -
|  1> # ORCA input file
|  2> # SCF done       -169.143768015825          0.000453139110
|  3> ! CAM-B3LYP def2-SVP def2/J RIJCOSX Grid4 TightSCF
|  4> %maxcore 5000
|  5> %tddft
|  6>     Mode sTDDFT
|  7>     Ethresh 5.0
|  8>     maxcore 5000
|  9> end
| 10>
| 11> %pal
| 12>   nprocs 6
| 13>   end
| 14> * xyz 0 1
| 15>    C       -1.62307         1.66634         3.30257
| 16>    C       -1.02889         1.25398         2.15278
| 17>    C       -0.19721         1.83703         1.08011
| 18>    O        0.23770         2.95180         0.94991
| 19>    N        0.00878         0.78903         0.19295
| 20>    C        0.77556         0.92344        -1.02108
| 21>    C       -0.58716        -0.41230         0.57184
| 22>    O       -0.52816        -1.43217        -0.06490
| 23>    C       -1.25413        -0.11421         1.84950
| 24>    C       -2.03323        -0.76515         2.77815
| 25>    S       -2.48365         0.37264         4.04222
| 26>    C       -2.47632        -2.11392         2.82773
| 27>    C       -2.11874        -3.15210         1.99916
| 28>    C       -2.81251        -4.32848         2.41580
| 29>    C       -3.65864        -3.93088         3.55799
| 30>    C       -3.43730        -2.61361         3.80105
| 31>    C       -4.59860        -4.70993         4.24532
| 32>    N       -5.41743        -5.27649         4.81712
| 33>    C       -2.72645        -5.59016         1.87286
| 34>    C       -3.42503        -6.75494         2.29408
| 35>    C       -3.16117        -7.78851         1.41246
| 36>    C       -2.22551        -7.28981         0.41437
| 37>    C       -1.93927        -5.99125         0.69358
| 38>    C       -1.01401        -5.22771        -0.03159
| 39>    N       -0.22371        -4.68001        -0.65820
| 40>    C       -3.73726        -9.07765         1.52058
| 41>    N       -3.83346       -10.02574         0.53466
| 42>    C       -3.39153        -9.92911        -0.83057
| 43>    C       -4.53896       -11.16680         0.96787
| 44>    O       -4.77130       -12.11767         0.25194
| 45>    C       -4.86244       -10.88570         2.34957
| 46>    C       -4.36393        -9.60618         2.65866
| 47>    C       -4.62844        -9.34443         4.06188
| 48>    O       -4.35519        -8.41717         4.78796
| 49>    N       -5.31484       -10.49650         4.49756
| 50>    C       -5.78756       -10.61394         5.85024
| 51>    C       -5.46931       -11.42184         3.49706
| 52>    C       -6.14376       -12.64677         3.66439
| 53>    C       -6.32554       -13.53383         2.64085
| 54>    C       -7.03231       -14.75082         2.74525
| 55>    C       -7.28999       -15.61601         1.69641
| 56>    C       -8.06000       -16.71397         2.16724
| 57>    C       -8.25206       -16.48372         3.61333
| 58>    C       -7.64306       -15.31591         3.94211
| 59>    C       -8.93720       -17.30511         4.51629
| 60>    N       -9.48868       -17.95034         5.29041
| 61>    C       -8.56414       -17.76800         1.43900
| 62>    C       -9.36760       -18.84528         1.91761
| 63>    C       -9.69658       -19.66252         0.86227
| 64>    C       -9.08787       -19.11863        -0.34535
| 65>    C       -8.40780       -17.99151        -0.01057
| 66>    C       -7.68880       -17.19383        -0.90877
| 67>    N       -7.10665       -16.55788        -1.66725
| 68>    C      -10.49835       -20.83398         0.91705
| 69>    C      -10.92508       -21.68456        -0.07920
| 70>    C      -10.80658       -21.83119        -1.53974
| 71>    O      -10.22303       -21.16136        -2.35636
| 72>    N      -11.54779       -22.96650        -1.84879
| 73>    C      -11.69517       -23.46088        -3.19550
| 74>    C      -12.14083       -23.58095        -0.75153
| 75>    O      -12.82710       -24.56783        -0.80122
| 76>    C      -11.73569       -22.74971         0.39777
| 77>    C      -11.93445       -22.73130         1.74139
| 78>    S      -11.12673       -21.39457         2.46174
| 79>    H       -1.61483         2.63629         3.75828
| 80>    H        1.48241         1.74146        -0.89299
| 81>    H        0.11971         1.14173        -1.86636
| 82>    H        1.29885        -0.01273        -1.21053
| 83>    H       -1.43122        -3.09591         1.17748
| 84>    H       -3.89726        -2.01429         4.56530
| 85>    H       -4.06541        -6.81110         3.15187
| 86>    H       -1.78680        -7.85987        -0.38106
| 87>    H       -3.71804        -8.99092        -1.28004
| 88>    H       -3.84234       -10.76585        -1.36628
| 89>    H       -2.30563       -10.01855        -0.90127
| 90>    H       -5.49871        -9.69705         6.36463
| 91>    H       -5.32938       -11.46752         6.35349
| 92>    H       -6.87445       -10.71150         5.87813
| 93>    H       -6.54195       -12.86091         4.64572
| 94>    H       -5.92262       -13.29959         1.66388
| 95>    H       -6.97104       -15.47480         0.68233
| 96>    H       -7.61162       -14.88327         4.92466
| 97>    H       -9.66978       -18.98410         2.93738
| 98>    H       -9.17948       -19.55374        -1.32266
| 99>    H      -11.29072       -22.71164        -3.87372
|100>    H      -12.75009       -23.63458        -3.40721
|101>    H      -11.15197       -24.39951        -3.31633
|102>    H      -12.49895       -23.41148         2.34762
|103> *
|104>
|105>                          ****END OF INPUT****

CARTESIAN COORDINATES (ANGSTROEM)
---------------------------------
  C     -1.623070    1.666340    3.302570
  C     -1.028890    1.253980    2.152780
  C     -0.197210    1.837030    1.080110
  O      0.237700    2.951800    0.949910
  N      0.008780    0.789030    0.192950
  C      0.775560    0.923440   -1.021080
  C     -0.587160   -0.412300    0.571840
  O     -0.528160   -1.432170   -0.064900
  C     -1.254130   -0.114210    1.849500
  C     -2.033230   -0.765150    2.778150
  S     -2.483650    0.372640    4.042220
  C     -2.476320   -2.113920    2.827730
  C     -2.118740   -3.152100    1.999160
  C     -2.812510   -4.328480    2.415800
  C     -3.658640   -3.930880    3.557990
  C     -3.437300   -2.613610    3.801050
  C     -4.598600   -4.709930    4.245320
  N     -5.417430   -5.276490    4.817120
  C     -2.726450   -5.590160    1.872860
  C     -3.425030   -6.754940    2.294080
  C     -3.161170   -7.788510    1.412460
  C     -2.225510   -7.289810    0.414370
  C     -1.939270   -5.991250    0.693580
  C     -1.014010   -5.227710   -0.031590
  N     -0.223710   -4.680010   -0.658200
  C     -3.737260   -9.077650    1.520580
  N     -3.833460  -10.025740    0.534660
  C     -3.391530   -9.929110   -0.830570
  C     -4.538960  -11.166800    0.967870
  O     -4.771300  -12.117670    0.251940
  C     -4.862440  -10.885700    2.349570
  C     -4.363930   -9.606180    2.658660
  C     -4.628440   -9.344430    4.061880
  O     -4.355190   -8.417170    4.787960
  N     -5.314840  -10.496500    4.497560
  C     -5.787560  -10.613940    5.850240
  C     -5.469310  -11.421840    3.497060
  C     -6.143760  -12.646770    3.664390
  C     -6.325540  -13.533830    2.640850
  C     -7.032310  -14.750820    2.745250
  C     -7.289990  -15.616010    1.696410
  C     -8.060000  -16.713970    2.167240
  C     -8.252060  -16.483720    3.613330
  C     -7.643060  -15.315910    3.942110
  C     -8.937200  -17.305110    4.516290
  N     -9.488680  -17.950340    5.290410
  C     -8.564140  -17.768000    1.439000
  C     -9.367600  -18.845280    1.917610
  C     -9.696580  -19.662520    0.862270
  C     -9.087870  -19.118630   -0.345350
  C     -8.407800  -17.991510   -0.010570
  C     -7.688800  -17.193830   -0.908770
  N     -7.106650  -16.557880   -1.667250
  C    -10.498350  -20.833980    0.917050
  C    -10.925080  -21.684560   -0.079200
  C    -10.806580  -21.831190   -1.539740
  O    -10.223030  -21.161360   -2.356360
  N    -11.547790  -22.966500   -1.848790
  C    -11.695170  -23.460880   -3.195500
  C    -12.140830  -23.580950   -0.751530
  O    -12.827100  -24.567830   -0.801220
  C    -11.735690  -22.749710    0.397770
  C    -11.934450  -22.731300    1.741390
  S    -11.126730  -21.394570    2.461740
  H     -1.614830    2.636290    3.758280
  H      1.482410    1.741460   -0.892990
  H      0.119710    1.141730   -1.866360
  H      1.298850   -0.012730   -1.210530
  H     -1.431220   -3.095910    1.177480
  H     -3.897260   -2.014290    4.565300
  H     -4.065410   -6.811100    3.151870
  H     -1.786800   -7.859870   -0.381060
  H     -3.718040   -8.990920   -1.280040
  H     -3.842340  -10.765850   -1.366280
  H     -2.305630  -10.018550   -0.901270
  H     -5.498710   -9.697050    6.364630
  H     -5.329380  -11.467520    6.353490
  H     -6.874450  -10.711500    5.878130
  H     -6.541950  -12.860910    4.645720
  H     -5.922620  -13.299590    1.663880
  H     -6.971040  -15.474800    0.682330
  H     -7.611620  -14.883270    4.924660
  H     -9.669780  -18.984100    2.937380
  H     -9.179480  -19.553740   -1.322660
  H    -11.290720  -22.711640   -3.873720
  H    -12.750090  -23.634580   -3.407210
  H    -11.151970  -24.399510   -3.316330
  H    -12.498950  -23.411480    2.347620

 Total Charge           Charge          ....    0
 Multiplicity           Mult            ....    1
 Number of Electrons    NEL             ....  448
 Basis Dimension        Dim             .... 1024

ORBITAL ENERGIES
----------------

  NO   OCC          E(Eh)            E(eV)
   0   2.0000     -88.987737     -2421.4794
   1   2.0000     -88.987705     -2421.4786
   2   2.0000     -19.222765      -523.0780
   3   2.0000     -19.215644      -522.8843
   4   2.0000     -19.214503      -522.8532
   5   2.0000     -19.210808      -522.7527
   6   2.0000     -19.201649      -522.5034
   7   2.0000     -19.200785      -522.4799
   8   2.0000     -14.467474      -393.6800
   9   2.0000     -14.465358      -393.6224
  10   2.0000     -14.464535      -393.6000
  11   2.0000     -14.458129      -393.4257
  12   2.0000     -14.416653      -392.2971
  13   2.0000     -14.407016      -392.0348
  14   2.0000     -14.405159      -391.9843
  15   2.0000     -14.404707      -391.9720
  16   2.0000     -10.406766      -283.1825
  17   2.0000     -10.399325      -282.9800
  18   2.0000     -10.397142      -282.9206
  19   2.0000     -10.395477      -282.8753
  20   2.0000     -10.384050      -282.5644
  21   2.0000     -10.383912      -282.5606
  22   2.0000     -10.352161      -281.6966
  23   2.0000     -10.350741      -281.6580
  24   2.0000     -10.343278      -281.4549
  25   2.0000     -10.339699      -281.3575
  26   2.0000     -10.332567      -281.1634
  27   2.0000     -10.330399      -281.1044
  28   2.0000     -10.329969      -281.0927
  29   2.0000     -10.329413      -281.0776
  30   2.0000     -10.326822      -281.0071
  31   2.0000     -10.324828      -280.9529
  32   2.0000     -10.324184      -280.9353
  33   2.0000     -10.318603      -280.7835
  34   2.0000     -10.318271      -280.7744
  35   2.0000     -10.318245      -280.7737
  36   2.0000     -10.317157      -280.7441
  37   2.0000     -10.316802      -280.7344
  38   2.0000     -10.316386      -280.7231
  39   2.0000     -10.314020      -280.6587
  40   2.0000     -10.313642      -280.6485
  41   2.0000     -10.313043      -280.6322
  42   2.0000     -10.312673      -280.6221
  43   2.0000     -10.312457      -280.6162
  44   2.0000     -10.311212      -280.5823
  45   2.0000     -10.308806      -280.5169
  46   2.0000     -10.308379      -280.5053
  47   2.0000     -10.308140      -280.4987
  48   2.0000     -10.307678      -280.4862
  49   2.0000     -10.306577      -280.4562
  50   2.0000     -10.306327      -280.4494
  51   2.0000     -10.306197      -280.4459
  52   2.0000     -10.305368      -280.4233
  53   2.0000     -10.305309      -280.4217
  54   2.0000     -10.302518      -280.3458
  55   2.0000     -10.302475      -280.3446
  56   2.0000     -10.300954      -280.3032
  57   2.0000     -10.300206      -280.2828
  58   2.0000     -10.294554      -280.1291
  59   2.0000     -10.293362      -280.0966
  60   2.0000     -10.288563      -279.9660
  61   2.0000     -10.286554      -279.9114
  62   2.0000     -10.276453      -279.6365
  63   2.0000     -10.274797      -279.5914
  64   2.0000      -8.083013      -219.9500
  65   2.0000      -8.082989      -219.9493
  66   2.0000      -6.052361      -164.6931
  67   2.0000      -6.052361      -164.6931
  68   2.0000      -6.047820      -164.5696
  69   2.0000      -6.047790      -164.5687
  70   2.0000      -6.045418      -164.5042
  71   2.0000      -6.045333      -164.5019
  72   2.0000      -1.166818       -31.7507
  73   2.0000      -1.160087       -31.5676
  74   2.0000      -1.145049       -31.1584
  75   2.0000      -1.142474       -31.0883
  76   2.0000      -1.138441       -30.9786
  77   2.0000      -1.136453       -30.9245
  78   2.0000      -1.075316       -29.2608
  79   2.0000      -1.066714       -29.0268
  80   2.0000      -1.057469       -28.7752
  81   2.0000      -1.051645       -28.6167
  82   2.0000      -1.023734       -27.8572
  83   2.0000      -1.019902       -27.7530
  84   2.0000      -1.012644       -27.5555
  85   2.0000      -1.007960       -27.4280
  86   2.0000      -1.001208       -27.2442
  87   2.0000      -0.996895       -27.1269
  88   2.0000      -0.991008       -26.9667
  89   2.0000      -0.982255       -26.7285
  90   2.0000      -0.982219       -26.7275
  91   2.0000      -0.978439       -26.6247
  92   2.0000      -0.933673       -25.4065
  93   2.0000      -0.922227       -25.0951
  94   2.0000      -0.901740       -24.5376
  95   2.0000      -0.899569       -24.4785
  96   2.0000      -0.890133       -24.2217
  97   2.0000      -0.888511       -24.1776
  98   2.0000      -0.878528       -23.9060
  99   2.0000      -0.866860       -23.5885
 100   2.0000      -0.858847       -23.3704
 101   2.0000      -0.856393       -23.3036
 102   2.0000      -0.849300       -23.1106
 103   2.0000      -0.836897       -22.7731
 104   2.0000      -0.834162       -22.6987
 105   2.0000      -0.811995       -22.0955
 106   2.0000      -0.805398       -21.9160
 107   2.0000      -0.803507       -21.8645
 108   2.0000      -0.800480       -21.7822
 109   2.0000      -0.777136       -21.1470
 110   2.0000      -0.776639       -21.1334
 111   2.0000      -0.767670       -20.8894
 112   2.0000      -0.756646       -20.5894
 113   2.0000      -0.750839       -20.4314
 114   2.0000      -0.732714       -19.9382
 115   2.0000      -0.723140       -19.6776
 116   2.0000      -0.721936       -19.6449
 117   2.0000      -0.717484       -19.5237
 118   2.0000      -0.713342       -19.4110
 119   2.0000      -0.697919       -18.9913
 120   2.0000      -0.689328       -18.7576
 121   2.0000      -0.687203       -18.6998
 122   2.0000      -0.684455       -18.6250
 123   2.0000      -0.678277       -18.4569
 124   2.0000      -0.676836       -18.4176
 125   2.0000      -0.676436       -18.4068
 126   2.0000      -0.670046       -18.2329
 127   2.0000      -0.668406       -18.1883
 128   2.0000      -0.646375       -17.5888
 129   2.0000      -0.642192       -17.4749
 130   2.0000      -0.632349       -17.2071
 131   2.0000      -0.621572       -16.9138
 132   2.0000      -0.608317       -16.5531
 133   2.0000      -0.599912       -16.3244
 134   2.0000      -0.595766       -16.2116
 135   2.0000      -0.585937       -15.9442
 136   2.0000      -0.585593       -15.9348
 137   2.0000      -0.582221       -15.8430
 138   2.0000      -0.580032       -15.7835
 139   2.0000      -0.576448       -15.6860
 140   2.0000      -0.574215       -15.6252
 141   2.0000      -0.567220       -15.4348
 142   2.0000      -0.564791       -15.3687
 143   2.0000      -0.564339       -15.3564
 144   2.0000      -0.561462       -15.2781
 145   2.0000      -0.559957       -15.2372
 146   2.0000      -0.552799       -15.0424
 147   2.0000      -0.550651       -14.9840
 148   2.0000      -0.546686       -14.8761
 149   2.0000      -0.542787       -14.7700
 150   2.0000      -0.536923       -14.6104
 151   2.0000      -0.530185       -14.4271
 152   2.0000      -0.529372       -14.4049
 153   2.0000      -0.527475       -14.3533
 154   2.0000      -0.526083       -14.3154
 155   2.0000      -0.524567       -14.2742
 156   2.0000      -0.523870       -14.2552
 157   2.0000      -0.521180       -14.1820
 158   2.0000      -0.520794       -14.1715
 159   2.0000      -0.518554       -14.1106
 160   2.0000      -0.516952       -14.0670
 161   2.0000      -0.513784       -13.9808
 162   2.0000      -0.510595       -13.8940
 163   2.0000      -0.509007       -13.8508
 164   2.0000      -0.505093       -13.7443
 165   2.0000      -0.504171       -13.7192
 166   2.0000      -0.498326       -13.5601
 167   2.0000      -0.495710       -13.4890
 168   2.0000      -0.493854       -13.4385
 169   2.0000      -0.493099       -13.4179
 170   2.0000      -0.492169       -13.3926
 171   2.0000      -0.489968       -13.3327
 172   2.0000      -0.489381       -13.3167
 173   2.0000      -0.488867       -13.3028
 174   2.0000      -0.484673       -13.1886
 175   2.0000      -0.483784       -13.1644
 176   2.0000      -0.481877       -13.1125
 177   2.0000      -0.481186       -13.0937
 178   2.0000      -0.479004       -13.0343
 179   2.0000      -0.477771       -13.0008
 180   2.0000      -0.474921       -12.9233
 181   2.0000      -0.472726       -12.8635
 182   2.0000      -0.472410       -12.8549
 183   2.0000      -0.471917       -12.8415
 184   2.0000      -0.467485       -12.7209
 185   2.0000      -0.462950       -12.5975
 186   2.0000      -0.457795       -12.4572
 187   2.0000      -0.455181       -12.3861
 188   2.0000      -0.448109       -12.1937
 189   2.0000      -0.446921       -12.1613
 190   2.0000      -0.445392       -12.1197
 191   2.0000      -0.440414       -11.9843
 192   2.0000      -0.436060       -11.8658
 193   2.0000      -0.434974       -11.8363
 194   2.0000      -0.433328       -11.7914
 195   2.0000      -0.432172       -11.7600
 196   2.0000      -0.430041       -11.7020
 197   2.0000      -0.429386       -11.6842
 198   2.0000      -0.420389       -11.4394
 199   2.0000      -0.412993       -11.2381
 200   2.0000      -0.410762       -11.1774
 201   2.0000      -0.400842       -10.9075
 202   2.0000      -0.395758       -10.7691
 203   2.0000      -0.388871       -10.5817
 204   2.0000      -0.372649       -10.1403
 205   2.0000      -0.367783       -10.0079
 206   2.0000      -0.365806        -9.9541
 207   2.0000      -0.361697        -9.8423
 208   2.0000      -0.359002        -9.7689
 209   2.0000      -0.358651        -9.7594
 210   2.0000      -0.356694        -9.7061
 211   2.0000      -0.353482        -9.6187
 212   2.0000      -0.347331        -9.4513
 213   2.0000      -0.342955        -9.3323
 214   2.0000      -0.340767        -9.2727
 215   2.0000      -0.337723        -9.1899
 216   2.0000      -0.330609        -8.9963
 217   2.0000      -0.329421        -8.9640
 218   2.0000      -0.328390        -8.9359
 219   2.0000      -0.314184        -8.5494
 220   2.0000      -0.309816        -8.4305
 221   2.0000      -0.292788        -7.9672
 222   2.0000      -0.289705        -7.8833
 223   2.0000      -0.241600        -6.5743
 224   0.0000      -0.140557        -3.8247
 225   0.0000      -0.123651        -3.3647
 226   0.0000      -0.066846        -1.8190
 227   0.0000      -0.038722        -1.0537
 228   0.0000      -0.033668        -0.9162

MULLIKEN ATOMIC CHARGES
-----------------------
   0 C :   -0.122317
   1 C :    0.014924
   2 C :    0.193845
   3 O :   -0.150686
   4 N :   -0.313503
   5 C :    0.136376
   6 C :    0.193255
   7 O :   -0.145486
   8 C :    0.014946
   9 C :   -0.137889
  10 S :    0.150793
  11 C :    0.108279
  12 C :   -0.136330
  13 C :    0.109089
  14 C :   -0.077372
  15 C :   -0.030923
  16 C :   -0.182776
  17 N :    0.148606
  18 C :    0.115837
  19 C :   -0.113922
  20 C :    0.048922
  21 C :   -0.038158
  22 C :   -0.081842
  23 C :   -0.190883
  24 N :    0.161460
  25 C :    0.146516
  26 N :   -0.265243
  27 C :    0.112793
  28 C :    0.161344
  29 O :   -0.194992
  30 C :   -0.071068
  31 C :   -0.054942
  32 C :    0.149715
  33 O :   -0.170988
  34 N :   -0.270567
  35 C :    0.114515
  36 C :    0.159881
  37 C :   -0.033802
  38 C :    0.017098
  39 C :    0.105031
  40 C :   -0.093020
  41 C :    0.114708
  42 C :   -0.096598
  43 C :   -0.006855
  44 C :   -0.171293
  45 N :    0.133869
  46 C :    0.117034
  47 C :   -0.139092
  48 C :    0.104508
  49 C :   -0.004269
  50 C :   -0.096027
  51 C :   -0.179290
  52 N :    0.145339
  53 C :   -0.145781
  54 C :    0.000554
  55 C :    0.207316
  56 O :   -0.165261
  57 N :   -0.311664
  58 C :    0.136834
  59 C :    0.190764
  60 O :   -0.147960
  61 C :    0.012737
  62 C :   -0.112852
  63 S :    0.173324
  64 H :    0.045824
  65 H :    0.048916
  66 H :    0.039793
  67 H :    0.051673
  68 H :    0.028601
  69 H :    0.006755
  70 H :    0.027662
  71 H :   -0.011344
  72 H :    0.040905
  73 H :    0.066377
  74 H :    0.044651
  75 H :    0.070104
  76 H :    0.035881
  77 H :    0.038312
  78 H :   -0.032532
  79 H :    0.019986
  80 H :    0.019787
  81 H :   -0.000746
  82 H :    0.009663
  83 H :    0.015313
  84 H :    0.054451
  85 H :    0.043842
  86 H :    0.041114
  87 H :    0.048450
Sum of atomic charges:    0.0000000

LOEWDIN ATOMIC CHARGES
----------------------
   0 C :   -0.136913
   1 C :   -0.090633
   2 C :    0.085555
   3 O :   -0.156459
   4 N :   -0.039026
   5 C :    0.037586
   6 C :    0.090365
   7 O :   -0.142031
   8 C :   -0.084224
   9 C :   -0.133592
  10 S :    0.467022
  11 C :   -0.036308
  12 C :   -0.006167
  13 C :    0.043868
  14 C :   -0.074176
  15 C :    0.040510
  16 C :   -0.036731
  17 N :   -0.047837
  18 C :    0.034387
  19 C :    0.012216
  20 C :   -0.034965
  21 C :    0.042794
  22 C :   -0.073333
  23 C :   -0.040548
  24 N :   -0.043251
  25 C :    0.070639
  26 N :   -0.003975
  27 C :    0.029405
  28 C :    0.079875
  29 O :   -0.187436
  30 C :   -0.115161
  31 C :   -0.101263
  32 C :    0.081842
  33 O :   -0.167906
  34 N :   -0.006529
  35 C :    0.028927
  36 C :    0.079897
  37 C :   -0.042225
  38 C :    0.041995
  39 C :   -0.022648
  40 C :   -0.000351
  41 C :    0.032796
  42 C :   -0.077248
  43 C :    0.052662
  44 C :   -0.030605
  45 N :   -0.061823
  46 C :    0.042641
  47 C :   -0.028009
  48 C :   -0.029574
  49 C :    0.063440
  50 C :   -0.083545
  51 C :   -0.030762
  52 N :   -0.056461
  53 C :   -0.132437
  54 C :   -0.088378
  55 C :    0.094221
  56 O :   -0.159430
  57 N :   -0.037416
  58 C :    0.037445
  59 C :    0.086477
  60 O :   -0.152359
  61 C :   -0.095692
  62 C :   -0.130480
  63 S :    0.484809
  64 H :    0.038141
  65 H :    0.036848
  66 H :    0.031535
  67 H :    0.038456
  68 H :    0.037248
  69 H :    0.032312
  70 H :    0.038992
  71 H :    0.035434
  72 H :    0.029910
  73 H :    0.044696
  74 H :    0.026841
  75 H :    0.046485
  76 H :    0.026936
  77 H :    0.028192
  78 H :    0.028777
  79 H :    0.044260
  80 H :    0.042097
  81 H :    0.035153
  82 H :    0.030033
  83 H :    0.038113
  84 H :    0.038355
  85 H :    0.035282
  86 H :    0.033060
  87 H :    0.039377

  Mayer bond orders larger than 0.100000
B(  0-C ,  1-C ) :   1.5662 B(  0-C , 10-S ) :   1.1683 B(  0-C , 64-H ) :   0.9708
B(  1-C ,  2-C ) :   0.8790 B(  1-C ,  8-C ) :   1.2536 B(  2-C ,  3-O ) :   2.2423
B(  2-C ,  4-N ) :   1.0650 B(  4-N ,  5-C ) :   0.9388 B(  4-N ,  6-C ) :   1.0754
B(  5-C , 65-H ) :   0.9644 B(  5-C , 66-H ) :   0.9815 B(  5-C , 67-H ) :   0.9668
B(  6-C ,  7-O ) :   2.1559 B(  6-C ,  8-C ) :   0.8957 B(  8-C ,  9-C ) :   1.5324
B(  9-C , 10-S ) :   1.1457 B(  9-C , 11-C ) :   1.1096 B( 11-C , 12-C ) :   1.5738
B( 11-C , 15-C ) :   1.0295 B( 12-C , 13-C ) :   1.0959 B( 12-C , 68-H ) :   0.9934
B( 13-C , 14-C ) :   1.0985 B( 13-C , 18-C ) :   1.4052 B( 14-C , 15-C ) :   1.6893
B( 14-C , 16-C ) :   1.0788 B( 15-C , 69-H ) :   1.0128 B( 16-C , 17-N ) :   2.9857
B( 18-C , 19-C ) :   1.1164 B( 18-C , 22-C ) :   1.0941 B( 19-C , 20-C ) :   1.5405
B( 19-C , 70-H ) :   0.9917 B( 20-C , 21-C ) :   1.0241 B( 20-C , 25-C ) :   1.0559
B( 21-C , 22-C ) :   1.6716 B( 21-C , 71-H ) :   1.0280 B( 22-C , 23-C ) :   1.0750
B( 23-C , 24-N ) :   2.9996 B( 25-C , 26-N ) :   1.2072 B( 25-C , 31-C ) :   1.3532
B( 26-N , 27-C ) :   0.9597 B( 26-N , 28-C ) :   1.0448 B( 27-C , 72-H ) :   0.9707
B( 27-C , 73-H ) :   0.9462 B( 27-C , 74-H ) :   0.9705 B( 28-C , 29-O ) :   2.0427
B( 28-C , 30-C ) :   0.9934 B( 29-O , 79-H ) :   0.1078 B( 30-C , 31-C ) :   1.2723
B( 30-C , 36-C ) :   1.2943 B( 31-C , 32-C ) :   0.9710 B( 32-C , 33-O ) :   2.1143
B( 32-C , 34-N ) :   1.0345 B( 34-N , 35-C ) :   0.9633 B( 34-N , 36-C ) :   1.1775
B( 35-C , 75-H ) :   0.9504 B( 35-C , 76-H ) :   0.9725 B( 35-C , 77-H ) :   0.9718
B( 36-C , 37-C ) :   1.1789 B( 37-C , 38-C ) :   1.5347 B( 37-C , 78-H ) :   0.9641
B( 38-C , 39-C ) :   1.1367 B( 38-C , 79-H ) :   0.9581 B( 39-C , 40-C ) :   1.4930
B( 39-C , 43-C ) :   1.0338 B( 40-C , 41-C ) :   1.1166 B( 40-C , 80-H ) :   1.0115
B( 41-C , 42-C ) :   1.1009 B( 41-C , 46-C ) :   1.4014 B( 42-C , 43-C ) :   1.6896
B( 42-C , 44-C ) :   1.0892 B( 43-C , 81-H ) :   1.0153 B( 44-C , 45-N ) :   2.9634
B( 46-C , 47-C ) :   1.1249 B( 46-C , 50-C ) :   1.1076 B( 47-C , 48-C ) :   1.5472
B( 47-C , 82-H ) :   0.9940 B( 48-C , 49-C ) :   1.0664 B( 48-C , 53-C ) :   1.1118
B( 49-C , 50-C ) :   1.6550 B( 49-C , 83-H ) :   1.0032 B( 50-C , 51-C ) :   1.0918
B( 51-C , 52-N ) :   2.9715 B( 53-C , 54-C ) :   1.5203 B( 53-C , 63-S ) :   1.1569
B( 54-C , 55-C ) :   0.8960 B( 54-C , 61-C ) :   1.2441 B( 55-C , 56-O ) :   2.1223
B( 55-C , 57-N ) :   1.0917 B( 57-N , 58-C ) :   0.9382 B( 57-N , 59-C ) :   1.0541
B( 58-C , 84-H ) :   0.9612 B( 58-C , 85-H ) :   0.9719 B( 58-C , 86-H ) :   0.9788
B( 59-C , 60-O ) :   2.2527 B( 59-C , 61-C ) :   0.8807 B( 61-C , 62-C ) :   1.5730
B( 62-C , 63-S ) :   1.1723 B( 62-C , 87-H ) :   0.9701

-----------------------------------------------------------------------------
         ABSORPTION SPECTRUM VIA TRANSITION ELECTRIC DIPOLE MOMENTS
-----------------------------------------------------------------------------
State   Energy  Wavelength   fosc         T2         TX        TY        TZ
        (cm-1)    (nm)                  (au**2)     (au)      (au)      (au)
-----------------------------------------------------------------------------
   0    7974.4   1254.0   0.721027029  29.76676   2.03592   5.05848   0.18327
   1   11646.0    858.7   0.074213521   2.09788   0.95874   1.00740   0.40476
   2   16089.3    621.5   0.013080405   0.26765  -0.28168   0.43083  -0.05184
   3   16303.8    613.4   0.144750060   2.92284   0.46121   1.38799   0.88522
   4   19352.8    516.7   0.037404312   0.63629  -0.14378   0.08526   0.77996
   5   19672.7    508.3   0.067148714   1.12370   0.53000   0.77088  -0.49854
   6   21969.9    455.2   0.263385004   3.94673   1.03341   1.50131  -0.79048
   7   23732.0    421.4   0.001259928   0.01748  -0.06519  -0.10825  -0.03885
   8   24758.6    403.9   0.730955437   9.71944  -1.21310  -2.61465  -1.18805
   9   25211.0    396.7   0.034634879   0.45227  -0.28945  -0.43943  -0.41880
  10   25959.8    385.2   0.222341723   2.81966  -0.07225  -1.64989  -0.30382
  11   26313.0    380.0   0.366410049   4.58430   0.53285   1.79482   1.03875
  12   26665.7    375.0   0.085900290   1.06052  -0.17928   0.98588   0.23750
  13   28035.7    356.7   0.002322690   0.02727  -0.10650  -0.03073   0.12242
  14   28681.5    348.7   0.054386497   0.62426  -0.25822  -0.74493   0.05153
  15   28720.4    348.2   0.002514324   0.02882  -0.08900  -0.13610  -0.04875
  16   28926.6    345.7   0.026290045   0.29921  -0.25331  -0.47596  -0.09223
  17   29058.9    344.1   0.027424157   0.31069   0.06180   0.22405   0.50663
  18   29084.5    343.8   0.007735560   0.08756   0.07646   0.26007   0.11864
  19   29120.7    343.4   0.003976203   0.04495  -0.10312  -0.13873   0.12277
  20   31226.2    320.2   0.000173948   0.00183  -0.02671   0.03228  -0.00885
  21   31437.6    318.1   0.012895266   0.13504   0.14640   0.32634   0.08429
  22   32448.7    308.2   0.248553445   2.52173   0.47505   1.51500  -0.02899
  23   32609.3    306.7   0.001713331   0.01730   0.02282   0.11844  -0.05242
  24   33052.2    302.6   0.331715227   3.30400  -0.87859  -1.51870  -0.47499
  25   33072.9    302.4   0.020930877   0.20835   0.05787  -0.12976  -0.43378
  26   33794.3    295.9   0.004819960   0.04695  -0.06255   0.14094   0.15225
  27   33820.8    295.7   0.067088587   0.65304  -0.49600  -0.53873   0.34175
  28   34186.8    292.5   0.001626007   0.01566  -0.04123  -0.01868   0.11666
  29   34367.4    291.0   0.024336261   0.23312  -0.02469  -0.18124  -0.44684
  30   34706.5    288.1   0.171421348   1.62603  -0.27107  -1.10534  -0.57514
  31   34787.2    287.5   0.000257455   0.00244  -0.04713  -0.01258  -0.00754
  32   35079.6    285.1   0.038376714   0.36015  -0.19296   0.48410   0.29760
  33   35241.2    283.8   0.072905873   0.68106  -0.08960   0.70418   0.42092
  34   35383.1    282.6   0.000108344   0.00101   0.01284   0.02820  -0.00694
  35   35884.2    278.7   0.005685080   0.05216  -0.20056  -0.05687   0.09327
  36   36146.0    276.7   0.002418748   0.02203  -0.05370  -0.03511  -0.13384
  37   36548.2    273.6   0.007456253   0.06716  -0.07203  -0.23823   0.07225
  38   36603.1    273.2   0.083604701   0.75195  -0.46666  -0.67232  -0.28664
  39   36615.0    273.1   0.061094752   0.54931  -0.38423   0.02960   0.63309
  40   37480.4    266.8   0.305887760   2.68679  -0.61335  -1.46864  -0.39202
  41   37627.5    265.8   0.006399450   0.05599  -0.12464   0.07241  -0.18765
  42   37876.3    264.0   0.045173061   0.39263  -0.37452  -0.48905   0.11490
  43   38152.1    262.1   0.146841231   1.26708  -0.48945  -0.94231   0.37360
  44   38427.8    260.2   0.000348310   0.00298  -0.00193   0.05093   0.01967
  45   38485.9    259.8   0.024408164   0.20879  -0.29805  -0.32166   0.12842
  46   38630.4    258.9   0.012633421   0.10766  -0.07018   0.26302   0.18318
  47   39531.7    253.0   0.042576031   0.35456   0.27524   0.20836  -0.48517
  48   39703.1    251.9   0.052340703   0.43400   0.24500   0.07621  -0.60677
  49   39869.0    250.8   0.007443190   0.06146  -0.14972  -0.19754  -0.00469
  50   39996.7    250.0   0.001729379   0.01423  -0.11603   0.02563   0.01071
  51   40307.6    248.1   0.035190593   0.28742   0.12403   0.28569   0.43637

FINAL SINGLE POINT ENERGY     -3525.577687884730

DIPOLE MOMENT
-------------
                                X             Y             Z
Electronic contribution:     -4.54116       2.90341      11.18300
Nuclear contribution   :      3.92541      -3.00009      -9.96200
                        -----------------------------------------
Total Dipole Moment    :     -0.61576      -0.09668       1.22100
                        -----------------------------------------
Magnitude (a.u.)       :      1.37089
Magnitude (Debye)      :      3.48453

Rotational constants in cm-1:     0.003991     0.000234     0.000225
Rotational constants in MHz :   119.649561     7.027157     6.736039

                             ****ORCA TERMINATED NORMALLY****
TOTAL RUN TIME: 0 days 0 hours 8 minutes 51 seconds 698 msec
