                         Program Version 4.2.0 -  RELEASE  -
|  1> # ORCA input file
|  2> # SCF done       -176.380614827962          0.000613298846
|  3> ! CAM-B3LYP def2-SVP def2/J RIJCOSX Grid4 TightSCF
|  4> %maxcore 5000
|  5> %tddft
|  6>     Mode sTDDFT
|  7>     Ethresh 5.0
|  8>     maxcore 5000
|  9> end
| 10>
| 11> %pal
| 12>   nprocs 6
| 13>   end
| 14> * xyz 0 1
| 15>    C        1.52110        -1.06769        -4.12069
| 16>    C        1.17945        -0.67902        -2.83018
| 17>    C        0.99300        -1.63481        -1.75899
| 18>    N        0.67084        -1.19537        -0.53336
| 19>    C        0.52757         0.08978        -0.32380
| 20>    C        0.70831         1.03715        -1.38985
| 21>    N        1.02321         0.64220        -2.59175
| 22>    C        0.54333         2.42270        -1.12834
| 23>    N        0.40289         3.53028        -0.87503
| 24>    C        0.19025         0.53974         0.97653
| 25>    N       -0.07900         0.93104         2.01891
| 26>    C        1.15317        -3.02600        -1.98429
| 27>    C        1.50446        -3.39349        -3.29921
| 28>    C        1.68506        -2.42532        -4.35755
| 29>    N        2.01391        -3.01858        -5.51378
| 30>    S        2.08575        -4.59806        -5.29031
| 31>    N        1.70928        -4.63933        -3.73103
| 32>    C        0.99034        -4.03012        -0.98487
| 33>    S        1.27790        -5.70475        -1.36958
| 34>    C        0.90780        -6.20352         0.25132
| 35>    C        0.56781        -5.09188         1.04129
| 36>    C        0.61844        -3.88409         0.34053
| 37>    C        0.21466        -5.13523         2.40068
| 38>    N       -0.07664        -5.13603         3.51111
| 39>    C        0.99598        -7.57202         0.58388
| 40>    C        0.72848        -8.09440         1.81484
| 41>    C        0.86150        -9.46697         2.11188
| 42>    N        0.60816        -9.99782         3.35528
| 43>    C        0.21818        -9.27140         4.54175
| 44>    C        1.40470        -8.56971         5.19635
| 45>    C        0.83289       -11.38053         3.39359
| 46>    O        0.67684       -12.06287         4.38748
| 47>    C        1.24875       -11.71564         2.04739
| 48>    C        1.25356       -10.52540         1.28529
| 49>    C        1.66403       -10.85954        -0.06034
| 50>    O        1.81255       -10.18426        -1.06022
| 51>    N        1.87863       -12.24788        -0.02393
| 52>    C        2.35445       -12.95897        -1.18550
| 53>    C        3.85857       -13.21341        -1.11986
| 54>    C        1.64500       -12.77499         1.22601
| 55>    C        1.79417       -14.14249         1.55126
| 56>    C        1.56878       -14.60779         2.81087
| 57>    C        1.70746       -15.95246         3.22624
| 58>    S        1.38411       -16.34664         4.89442
| 59>    C        1.75203       -18.02048         4.63311
| 60>    C        2.10781       -18.23851         3.29365
| 61>    C        2.08133       -17.07927         2.51301
| 62>    C        2.45838       -19.50710         2.79942
| 63>    N        2.74546       -20.53766         2.38616
| 64>    C        1.69404       -19.00089         5.64746
| 65>    C        1.35073       -18.72688         6.93284
| 66>    C        1.27754       -19.67608         7.98872
| 67>    C        0.90495       -19.24163         9.28814
| 68>    C        0.80994       -20.15660        10.39986
| 69>    N        0.44983       -19.70216        11.62147
| 70>    C        0.19538       -18.43171        11.76863
| 71>    C        0.29259       -17.51826        10.66024
| 72>    N        0.63796       -17.93869         9.46942
| 73>    C        0.01281       -16.14285        10.85422
| 74>    N       -0.21949       -15.03770        11.04639
| 75>    C       -0.18437       -17.93854        13.04457
| 76>    N       -0.49381       -17.50090        14.05623
| 77>    C        1.08171       -21.51190        10.24964
| 78>    C        1.45008       -21.95807         8.98690
| 79>    C        1.55047       -21.05499         7.85651
| 80>    N        1.91870       -21.70400         6.74865
| 81>    S        2.11469       -23.25833         7.08713
| 82>    N        1.75108       -23.21762         8.64090
| 83>    H        1.65157        -0.33139        -4.89466
| 84>    H        0.39389        -2.93072         0.78248
| 85>    H        1.30998        -8.23390        -0.21353
| 86>    H        0.40510        -7.44389         2.61215
| 87>    H       -0.19157       -10.01633         5.22934
| 88>    H       -0.56531        -8.55202         4.29083
| 89>    H        2.16408        -9.29814         5.47056
| 90>    H        1.07279        -8.05677         6.09403
| 91>    H        1.84706        -7.83826         4.52402
| 92>    H        2.12895       -12.32033        -2.04414
| 93>    H        1.80317       -13.89752        -1.29116
| 94>    H        4.39157       -12.26754        -1.06437
| 95>    H        4.18209       -13.74252        -2.01191
| 96>    H        4.11746       -13.80712        -0.24582
| 97>    H        2.09867       -14.81987         0.76711
| 98>    H        1.26147       -13.90787         3.57730
| 99>    H        2.32804       -17.07197         1.46648
|100>    H        1.94163       -20.01441         5.36023
|101>    H        1.10572       -17.71041         7.21460
|102>    H        1.00614       -22.18166        11.08895
|103> *
|104>
|105>                          ****END OF INPUT****

CARTESIAN COORDINATES (ANGSTROEM)
---------------------------------
  C      1.521100   -1.067690   -4.120690
  C      1.179450   -0.679020   -2.830180
  C      0.993000   -1.634810   -1.758990
  N      0.670840   -1.195370   -0.533360
  C      0.527570    0.089780   -0.323800
  C      0.708310    1.037150   -1.389850
  N      1.023210    0.642200   -2.591750
  C      0.543330    2.422700   -1.128340
  N      0.402890    3.530280   -0.875030
  C      0.190250    0.539740    0.976530
  N     -0.079000    0.931040    2.018910
  C      1.153170   -3.026000   -1.984290
  C      1.504460   -3.393490   -3.299210
  C      1.685060   -2.425320   -4.357550
  N      2.013910   -3.018580   -5.513780
  S      2.085750   -4.598060   -5.290310
  N      1.709280   -4.639330   -3.731030
  C      0.990340   -4.030120   -0.984870
  S      1.277900   -5.704750   -1.369580
  C      0.907800   -6.203520    0.251320
  C      0.567810   -5.091880    1.041290
  C      0.618440   -3.884090    0.340530
  C      0.214660   -5.135230    2.400680
  N     -0.076640   -5.136030    3.511110
  C      0.995980   -7.572020    0.583880
  C      0.728480   -8.094400    1.814840
  C      0.861500   -9.466970    2.111880
  N      0.608160   -9.997820    3.355280
  C      0.218180   -9.271400    4.541750
  C      1.404700   -8.569710    5.196350
  C      0.832890  -11.380530    3.393590
  O      0.676840  -12.062870    4.387480
  C      1.248750  -11.715640    2.047390
  C      1.253560  -10.525400    1.285290
  C      1.664030  -10.859540   -0.060340
  O      1.812550  -10.184260   -1.060220
  N      1.878630  -12.247880   -0.023930
  C      2.354450  -12.958970   -1.185500
  C      3.858570  -13.213410   -1.119860
  C      1.645000  -12.774990    1.226010
  C      1.794170  -14.142490    1.551260
  C      1.568780  -14.607790    2.810870
  C      1.707460  -15.952460    3.226240
  S      1.384110  -16.346640    4.894420
  C      1.752030  -18.020480    4.633110
  C      2.107810  -18.238510    3.293650
  C      2.081330  -17.079270    2.513010
  C      2.458380  -19.507100    2.799420
  N      2.745460  -20.537660    2.386160
  C      1.694040  -19.000890    5.647460
  C      1.350730  -18.726880    6.932840
  C      1.277540  -19.676080    7.988720
  C      0.904950  -19.241630    9.288140
  C      0.809940  -20.156600   10.399860
  N      0.449830  -19.702160   11.621470
  C      0.195380  -18.431710   11.768630
  C      0.292590  -17.518260   10.660240
  N      0.637960  -17.938690    9.469420
  C      0.012810  -16.142850   10.854220
  N     -0.219490  -15.037700   11.046390
  C     -0.184370  -17.938540   13.044570
  N     -0.493810  -17.500900   14.056230
  C      1.081710  -21.511900   10.249640
  C      1.450080  -21.958070    8.986900
  C      1.550470  -21.054990    7.856510
  N      1.918700  -21.704000    6.748650
  S      2.114690  -23.258330    7.087130
  N      1.751080  -23.217620    8.640900
  H      1.651570   -0.331390   -4.894660
  H      0.393890   -2.930720    0.782480
  H      1.309980   -8.233900   -0.213530
  H      0.405100   -7.443890    2.612150
  H     -0.191570  -10.016330    5.229340
  H     -0.565310   -8.552020    4.290830
  H      2.164080   -9.298140    5.470560
  H      1.072790   -8.056770    6.094030
  H      1.847060   -7.838260    4.524020
  H      2.128950  -12.320330   -2.044140
  H      1.803170  -13.897520   -1.291160
  H      4.391570  -12.267540   -1.064370
  H      4.182090  -13.742520   -2.011910
  H      4.117460  -13.807120   -0.245820
  H      2.098670  -14.819870    0.767110
  H      1.261470  -13.907870    3.577300
  H      2.328040  -17.071970    1.466480
  H      1.941630  -20.014410    5.360230
  H      1.105720  -17.710410    7.214600
  H      1.006140  -22.181660   11.088950

 Total Charge           Charge          ....    0
 Multiplicity           Mult            ....    1
 Number of Electrons    NEL             ....  488
 Basis Dimension        Dim             .... 1068

ORBITAL ENERGIES
----------------

  NO   OCC          E(Eh)            E(eV)
   0   2.0000     -89.061105     -2423.4759
   1   2.0000     -89.054882     -2423.3065
   2   2.0000     -88.983820     -2421.3728
   3   2.0000     -88.980315     -2421.2775
   4   2.0000     -19.200832      -522.4812
   5   2.0000     -19.196642      -522.3672
   6   2.0000     -14.472682      -393.8217
   7   2.0000     -14.469331      -393.7305
   8   2.0000     -14.468701      -393.7134
   9   2.0000     -14.468141      -393.6981
  10   2.0000     -14.465195      -393.6180
  11   2.0000     -14.464709      -393.6047
  12   2.0000     -14.462231      -393.5373
  13   2.0000     -14.461649      -393.5215
  14   2.0000     -14.459504      -393.4631
  15   2.0000     -14.457982      -393.4217
  16   2.0000     -14.436132      -392.8271
  17   2.0000     -14.435643      -392.8138
  18   2.0000     -14.432142      -392.7186
  19   2.0000     -14.431573      -392.7031
  20   2.0000     -14.416530      -392.2937
  21   2.0000     -14.416089      -392.2817
  22   2.0000     -10.390816      -282.7485
  23   2.0000     -10.390549      -282.7412
  24   2.0000     -10.386565      -282.6328
  25   2.0000     -10.385473      -282.6031
  26   2.0000     -10.382823      -282.5310
  27   2.0000     -10.379126      -282.4304
  28   2.0000     -10.360344      -281.9193
  29   2.0000     -10.357383      -281.8387
  30   2.0000     -10.355465      -281.7865
  31   2.0000     -10.353855      -281.7427
  32   2.0000     -10.353637      -281.7368
  33   2.0000     -10.352322      -281.7010
  34   2.0000     -10.350494      -281.6513
  35   2.0000     -10.348699      -281.6024
  36   2.0000     -10.348001      -281.5834
  37   2.0000     -10.344023      -281.4752
  38   2.0000     -10.340323      -281.3745
  39   2.0000     -10.337284      -281.2918
  40   2.0000     -10.333499      -281.1888
  41   2.0000     -10.330908      -281.1183
  42   2.0000     -10.330546      -281.1085
  43   2.0000     -10.329167      -281.0709
  44   2.0000     -10.328878      -281.0631
  45   2.0000     -10.328362      -281.0490
  46   2.0000     -10.328348      -281.0486
  47   2.0000     -10.324994      -280.9574
  48   2.0000     -10.324715      -280.9498
  49   2.0000     -10.321974      -280.8752
  50   2.0000     -10.317808      -280.7618
  51   2.0000     -10.317196      -280.7452
  52   2.0000     -10.316639      -280.7300
  53   2.0000     -10.313206      -280.6366
  54   2.0000     -10.310673      -280.5677
  55   2.0000     -10.309788      -280.5436
  56   2.0000     -10.306646      -280.4581
  57   2.0000     -10.306438      -280.4524
  58   2.0000     -10.304960      -280.4122
  59   2.0000     -10.303847      -280.3819
  60   2.0000     -10.303794      -280.3805
  61   2.0000     -10.303578      -280.3746
  62   2.0000     -10.300667      -280.2954
  63   2.0000     -10.300647      -280.2949
  64   2.0000     -10.272947      -279.5411
  65   2.0000     -10.270437      -279.4728
  66   2.0000     -10.269055      -279.4352
  67   2.0000     -10.259014      -279.1620
  68   2.0000      -8.152111      -221.8302
  69   2.0000      -8.146092      -221.6664
  70   2.0000      -8.079137      -219.8445
  71   2.0000      -8.074436      -219.7166
  72   2.0000      -6.123000      -166.6153
  73   2.0000      -6.117000      -166.4520
  74   2.0000      -6.115271      -166.4050
  75   2.0000      -6.115244      -166.4042
  76   2.0000      -6.109309      -166.2428
  77   2.0000      -6.109118      -166.2376
  78   2.0000      -6.048176      -164.5792
  79   2.0000      -6.044158      -164.4699
  80   2.0000      -6.043752      -164.4589
  81   2.0000      -6.041566      -164.3994
  82   2.0000      -6.039276      -164.3371
  83   2.0000      -6.036776      -164.2690
  84   2.0000      -1.156138       -31.4601
  85   2.0000      -1.149815       -31.2881
  86   2.0000      -1.141572       -31.0638
  87   2.0000      -1.134125       -30.8611
  88   2.0000      -1.129188       -30.7268
  89   2.0000      -1.124545       -30.6004
  90   2.0000      -1.071425       -29.1550
  91   2.0000      -1.062349       -28.9080
  92   2.0000      -1.056089       -28.7376
  93   2.0000      -1.051417       -28.6105
  94   2.0000      -1.024567       -27.8799
  95   2.0000      -1.022038       -27.8111
  96   2.0000      -1.018777       -27.7223
  97   2.0000      -1.016323       -27.6556
  98   2.0000      -1.009759       -27.4769
  99   2.0000      -1.007459       -27.4144
 100   2.0000      -1.006314       -27.3832
 101   2.0000      -1.001998       -27.2657
 102   2.0000      -0.994890       -27.0723
 103   2.0000      -0.994848       -27.0712
 104   2.0000      -0.982640       -26.7390
 105   2.0000      -0.982012       -26.7219
 106   2.0000      -0.937663       -25.5151
 107   2.0000      -0.931722       -25.3534
 108   2.0000      -0.924378       -25.1536
 109   2.0000      -0.916886       -24.9497
 110   2.0000      -0.914806       -24.8931
 111   2.0000      -0.909724       -24.7549
 112   2.0000      -0.898732       -24.4557
 113   2.0000      -0.883010       -24.0279
 114   2.0000      -0.879179       -23.9237
 115   2.0000      -0.874081       -23.7850
 116   2.0000      -0.871595       -23.7173
 117   2.0000      -0.851283       -23.1646
 118   2.0000      -0.842766       -22.9328
 119   2.0000      -0.841178       -22.8896
 120   2.0000      -0.833515       -22.6811
 121   2.0000      -0.824886       -22.4463
 122   2.0000      -0.808718       -22.0063
 123   2.0000      -0.803920       -21.8758
 124   2.0000      -0.793762       -21.5994
 125   2.0000      -0.785921       -21.3860
 126   2.0000      -0.764971       -20.8159
 127   2.0000      -0.757774       -20.6201
 128   2.0000      -0.756215       -20.5777
 129   2.0000      -0.739509       -20.1231
 130   2.0000      -0.738915       -20.1069
 131   2.0000      -0.735667       -20.0185
 132   2.0000      -0.722135       -19.6503
 133   2.0000      -0.713086       -19.4041
 134   2.0000      -0.709828       -19.3154
 135   2.0000      -0.707751       -19.2589
 136   2.0000      -0.704572       -19.1724
 137   2.0000      -0.700295       -19.0560
 138   2.0000      -0.692788       -18.8517
 139   2.0000      -0.684275       -18.6201
 140   2.0000      -0.675995       -18.3948
 141   2.0000      -0.664490       -18.0817
 142   2.0000      -0.663345       -18.0505
 143   2.0000      -0.657595       -17.8941
 144   2.0000      -0.654881       -17.8202
 145   2.0000      -0.652216       -17.7477
 146   2.0000      -0.640997       -17.4424
 147   2.0000      -0.635679       -17.2977
 148   2.0000      -0.633026       -17.2255
 149   2.0000      -0.630974       -17.1697
 150   2.0000      -0.615607       -16.7515
 151   2.0000      -0.614204       -16.7133
 152   2.0000      -0.603194       -16.4137
 153   2.0000      -0.594778       -16.1847
 154   2.0000      -0.592055       -16.1106
 155   2.0000      -0.589150       -16.0316
 156   2.0000      -0.585343       -15.9280
 157   2.0000      -0.583167       -15.8688
 158   2.0000      -0.582105       -15.8399
 159   2.0000      -0.569021       -15.4839
 160   2.0000      -0.568435       -15.4679
 161   2.0000      -0.562732       -15.3127
 162   2.0000      -0.559742       -15.2314
 163   2.0000      -0.556292       -15.1375
 164   2.0000      -0.553270       -15.0552
 165   2.0000      -0.549903       -14.9636
 166   2.0000      -0.547765       -14.9054
 167   2.0000      -0.545985       -14.8570
 168   2.0000      -0.538239       -14.6462
 169   2.0000      -0.537462       -14.6251
 170   2.0000      -0.535729       -14.5779
 171   2.0000      -0.532527       -14.4908
 172   2.0000      -0.523937       -14.2571
 173   2.0000      -0.522169       -14.2090
 174   2.0000      -0.520531       -14.1644
 175   2.0000      -0.518555       -14.1106
 176   2.0000      -0.515480       -14.0269
 177   2.0000      -0.511436       -13.9169
 178   2.0000      -0.510270       -13.8852
 179   2.0000      -0.506002       -13.7690
 180   2.0000      -0.497540       -13.5387
 181   2.0000      -0.492105       -13.3909
 182   2.0000      -0.491528       -13.3751
 183   2.0000      -0.490883       -13.3576
 184   2.0000      -0.490464       -13.3462
 185   2.0000      -0.487056       -13.2535
 186   2.0000      -0.483147       -13.1471
 187   2.0000      -0.483026       -13.1438
 188   2.0000      -0.479664       -13.0523
 189   2.0000      -0.477665       -12.9979
 190   2.0000      -0.471591       -12.8327
 191   2.0000      -0.468676       -12.7533
 192   2.0000      -0.465831       -12.6759
 193   2.0000      -0.463416       -12.6102
 194   2.0000      -0.459764       -12.5108
 195   2.0000      -0.459060       -12.4917
 196   2.0000      -0.458922       -12.4879
 197   2.0000      -0.458726       -12.4826
 198   2.0000      -0.457468       -12.4483
 199   2.0000      -0.456485       -12.4216
 200   2.0000      -0.455440       -12.3932
 201   2.0000      -0.452868       -12.3232
 202   2.0000      -0.450019       -12.2456
 203   2.0000      -0.449831       -12.2405
 204   2.0000      -0.447068       -12.1653
 205   2.0000      -0.446507       -12.1501
 206   2.0000      -0.445209       -12.1148
 207   2.0000      -0.443418       -12.0660
 208   2.0000      -0.442621       -12.0443
 209   2.0000      -0.441913       -12.0251
 210   2.0000      -0.441201       -12.0057
 211   2.0000      -0.440764       -11.9938
 212   2.0000      -0.435600       -11.8533
 213   2.0000      -0.432944       -11.7810
 214   2.0000      -0.426681       -11.6106
 215   2.0000      -0.424805       -11.5595
 216   2.0000      -0.424345       -11.5470
 217   2.0000      -0.423175       -11.5152
 218   2.0000      -0.421623       -11.4730
 219   2.0000      -0.420623       -11.4457
 220   2.0000      -0.419104       -11.4044
 221   2.0000      -0.418397       -11.3852
 222   2.0000      -0.418116       -11.3775
 223   2.0000      -0.411643       -11.2014
 224   2.0000      -0.409957       -11.1555
 225   2.0000      -0.409455       -11.1418
 226   2.0000      -0.389525       -10.5995
 227   2.0000      -0.388158       -10.5623
 228   2.0000      -0.383380       -10.4323
 229   2.0000      -0.368287       -10.0216
 230   2.0000      -0.367865       -10.0101
 231   2.0000      -0.365562        -9.9475
 232   2.0000      -0.357860        -9.7379
 233   2.0000      -0.355760        -9.6807
 234   2.0000      -0.352683        -9.5970
 235   2.0000      -0.345894        -9.4122
 236   2.0000      -0.340439        -9.2638
 237   2.0000      -0.339667        -9.2428
 238   2.0000      -0.337206        -9.1758
 239   2.0000      -0.325304        -8.8520
 240   2.0000      -0.322061        -8.7637
 241   2.0000      -0.288884        -7.8609
 242   2.0000      -0.276138        -7.5141
 243   2.0000      -0.236761        -6.4426
 244   0.0000      -0.134791        -3.6679
 245   0.0000      -0.127509        -3.4697
 246   0.0000      -0.095169        -2.5897
 247   0.0000      -0.063899        -1.7388
 248   0.0000      -0.056751        -1.5443

MULLIKEN ATOMIC CHARGES
-----------------------
   0 C :   -0.080750
   1 C :    0.012746
   2 C :   -0.071405
   3 N :    0.041609
   4 C :   -0.117275
   5 C :   -0.146920
   6 N :    0.057249
   7 C :   -0.203954
   8 N :    0.242679
   9 C :   -0.218364
  10 N :    0.248188
  11 C :    0.250946
  12 C :   -0.055911
  13 C :    0.118360
  14 N :   -0.265850
  15 S :    0.569329
  16 N :   -0.323177
  17 C :   -0.182850
  18 S :    0.203989
  19 C :   -0.041845
  20 C :   -0.063643
  21 C :    0.016152
  22 C :   -0.158201
  23 N :    0.121586
  24 C :    0.047410
  25 C :   -0.030022
  26 C :    0.135389
  27 N :   -0.253653
  28 C :    0.091605
  29 C :    0.011477
  30 C :    0.170926
  31 O :   -0.211509
  32 C :   -0.069060
  33 C :   -0.060279
  34 C :    0.162261
  35 O :   -0.208550
  36 N :   -0.258852
  37 C :    0.102851
  38 C :    0.003316
  39 C :    0.131949
  40 C :   -0.026813
  41 C :    0.080580
  42 C :   -0.073221
  43 S :    0.182093
  44 C :   -0.040607
  45 C :   -0.062162
  46 C :    0.014617
  47 C :   -0.178721
  48 N :    0.137394
  49 C :    0.019831
  50 C :   -0.089980
  51 C :    0.125096
  52 C :   -0.049644
  53 C :    0.019424
  54 N :    0.056487
  55 C :   -0.147607
  56 C :   -0.139545
  57 N :    0.054235
  58 C :   -0.204147
  59 N :    0.239382
  60 C :   -0.200020
  61 N :    0.240730
  62 C :   -0.075934
  63 C :    0.105143
  64 C :   -0.011672
  65 N :   -0.287334
  66 S :    0.566355
  67 N :   -0.266679
  68 H :   -0.012611
  69 H :    0.013598
  70 H :    0.003730
  71 H :   -0.014031
  72 H :    0.044284
  73 H :    0.038794
  74 H :    0.023167
  75 H :    0.031896
  76 H :    0.017345
  77 H :    0.042336
  78 H :    0.022903
  79 H :    0.031034
  80 H :    0.024560
  81 H :    0.014915
  82 H :   -0.028635
  83 H :    0.012662
  84 H :   -0.002985
  85 H :    0.035124
  86 H :    0.010009
  87 H :   -0.013323
Sum of atomic charges:   -0.0000000

LOEWDIN ATOMIC CHARGES
----------------------
   0 C :   -0.008207
   1 C :   -0.006707
   2 C :   -0.011888
   3 N :    0.006511
   4 C :   -0.025763
   5 C :   -0.024495
   6 N :    0.003516
   7 C :   -0.035513
   8 N :    0.002289
   9 C :   -0.040717
  10 N :    0.002542
  11 C :   -0.019081
  12 C :   -0.050511
  13 C :   -0.045616
  14 N :   -0.280079
  15 S :    0.701093
  16 N :   -0.302284
  17 C :   -0.173277
  18 S :    0.517569
  19 C :   -0.138105
  20 C :   -0.108642
  21 C :    0.003623
  22 C :   -0.025081
  23 N :   -0.059364
  24 C :   -0.005451
  25 C :   -0.024160
  26 C :    0.071413
  27 N :    0.005891
  28 C :    0.037231
  29 C :   -0.058130
  30 C :    0.079103
  31 O :   -0.200021
  32 C :   -0.118910
  33 C :   -0.114027
  34 C :    0.080520
  35 O :   -0.200545
  36 N :   -0.000507
  37 C :    0.036619
  38 C :   -0.060814
  39 C :    0.075475
  40 C :   -0.042371
  41 C :    0.008626
  42 C :   -0.161109
  43 S :    0.492291
  44 C :   -0.141215
  45 C :   -0.094887
  46 C :   -0.019002
  47 C :   -0.031632
  48 N :   -0.050775
  49 C :   -0.009276
  50 C :   -0.017228
  51 C :   -0.008220
  52 C :   -0.010058
  53 C :   -0.011070
  54 N :    0.001348
  55 C :   -0.025030
  56 C :   -0.030063
  57 N :    0.004016
  58 C :   -0.038152
  59 N :   -0.001745
  60 C :   -0.035315
  61 N :    0.000102
  62 C :   -0.003498
  63 C :   -0.046992
  64 C :   -0.040180
  65 N :   -0.280169
  66 S :    0.701058
  67 N :   -0.281381
  68 H :    0.049870
  69 H :    0.039300
  70 H :    0.036397
  71 H :    0.037011
  72 H :    0.038527
  73 H :    0.028741
  74 H :    0.029484
  75 H :    0.035406
  76 H :    0.023156
  77 H :    0.037703
  78 H :    0.022960
  79 H :    0.032851
  80 H :    0.031167
  81 H :    0.021743
  82 H :    0.027875
  83 H :    0.037590
  84 H :    0.038194
  85 H :    0.040745
  86 H :    0.028014
  87 H :    0.049692

  Mayer bond orders larger than 0.100000
B(  0-C ,  1-C ) :   1.3079 B(  0-C , 11-C ) :   0.1320 B(  0-C , 13-C ) :   1.1821
B(  0-C , 68-H ) :   1.0589 B(  1-C ,  2-C ) :   1.1215 B(  1-C ,  6-N ) :   1.3374
B(  2-C ,  3-N ) :   1.4362 B(  2-C , 11-C ) :   1.2626 B(  3-N ,  4-C ) :   1.7418
B(  4-C ,  5-C ) :   1.1875 B(  4-C ,  9-C ) :   1.1469 B(  5-C ,  6-N ) :   1.7871
B(  5-C ,  7-C ) :   1.1572 B(  7-C ,  8-N ) :   3.0516 B(  9-C , 10-N ) :   3.0460
B( 11-C , 12-C ) :   1.2126 B( 11-C , 17-C ) :   1.1568 B( 12-C , 13-C ) :   1.1279
B( 12-C , 16-N ) :   1.4658 B( 13-C , 14-N ) :   1.4505 B( 14-N , 15-S ) :   1.3206
B( 14-N , 16-N ) :   0.1581 B( 15-S , 16-N ) :   1.2812 B( 17-C , 18-S ) :   1.1226
B( 17-C , 21-C ) :   1.4308 B( 18-S , 19-C ) :   1.1312 B( 19-C , 20-C ) :   1.3843
B( 19-C , 24-C ) :   1.1778 B( 20-C , 21-C ) :   1.3049 B( 20-C , 22-C ) :   1.1098
B( 21-C , 69-H ) :   0.9926 B( 22-C , 23-N ) :   2.9662 B( 24-C , 25-C ) :   1.5864
B( 24-C , 70-H ) :   0.9242 B( 25-C , 26-C ) :   1.1889 B( 25-C , 71-H ) :   0.9421
B( 26-C , 27-N ) :   1.1637 B( 26-C , 33-C ) :   1.3136 B( 27-N , 28-C ) :   0.9349
B( 27-N , 30-C ) :   1.0725 B( 28-C , 29-C ) :   1.1261 B( 28-C , 72-H ) :   0.9272
B( 28-C , 73-H ) :   0.9474 B( 29-C , 74-H ) :   0.9629 B( 29-C , 75-H ) :   0.9670
B( 29-C , 76-H ) :   0.9673 B( 30-C , 31-O ) :   2.0101 B( 30-C , 32-C ) :   0.9840
B( 31-O , 83-H ) :   0.1259 B( 32-C , 33-C ) :   1.2707 B( 32-C , 39-C ) :   1.3230
B( 33-C , 34-C ) :   0.9856 B( 34-C , 35-O ) :   2.0289 B( 34-C , 36-N ) :   1.0604
B( 35-O , 70-H ) :   0.1099 B( 36-N , 37-C ) :   0.9468 B( 36-N , 39-C ) :   1.1554
B( 37-C , 38-C ) :   1.1193 B( 37-C , 77-H ) :   0.9281 B( 37-C , 78-H ) :   0.9496
B( 38-C , 79-H ) :   0.9638 B( 38-C , 80-H ) :   0.9684 B( 38-C , 81-H ) :   0.9688
B( 39-C , 40-C ) :   1.1819 B( 40-C , 41-C ) :   1.6070 B( 40-C , 82-H ) :   0.9617
B( 41-C , 42-C ) :   1.1370 B( 41-C , 83-H ) :   0.9264 B( 42-C , 43-S ) :   1.1331
B( 42-C , 46-C ) :   1.4446 B( 43-S , 44-C ) :   1.1341 B( 44-C , 45-C ) :   1.4082
B( 44-C , 49-C ) :   1.1900 B( 45-C , 46-C ) :   1.3180 B( 45-C , 47-C ) :   1.1034
B( 46-C , 84-H ) :   0.9988 B( 47-C , 48-N ) :   3.0175 B( 49-C , 50-C ) :   1.5647
B( 49-C , 85-H ) :   0.9449 B( 50-C , 51-C ) :   1.2057 B( 50-C , 86-H ) :   0.9606
B( 51-C , 52-C ) :   1.2479 B( 51-C , 62-C ) :   0.1382 B( 51-C , 64-C ) :   1.1971
B( 52-C , 53-C ) :   1.1292 B( 52-C , 57-N ) :   1.4395 B( 53-C , 54-N ) :   1.3366
B( 53-C , 62-C ) :   1.3080 B( 54-N , 55-C ) :   1.7914 B( 55-C , 56-C ) :   1.1833
B( 55-C , 60-C ) :   1.1512 B( 56-C , 57-N ) :   1.7546 B( 56-C , 58-C ) :   1.1505
B( 58-C , 59-N ) :   3.0475 B( 60-C , 61-N ) :   3.0536 B( 62-C , 63-C ) :   1.1786
B( 62-C , 87-H ) :   1.0562 B( 63-C , 64-C ) :   1.1256 B( 63-C , 67-N ) :   1.4540
B( 64-C , 65-N ) :   1.4908 B( 65-N , 66-S ) :   1.2858 B( 65-N , 67-N ) :   0.1572
B( 66-S , 67-N ) :   1.3196

-----------------------------------------------------------------------------
         ABSORPTION SPECTRUM VIA TRANSITION ELECTRIC DIPOLE MOMENTS
-----------------------------------------------------------------------------
State   Energy  Wavelength   fosc         T2         TX        TY        TZ
        (cm-1)    (nm)                  (au**2)     (au)      (au)      (au)
-----------------------------------------------------------------------------
   0    9621.6   1039.3   1.046487570  35.80655   0.08029  -5.30347   2.77007
   1   12355.3    809.4   0.119404171   3.18157   0.06640   1.02569  -1.45778
   2   16706.7    598.6   0.250238050   4.93103   0.59804  -1.78858  -1.17233
   3   17829.8    560.9   0.023217918   0.42870   0.03780   0.14508  -0.63735
   4   18409.8    543.2   0.295503348   5.28432   0.16513   1.68618  -1.55366
   5   23157.7    431.8   0.189573146   2.69499   0.07967   1.15796  -1.16093
   6   23730.4    421.4   0.025126150   0.34858   0.08533  -0.02525  -0.58366
   7   25431.0    393.2   0.091527495   1.18485   0.02543  -1.06126   0.24069
   8   25610.4    390.5   0.030895360   0.39715   0.05417   0.42052  -0.46624
   9   26298.3    380.3   0.012951820   0.16214  -0.10041   0.29304  -0.25726
  10   26470.5    377.8   0.008533032   0.10612  -0.17209  -0.22430   0.16186
  11   26705.7    374.5   0.283208769   3.49123   0.16900   1.10333  -1.49844
  12   26883.9    372.0   0.003417850   0.04185   0.19711   0.03570   0.04157
  13   26961.8    370.9   0.005760269   0.07033   0.06501  -0.14722  -0.21080
  14   27380.1    365.2   0.035560564   0.42757   0.08294   0.36024  -0.53937
  15   27574.7    362.7   0.000426809   0.00510   0.06114  -0.01899   0.03157
  16   27893.7    358.5   0.025144975   0.29677  -0.07792  -0.37087   0.39135
  17   28228.5    354.3   0.021951425   0.25601   0.08996   0.22493  -0.44421
  18   28894.4    346.1   0.104029482   1.18527   0.27784  -0.49820  -0.92730
  19   29119.4    343.4   0.033532386   0.37910  -0.05834  -0.40614   0.45907
  20   29609.6    337.7   0.094172812   1.04705   0.01796   0.91301  -0.46167
  21   30391.3    329.0   0.021641797   0.23443  -0.14784  -0.07586   0.45478
  22   30500.9    327.9   0.078267215   0.84478  -0.22944   0.02003   0.88980
  23   30794.8    324.7   0.002816284   0.03011   0.03898   0.15695  -0.06289
  24   31112.3    321.4   0.412893157   4.36899  -0.46743   1.49341   1.38572
  25   31275.0    319.7   0.012935448   0.13616   0.00367   0.36173  -0.07281
  26   31493.2    317.5   0.000188979   0.00198  -0.04439   0.00029  -0.00222
  27   31551.1    316.9   0.166235939   1.73455   0.33803  -1.12936  -0.58723
  28   31926.4    313.2   0.083312675   0.85909   0.02017   0.74054  -0.55703
  29   32746.0    305.4   0.223332063   2.24527   0.38196  -1.22560  -0.77283
  30   33633.5    297.3   0.004103527   0.04017   0.05454  -0.11379  -0.15570
  31   33980.0    294.3   0.118565614   1.14871   0.28008  -0.36513  -0.96796
  32   34697.6    288.2   0.000178462   0.00169   0.01391   0.01392   0.03614
  33   35004.5    285.7   0.012509745   0.11765  -0.02087  -0.32257   0.11474
  34   35389.5    282.6   0.159697255   1.48559   0.12291  -1.21241   0.02315
  35   35693.9    280.2   0.058560861   0.54012   0.28446  -0.41484  -0.53582
  36   36052.2    277.4   0.773048226   7.05912  -0.59550   1.92636   1.73021
  37   36257.8    275.8   0.012262735   0.11134   0.05162  -0.06713  -0.32275
  38   36569.6    273.5   0.633195881   5.70025   0.51912  -2.01859  -1.16450
  39   36755.7    272.1   0.304699026   2.72912   0.15796  -1.57741   0.46470
  40   36884.4    271.1   0.235763245   2.10430  -0.40499   0.14113   1.38578
  41   37005.3    270.2   0.005181608   0.04610   0.02585   0.11242  -0.18108
  42   37419.5    267.2   0.083141038   0.73146   0.17335  -0.15812  -0.82244
  43   37815.6    264.4   0.013658429   0.11891  -0.01421   0.28890  -0.18772
  44   38143.9    262.2   0.009231402   0.07967  -0.04522   0.26457   0.08736
  45   38251.1    261.4   0.007928683   0.06824   0.05980  -0.25428   0.00214
  46   38722.8    258.2   0.027580430   0.23448  -0.15072   0.17450   0.42581
  47   39708.1    251.8   0.091257075   0.75659   0.09021  -0.84114   0.20235
  48   39813.8    251.2   0.025525059   0.21106   0.11247  -0.08140  -0.43793
  49   40037.3    249.8   0.022488174   0.18491  -0.10626  -0.04180   0.41458

FINAL SINGLE POINT ENERGY     -4380.058729450652

DIPOLE MOMENT
-------------
                                X             Y             Z
Electronic contribution:     -8.11775       8.31325       5.79566
Nuclear contribution   :      9.58048     -11.36780      -9.93634
                        -----------------------------------------
Total Dipole Moment    :      1.46273      -3.05456      -4.14068
                        -----------------------------------------
Magnitude (a.u.)       :      5.34931
Magnitude (Debye)      :     13.59687

Rotational constants in cm-1:     0.002144     0.000238     0.000214
Rotational constants in MHz :    64.261950     7.128589     6.429578

                             ****ORCA TERMINATED NORMALLY****
TOTAL RUN TIME: 0 days 0 hours 10 minutes 52 seconds 734 msec
