                         Program Version 4.2.0 -  RELEASE  -
|  1> # ORCA input file
|  2> # SCF done       -168.909486534249          0.000568408270
|  3> ! CAM-B3LYP def2-SVP def2/J RIJCOSX Grid4 TightSCF
|  4> %maxcore 5000
|  5> %tddft
|  6>     Mode sTDDFT
|  7>     Ethresh 5.0
|  8>     maxcore 5000
|  9> end
| 10>
| 11> %pal
| 12>   nprocs 6
| 13>   end
| 14> * xyz 0 1
| 15>    C        0.21952         1.32210         2.65402
| 16>    C        1.21948         0.57621         2.07167
| 17>    N        1.28100        -0.75345         2.07379
| 18>    C        0.34796        -1.48408         2.65624
| 19>    C       -0.74777        -0.83885         3.30103
| 20>    C       -0.79834         0.60038         3.29133
| 21>    N       -1.87441         1.06663         3.93174
| 22>    S       -2.72350        -0.17493         4.48255
| 23>    N       -1.78613        -1.36627         3.94641
| 24>    C        0.49382        -2.91246         2.60525
| 25>    C        1.53458        -3.59285         2.02277
| 26>    C        1.33118        -4.99423         2.20815
| 27>    C        0.04852        -5.13185         2.92602
| 28>    C       -0.43954        -3.88491         3.15591
| 29>    C       -0.62435        -6.32096         3.23262
| 30>    N       -1.23683        -7.26522         3.46203
| 31>    C        2.15996        -6.02194         1.82270
| 32>    C        2.01852        -7.40255         2.12991
| 33>    C        3.02642        -8.11678         1.50721
| 34>    C        3.85923        -7.16509         0.78571
| 35>    C        3.36785        -5.91365         0.98727
| 36>    C        3.92744        -4.74777         0.45131
| 37>    N        4.42523        -3.82260        -0.01255
| 38>    C        3.15871        -9.52493         1.61794
| 39>    N        3.82883       -10.37379         0.77661
| 40>    C        4.57307       -10.05333        -0.41881
| 41>    C        6.05619        -9.85148        -0.11728
| 42>    C        3.68997       -11.72194         1.16745
| 43>    O        4.17120       -12.64554         0.54680
| 44>    C        2.88383       -11.66715         2.36836
| 45>    C        2.56686       -10.31699         2.61277
| 46>    C        1.79523       -10.25110         3.84112
| 47>    O        1.34932        -9.32414         4.47863
| 48>    N        1.66505       -11.59739         4.23435
| 49>    C        0.89148       -11.95896         5.39794
| 50>    C       -0.51129       -12.42813         5.02102
| 51>    C        2.29986       -12.45552         3.37245
| 52>    C        2.30580       -13.85619         3.52462
| 53>    C        2.99913       -14.68074         2.68751
| 54>    C        2.99177       -16.09644         2.75438
| 55>    C        3.83892       -16.83474         1.88433
| 56>    C        3.84053       -18.27263         1.84753
| 57>    N        4.54487       -18.90915         0.89464
| 58>    C        5.33322       -18.22108         0.11437
| 59>    C        5.45673       -16.79667         0.26552
| 60>    N        4.68373       -16.15186         1.09924
| 61>    C        6.40256       -16.08005        -0.50901
| 62>    N        7.18947       -15.54817        -1.14914
| 63>    C        6.06591       -18.90460        -0.88839
| 64>    N        6.68835       -19.44390        -1.68423
| 65>    C        3.07745       -19.03885         2.75072
| 66>    C        2.23779       -18.32021         3.61621
| 67>    C        2.18809       -16.87252         3.62218
| 68>    N        1.32209       -16.42087         4.53199
| 69>    S        0.65689       -17.66702         5.29778
| 70>    N        1.41646       -18.84584         4.53210
| 71>    C        3.15931       -20.48500         2.77085
| 72>    C        2.04822       -21.29312         2.96262
| 73>    N        2.05525       -22.62702         2.95420
| 74>    C        3.16250       -23.28621         2.74627
| 75>    C        4.37649       -22.60812         2.53429
| 76>    C        4.38069       -21.17098         2.56407
| 77>    N        5.61151       -20.67520         2.42211
| 78>    S        6.63635       -21.89414         2.22779
| 79>    N        5.59934       -23.10874         2.33969
| 80>    H        0.20658         2.39852         2.63052
| 81>    H        2.04140         1.05898         1.56052
| 82>    H        2.37678        -3.14084         1.53820
| 83>    H       -1.35842        -3.62891         3.64816
| 84>    H        1.25156        -7.81374         2.75526
| 85>    H        4.74656        -7.39266         0.22747
| 86>    H        4.13080        -9.17501        -0.89291
| 87>    H        4.46311       -10.90995        -1.09073
| 88>    H        6.20582        -9.08311         0.63867
| 89>    H        6.58144        -9.56302        -1.02352
| 90>    H        6.48350       -10.78148         0.24909
| 91>    H        0.82230       -11.05310         6.00674
| 92>    H        1.42281       -12.72906         5.96348
| 93>    H       -1.03353       -11.63812         4.48716
| 94>    H       -1.07121       -12.66721         5.92068
| 95>    H       -0.47067       -13.31158         4.38791
| 96>    H        1.73294       -14.28895         4.33091
| 97>    H        3.60762       -14.26170         1.89645
| 98>    H        1.07727       -20.84510         3.11600
| 99>    H        3.11409       -24.36517         2.75366
|100> *
|101>
|102>                          ****END OF INPUT****

CARTESIAN COORDINATES (ANGSTROEM)
---------------------------------
  C      0.219520    1.322100    2.654020
  C      1.219480    0.576210    2.071670
  N      1.281000   -0.753450    2.073790
  C      0.347960   -1.484080    2.656240
  C     -0.747770   -0.838850    3.301030
  C     -0.798340    0.600380    3.291330
  N     -1.874410    1.066630    3.931740
  S     -2.723500   -0.174930    4.482550
  N     -1.786130   -1.366270    3.946410
  C      0.493820   -2.912460    2.605250
  C      1.534580   -3.592850    2.022770
  C      1.331180   -4.994230    2.208150
  C      0.048520   -5.131850    2.926020
  C     -0.439540   -3.884910    3.155910
  C     -0.624350   -6.320960    3.232620
  N     -1.236830   -7.265220    3.462030
  C      2.159960   -6.021940    1.822700
  C      2.018520   -7.402550    2.129910
  C      3.026420   -8.116780    1.507210
  C      3.859230   -7.165090    0.785710
  C      3.367850   -5.913650    0.987270
  C      3.927440   -4.747770    0.451310
  N      4.425230   -3.822600   -0.012550
  C      3.158710   -9.524930    1.617940
  N      3.828830  -10.373790    0.776610
  C      4.573070  -10.053330   -0.418810
  C      6.056190   -9.851480   -0.117280
  C      3.689970  -11.721940    1.167450
  O      4.171200  -12.645540    0.546800
  C      2.883830  -11.667150    2.368360
  C      2.566860  -10.316990    2.612770
  C      1.795230  -10.251100    3.841120
  O      1.349320   -9.324140    4.478630
  N      1.665050  -11.597390    4.234350
  C      0.891480  -11.958960    5.397940
  C     -0.511290  -12.428130    5.021020
  C      2.299860  -12.455520    3.372450
  C      2.305800  -13.856190    3.524620
  C      2.999130  -14.680740    2.687510
  C      2.991770  -16.096440    2.754380
  C      3.838920  -16.834740    1.884330
  C      3.840530  -18.272630    1.847530
  N      4.544870  -18.909150    0.894640
  C      5.333220  -18.221080    0.114370
  C      5.456730  -16.796670    0.265520
  N      4.683730  -16.151860    1.099240
  C      6.402560  -16.080050   -0.509010
  N      7.189470  -15.548170   -1.149140
  C      6.065910  -18.904600   -0.888390
  N      6.688350  -19.443900   -1.684230
  C      3.077450  -19.038850    2.750720
  C      2.237790  -18.320210    3.616210
  C      2.188090  -16.872520    3.622180
  N      1.322090  -16.420870    4.531990
  S      0.656890  -17.667020    5.297780
  N      1.416460  -18.845840    4.532100
  C      3.159310  -20.485000    2.770850
  C      2.048220  -21.293120    2.962620
  N      2.055250  -22.627020    2.954200
  C      3.162500  -23.286210    2.746270
  C      4.376490  -22.608120    2.534290
  C      4.380690  -21.170980    2.564070
  N      5.611510  -20.675200    2.422110
  S      6.636350  -21.894140    2.227790
  N      5.599340  -23.108740    2.339690
  H      0.206580    2.398520    2.630520
  H      2.041400    1.058980    1.560520
  H      2.376780   -3.140840    1.538200
  H     -1.358420   -3.628910    3.648160
  H      1.251560   -7.813740    2.755260
  H      4.746560   -7.392660    0.227470
  H      4.130800   -9.175010   -0.892910
  H      4.463110  -10.909950   -1.090730
  H      6.205820   -9.083110    0.638670
  H      6.581440   -9.563020   -1.023520
  H      6.483500  -10.781480    0.249090
  H      0.822300  -11.053100    6.006740
  H      1.422810  -12.729060    5.963480
  H     -1.033530  -11.638120    4.487160
  H     -1.071210  -12.667210    5.920680
  H     -0.470670  -13.311580    4.387910
  H      1.732940  -14.288950    4.330910
  H      3.607620  -14.261700    1.896450
  H      1.077270  -20.845100    3.116000
  H      3.114090  -24.365170    2.753660

 Total Charge           Charge          ....    0
 Multiplicity           Mult            ....    1
 Number of Electrons    NEL             ....  460
 Basis Dimension        Dim             .... 1022

ORBITAL ENERGIES
----------------

  NO   OCC          E(Eh)            E(eV)
   0   2.0000     -89.055903     -2423.3343
   1   2.0000     -89.039960     -2422.9005
   2   2.0000     -89.036376     -2422.8030
   3   2.0000     -19.198427      -522.4158
   4   2.0000     -19.195800      -522.3443
   5   2.0000     -14.463764      -393.5790
   6   2.0000     -14.463085      -393.5606
   7   2.0000     -14.462136      -393.5347
   8   2.0000     -14.459994      -393.4764
   9   2.0000     -14.459844      -393.4724
  10   2.0000     -14.457566      -393.4104
  11   2.0000     -14.455832      -393.3632
  12   2.0000     -14.449105      -393.1801
  13   2.0000     -14.448556      -393.1652
  14   2.0000     -14.444822      -393.0636
  15   2.0000     -14.429938      -392.6586
  16   2.0000     -14.426720      -392.5710
  17   2.0000     -14.419233      -392.3673
  18   2.0000     -14.418363      -392.3436
  19   2.0000     -14.407547      -392.0493
  20   2.0000     -14.398291      -391.7974
  21   2.0000     -10.380945      -282.4799
  22   2.0000     -10.380402      -282.4651
  23   2.0000     -10.380089      -282.4566
  24   2.0000     -10.379062      -282.4286
  25   2.0000     -10.352004      -281.6923
  26   2.0000     -10.351699      -281.6841
  27   2.0000     -10.351195      -281.6703
  28   2.0000     -10.350335      -281.6469
  29   2.0000     -10.349342      -281.6199
  30   2.0000     -10.345569      -281.5173
  31   2.0000     -10.340231      -281.3720
  32   2.0000     -10.336282      -281.2645
  33   2.0000     -10.335885      -281.2537
  34   2.0000     -10.334708      -281.2217
  35   2.0000     -10.328649      -281.0568
  36   2.0000     -10.328206      -281.0448
  37   2.0000     -10.324740      -280.9505
  38   2.0000     -10.324072      -280.9323
  39   2.0000     -10.323362      -280.9130
  40   2.0000     -10.322128      -280.8794
  41   2.0000     -10.321564      -280.8640
  42   2.0000     -10.319998      -280.8214
  43   2.0000     -10.319601      -280.8106
  44   2.0000     -10.317523      -280.7541
  45   2.0000     -10.317236      -280.7463
  46   2.0000     -10.313698      -280.6500
  47   2.0000     -10.313288      -280.6388
  48   2.0000     -10.309862      -280.5456
  49   2.0000     -10.309413      -280.5334
  50   2.0000     -10.309231      -280.5284
  51   2.0000     -10.309204      -280.5277
  52   2.0000     -10.307840      -280.4906
  53   2.0000     -10.300097      -280.2799
  54   2.0000     -10.299959      -280.2761
  55   2.0000     -10.298166      -280.2273
  56   2.0000     -10.295625      -280.1582
  57   2.0000     -10.294888      -280.1382
  58   2.0000     -10.294416      -280.1253
  59   2.0000     -10.286902      -279.9208
  60   2.0000     -10.284880      -279.8658
  61   2.0000     -10.271872      -279.5118
  62   2.0000     -10.270874      -279.4847
  63   2.0000     -10.266178      -279.3569
  64   2.0000     -10.263689      -279.2892
  65   2.0000      -8.147117      -221.6943
  66   2.0000      -8.131702      -221.2749
  67   2.0000      -8.127896      -221.1713
  68   2.0000      -6.118120      -166.4825
  69   2.0000      -6.110277      -166.2691
  70   2.0000      -6.110127      -166.2650
  71   2.0000      -6.102799      -166.0656
  72   2.0000      -6.098905      -165.9596
  73   2.0000      -6.094940      -165.8517
  74   2.0000      -6.094405      -165.8372
  75   2.0000      -6.091178      -165.7494
  76   2.0000      -6.090742      -165.7375
  77   2.0000      -1.151622       -31.3372
  78   2.0000      -1.140977       -31.0476
  79   2.0000      -1.138916       -30.9915
  80   2.0000      -1.135095       -30.8875
  81   2.0000      -1.133988       -30.8574
  82   2.0000      -1.121198       -30.5093
  83   2.0000      -1.071074       -29.1454
  84   2.0000      -1.062291       -28.9064
  85   2.0000      -1.053504       -28.6673
  86   2.0000      -1.050719       -28.5915
  87   2.0000      -1.047070       -28.4922
  88   2.0000      -1.013776       -27.5862
  89   2.0000      -1.013545       -27.5800
  90   2.0000      -1.006577       -27.3904
  91   2.0000      -1.001726       -27.2583
  92   2.0000      -0.996334       -27.1116
  93   2.0000      -0.990004       -26.9394
  94   2.0000      -0.989703       -26.9312
  95   2.0000      -0.982391       -26.7322
  96   2.0000      -0.979783       -26.6612
  97   2.0000      -0.973371       -26.4868
  98   2.0000      -0.934952       -25.4413
  99   2.0000      -0.926672       -25.2160
 100   2.0000      -0.912108       -24.8197
 101   2.0000      -0.906382       -24.6639
 102   2.0000      -0.904812       -24.6212
 103   2.0000      -0.893065       -24.3015
 104   2.0000      -0.886063       -24.1110
 105   2.0000      -0.878763       -23.9123
 106   2.0000      -0.870280       -23.6815
 107   2.0000      -0.857930       -23.3455
 108   2.0000      -0.854709       -23.2578
 109   2.0000      -0.837117       -22.7791
 110   2.0000      -0.836107       -22.7516
 111   2.0000      -0.824957       -22.4482
 112   2.0000      -0.813677       -22.1413
 113   2.0000      -0.804877       -21.9018
 114   2.0000      -0.792043       -21.5526
 115   2.0000      -0.778700       -21.1895
 116   2.0000      -0.765112       -20.8198
 117   2.0000      -0.764116       -20.7927
 118   2.0000      -0.760730       -20.7005
 119   2.0000      -0.744331       -20.2543
 120   2.0000      -0.732746       -19.9390
 121   2.0000      -0.731291       -19.8995
 122   2.0000      -0.726018       -19.7559
 123   2.0000      -0.719183       -19.5700
 124   2.0000      -0.715089       -19.4586
 125   2.0000      -0.711304       -19.3556
 126   2.0000      -0.708792       -19.2872
 127   2.0000      -0.698620       -19.0104
 128   2.0000      -0.689681       -18.7672
 129   2.0000      -0.683701       -18.6044
 130   2.0000      -0.676824       -18.4173
 131   2.0000      -0.667542       -18.1647
 132   2.0000      -0.661892       -18.0110
 133   2.0000      -0.655741       -17.8436
 134   2.0000      -0.650753       -17.7079
 135   2.0000      -0.640492       -17.4287
 136   2.0000      -0.635367       -17.2892
 137   2.0000      -0.631983       -17.1971
 138   2.0000      -0.622016       -16.9259
 139   2.0000      -0.621140       -16.9021
 140   2.0000      -0.614241       -16.7143
 141   2.0000      -0.608260       -16.5516
 142   2.0000      -0.599196       -16.3050
 143   2.0000      -0.598437       -16.2843
 144   2.0000      -0.586262       -15.9530
 145   2.0000      -0.579073       -15.7574
 146   2.0000      -0.576935       -15.6992
 147   2.0000      -0.571990       -15.5646
 148   2.0000      -0.565989       -15.4014
 149   2.0000      -0.564285       -15.3550
 150   2.0000      -0.563652       -15.3377
 151   2.0000      -0.562860       -15.3162
 152   2.0000      -0.562260       -15.2999
 153   2.0000      -0.558436       -15.1958
 154   2.0000      -0.557324       -15.1656
 155   2.0000      -0.552347       -15.0301
 156   2.0000      -0.540351       -14.7037
 157   2.0000      -0.538386       -14.6502
 158   2.0000      -0.536770       -14.6062
 159   2.0000      -0.536176       -14.5901
 160   2.0000      -0.531417       -14.4606
 161   2.0000      -0.525256       -14.2929
 162   2.0000      -0.522950       -14.2302
 163   2.0000      -0.519145       -14.1267
 164   2.0000      -0.518867       -14.1191
 165   2.0000      -0.507853       -13.8194
 166   2.0000      -0.505031       -13.7426
 167   2.0000      -0.504888       -13.7387
 168   2.0000      -0.503693       -13.7062
 169   2.0000      -0.500018       -13.6062
 170   2.0000      -0.495821       -13.4920
 171   2.0000      -0.494917       -13.4674
 172   2.0000      -0.489318       -13.3150
 173   2.0000      -0.488013       -13.2795
 174   2.0000      -0.486111       -13.2278
 175   2.0000      -0.480420       -13.0729
 176   2.0000      -0.478937       -13.0325
 177   2.0000      -0.475670       -12.9436
 178   2.0000      -0.475448       -12.9376
 179   2.0000      -0.474665       -12.9163
 180   2.0000      -0.472728       -12.8636
 181   2.0000      -0.471080       -12.8187
 182   2.0000      -0.469440       -12.7741
 183   2.0000      -0.467884       -12.7318
 184   2.0000      -0.463508       -12.6127
 185   2.0000      -0.459463       -12.5026
 186   2.0000      -0.455813       -12.4033
 187   2.0000      -0.454888       -12.3781
 188   2.0000      -0.452254       -12.3065
 189   2.0000      -0.451696       -12.2913
 190   2.0000      -0.442805       -12.0493
 191   2.0000      -0.440935       -11.9985
 192   2.0000      -0.439787       -11.9672
 193   2.0000      -0.437154       -11.8956
 194   2.0000      -0.435811       -11.8590
 195   2.0000      -0.432343       -11.7647
 196   2.0000      -0.431158       -11.7324
 197   2.0000      -0.429957       -11.6997
 198   2.0000      -0.428210       -11.6522
 199   2.0000      -0.426213       -11.5978
 200   2.0000      -0.424225       -11.5437
 201   2.0000      -0.418582       -11.3902
 202   2.0000      -0.416889       -11.3441
 203   2.0000      -0.415263       -11.2999
 204   2.0000      -0.412859       -11.2345
 205   2.0000      -0.410844       -11.1796
 206   2.0000      -0.408937       -11.1277
 207   2.0000      -0.404298       -11.0015
 208   2.0000      -0.401206       -10.9174
 209   2.0000      -0.392735       -10.6869
 210   2.0000      -0.390799       -10.6342
 211   2.0000      -0.383065       -10.4237
 212   2.0000      -0.377367       -10.2687
 213   2.0000      -0.367557       -10.0017
 214   2.0000      -0.362619        -9.8674
 215   2.0000      -0.358620        -9.7585
 216   2.0000      -0.354347        -9.6423
 217   2.0000      -0.353263        -9.6128
 218   2.0000      -0.351230        -9.5574
 219   2.0000      -0.350717        -9.5435
 220   2.0000      -0.345301        -9.3961
 221   2.0000      -0.340534        -9.2664
 222   2.0000      -0.337721        -9.1899
 223   2.0000      -0.328575        -8.9410
 224   2.0000      -0.324214        -8.8223
 225   2.0000      -0.322965        -8.7883
 226   2.0000      -0.312550        -8.5049
 227   2.0000      -0.290947        -7.9171
 228   2.0000      -0.286645        -7.8000
 229   2.0000      -0.237971        -6.4755
 230   0.0000      -0.137930        -3.7533
 231   0.0000      -0.120793        -3.2870
 232   0.0000      -0.073669        -2.0046
 233   0.0000      -0.072420        -1.9707
 234   0.0000      -0.063574        -1.7299

MULLIKEN ATOMIC CHARGES
-----------------------
   0 C :   -0.022852
   1 C :    0.028551
   2 N :   -0.033968
   3 C :    0.006720
   4 C :   -0.018864
   5 C :    0.073990
   6 N :   -0.268245
   7 S :    0.531409
   8 N :   -0.276789
   9 C :    0.059440
  10 C :   -0.114697
  11 C :    0.118548
  12 C :   -0.084198
  13 C :    0.004436
  14 C :   -0.176401
  15 N :    0.138983
  16 C :    0.114589
  17 C :   -0.101948
  18 C :    0.041811
  19 C :   -0.032642
  20 C :   -0.088895
  21 C :   -0.187629
  22 N :    0.150182
  23 C :    0.154681
  24 N :   -0.256027
  25 C :    0.101610
  26 C :   -0.000620
  27 C :    0.156901
  28 O :   -0.190777
  29 C :   -0.057524
  30 C :   -0.058954
  31 C :    0.148207
  32 O :   -0.180059
  33 N :   -0.257603
  34 C :    0.100160
  35 C :    0.000367
  36 C :    0.152940
  37 C :   -0.007162
  38 C :   -0.086247
  39 C :    0.102975
  40 C :   -0.049567
  41 C :   -0.065099
  42 N :    0.069002
  43 C :   -0.135437
  44 C :   -0.131970
  45 N :    0.073843
  46 C :   -0.190212
  47 N :    0.227942
  48 C :   -0.214408
  49 N :    0.235291
  50 C :    0.109984
  51 C :    0.003870
  52 C :    0.013196
  53 N :   -0.292081
  54 S :    0.555423
  55 N :   -0.265824
  56 C :   -0.064070
  57 C :    0.014971
  58 N :   -0.045233
  59 C :    0.010584
  60 C :    0.004058
  61 C :    0.054857
  62 N :   -0.283830
  63 S :    0.531270
  64 N :   -0.256144
  65 H :    0.000545
  66 H :    0.016140
  67 H :    0.013513
  68 H :    0.006824
  69 H :    0.028395
  70 H :   -0.010612
  71 H :    0.025881
  72 H :    0.045107
  73 H :    0.019182
  74 H :    0.028185
  75 H :    0.040074
  76 H :    0.047337
  77 H :    0.023701
  78 H :    0.040252
  79 H :    0.021269
  80 H :    0.015561
  81 H :   -0.003311
  82 H :    0.030685
  83 H :    0.005254
  84 H :    0.011198
Sum of atomic charges:   -0.0000000

LOEWDIN ATOMIC CHARGES
----------------------
   0 C :   -0.036867
   1 C :    0.021582
   2 N :   -0.055815
   3 C :    0.016670
   4 C :   -0.063705
   5 C :   -0.043545
   6 N :   -0.284602
   7 S :    0.666797
   8 N :   -0.278643
   9 C :   -0.022080
  10 C :    0.011291
  11 C :    0.049675
  12 C :   -0.087176
  13 C :    0.059165
  14 C :   -0.033096
  15 N :   -0.059003
  16 C :    0.032367
  17 C :    0.018862
  18 C :   -0.036561
  19 C :    0.043068
  20 C :   -0.077080
  21 C :   -0.034015
  22 N :   -0.056462
  23 C :    0.074276
  24 N :    0.003461
  25 C :    0.036970
  26 C :   -0.061750
  27 C :    0.079992
  28 O :   -0.182665
  29 C :   -0.111106
  30 C :   -0.104784
  31 C :    0.081583
  32 O :   -0.174231
  33 N :    0.001989
  34 C :    0.037076
  35 C :   -0.060836
  36 C :    0.078242
  37 C :   -0.026253
  38 C :    0.028201
  39 C :   -0.021008
  40 C :    0.000411
  41 C :   -0.003123
  42 N :    0.016199
  43 C :   -0.025476
  44 C :   -0.023102
  45 N :    0.013024
  46 C :   -0.032154
  47 N :   -0.004742
  48 C :   -0.035896
  49 N :   -0.007924
  50 C :   -0.007818
  51 C :   -0.039440
  52 C :   -0.035206
  53 N :   -0.283798
  54 S :    0.685734
  55 N :   -0.276070
  56 C :   -0.046929
  57 C :    0.040381
  58 N :   -0.062364
  59 C :    0.048002
  60 C :   -0.079652
  61 C :   -0.032493
  62 N :   -0.289634
  63 S :    0.673450
  64 N :   -0.273644
  65 H :    0.042211
  66 H :    0.029360
  67 H :    0.039447
  68 H :    0.035065
  69 H :    0.039628
  70 H :    0.036175
  71 H :    0.024541
  72 H :    0.039453
  73 H :    0.020203
  74 H :    0.033132
  75 H :    0.037116
  76 H :    0.039132
  77 H :    0.023775
  78 H :    0.036226
  79 H :    0.030183
  80 H :    0.021867
  81 H :    0.028374
  82 H :    0.040011
  83 H :    0.024536
  84 H :    0.031846

  Mayer bond orders larger than 0.100000
B(  0-C ,  1-C ) :   1.4774 B(  0-C ,  3-C ) :   0.1100 B(  0-C ,  5-C ) :   1.2450
B(  0-C , 65-H ) :   0.9902 B(  1-C ,  2-N ) :   1.4050 B(  1-C , 66-H ) :   0.9737
B(  2-N ,  3-C ) :   1.7329 B(  3-C ,  4-C ) :   1.1369 B(  3-C ,  9-C ) :   1.0266
B(  4-C ,  5-C ) :   1.1709 B(  4-C ,  8-N ) :   1.5293 B(  5-C ,  6-N ) :   1.4942
B(  6-N ,  7-S ) :   1.2902 B(  6-N ,  8-N ) :   0.1533 B(  7-S ,  8-N ) :   1.2742
B(  9-C , 10-C ) :   1.5681 B(  9-C , 13-C ) :   1.0755 B( 10-C , 11-C ) :   1.0661
B( 10-C , 67-H ) :   1.0167 B( 11-C , 12-C ) :   1.1035 B( 11-C , 16-C ) :   1.4002
B( 12-C , 13-C ) :   1.6429 B( 12-C , 14-C ) :   1.0881 B( 13-C , 68-H ) :   1.0072
B( 14-C , 15-N ) :   2.9815 B( 16-C , 17-C ) :   1.1147 B( 16-C , 20-C ) :   1.1012
B( 17-C , 18-C ) :   1.5443 B( 17-C , 69-H ) :   0.9913 B( 18-C , 19-C ) :   1.0276
B( 18-C , 23-C ) :   1.0466 B( 19-C , 20-C ) :   1.6692 B( 19-C , 70-H ) :   1.0248
B( 20-C , 21-C ) :   1.0828 B( 21-C , 22-N ) :   2.9813 B( 23-C , 24-N ) :   1.2079
B( 23-C , 30-C ) :   1.3478 B( 24-N , 25-C ) :   0.9375 B( 24-N , 27-C ) :   1.0421
B( 25-C , 26-C ) :   1.1195 B( 25-C , 71-H ) :   0.9500 B( 25-C , 72-H ) :   0.9273
B( 26-C , 73-H ) :   0.9649 B( 26-C , 74-H ) :   0.9684 B( 26-C , 75-H ) :   0.9603
B( 27-C , 28-O ) :   2.0449 B( 27-C , 29-C ) :   0.9844 B( 29-C , 30-C ) :   1.2712
B( 29-C , 36-C ) :   1.2911 B( 30-C , 31-C ) :   0.9659 B( 31-C , 32-O ) :   2.1012
B( 31-C , 33-N ) :   1.0419 B( 33-N , 34-C ) :   0.9411 B( 33-N , 36-C ) :   1.1726
B( 34-C , 35-C ) :   1.1253 B( 34-C , 76-H ) :   0.9267 B( 34-C , 77-H ) :   0.9490
B( 35-C , 78-H ) :   0.9629 B( 35-C , 79-H ) :   0.9673 B( 35-C , 80-H ) :   0.9674
B( 36-C , 37-C ) :   1.1666 B( 37-C , 38-C ) :   1.5001 B( 37-C , 81-H ) :   0.9500
B( 38-C , 39-C ) :   1.2190 B( 38-C , 82-H ) :   0.9456 B( 39-C , 40-C ) :   1.2242
B( 39-C , 50-C ) :   0.1337 B( 39-C , 52-C ) :   1.1675 B( 40-C , 41-C ) :   1.1087
B( 40-C , 45-N ) :   1.4549 B( 41-C , 42-N ) :   1.4106 B( 41-C , 50-C ) :   1.3254
B( 42-N , 43-C ) :   1.7408 B( 43-C , 44-C ) :   1.1805 B( 43-C , 48-C ) :   1.1541
B( 44-C , 45-N ) :   1.7609 B( 44-C , 46-C ) :   1.1445 B( 46-C , 47-N ) :   3.0432
B( 48-C , 49-N ) :   3.0560 B( 50-C , 51-C ) :   1.2640 B( 50-C , 56-C ) :   0.9782
B( 51-C , 52-C ) :   1.1094 B( 51-C , 55-N ) :   1.5002 B( 52-C , 53-N ) :   1.4979
B( 53-N , 54-S ) :   1.2751 B( 53-N , 55-N ) :   0.1529 B( 54-S , 55-N ) :   1.3001
B( 56-C , 57-C ) :   1.4972 B( 56-C , 59-C ) :   0.1061 B( 56-C , 61-C ) :   1.2352
B( 57-C , 58-N ) :   1.4175 B( 57-C , 83-H ) :   0.9780 B( 58-N , 59-C ) :   1.6964
B( 59-C , 60-C ) :   1.1839 B( 59-C , 84-H ) :   0.9921 B( 60-C , 61-C ) :   1.1915
B( 60-C , 64-N ) :   1.4831 B( 61-C , 62-N ) :   1.4850 B( 62-N , 63-S ) :   1.2741
B( 62-N , 64-N ) :   0.1540 B( 63-S , 64-N ) :   1.3122

-----------------------------------------------------------------------------
         ABSORPTION SPECTRUM VIA TRANSITION ELECTRIC DIPOLE MOMENTS
-----------------------------------------------------------------------------
State   Energy  Wavelength   fosc         T2         TX        TY        TZ
        (cm-1)    (nm)                  (au**2)     (au)      (au)      (au)
-----------------------------------------------------------------------------
   0    7349.2   1360.7   0.587821839  26.33167  -0.82719   5.05755  -0.26192
   1   10912.3    916.4   0.009616514   0.29012  -0.38934  -0.36270   0.08357
   2   15488.9    645.6   0.039631998   0.84237   0.57247  -0.63877  -0.32653
   3   17854.1    560.1   0.147688319   2.72322  -0.22249   1.61724   0.24132
   4   19867.9    503.3   0.048000137   0.79537  -0.17203  -0.78061   0.39550
   5   21346.6    468.5   0.249030884   3.84060   0.09827   1.87362  -0.56612
   6   22982.9    435.1   0.001006535   0.01442  -0.02939   0.11638   0.00319
   7   23318.5    428.8   0.089301034   1.26076  -0.30242   1.05641   0.23088
   8   23649.7    422.8   0.019964837   0.27792  -0.44074   0.06147   0.28264
   9   24466.7    408.7   0.006474384   0.08712  -0.00344   0.18459   0.23029
  10   24528.5    407.7   0.112968317   1.51622   0.34723  -1.12809  -0.35082
  11   24979.1    400.3   0.210786186   2.77806   0.64169  -1.52317  -0.21505
  12   25060.4    399.0   0.251243652   3.30052  -0.88274   1.51061   0.48923
  13   25950.7    385.3   0.013920387   0.17659  -0.32206   0.22643   0.14697
  14   25987.0    384.8   0.051144891   0.64792   0.47204  -0.49610  -0.42306
  15   26199.1    381.7   0.014990098   0.18836   0.17106   0.06106  -0.39417
  16   26231.3    381.2   0.011695858   0.14679  -0.13947   0.35388   0.04586
  17   26943.9    371.1   0.002625934   0.03208  -0.04088  -0.12746   0.11903
  18   27243.8    367.1   0.006703902   0.08101  -0.22721  -0.01756   0.17051
  19   27465.2    364.1   0.003816872   0.04575  -0.18374   0.10016   0.04426
  20   27809.5    359.6   0.000613114   0.00726   0.00155   0.06978  -0.04886
  21   28319.3    353.1   0.122752360   1.42700   0.25918  -1.16380  -0.07343
  22   28631.7    349.3   0.118637709   1.36411   0.48866  -1.01869  -0.29595
  23   30206.6    331.1   0.357941913   3.90110  -1.28389   0.09503   1.49790
  24   31218.2    320.3   0.087798631   0.92588  -0.09064  -0.95071   0.11752
  25   31527.1    317.2   0.035785652   0.37368  -0.00675  -0.60140  -0.10931
  26   31637.5    316.1   0.006761118   0.07035   0.23287  -0.11625  -0.05111
  27   31850.1    314.0   0.004882636   0.05047   0.14853  -0.10121   0.13478
  28   32115.5    311.4   0.111040805   1.13827  -0.76646   0.58341   0.45874
  29   32670.5    306.1   0.129768250   1.30764  -0.63764   0.54576   0.77666
  30   32810.4    304.8   0.076009745   0.76267  -0.37132   0.70900   0.34944
  31   33292.4    300.4   0.024462430   0.24190  -0.27196   0.40607  -0.05510
  32   33361.6    299.7   0.226586843   2.23595   1.02791  -0.52794  -0.94902
  33   33779.3    296.0   0.027957243   0.27247   0.25226  -0.04559  -0.45471
  34   33976.7    294.3   0.067343701   0.65252  -0.51248   0.28475   0.55569
  35   34451.4    290.3   0.033379525   0.31897  -0.13782   0.52007   0.17176
  36   34659.0    288.5   0.000092044   0.00087  -0.02200  -0.00723  -0.01839
  37   34778.3    287.5   0.033729715   0.31929   0.10066  -0.54806  -0.09373
  38   34904.4    286.5   0.051614415   0.48682   0.60780   0.05828  -0.33763
  39   35227.1    283.9   0.003765556   0.03519  -0.03486  -0.18178  -0.03054
  40   35464.4    282.0   0.007029675   0.06526  -0.03809  -0.22708  -0.11064
  41   35880.1    278.7   0.007041229   0.06461  -0.02864  -0.23864  -0.08269
  42   36054.3    277.4   0.002312215   0.02111   0.05140   0.13333   0.02635
  43   36405.3    274.7   0.017994318   0.16272   0.26234   0.27807  -0.12874
  44   36530.2    273.7   0.183069812   1.64983   0.13132   1.24694  -0.27881
  45   36836.0    271.5   0.260591721   2.32897   0.97707   0.33442  -1.12359
  46   37354.7    267.7   0.007484208   0.06596  -0.12558   0.18290   0.12936
  47   37466.2    266.9   0.090582909   0.79594  -0.48097  -0.18182   0.72907
  48   37800.2    264.5   0.022774166   0.19835  -0.27896   0.30273   0.16994
  49   38135.5    262.2   0.008425911   0.07274   0.16504   0.15510  -0.14644
  50   38508.1    259.7   0.050264004   0.42971  -0.25850   0.58303   0.15155
  51   38905.6    257.0   0.038334245   0.32438  -0.36512   0.05347   0.43383
  52   39237.2    254.9   0.027477653   0.23055  -0.04221   0.44925   0.16413
  53   39390.9    253.9   0.044755486   0.37405  -0.17182   0.57884  -0.09733
  54   39451.3    253.5   0.024640494   0.20562  -0.24714   0.12010   0.36072
  55   39755.2    251.5   0.115014509   0.95243  -0.56241  -0.02097   0.79730
  56   39884.5    250.7   0.043992594   0.36312  -0.35125  -0.48955   0.00921
  57   40173.1    248.9   0.027274482   0.22351  -0.30172   0.17760   0.31769
  58   40277.7    248.3   0.000056191   0.00046  -0.01320  -0.01542   0.00687

FINAL SINGLE POINT ENERGY     -3905.850310877732

DIPOLE MOMENT
-------------
                                X             Y             Z
Electronic contribution:      1.94590     -29.55263       1.67994
Nuclear contribution   :     -3.59340      29.93443       0.67002
                        -----------------------------------------
Total Dipole Moment    :     -1.64750       0.38181       2.34996
                        -----------------------------------------
Magnitude (a.u.)       :      2.89523
Magnitude (Debye)      :      7.35909

Rotational constants in cm-1:     0.003075     0.000326     0.000298
Rotational constants in MHz :    92.195096     9.784261     8.941446

                             ****ORCA TERMINATED NORMALLY****
TOTAL RUN TIME: 0 days 0 hours 8 minutes 43 seconds 306 msec
