                         Program Version 4.2.0 -  RELEASE  -
|  1> # ORCA input file
|  2> # SCF done       -186.726203073510          0.000833575137
|  3> ! CAM-B3LYP def2-SVP def2/J RIJCOSX Grid4 TightSCF
|  4> %maxcore 5000
|  5> %tddft
|  6>     Mode sTDDFT
|  7>     Ethresh 5.0
|  8>     maxcore 5000
|  9> end
| 10>
| 11> %pal
| 12>   nprocs 6
| 13>   end
| 14> * xyz 0 1
| 15>    C        1.81379         0.15432        -2.20878
| 16>    C        2.63527         0.19230        -3.30704
| 17>    N        2.79225        -0.80615        -4.18607
| 18>    C        2.14802        -1.93310        -4.03577
| 19>    C        1.25551        -2.11122        -2.94296
| 20>    C        1.09334        -1.03367        -2.00829
| 21>    N        0.23148        -1.34920        -1.03803
| 22>    S       -0.29610        -2.84225        -1.27972
| 23>    N        0.52394        -3.17971        -2.62228
| 24>    C        2.31894        -3.04104        -4.95799
| 25>    C        3.46288        -3.73657        -5.25773
| 26>    N        4.76567        -3.48331        -4.76990
| 27>    O        5.69141        -3.98369        -5.38000
| 28>    O        4.87892        -2.81641        -3.75962
| 29>    C        3.13127        -4.86657        -6.10194
| 30>    C        1.78743        -4.91062        -6.24420
| 31>    C        1.21302        -3.77145        -5.56018
| 32>    C       -0.10314        -3.36031        -5.55299
| 33>    C       -0.57044        -2.01187        -5.50912
| 34>    C       -1.90157        -2.00037        -5.80776
| 35>    C       -2.35605        -3.34846        -5.96454
| 36>    N       -3.70759        -3.68862        -6.14351
| 37>    O       -4.03323        -4.85946        -6.03281
| 38>    O       -4.48378        -2.78087        -6.39021
| 39>    C       -1.28074        -4.21802        -5.78328
| 40>    C       -1.30550        -5.61645        -5.66473
| 41>    C       -0.41495        -6.30909        -4.88408
| 42>    C       -0.41531        -7.70788        -4.78011
| 43>    N        0.31146        -8.41424        -3.84699
| 44>    C        1.12975        -7.84916        -2.79937
| 45>    C        0.28880        -7.25189        -1.67439
| 46>    C        0.11937        -9.79369        -3.96539
| 47>    O        0.64744       -10.62108        -3.24528
| 48>    C       -0.78634        -9.93780        -5.08865
| 49>    C       -1.09294        -8.65288        -5.56591
| 50>    C       -1.95353        -8.79448        -6.72605
| 51>    O       -2.43012        -7.98569        -7.48849
| 52>    N       -2.12993       -10.18748        -6.85446
| 53>    C       -2.98848       -10.73757        -7.87591
| 54>    C       -4.35452       -11.12667        -7.31717
| 55>    C       -1.44479       -10.88566        -5.89413
| 56>    C       -1.41605       -12.28736        -5.79220
| 57>    C       -0.69363       -12.91946        -4.81743
| 58>    C       -0.59747       -14.30655        -4.65620
| 59>    S       -1.43508       -15.44059        -5.67197
| 60>    C       -0.80665       -16.81360        -4.83893
| 61>    C        0.05508       -16.41678        -3.80375
| 62>    C        0.16932       -14.99511        -3.69651
| 63>    C        0.99975       -14.42117        -2.71639
| 64>    C        1.71174       -15.24034        -1.88285
| 65>    C        2.61194       -14.67037        -0.81998
| 66>    F        2.59092       -13.33342        -0.78440
| 67>    F        2.26815       -15.08828         0.41017
| 68>    F        3.89526       -15.02597        -1.00198
| 69>    C        1.63403       -16.65578        -2.00610
| 70>    C        2.39219       -17.50071        -1.15952
| 71>    N        2.99090       -18.21738        -0.49667
| 72>    C        0.82125       -17.23292        -2.95480
| 73>    C       -1.19433       -18.12199        -5.29022
| 74>    C       -1.50270       -18.34744        -6.63016
| 75>    N       -1.90451       -19.50097        -7.15695
| 76>    C       -2.04509       -20.55951        -6.40491
| 77>    C       -1.77495       -20.49972        -5.02645
| 78>    C       -1.34243       -19.25412        -4.44835
| 79>    N       -1.18548       -19.35453        -3.12772
| 80>    S       -1.52909       -20.85675        -2.67376
| 81>    N       -1.89936       -21.45978        -4.10736
| 82>    H        1.71559         0.98379        -1.52943
| 83>    H        3.21880         1.07340        -3.53380
| 84>    H        3.86731        -5.53016        -6.51348
| 85>    H        1.22396        -5.59796        -6.84441
| 86>    H        0.06041        -1.15237        -5.38779
| 87>    H       -2.54162        -1.14361        -5.90695
| 88>    H       -2.12583        -6.14062        -6.14151
| 89>    H        0.28152        -5.75513        -4.27006
| 90>    H        1.79548        -7.09383        -3.22678
| 91>    H        1.73396        -8.67360        -2.41096
| 92>    H       -0.34083        -6.44495        -2.04224
| 93>    H        0.94317        -6.85870        -0.90185
| 94>    H       -0.34551        -8.01798        -1.23514
| 95>    H       -2.49720       -11.59560        -8.34308
| 96>    H       -3.11032        -9.94942        -8.62394
| 97>    H       -4.26087       -11.88911        -6.54687
| 98>    H       -4.98119       -11.51136        -8.11662
| 99>    H       -4.83979       -10.25487        -6.88571
|100>    H       -1.97218       -12.87370        -6.51057
|101>    H       -0.14183       -12.31522        -4.10942
|102>    H        1.07755       -13.34843        -2.62710
|103>    H        0.77027       -18.30515        -3.03444
|104>    H       -1.40607       -17.53778        -7.34220
|105>    H       -2.38591       -21.46996        -6.87405
|106> *
|107>
|108>                          ****END OF INPUT****

CARTESIAN COORDINATES (ANGSTROEM)
---------------------------------
  C      1.813790    0.154320   -2.208780
  C      2.635270    0.192300   -3.307040
  N      2.792250   -0.806150   -4.186070
  C      2.148020   -1.933100   -4.035770
  C      1.255510   -2.111220   -2.942960
  C      1.093340   -1.033670   -2.008290
  N      0.231480   -1.349200   -1.038030
  S     -0.296100   -2.842250   -1.279720
  N      0.523940   -3.179710   -2.622280
  C      2.318940   -3.041040   -4.957990
  C      3.462880   -3.736570   -5.257730
  N      4.765670   -3.483310   -4.769900
  O      5.691410   -3.983690   -5.380000
  O      4.878920   -2.816410   -3.759620
  C      3.131270   -4.866570   -6.101940
  C      1.787430   -4.910620   -6.244200
  C      1.213020   -3.771450   -5.560180
  C     -0.103140   -3.360310   -5.552990
  C     -0.570440   -2.011870   -5.509120
  C     -1.901570   -2.000370   -5.807760
  C     -2.356050   -3.348460   -5.964540
  N     -3.707590   -3.688620   -6.143510
  O     -4.033230   -4.859460   -6.032810
  O     -4.483780   -2.780870   -6.390210
  C     -1.280740   -4.218020   -5.783280
  C     -1.305500   -5.616450   -5.664730
  C     -0.414950   -6.309090   -4.884080
  C     -0.415310   -7.707880   -4.780110
  N      0.311460   -8.414240   -3.846990
  C      1.129750   -7.849160   -2.799370
  C      0.288800   -7.251890   -1.674390
  C      0.119370   -9.793690   -3.965390
  O      0.647440  -10.621080   -3.245280
  C     -0.786340   -9.937800   -5.088650
  C     -1.092940   -8.652880   -5.565910
  C     -1.953530   -8.794480   -6.726050
  O     -2.430120   -7.985690   -7.488490
  N     -2.129930  -10.187480   -6.854460
  C     -2.988480  -10.737570   -7.875910
  C     -4.354520  -11.126670   -7.317170
  C     -1.444790  -10.885660   -5.894130
  C     -1.416050  -12.287360   -5.792200
  C     -0.693630  -12.919460   -4.817430
  C     -0.597470  -14.306550   -4.656200
  S     -1.435080  -15.440590   -5.671970
  C     -0.806650  -16.813600   -4.838930
  C      0.055080  -16.416780   -3.803750
  C      0.169320  -14.995110   -3.696510
  C      0.999750  -14.421170   -2.716390
  C      1.711740  -15.240340   -1.882850
  C      2.611940  -14.670370   -0.819980
  F      2.590920  -13.333420   -0.784400
  F      2.268150  -15.088280    0.410170
  F      3.895260  -15.025970   -1.001980
  C      1.634030  -16.655780   -2.006100
  C      2.392190  -17.500710   -1.159520
  N      2.990900  -18.217380   -0.496670
  C      0.821250  -17.232920   -2.954800
  C     -1.194330  -18.121990   -5.290220
  C     -1.502700  -18.347440   -6.630160
  N     -1.904510  -19.500970   -7.156950
  C     -2.045090  -20.559510   -6.404910
  C     -1.774950  -20.499720   -5.026450
  C     -1.342430  -19.254120   -4.448350
  N     -1.185480  -19.354530   -3.127720
  S     -1.529090  -20.856750   -2.673760
  N     -1.899360  -21.459780   -4.107360
  H      1.715590    0.983790   -1.529430
  H      3.218800    1.073400   -3.533800
  H      3.867310   -5.530160   -6.513480
  H      1.223960   -5.597960   -6.844410
  H      0.060410   -1.152370   -5.387790
  H     -2.541620   -1.143610   -5.906950
  H     -2.125830   -6.140620   -6.141510
  H      0.281520   -5.755130   -4.270060
  H      1.795480   -7.093830   -3.226780
  H      1.733960   -8.673600   -2.410960
  H     -0.340830   -6.444950   -2.042240
  H      0.943170   -6.858700   -0.901850
  H     -0.345510   -8.017980   -1.235140
  H     -2.497200  -11.595600   -8.343080
  H     -3.110320   -9.949420   -8.623940
  H     -4.260870  -11.889110   -6.546870
  H     -4.981190  -11.511360   -8.116620
  H     -4.839790  -10.254870   -6.885710
  H     -1.972180  -12.873700   -6.510570
  H     -0.141830  -12.315220   -4.109420
  H      1.077550  -13.348430   -2.627100
  H      0.770270  -18.305150   -3.034440
  H     -1.406070  -17.537780   -7.342200
  H     -2.385910  -21.469960   -6.874050

 Total Charge           Charge          ....    0
 Multiplicity           Mult            ....    1
 Number of Electrons    NEL             ....  488
 Basis Dimension        Dim             .... 1070

ORBITAL ENERGIES
----------------

  NO   OCC          E(Eh)            E(eV)
   0   2.0000     -89.054945     -2423.3082
   1   2.0000     -89.039663     -2422.8924
   2   2.0000     -89.001535     -2421.8549
   3   2.0000     -24.802247      -674.9034
   4   2.0000     -24.796230      -674.7397
   5   2.0000     -24.795918      -674.7312
   6   2.0000     -19.239590      -523.5359
   7   2.0000     -19.238147      -523.4966
   8   2.0000     -19.228107      -523.2234
   9   2.0000     -19.228041      -523.2216
  10   2.0000     -19.208983      -522.7030
  11   2.0000     -19.200621      -522.4755
  12   2.0000     -14.646689      -398.5567
  13   2.0000     -14.637737      -398.3131
  14   2.0000     -14.468299      -393.7024
  15   2.0000     -14.467865      -393.6906
  16   2.0000     -14.464149      -393.5895
  17   2.0000     -14.462947      -393.5568
  18   2.0000     -14.456750      -393.3882
  19   2.0000     -14.448185      -393.1551
  20   2.0000     -14.436184      -392.8285
  21   2.0000     -14.418906      -392.3584
  22   2.0000     -14.408963      -392.0878
  23   2.0000     -10.520415      -286.2751
  24   2.0000     -10.390179      -282.7311
  25   2.0000     -10.384201      -282.5685
  26   2.0000     -10.358495      -281.8690
  27   2.0000     -10.356507      -281.8149
  28   2.0000     -10.349414      -281.6219
  29   2.0000     -10.347282      -281.5639
  30   2.0000     -10.343694      -281.4662
  31   2.0000     -10.343354      -281.4570
  32   2.0000     -10.342081      -281.4223
  33   2.0000     -10.338555      -281.3264
  34   2.0000     -10.335287      -281.2375
  35   2.0000     -10.335237      -281.2361
  36   2.0000     -10.334789      -281.2239
  37   2.0000     -10.333529      -281.1896
  38   2.0000     -10.332420      -281.1594
  39   2.0000     -10.332008      -281.1482
  40   2.0000     -10.328227      -281.0453
  41   2.0000     -10.323402      -280.9140
  42   2.0000     -10.321875      -280.8725
  43   2.0000     -10.321595      -280.8649
  44   2.0000     -10.320523      -280.8357
  45   2.0000     -10.319667      -280.8124
  46   2.0000     -10.318710      -280.7864
  47   2.0000     -10.317396      -280.7506
  48   2.0000     -10.316380      -280.7230
  49   2.0000     -10.316095      -280.7152
  50   2.0000     -10.314422      -280.6697
  51   2.0000     -10.314326      -280.6671
  52   2.0000     -10.311657      -280.5945
  53   2.0000     -10.309199      -280.5276
  54   2.0000     -10.308260      -280.5020
  55   2.0000     -10.307487      -280.4810
  56   2.0000     -10.307051      -280.4691
  57   2.0000     -10.301707      -280.3237
  58   2.0000     -10.300176      -280.2820
  59   2.0000     -10.293646      -280.1043
  60   2.0000     -10.292506      -280.0733
  61   2.0000     -10.288853      -279.9739
  62   2.0000     -10.284486      -279.8551
  63   2.0000     -10.280776      -279.7541
  64   2.0000     -10.275082      -279.5992
  65   2.0000     -10.274118      -279.5730
  66   2.0000     -10.269548      -279.4486
  67   2.0000      -8.146431      -221.6757
  68   2.0000      -8.131303      -221.2640
  69   2.0000      -8.096326      -220.3122
  70   2.0000      -6.117465      -166.4647
  71   2.0000      -6.109633      -166.2516
  72   2.0000      -6.109285      -166.2421
  73   2.0000      -6.102388      -166.0544
  74   2.0000      -6.094586      -165.8421
  75   2.0000      -6.094007      -165.8264
  76   2.0000      -6.065150      -165.0411
  77   2.0000      -6.061113      -164.9313
  78   2.0000      -6.059393      -164.8845
  79   2.0000      -1.389049       -37.7980
  80   2.0000      -1.318595       -35.8808
  81   2.0000      -1.307456       -35.5777
  82   2.0000      -1.292628       -35.1742
  83   2.0000      -1.288012       -35.0486
  84   2.0000      -1.154252       -31.4088
  85   2.0000      -1.149213       -31.2717
  86   2.0000      -1.139206       -30.9994
  87   2.0000      -1.138556       -30.9817
  88   2.0000      -1.136585       -30.9280
  89   2.0000      -1.124836       -30.6084
  90   2.0000      -1.078778       -29.3550
  91   2.0000      -1.068658       -29.0797
  92   2.0000      -1.067783       -29.0559
  93   2.0000      -1.054690       -28.6996
  94   2.0000      -1.034094       -28.1391
  95   2.0000      -1.015730       -27.6394
  96   2.0000      -1.005645       -27.3650
  97   2.0000      -0.999360       -27.1940
  98   2.0000      -0.995552       -27.0903
  99   2.0000      -0.988370       -26.8949
 100   2.0000      -0.971873       -26.4460
 101   2.0000      -0.946840       -25.7648
 102   2.0000      -0.939652       -25.5692
 103   2.0000      -0.922674       -25.1072
 104   2.0000      -0.918545       -24.9949
 105   2.0000      -0.908849       -24.7310
 106   2.0000      -0.903808       -24.5939
 107   2.0000      -0.901453       -24.5298
 108   2.0000      -0.893623       -24.3167
 109   2.0000      -0.885175       -24.0868
 110   2.0000      -0.881859       -23.9966
 111   2.0000      -0.877498       -23.8779
 112   2.0000      -0.875715       -23.8294
 113   2.0000      -0.851548       -23.1718
 114   2.0000      -0.844948       -22.9922
 115   2.0000      -0.831185       -22.6177
 116   2.0000      -0.827539       -22.5185
 117   2.0000      -0.807264       -21.9668
 118   2.0000      -0.798522       -21.7289
 119   2.0000      -0.793781       -21.5999
 120   2.0000      -0.779997       -21.2248
 121   2.0000      -0.770747       -20.9731
 122   2.0000      -0.766814       -20.8661
 123   2.0000      -0.760667       -20.6988
 124   2.0000      -0.755512       -20.5585
 125   2.0000      -0.743816       -20.2403
 126   2.0000      -0.740694       -20.1553
 127   2.0000      -0.729555       -19.8522
 128   2.0000      -0.727256       -19.7896
 129   2.0000      -0.726743       -19.7757
 130   2.0000      -0.720132       -19.5958
 131   2.0000      -0.711729       -19.3671
 132   2.0000      -0.705319       -19.1927
 133   2.0000      -0.692817       -18.8525
 134   2.0000      -0.688201       -18.7269
 135   2.0000      -0.678007       -18.4495
 136   2.0000      -0.671701       -18.2779
 137   2.0000      -0.670328       -18.2405
 138   2.0000      -0.669866       -18.2280
 139   2.0000      -0.660805       -17.9814
 140   2.0000      -0.652665       -17.7599
 141   2.0000      -0.649912       -17.6850
 142   2.0000      -0.638462       -17.3734
 143   2.0000      -0.636299       -17.3146
 144   2.0000      -0.634666       -17.2701
 145   2.0000      -0.630730       -17.1630
 146   2.0000      -0.628725       -17.1085
 147   2.0000      -0.622087       -16.9279
 148   2.0000      -0.619292       -16.8518
 149   2.0000      -0.618441       -16.8286
 150   2.0000      -0.616857       -16.7855
 151   2.0000      -0.610911       -16.6237
 152   2.0000      -0.607812       -16.5394
 153   2.0000      -0.599805       -16.3215
 154   2.0000      -0.598494       -16.2858
 155   2.0000      -0.592271       -16.1165
 156   2.0000      -0.589595       -16.0437
 157   2.0000      -0.588459       -16.0128
 158   2.0000      -0.580938       -15.8081
 159   2.0000      -0.579062       -15.7571
 160   2.0000      -0.577439       -15.7129
 161   2.0000      -0.571323       -15.5465
 162   2.0000      -0.564677       -15.3656
 163   2.0000      -0.562676       -15.3112
 164   2.0000      -0.561244       -15.2722
 165   2.0000      -0.558809       -15.2060
 166   2.0000      -0.556695       -15.1485
 167   2.0000      -0.554433       -15.0869
 168   2.0000      -0.549889       -14.9632
 169   2.0000      -0.546801       -14.8792
 170   2.0000      -0.544625       -14.8200
 171   2.0000      -0.542121       -14.7519
 172   2.0000      -0.539593       -14.6831
 173   2.0000      -0.534873       -14.5546
 174   2.0000      -0.534254       -14.5378
 175   2.0000      -0.533263       -14.5108
 176   2.0000      -0.528109       -14.3706
 177   2.0000      -0.523637       -14.2489
 178   2.0000      -0.522813       -14.2265
 179   2.0000      -0.520367       -14.1599
 180   2.0000      -0.516172       -14.0458
 181   2.0000      -0.514576       -14.0023
 182   2.0000      -0.511681       -13.9236
 183   2.0000      -0.508818       -13.8456
 184   2.0000      -0.506708       -13.7882
 185   2.0000      -0.501851       -13.6561
 186   2.0000      -0.498265       -13.5585
 187   2.0000      -0.498127       -13.5547
 188   2.0000      -0.494979       -13.4691
 189   2.0000      -0.492486       -13.4012
 190   2.0000      -0.487670       -13.2702
 191   2.0000      -0.485945       -13.2232
 192   2.0000      -0.484512       -13.1842
 193   2.0000      -0.483990       -13.1700
 194   2.0000      -0.480809       -13.0835
 195   2.0000      -0.478107       -13.0100
 196   2.0000      -0.476611       -12.9692
 197   2.0000      -0.475667       -12.9436
 198   2.0000      -0.475515       -12.9394
 199   2.0000      -0.472803       -12.8656
 200   2.0000      -0.468128       -12.7384
 201   2.0000      -0.466485       -12.6937
 202   2.0000      -0.464237       -12.6325
 203   2.0000      -0.462203       -12.5772
 204   2.0000      -0.458869       -12.4865
 205   2.0000      -0.453882       -12.3508
 206   2.0000      -0.444828       -12.1044
 207   2.0000      -0.444235       -12.0882
 208   2.0000      -0.443395       -12.0654
 209   2.0000      -0.441312       -12.0087
 210   2.0000      -0.437434       -11.9032
 211   2.0000      -0.436062       -11.8659
 212   2.0000      -0.429319       -11.6824
 213   2.0000      -0.428436       -11.6583
 214   2.0000      -0.420924       -11.4539
 215   2.0000      -0.420538       -11.4434
 216   2.0000      -0.414496       -11.2790
 217   2.0000      -0.412988       -11.2380
 218   2.0000      -0.410034       -11.1576
 219   2.0000      -0.395048       -10.7498
 220   2.0000      -0.386755       -10.5241
 221   2.0000      -0.384753       -10.4697
 222   2.0000      -0.381952       -10.3934
 223   2.0000      -0.377506       -10.2725
 224   2.0000      -0.375995       -10.2314
 225   2.0000      -0.372022       -10.1232
 226   2.0000      -0.368695       -10.0327
 227   2.0000      -0.366713        -9.9788
 228   2.0000      -0.361919        -9.8483
 229   2.0000      -0.360341        -9.8054
 230   2.0000      -0.358761        -9.7624
 231   2.0000      -0.357730        -9.7343
 232   2.0000      -0.355334        -9.6691
 233   2.0000      -0.347647        -9.4600
 234   2.0000      -0.345259        -9.3950
 235   2.0000      -0.342926        -9.3315
 236   2.0000      -0.342888        -9.3305
 237   2.0000      -0.334645        -9.1062
 238   2.0000      -0.330203        -8.9853
 239   2.0000      -0.329669        -8.9707
 240   2.0000      -0.309202        -8.4138
 241   2.0000      -0.297724        -8.1015
 242   2.0000      -0.284976        -7.7546
 243   2.0000      -0.238591        -6.4924
 244   0.0000      -0.136370        -3.7108
 245   0.0000      -0.109014        -2.9664
 246   0.0000      -0.084000        -2.2858
 247   0.0000      -0.074876        -2.0375
 248   0.0000      -0.062977        -1.7137

MULLIKEN ATOMIC CHARGES
-----------------------
   0 C :   -0.018732
   1 C :    0.036482
   2 N :   -0.016490
   3 C :   -0.148894
   4 C :    0.011362
   5 C :    0.069622
   6 N :   -0.262446
   7 S :    0.521364
   8 N :   -0.264193
   9 C :    0.069188
  10 C :    0.097726
  11 N :    0.262624
  12 O :   -0.240956
  13 O :   -0.228758
  14 C :    0.003082
  15 C :    0.014112
  16 C :    0.010213
  17 C :    0.030546
  18 C :    0.000511
  19 C :    0.020799
  20 C :    0.087643
  21 N :    0.273356
  22 O :   -0.252026
  23 O :   -0.258397
  24 C :    0.032824
  25 C :   -0.025390
  26 C :   -0.045586
  27 C :    0.119212
  28 N :   -0.246862
  29 C :    0.096404
  30 C :    0.005144
  31 C :    0.166897
  32 O :   -0.225187
  33 C :   -0.083536
  34 C :   -0.038854
  35 C :    0.152248
  36 O :   -0.172261
  37 N :   -0.258007
  38 C :    0.095389
  39 C :    0.001425
  40 C :    0.154782
  41 C :   -0.045694
  42 C :    0.015448
  43 C :   -0.087058
  44 S :    0.178258
  45 C :   -0.130598
  46 C :    0.147047
  47 C :    0.109612
  48 C :   -0.081038
  49 C :   -0.054096
  50 C :    0.529786
  51 F :   -0.145688
  52 F :   -0.159135
  53 F :   -0.159034
  54 C :   -0.090280
  55 C :   -0.165577
  56 N :    0.133805
  57 C :   -0.011052
  58 C :    0.033373
  59 C :   -0.032644
  60 N :   -0.035281
  61 C :    0.013221
  62 C :    0.004292
  63 C :    0.040580
  64 N :   -0.293320
  65 S :    0.548581
  66 N :   -0.248512
  67 H :   -0.001330
  68 H :    0.013489
  69 H :   -0.001522
  70 H :    0.006261
  71 H :    0.003743
  72 H :    0.006774
  73 H :    0.044510
  74 H :    0.023037
  75 H :    0.031110
  76 H :    0.046384
  77 H :    0.012037
  78 H :    0.025875
  79 H :    0.028162
  80 H :    0.023751
  81 H :    0.050568
  82 H :    0.015365
  83 H :    0.028005
  84 H :    0.036867
  85 H :   -0.025278
  86 H :    0.027151
  87 H :    0.020514
  88 H :   -0.005989
  89 H :    0.014318
  90 H :    0.014820
Sum of atomic charges:   -0.0000000

LOEWDIN ATOMIC CHARGES
----------------------
   0 C :   -0.036039
   1 C :    0.023713
   2 N :   -0.054171
   3 C :    0.007833
   4 C :   -0.064719
   5 C :   -0.042921
   6 N :   -0.283573
   7 S :    0.662973
   8 N :   -0.285701
   9 C :   -0.010891
  10 C :   -0.009470
  11 N :    0.283265
  12 O :   -0.204181
  13 O :   -0.198708
  14 C :   -0.014245
  15 C :   -0.025823
  16 C :    0.030119
  17 C :    0.057740
  18 C :   -0.053597
  19 C :    0.032445
  20 C :   -0.059396
  21 N :    0.283881
  22 O :   -0.215686
  23 O :   -0.222236
  24 C :    0.011522
  25 C :    0.023314
  26 C :   -0.008831
  27 C :    0.052407
  28 N :    0.005813
  29 C :    0.038489
  30 C :   -0.060442
  31 C :    0.076526
  32 O :   -0.214719
  33 C :   -0.124967
  34 C :   -0.092553
  35 C :    0.083825
  36 O :   -0.167309
  37 N :   -0.000108
  38 C :    0.036973
  39 C :   -0.060380
  40 C :    0.088346
  41 C :   -0.064214
  42 C :    0.025173
  43 C :   -0.179237
  44 S :    0.511078
  45 C :   -0.142911
  46 C :   -0.041518
  47 C :   -0.022511
  48 C :    0.016732
  49 C :   -0.058109
  50 C :    0.168762
  51 F :   -0.047370
  52 F :   -0.056067
  53 F :   -0.056420
  54 C :   -0.060760
  55 C :   -0.040114
  56 N :   -0.042177
  57 C :    0.044813
  58 C :   -0.071557
  59 C :    0.015952
  60 N :   -0.055475
  61 C :    0.046539
  62 C :   -0.076277
  63 C :   -0.037390
  64 N :   -0.285657
  65 S :    0.684849
  66 N :   -0.265213
  67 H :    0.042150
  68 H :    0.028866
  69 H :    0.036789
  70 H :    0.033838
  71 H :    0.031479
  72 H :    0.039895
  73 H :    0.044867
  74 H :    0.036607
  75 H :    0.026370
  76 H :    0.039092
  77 H :    0.019873
  78 H :    0.032196
  79 H :    0.031585
  80 H :    0.023240
  81 H :    0.040204
  82 H :    0.021447
  83 H :    0.032699
  84 H :    0.035263
  85 H :    0.022092
  86 H :    0.044059
  87 H :    0.047128
  88 H :    0.036457
  89 H :    0.020273
  90 H :    0.034092

  Mayer bond orders larger than 0.100000
B(  0-C ,  1-C ) :   1.5109 B(  0-C ,  3-C ) :   0.1116 B(  0-C ,  5-C ) :   1.2359
B(  0-C , 67-H ) :   0.9910 B(  1-C ,  2-N ) :   1.3601 B(  1-C , 68-H ) :   0.9737
B(  2-N ,  3-C ) :   1.7681 B(  3-C ,  4-C ) :   1.1510 B(  3-C ,  9-C ) :   0.9351
B(  4-C ,  5-C ) :   1.1901 B(  4-C ,  8-N ) :   1.5217 B(  5-C ,  6-N ) :   1.5010
B(  6-N ,  7-S ) :   1.2905 B(  6-N ,  8-N ) :   0.1541 B(  7-S ,  8-N ) :   1.2760
B(  9-C , 10-C ) :   1.6574 B(  9-C , 16-C ) :   1.1140 B( 10-C , 11-N ) :   0.9118
B( 10-C , 14-C ) :   1.1159 B( 11-N , 12-O ) :   1.5235 B( 11-N , 13-O ) :   1.5417
B( 12-O , 13-O ) :   0.2784 B( 14-C , 15-C ) :   1.6017 B( 14-C , 69-H ) :   1.0165
B( 15-C , 16-C ) :   1.1058 B( 15-C , 70-H ) :   0.9948 B( 16-C , 17-C ) :   1.4615
B( 17-C , 18-C ) :   1.1719 B( 17-C , 24-C ) :   1.0038 B( 18-C , 19-C ) :   1.5262
B( 18-C , 71-H ) :   1.0000 B( 19-C , 20-C ) :   1.1533 B( 19-C , 72-H ) :   1.0137
B( 20-C , 21-N ) :   0.9547 B( 20-C , 24-C ) :   1.4548 B( 21-N , 22-O ) :   1.4985
B( 21-N , 23-O ) :   1.5179 B( 22-O , 23-O ) :   0.2568 B( 24-C , 25-C ) :   1.2310
B( 25-C , 26-C ) :   1.4814 B( 25-C , 73-H ) :   0.9384 B( 26-C , 27-C ) :   1.2135
B( 26-C , 74-H ) :   0.9399 B( 27-C , 28-N ) :   1.1483 B( 27-C , 34-C ) :   1.3134
B( 28-N , 29-C ) :   0.9421 B( 28-N , 31-C ) :   1.0873 B( 29-C , 30-C ) :   1.1213
B( 29-C , 75-H ) :   0.9490 B( 29-C , 76-H ) :   0.9290 B( 30-C , 77-H ) :   0.9669
B( 30-C , 78-H ) :   0.9674 B( 30-C , 79-H ) :   0.9631 B( 31-C , 32-O ) :   1.9861
B( 31-C , 33-C ) :   1.0012 B( 32-O , 86-H ) :   0.1132 B( 33-C , 34-C ) :   1.2991
B( 33-C , 40-C ) :   1.2687 B( 34-C , 35-C ) :   0.9624 B( 35-C , 36-O ) :   2.1037
B( 35-C , 37-N ) :   1.0378 B( 37-N , 38-C ) :   0.9419 B( 37-N , 40-C ) :   1.1749
B( 38-C , 39-C ) :   1.1204 B( 38-C , 80-H ) :   0.9500 B( 38-C , 81-H ) :   0.9282
B( 39-C , 82-H ) :   0.9685 B( 39-C , 83-H ) :   0.9680 B( 39-C , 84-H ) :   0.9637
B( 40-C , 41-C ) :   1.2115 B( 41-C , 42-C ) :   1.5137 B( 41-C , 85-H ) :   0.9655
B( 42-C , 43-C ) :   1.2304 B( 42-C , 86-H ) :   0.9400 B( 43-C , 44-S ) :   1.1141
B( 43-C , 45-C ) :   0.1100 B( 43-C , 47-C ) :   1.3018 B( 44-S , 45-C ) :   1.2094
B( 45-C , 46-C ) :   1.3436 B( 45-C , 58-C ) :   1.0551 B( 46-C , 47-C ) :   1.1984
B( 46-C , 57-C ) :   1.1944 B( 47-C , 48-C ) :   1.2022 B( 48-C , 49-C ) :   1.5540
B( 48-C , 87-H ) :   0.9908 B( 49-C , 50-C ) :   0.9382 B( 49-C , 54-C ) :   1.2066
B( 50-C , 51-F ) :   1.1747 B( 50-C , 52-F ) :   1.1568 B( 50-C , 53-F ) :   1.1582
B( 54-C , 55-C ) :   1.0644 B( 54-C , 57-C ) :   1.5746 B( 55-C , 56-N ) :   3.0469
B( 57-C , 88-H ) :   0.9774 B( 58-C , 59-C ) :   1.4522 B( 58-C , 61-C ) :   0.1041
B( 58-C , 63-C ) :   1.2184 B( 59-C , 60-N ) :   1.4399 B( 59-C , 89-H ) :   0.9814
B( 60-N , 61-C ) :   1.6889 B( 61-C , 62-C ) :   1.1844 B( 61-C , 90-H ) :   0.9930
B( 62-C , 63-C ) :   1.1833 B( 62-C , 66-N ) :   1.4895 B( 63-C , 64-N ) :   1.5007
B( 64-N , 65-S ) :   1.2609 B( 64-N , 66-N ) :   0.1483 B( 65-S , 66-N ) :   1.3152

-----------------------------------------------------------------------------
         ABSORPTION SPECTRUM VIA TRANSITION ELECTRIC DIPOLE MOMENTS
-----------------------------------------------------------------------------
State   Energy  Wavelength   fosc         T2         TX        TY        TZ
        (cm-1)    (nm)                  (au**2)     (au)      (au)      (au)
-----------------------------------------------------------------------------
   0    7126.4   1403.2   0.434672074  20.08019   0.66728   4.43110  -0.01767
   1   14120.3    708.2   0.405936937   9.46436  -0.13325   3.07239   0.08390
   2   15929.6    627.8   0.002997386   0.06195  -0.01580  -0.01530  -0.24792
   3   18376.1    544.2   0.053705679   0.96215  -0.28190   0.93795   0.05414
   4   19872.9    503.2   0.156223512   2.58799  -0.43810   1.47899  -0.45676
   5   19983.7    500.4   0.165084396   2.71961  -0.15903  -1.63524   0.14245
   6   21479.9    465.6   0.004806037   0.07366  -0.04356  -0.20089  -0.17722
   7   22984.0    435.1   0.028309938   0.40550   0.36272  -0.05463   0.52053
   8   23312.1    429.0   0.017835644   0.25187   0.47200   0.13634   0.10247
   9   24127.1    414.5   0.000733873   0.01001   0.01617   0.07522   0.06398
  10   24719.9    404.5   0.022730930   0.30272   0.08555  -0.46910  -0.27450
  11   25223.8    396.5   0.016358459   0.21350  -0.45225  -0.08929  -0.03166
  12   25853.4    386.8   0.055741348   0.70980  -0.82129  -0.18598  -0.02642
  13   26244.0    381.0   0.098099111   1.23058   0.93864   0.58070  -0.11101
  14   26470.9    377.8   0.013828156   0.17198  -0.26771  -0.30188   0.09581
  15   27568.0    362.7   0.040318477   0.48148  -0.41212   0.42323  -0.36401
  16   28101.1    355.9   0.125421110   1.46934  -1.11733   0.18190  -0.43339
  17   28669.0    348.8   0.048555815   0.55758  -0.13412  -0.48193  -0.55438
  18   29053.3    344.2   0.079841450   0.90471   0.52114  -0.53047   0.59305
  19   29473.9    339.3   0.017888938   0.19981  -0.25190   0.24296   0.27808
  20   29855.0    335.0   0.002934221   0.03236   0.04259  -0.14438  -0.09846
  21   29983.1    333.5   0.138626437   1.52211   1.01992  -0.48854  -0.49315
  22   30044.3    332.8   0.023993143   0.26291  -0.29681   0.36846  -0.19760
  23   30583.8    327.0   0.183910615   1.97966  -0.99808   0.98748  -0.09154
  24   30891.4    323.7   0.069293265   0.73846  -0.47258   0.71702  -0.03183
  25   30968.8    322.9   0.017547747   0.18654   0.34297  -0.18262   0.18858
  26   31604.5    316.4   0.030895703   0.32183   0.46985   0.26661  -0.17318
  27   31866.9    313.8   0.008159109   0.08429  -0.16335   0.11047   0.21308
  28   31997.8    312.5   0.040834932   0.42013   0.61643  -0.14932   0.13362
  29   32068.7    311.8   0.019480938   0.19999   0.32819  -0.19378  -0.23394
  30   32333.4    309.3   0.026239554   0.26717  -0.22593  -0.02509  -0.46421
  31   32473.2    307.9   0.119523972   1.21173   0.63701   0.27352   0.85507
  32   32977.1    303.2   0.023586788   0.23547   0.06415   0.26276  -0.40288
  33   33373.9    299.6   0.034410403   0.33944   0.42473  -0.34316   0.20319
  34   33653.1    297.1   0.126776459   1.24019   0.59192  -0.74555   0.57791
  35   33804.3    295.8   0.331933021   3.23262  -1.48503   0.16412  -1.00019
  36   34067.5    293.5   0.044527845   0.43030   0.59928  -0.07054   0.25726
  37   34430.9    290.4   0.011880546   0.11360  -0.19924   0.20750  -0.17563
  38   34555.7    289.4   0.067068781   0.63896  -0.52646   0.43355  -0.41694
  39   35228.2    283.9   0.022224625   0.20769   0.21013  -0.12424   0.38484
  40   35370.5    282.7   0.046324363   0.43117  -0.48595   0.30038  -0.32371
  41   35857.6    278.9   0.009082411   0.08339   0.01195   0.22136   0.18506
  42   36171.1    276.5   0.035716937   0.32508  -0.50976   0.16596  -0.19410
  43   36527.5    273.8   0.059904150   0.53990   0.30063   0.44201   0.50413
  44   36752.0    272.1   0.071713162   0.64238  -0.71496   0.27207   0.23914
  45   37056.3    269.9   0.025300069   0.22477  -0.20844   0.34964  -0.24305
  46   37177.6    269.0   0.032373665   0.28667   0.18769  -0.39371  -0.31054
  47   37284.9    268.2   0.046442975   0.41007  -0.57369   0.20497   0.19732
  48   37308.2    268.0   0.016862234   0.14879  -0.25732   0.28365   0.04611
  49   37348.8    267.7   0.017267343   0.15220   0.29551  -0.06750  -0.24560
  50   37480.1    266.8   0.083720803   0.73537   0.80105  -0.21000   0.22269
  51   37977.3    263.3   0.026174328   0.22690   0.31925  -0.34786   0.06300
  52   38213.8    261.7   0.063273336   0.54510   0.43577   0.22725   0.55097
  53   38483.3    259.9   0.011096853   0.09493   0.17222   0.25394   0.02803
  54   38579.0    259.2   0.019152506   0.16344   0.27108   0.07005   0.29163
  55   38738.5    258.1   0.031433870   0.26714   0.14402   0.22545  -0.44223
  56   38894.8    257.1   0.056913669   0.48173  -0.23417   0.54911  -0.35408
  57   39331.0    254.3   0.045714021   0.38264  -0.59422   0.11185  -0.13050
  58   39482.1    253.3   0.035585337   0.29672   0.40134  -0.31167   0.19625
  59   39580.4    252.7   0.031028916   0.25808  -0.22431   0.42913  -0.15368
  60   39695.2    251.9   0.043039845   0.35695   0.56679   0.16769   0.08708
  61   40049.7    249.7   0.005992957   0.04926   0.13881  -0.10957   0.13412
  62   40323.3    248.0   0.030694970   0.25060  -0.47818  -0.04828  -0.14007

FINAL SINGLE POINT ENERGY     -4234.503310380500

DIPOLE MOMENT
-------------
                                X             Y             Z
Electronic contribution:     20.73107     -39.69028      27.08718
Nuclear contribution   :    -22.80073      37.92673     -27.92693
                        -----------------------------------------
Total Dipole Moment    :     -2.06966      -1.76356      -0.83975
                        -----------------------------------------
Magnitude (a.u.)       :      2.84584
Magnitude (Debye)      :      7.23355

Rotational constants in cm-1:     0.001945     0.000392     0.000351
Rotational constants in MHz :    58.315267    11.746607    10.514552

                             ****ORCA TERMINATED NORMALLY****
TOTAL RUN TIME: 0 days 0 hours 11 minutes 27 seconds 797 msec
