                         Program Version 4.2.0 -  RELEASE  -
|  1> # ORCA input file
|  2> # SCF done       -187.755343265746          0.000848762648
|  3> ! CAM-B3LYP def2-SVP def2/J RIJCOSX Grid4 TightSCF
|  4> %maxcore 5000
|  5> %tddft
|  6>     Mode sTDDFT
|  7>     Ethresh 5.0
|  8>     maxcore 5000
|  9> end
| 10>
| 11> %pal
| 12>   nprocs 6
| 13>   end
| 14> * xyz 0 1
| 15>    C        0.82690        -0.64451        -1.43962
| 16>    C        1.09151        -1.00832        -0.15517
| 17>    C        0.67573         0.00120         0.78336
| 18>    C        0.85325         0.06044         2.16297
| 19>    C        0.38064         1.16459         2.85837
| 20>    C       -0.26056         2.22455         2.19645
| 21>    C       -0.40938         2.19542         0.82907
| 22>    C        0.06667         1.09299         0.13156
| 23>    S        0.03346         0.87270        -1.59322
| 24>    C        0.55822         1.23321         4.26022
| 25>    N        0.70550         1.29889         5.39498
| 26>    C        1.71975        -2.27497         0.18961
| 27>    C        1.29181        -3.08635         1.22232
| 28>    F        0.20711        -2.74493         1.93823
| 29>    C        1.91424        -4.30297         1.54854
| 30>    F        1.39372        -4.98772         2.57237
| 31>    C        3.00951        -4.82058         0.86374
| 32>    C        3.45627        -4.02350        -0.22956
| 33>    C        2.81261        -2.77684        -0.55827
| 34>    N        3.37701        -2.18273        -1.60828
| 35>    S        4.58747        -3.09235        -2.13565
| 36>    N        4.46185        -4.28490        -1.06180
| 37>    C        3.59078        -6.06590         1.26550
| 38>    C        4.63022        -6.66409         0.63281
| 39>    C        5.17442        -7.90265         1.05675
| 40>    N        6.19224        -8.54749         0.39249
| 41>    C        6.82140        -8.12523        -0.83536
| 42>    C        5.94096        -8.40121        -2.05164
| 43>    C        6.54447        -9.75886         1.01260
| 44>    O        7.39571       -10.51121         0.58530
| 45>    C        5.67828        -9.82994         2.17104
| 46>    C        4.84271        -8.68559         2.16162
| 47>    C        3.96129        -8.76915         3.30637
| 48>    O        3.08004        -8.04052         3.71258
| 49>    N        4.32525        -9.97332         3.93506
| 50>    C        3.67531       -10.41210         5.14575
| 51>    C        4.52434       -10.12411         6.38172
| 52>    C        5.34925       -10.60891         3.27685
| 53>    C        5.90566       -11.84499         3.70105
| 54>    C        6.98197       -12.40223         3.10282
| 55>    C        7.54573       -13.66781         3.48010
| 56>    C        8.93786       -13.90313         3.45048
| 57>    C        9.91165       -12.83988         3.13288
| 58>    O        9.71257       -11.67618         2.96457
| 59>    S       11.56274       -13.55295         3.10341
| 60>    C       10.98594       -15.15023         3.66735
| 61>    O       11.73430       -16.05708         3.88951
| 62>    C        9.51244       -15.12530         3.78884
| 63>    C        8.74973       -16.23075         4.23001
| 64>    C        7.35949       -16.01809         4.18722
| 65>    C        6.78555       -14.79783         3.83630
| 66>    C        5.31712       -15.00241         3.78801
| 67>    O        4.42672       -14.24482         3.55225
| 68>    O        5.08332       -16.32510         4.06984
| 69>    C        6.25334       -17.00008         4.31563
| 70>    O        6.26752       -18.17035         4.53998
| 71>    C        9.36721       -17.45108         4.67281
| 72>    C        8.88856       -18.21898         5.67160
| 73>    C        9.51430       -19.41144         6.14575
| 74>    C       10.67769       -20.01138         5.74844
| 75>    C       10.96701       -21.19953         6.46392
| 76>    C       12.05710       -22.06092         6.32737
| 77>    C       12.13830       -23.17813         7.14283
| 78>    C       11.14364       -23.45514         8.10001
| 79>    C       10.06442       -22.61532         8.24675
| 80>    C        9.97803       -21.49226         7.43248
| 81>    S        8.72485       -20.29880         7.43815
| 82>    C       13.23702       -24.06044         7.01816
| 83>    N       14.12580       -24.77749         6.92098
| 84>    H        1.03869        -1.21408        -2.32282
| 85>    H        1.35676        -0.73052         2.69618
| 86>    H       -0.62099         3.06462         2.77024
| 87>    H       -0.87888         3.01114         0.30233
| 88>    H        3.14482        -6.53884         2.13142
| 89>    H        5.06515        -6.18460        -0.23089
| 90>    H        7.74671        -8.70302        -0.91273
| 91>    H        7.07107        -7.06265        -0.77134
| 92>    H        5.72099        -9.46395        -2.11721
| 93>    H        6.45970        -8.09736        -2.95658
| 94>    H        5.00277        -7.85517        -1.98528
| 95>    H        3.44275       -11.47773         5.06717
| 96>    H        2.73933        -9.84900         5.20610
| 97>    H        5.48390       -10.63316         6.32623
| 98>    H        4.00106       -10.45898         7.27326
| 99>    H        4.70569        -9.05545         6.46577
|100>    H        5.44903       -12.32364         4.55363
|101>    H        7.48986       -11.86079         2.31419
|102>    H       10.31264       -17.69796         4.21479
|103>    H        7.98605       -17.93408         6.19287
|104>    H       11.31877       -19.62099         4.97927
|105>    H       12.82459       -21.85639         5.59622
|106>    H       11.23999       -24.33530         8.71729
|107>    H        9.29745       -22.81897         8.97723
|108> *
|109>
|110>                          ****END OF INPUT****

CARTESIAN COORDINATES (ANGSTROEM)
---------------------------------
  C      0.826900   -0.644510   -1.439620
  C      1.091510   -1.008320   -0.155170
  C      0.675730    0.001200    0.783360
  C      0.853250    0.060440    2.162970
  C      0.380640    1.164590    2.858370
  C     -0.260560    2.224550    2.196450
  C     -0.409380    2.195420    0.829070
  C      0.066670    1.092990    0.131560
  S      0.033460    0.872700   -1.593220
  C      0.558220    1.233210    4.260220
  N      0.705500    1.298890    5.394980
  C      1.719750   -2.274970    0.189610
  C      1.291810   -3.086350    1.222320
  F      0.207110   -2.744930    1.938230
  C      1.914240   -4.302970    1.548540
  F      1.393720   -4.987720    2.572370
  C      3.009510   -4.820580    0.863740
  C      3.456270   -4.023500   -0.229560
  C      2.812610   -2.776840   -0.558270
  N      3.377010   -2.182730   -1.608280
  S      4.587470   -3.092350   -2.135650
  N      4.461850   -4.284900   -1.061800
  C      3.590780   -6.065900    1.265500
  C      4.630220   -6.664090    0.632810
  C      5.174420   -7.902650    1.056750
  N      6.192240   -8.547490    0.392490
  C      6.821400   -8.125230   -0.835360
  C      5.940960   -8.401210   -2.051640
  C      6.544470   -9.758860    1.012600
  O      7.395710  -10.511210    0.585300
  C      5.678280   -9.829940    2.171040
  C      4.842710   -8.685590    2.161620
  C      3.961290   -8.769150    3.306370
  O      3.080040   -8.040520    3.712580
  N      4.325250   -9.973320    3.935060
  C      3.675310  -10.412100    5.145750
  C      4.524340  -10.124110    6.381720
  C      5.349250  -10.608910    3.276850
  C      5.905660  -11.844990    3.701050
  C      6.981970  -12.402230    3.102820
  C      7.545730  -13.667810    3.480100
  C      8.937860  -13.903130    3.450480
  C      9.911650  -12.839880    3.132880
  O      9.712570  -11.676180    2.964570
  S     11.562740  -13.552950    3.103410
  C     10.985940  -15.150230    3.667350
  O     11.734300  -16.057080    3.889510
  C      9.512440  -15.125300    3.788840
  C      8.749730  -16.230750    4.230010
  C      7.359490  -16.018090    4.187220
  C      6.785550  -14.797830    3.836300
  C      5.317120  -15.002410    3.788010
  O      4.426720  -14.244820    3.552250
  O      5.083320  -16.325100    4.069840
  C      6.253340  -17.000080    4.315630
  O      6.267520  -18.170350    4.539980
  C      9.367210  -17.451080    4.672810
  C      8.888560  -18.218980    5.671600
  C      9.514300  -19.411440    6.145750
  C     10.677690  -20.011380    5.748440
  C     10.967010  -21.199530    6.463920
  C     12.057100  -22.060920    6.327370
  C     12.138300  -23.178130    7.142830
  C     11.143640  -23.455140    8.100010
  C     10.064420  -22.615320    8.246750
  C      9.978030  -21.492260    7.432480
  S      8.724850  -20.298800    7.438150
  C     13.237020  -24.060440    7.018160
  N     14.125800  -24.777490    6.920980
  H      1.038690   -1.214080   -2.322820
  H      1.356760   -0.730520    2.696180
  H     -0.620990    3.064620    2.770240
  H     -0.878880    3.011140    0.302330
  H      3.144820   -6.538840    2.131420
  H      5.065150   -6.184600   -0.230890
  H      7.746710   -8.703020   -0.912730
  H      7.071070   -7.062650   -0.771340
  H      5.720990   -9.463950   -2.117210
  H      6.459700   -8.097360   -2.956580
  H      5.002770   -7.855170   -1.985280
  H      3.442750  -11.477730    5.067170
  H      2.739330   -9.849000    5.206100
  H      5.483900  -10.633160    6.326230
  H      4.001060  -10.458980    7.273260
  H      4.705690   -9.055450    6.465770
  H      5.449030  -12.323640    4.553630
  H      7.489860  -11.860790    2.314190
  H     10.312640  -17.697960    4.214790
  H      7.986050  -17.934080    6.192870
  H     11.318770  -19.620990    4.979270
  H     12.824590  -21.856390    5.596220
  H     11.239990  -24.335300    8.717290
  H      9.297450  -22.818970    8.977230

 Total Charge           Charge          ....    0
 Multiplicity           Mult            ....    1
 Number of Electrons    NEL             ....  504
 Basis Dimension        Dim             .... 1102

ORBITAL ENERGIES
----------------

  NO   OCC          E(Eh)            E(eV)
   0   2.0000     -89.039667     -2422.8925
   1   2.0000     -88.969188     -2420.9747
   2   2.0000     -88.966121     -2420.8912
   3   2.0000     -88.957251     -2420.6499
   4   2.0000     -24.808837      -675.0828
   5   2.0000     -24.805877      -675.0022
   6   2.0000     -19.300167      -525.1843
   7   2.0000     -19.251532      -523.8608
   8   2.0000     -19.249474      -523.8048
   9   2.0000     -19.247039      -523.7386
  10   2.0000     -19.246338      -523.7195
  11   2.0000     -19.193822      -522.2905
  12   2.0000     -19.189403      -522.1702
  13   2.0000     -14.455686      -393.3592
  14   2.0000     -14.455059      -393.3421
  15   2.0000     -14.454130      -393.3169
  16   2.0000     -14.452732      -393.2788
  17   2.0000     -14.400253      -391.8508
  18   2.0000     -14.399449      -391.8289
  19   2.0000     -10.442071      -284.1432
  20   2.0000     -10.441565      -284.1294
  21   2.0000     -10.414254      -283.3863
  22   2.0000     -10.410954      -283.2965
  23   2.0000     -10.392198      -282.7861
  24   2.0000     -10.390845      -282.7493
  25   2.0000     -10.375961      -282.3442
  26   2.0000     -10.372371      -282.2466
  27   2.0000     -10.345187      -281.5068
  28   2.0000     -10.344679      -281.4930
  29   2.0000     -10.344258      -281.4816
  30   2.0000     -10.341181      -281.3979
  31   2.0000     -10.339778      -281.3597
  32   2.0000     -10.337599      -281.3004
  33   2.0000     -10.336858      -281.2802
  34   2.0000     -10.336162      -281.2613
  35   2.0000     -10.335982      -281.2564
  36   2.0000     -10.335172      -281.2343
  37   2.0000     -10.323650      -280.9208
  38   2.0000     -10.320434      -280.8333
  39   2.0000     -10.319444      -280.8064
  40   2.0000     -10.318701      -280.7861
  41   2.0000     -10.316175      -280.7174
  42   2.0000     -10.316052      -280.7141
  43   2.0000     -10.314673      -280.6765
  44   2.0000     -10.313835      -280.6537
  45   2.0000     -10.309441      -280.5342
  46   2.0000     -10.308438      -280.5069
  47   2.0000     -10.306638      -280.4579
  48   2.0000     -10.304480      -280.3991
  49   2.0000     -10.300974      -280.3038
  50   2.0000     -10.300734      -280.2972
  51   2.0000     -10.300726      -280.2970
  52   2.0000     -10.299859      -280.2734
  53   2.0000     -10.299745      -280.2703
  54   2.0000     -10.299045      -280.2513
  55   2.0000     -10.298519      -280.2370
  56   2.0000     -10.297353      -280.2052
  57   2.0000     -10.296851      -280.1916
  58   2.0000     -10.296568      -280.1839
  59   2.0000     -10.296135      -280.1721
  60   2.0000     -10.295941      -280.1668
  61   2.0000     -10.294862      -280.1374
  62   2.0000     -10.293798      -280.1085
  63   2.0000     -10.292080      -280.0617
  64   2.0000     -10.286893      -279.9206
  65   2.0000     -10.264256      -279.3046
  66   2.0000     -10.264039      -279.2987
  67   2.0000     -10.263920      -279.2955
  68   2.0000     -10.261239      -279.2225
  69   2.0000      -8.131508      -221.2696
  70   2.0000      -8.065592      -219.4759
  71   2.0000      -8.062188      -219.3833
  72   2.0000      -8.056514      -219.2289
  73   2.0000      -6.102822      -166.0662
  74   2.0000      -6.094985      -165.8530
  75   2.0000      -6.093760      -165.8196
  76   2.0000      -6.035002      -164.2207
  77   2.0000      -6.031592      -164.1280
  78   2.0000      -6.030842      -164.1076
  79   2.0000      -6.027639      -164.0204
  80   2.0000      -6.027288      -164.0109
  81   2.0000      -6.025384      -163.9590
  82   2.0000      -6.023759      -163.9148
  83   2.0000      -6.022109      -163.8699
  84   2.0000      -6.017551      -163.7459
  85   2.0000      -1.331714       -36.2378
  86   2.0000      -1.313796       -35.7502
  87   2.0000      -1.251016       -34.0419
  88   2.0000      -1.176151       -32.0047
  89   2.0000      -1.175498       -31.9869
  90   2.0000      -1.171766       -31.8854
  91   2.0000      -1.141993       -31.0752
  92   2.0000      -1.136909       -30.9369
  93   2.0000      -1.134730       -30.8776
  94   2.0000      -1.127664       -30.6853
  95   2.0000      -1.064796       -28.9746
  96   2.0000      -1.056334       -28.7443
  97   2.0000      -1.024351       -27.8740
  98   2.0000      -1.014677       -27.6108
  99   2.0000      -1.010198       -27.4889
 100   2.0000      -0.997402       -27.1407
 101   2.0000      -0.988809       -26.9069
 102   2.0000      -0.986954       -26.8564
 103   2.0000      -0.983375       -26.7590
 104   2.0000      -0.960752       -26.1434
 105   2.0000      -0.953419       -25.9438
 106   2.0000      -0.945865       -25.7383
 107   2.0000      -0.942011       -25.6334
 108   2.0000      -0.928884       -25.2762
 109   2.0000      -0.918014       -24.9804
 110   2.0000      -0.908999       -24.7351
 111   2.0000      -0.892682       -24.2911
 112   2.0000      -0.885675       -24.1004
 113   2.0000      -0.883504       -24.0414
 114   2.0000      -0.877599       -23.8807
 115   2.0000      -0.875107       -23.8129
 116   2.0000      -0.870397       -23.6847
 117   2.0000      -0.863267       -23.4907
 118   2.0000      -0.849361       -23.1123
 119   2.0000      -0.841639       -22.9022
 120   2.0000      -0.828727       -22.5508
 121   2.0000      -0.820839       -22.3362
 122   2.0000      -0.819512       -22.3000
 123   2.0000      -0.807556       -21.9747
 124   2.0000      -0.802764       -21.8443
 125   2.0000      -0.789431       -21.4815
 126   2.0000      -0.776493       -21.1295
 127   2.0000      -0.766083       -20.8462
 128   2.0000      -0.761164       -20.7123
 129   2.0000      -0.760024       -20.6813
 130   2.0000      -0.750655       -20.4264
 131   2.0000      -0.735314       -20.0089
 132   2.0000      -0.730228       -19.8705
 133   2.0000      -0.723992       -19.7008
 134   2.0000      -0.716372       -19.4935
 135   2.0000      -0.713188       -19.4068
 136   2.0000      -0.709698       -19.3119
 137   2.0000      -0.707388       -19.2490
 138   2.0000      -0.706178       -19.2161
 139   2.0000      -0.696138       -18.9429
 140   2.0000      -0.679960       -18.5027
 141   2.0000      -0.676697       -18.4139
 142   2.0000      -0.663942       -18.0668
 143   2.0000      -0.656632       -17.8679
 144   2.0000      -0.653982       -17.7958
 145   2.0000      -0.649420       -17.6716
 146   2.0000      -0.645631       -17.5685
 147   2.0000      -0.641352       -17.4521
 148   2.0000      -0.638304       -17.3691
 149   2.0000      -0.636756       -17.3270
 150   2.0000      -0.633065       -17.2266
 151   2.0000      -0.627668       -17.0797
 152   2.0000      -0.617237       -16.7959
 153   2.0000      -0.613388       -16.6911
 154   2.0000      -0.611705       -16.6453
 155   2.0000      -0.607567       -16.5327
 156   2.0000      -0.600872       -16.3506
 157   2.0000      -0.597876       -16.2690
 158   2.0000      -0.592017       -16.1096
 159   2.0000      -0.588529       -16.0147
 160   2.0000      -0.586349       -15.9554
 161   2.0000      -0.583976       -15.8908
 162   2.0000      -0.574252       -15.6262
 163   2.0000      -0.571462       -15.5503
 164   2.0000      -0.569420       -15.4947
 165   2.0000      -0.564879       -15.3711
 166   2.0000      -0.563664       -15.3381
 167   2.0000      -0.559742       -15.2313
 168   2.0000      -0.557920       -15.1818
 169   2.0000      -0.557332       -15.1658
 170   2.0000      -0.556460       -15.1420
 171   2.0000      -0.555664       -15.1204
 172   2.0000      -0.549323       -14.9478
 173   2.0000      -0.547094       -14.8872
 174   2.0000      -0.544281       -14.8106
 175   2.0000      -0.540579       -14.7099
 176   2.0000      -0.539422       -14.6784
 177   2.0000      -0.535933       -14.5835
 178   2.0000      -0.531852       -14.4724
 179   2.0000      -0.531124       -14.4526
 180   2.0000      -0.529469       -14.4076
 181   2.0000      -0.527272       -14.3478
 182   2.0000      -0.525566       -14.3014
 183   2.0000      -0.519669       -14.1409
 184   2.0000      -0.516345       -14.0505
 185   2.0000      -0.515101       -14.0166
 186   2.0000      -0.513880       -13.9834
 187   2.0000      -0.512911       -13.9570
 188   2.0000      -0.512576       -13.9479
 189   2.0000      -0.511973       -13.9315
 190   2.0000      -0.507292       -13.8041
 191   2.0000      -0.506549       -13.7839
 192   2.0000      -0.504429       -13.7262
 193   2.0000      -0.501021       -13.6335
 194   2.0000      -0.500219       -13.6117
 195   2.0000      -0.493464       -13.4278
 196   2.0000      -0.487869       -13.2756
 197   2.0000      -0.482853       -13.1391
 198   2.0000      -0.479695       -13.0532
 199   2.0000      -0.477095       -12.9824
 200   2.0000      -0.472403       -12.8547
 201   2.0000      -0.469653       -12.7799
 202   2.0000      -0.468619       -12.7518
 203   2.0000      -0.468460       -12.7475
 204   2.0000      -0.468080       -12.7371
 205   2.0000      -0.466205       -12.6861
 206   2.0000      -0.461910       -12.5692
 207   2.0000      -0.461019       -12.5450
 208   2.0000      -0.459697       -12.5090
 209   2.0000      -0.458278       -12.4704
 210   2.0000      -0.454564       -12.3693
 211   2.0000      -0.452026       -12.3003
 212   2.0000      -0.451606       -12.2888
 213   2.0000      -0.448654       -12.2085
 214   2.0000      -0.441439       -12.0122
 215   2.0000      -0.439639       -11.9632
 216   2.0000      -0.433033       -11.7834
 217   2.0000      -0.431700       -11.7472
 218   2.0000      -0.430255       -11.7078
 219   2.0000      -0.429275       -11.6812
 220   2.0000      -0.426631       -11.6092
 221   2.0000      -0.426319       -11.6007
 222   2.0000      -0.423870       -11.5341
 223   2.0000      -0.421379       -11.4663
 224   2.0000      -0.418843       -11.3973
 225   2.0000      -0.412201       -11.2165
 226   2.0000      -0.405670       -11.0388
 227   2.0000      -0.404895       -11.0178
 228   2.0000      -0.404377       -11.0037
 229   2.0000      -0.403507       -10.9800
 230   2.0000      -0.402358       -10.9487
 231   2.0000      -0.383226       -10.4281
 232   2.0000      -0.382793       -10.4163
 233   2.0000      -0.380774       -10.3614
 234   2.0000      -0.378336       -10.2951
 235   2.0000      -0.376922       -10.2566
 236   2.0000      -0.375691       -10.2231
 237   2.0000      -0.366274        -9.9668
 238   2.0000      -0.361937        -9.8488
 239   2.0000      -0.352868        -9.6020
 240   2.0000      -0.351371        -9.5613
 241   2.0000      -0.347043        -9.4435
 242   2.0000      -0.340214        -9.2577
 243   2.0000      -0.332448        -9.0464
 244   2.0000      -0.330626        -8.9968
 245   2.0000      -0.319965        -8.7067
 246   2.0000      -0.316015        -8.5992
 247   2.0000      -0.314491        -8.5577
 248   2.0000      -0.304767        -8.2931
 249   2.0000      -0.287994        -7.8367
 250   2.0000      -0.283714        -7.7203
 251   2.0000      -0.238982        -6.5030
 252   0.0000      -0.102948        -2.8014
 253   0.0000      -0.102441        -2.7876
 254   0.0000      -0.081888        -2.2283
 255   0.0000      -0.059689        -1.6242
 256   0.0000      -0.034386        -0.9357

MULLIKEN ATOMIC CHARGES
-----------------------
   0 C :   -0.075400
   1 C :    0.052993
   2 C :    0.132850
   3 C :   -0.034129
   4 C :   -0.098984
   5 C :    0.037625
   6 C :    0.007452
   7 C :   -0.096086
   8 S :    0.140283
   9 C :   -0.145889
  10 N :    0.101193
  11 C :   -0.007118
  12 C :    0.149840
  13 F :   -0.162543
  14 C :    0.183228
  15 F :   -0.151618
  16 C :    0.019295
  17 C :    0.020227
  18 C :    0.005754
  19 N :   -0.264243
  20 S :    0.518540
  21 N :   -0.290636
  22 C :   -0.042272
  23 C :   -0.008913
  24 C :    0.144801
  25 N :   -0.258428
  26 C :    0.103099
  27 C :    0.005789
  28 C :    0.169606
  29 O :   -0.202468
  30 C :   -0.053286
  31 C :   -0.066401
  32 C :    0.163069
  33 O :   -0.204002
  34 N :   -0.254921
  35 C :    0.095125
  36 C :    0.004837
  37 C :    0.097843
  38 C :    0.045535
  39 C :   -0.052723
  40 C :    0.043627
  41 C :    0.032475
  42 C :    0.035398
  43 O :   -0.108042
  44 S :    0.028484
  45 C :    0.037995
  46 O :   -0.133649
  47 C :    0.038224
  48 C :    0.039036
  49 C :   -0.087002
  50 C :   -0.076450
  51 C :    0.227420
  52 O :   -0.099999
  53 O :   -0.223136
  54 C :    0.221699
  55 O :   -0.096102
  56 C :   -0.049271
  57 C :    0.129116
  58 C :   -0.099462
  59 C :   -0.011305
  60 C :    0.122270
  61 C :   -0.017906
  62 C :   -0.093474
  63 C :    0.037309
  64 C :    0.005958
  65 C :   -0.057704
  66 S :    0.145144
  67 C :   -0.145697
  68 N :    0.099252
  69 H :    0.029438
  70 H :   -0.006358
  71 H :   -0.000058
  72 H :   -0.011934
  73 H :    0.009966
  74 H :   -0.004174
  75 H :    0.041562
  76 H :    0.026583
  77 H :    0.027703
  78 H :    0.019959
  79 H :    0.016988
  80 H :    0.034356
  81 H :    0.044187
  82 H :    0.010653
  83 H :    0.023395
  84 H :    0.030621
  85 H :   -0.020898
  86 H :    0.053987
  87 H :    0.026778
  88 H :   -0.007431
  89 H :   -0.004976
  90 H :   -0.004973
  91 H :    0.001644
  92 H :   -0.010149
Sum of atomic charges:   -0.0000000

LOEWDIN ATOMIC CHARGES
----------------------
   0 C :   -0.133709
   1 C :   -0.061271
   2 C :   -0.036630
   3 C :    0.018982
   4 C :   -0.071360
   5 C :    0.004400
   6 C :   -0.030068
   7 C :   -0.145693
   8 S :    0.433206
   9 C :   -0.029399
  10 N :   -0.058821
  11 C :   -0.043937
  12 C :    0.063744
  13 F :   -0.039560
  14 C :    0.084212
  15 F :   -0.028661
  16 C :   -0.061484
  17 C :   -0.036631
  18 C :   -0.045265
  19 N :   -0.277699
  20 S :    0.645484
  21 N :   -0.284084
  22 C :    0.027526
  23 C :   -0.037559
  24 C :    0.081138
  25 N :    0.000556
  26 C :    0.037136
  27 C :   -0.060717
  28 C :    0.083486
  29 O :   -0.191135
  30 C :   -0.109340
  31 C :   -0.120690
  32 C :    0.078357
  33 O :   -0.196051
  34 N :    0.003232
  35 C :    0.036596
  36 C :   -0.061224
  37 C :    0.069487
  38 C :   -0.002366
  39 C :    0.002271
  40 C :    0.024231
  41 C :   -0.047094
  42 C :   -0.042390
  43 O :   -0.091379
  44 S :    0.310438
  45 C :   -0.043837
  46 O :   -0.116044
  47 C :   -0.051965
  48 C :    0.028704
  49 C :   -0.050273
  50 C :   -0.046109
  51 C :    0.106431
  52 O :   -0.097102
  53 O :   -0.052251
  54 C :    0.104131
  55 O :   -0.095114
  56 C :   -0.030785
  57 C :    0.009841
  58 C :   -0.154181
  59 C :   -0.032243
  60 C :   -0.044932
  61 C :    0.020454
  62 C :   -0.073506
  63 C :    0.006219
  64 C :   -0.030991
  65 C :   -0.143990
  66 S :    0.425798
  67 C :   -0.029923
  68 N :   -0.058943
  69 H :    0.028386
  70 H :    0.037321
  71 H :    0.040477
  72 H :    0.035456
  73 H :    0.038146
  74 H :    0.027397
  75 H :    0.037298
  76 H :    0.025113
  77 H :    0.031468
  78 H :    0.029650
  79 H :    0.022968
  80 H :    0.026870
  81 H :    0.038551
  82 H :    0.020029
  83 H :    0.030772
  84 H :    0.032705
  85 H :    0.027718
  86 H :    0.042176
  87 H :    0.034712
  88 H :    0.028378
  89 H :    0.036498
  90 H :    0.041421
  91 H :    0.040779
  92 H :    0.036052

  Mayer bond orders larger than 0.100000
B(  0-C ,  1-C ) :   1.6355 B(  0-C ,  8-S ) :   1.1318 B(  0-C , 69-H ) :   0.9581
B(  1-C ,  2-C ) :   1.1539 B(  1-C , 11-C ) :   0.9601 B(  2-C ,  3-C ) :   1.3036
B(  2-C ,  7-C ) :   1.3068 B(  3-C ,  4-C ) :   1.4308 B(  3-C , 70-H ) :   0.9901
B(  4-C ,  5-C ) :   1.3250 B(  4-C ,  9-C ) :   1.0584 B(  5-C ,  6-C ) :   1.4369
B(  5-C , 71-H ) :   0.9917 B(  6-C ,  7-C ) :   1.3381 B(  6-C , 72-H ) :   0.9954
B(  7-C ,  8-S ) :   1.0847 B(  9-C , 10-N ) :   3.0538 B( 11-C , 12-C ) :   1.4436
B( 11-C , 16-C ) :   0.1287 B( 11-C , 18-C ) :   1.2200 B( 12-C , 13-F ) :   1.1685
B( 12-C , 14-C ) :   1.1210 B( 14-C , 15-F ) :   1.1621 B( 14-C , 16-C ) :   1.3765
B( 16-C , 17-C ) :   1.1390 B( 16-C , 22-C ) :   1.1347 B( 17-C , 18-C ) :   1.1446
B( 17-C , 21-N ) :   1.5381 B( 18-C , 19-N ) :   1.5595 B( 19-N , 20-S ) :   1.2678
B( 19-N , 21-N ) :   0.1433 B( 20-S , 21-N ) :   1.2464 B( 22-C , 23-C ) :   1.5858
B( 22-C , 73-H ) :   0.9531 B( 23-C , 24-C ) :   1.1393 B( 23-C , 74-H ) :   0.9441
B( 24-C , 25-N ) :   1.1638 B( 24-C , 31-C ) :   1.3394 B( 25-N , 26-C ) :   0.9464
B( 25-N , 28-C ) :   1.0566 B( 26-C , 27-C ) :   1.1220 B( 26-C , 75-H ) :   0.9279
B( 26-C , 76-H ) :   0.9488 B( 27-C , 77-H ) :   0.9634 B( 27-C , 78-H ) :   0.9679
B( 27-C , 79-H ) :   0.9675 B( 28-C , 29-O ) :   2.0446 B( 28-C , 30-C ) :   0.9748
B( 30-C , 31-C ) :   1.2544 B( 30-C , 37-C ) :   1.3562 B( 31-C , 32-C ) :   0.9853
B( 32-C , 33-O ) :   2.0330 B( 32-C , 34-N ) :   1.0594 B( 33-O , 73-H ) :   0.1101
B( 34-N , 35-C ) :   0.9455 B( 34-N , 37-C ) :   1.1616 B( 35-C , 36-C ) :   1.1188
B( 35-C , 80-H ) :   0.9500 B( 35-C , 81-H ) :   0.9277 B( 36-C , 82-H ) :   0.9686
B( 36-C , 83-H ) :   0.9683 B( 36-C , 84-H ) :   0.9634 B( 37-C , 38-C ) :   1.1723
B( 38-C , 39-C ) :   1.6631 B( 38-C , 85-H ) :   0.9441 B( 39-C , 40-C ) :   1.0952
B( 39-C , 86-H ) :   0.9170 B( 40-C , 41-C ) :   1.3528 B( 40-C , 50-C ) :   1.3180
B( 41-C , 42-C ) :   0.8470 B( 41-C , 47-C ) :   1.3237 B( 42-C , 43-O ) :   2.1817
B( 42-C , 44-S ) :   1.0190 B( 43-O , 44-S ) :   0.1056 B( 44-S , 45-C ) :   1.0453
B( 44-S , 46-O ) :   0.1064 B( 45-C , 46-O ) :   2.1472 B( 45-C , 47-C ) :   0.8515
B( 47-C , 48-C ) :   1.3481 B( 48-C , 49-C ) :   1.3119 B( 48-C , 56-C ) :   1.1185
B( 49-C , 50-C ) :   1.3628 B( 49-C , 54-C ) :   0.9059 B( 50-C , 51-C ) :   0.9055
B( 51-C , 52-O ) :   2.2449 B( 51-C , 53-O ) :   1.0595 B( 53-O , 54-C ) :   1.0526
B( 54-C , 55-O ) :   2.2575 B( 56-C , 57-C ) :   1.7267 B( 56-C , 87-H ) :   0.9391
B( 57-C , 58-C ) :   1.1185 B( 57-C , 88-H ) :   0.9491 B( 58-C , 59-C ) :   1.5719
B( 58-C , 66-S ) :   1.0802 B( 59-C , 60-C ) :   1.1593 B( 59-C , 89-H ) :   0.9965
B( 60-C , 61-C ) :   1.2696 B( 60-C , 65-C ) :   1.3060 B( 61-C , 62-C ) :   1.4285
B( 61-C , 90-H ) :   1.0020 B( 62-C , 63-C ) :   1.3125 B( 62-C , 67-C ) :   1.0611
B( 63-C , 64-C ) :   1.4428 B( 63-C , 91-H ) :   0.9920 B( 64-C , 65-C ) :   1.3307
B( 64-C , 92-H ) :   0.9962 B( 65-C , 66-S ) :   1.0852 B( 67-C , 68-N ) :   3.0535

-----------------------------------------------------------------------------
         ABSORPTION SPECTRUM VIA TRANSITION ELECTRIC DIPOLE MOMENTS
-----------------------------------------------------------------------------
State   Energy  Wavelength   fosc         T2         TX        TY        TZ
        (cm-1)    (nm)                  (au**2)     (au)      (au)      (au)
-----------------------------------------------------------------------------
   0   14086.8    709.9   0.817740062  19.11073  -1.58020   3.69407  -1.72265
   1   14261.0    701.2   0.155801238   3.59662   0.11022  -1.73270   0.76303
   2   19634.2    509.3   0.009450995   0.15847   0.10895  -0.29777   0.24069
   3   21865.2    457.3   0.032034066   0.48232  -0.60947  -0.31816   0.09817
   4   24807.6    403.1   0.435605438   5.78074  -1.39727   1.95627   0.03734
   5   25005.4    399.9   0.049556677   0.65245  -0.31413   0.73579  -0.11131
   6   25782.3    387.9   0.758457426   9.68468  -1.16350   2.68171  -1.06742
   7   26247.3    381.0   0.010356078   0.12989   0.13203  -0.30147   0.14690
   8   27695.1    361.1   0.002536436   0.03015   0.01330   0.11712   0.12750
   9   27947.5    357.8   0.007124935   0.08393   0.14379  -0.16238   0.19206
  10   28328.5    353.0   0.028252733   0.32833   0.16735   0.32572  -0.44071
  11   29815.0    335.4   0.013836899   0.15278  -0.35216  -0.16957  -0.00407
  12   30649.0    326.3   0.152165892   1.63447  -0.76515   1.02335  -0.04203
  13   30939.9    323.2   0.001507710   0.01604   0.07614  -0.06079   0.08093
  14   31232.9    320.2   0.009781081   0.10310  -0.16092   0.25136  -0.11842
  15   31356.2    318.9   0.010116380   0.10621  -0.07111   0.25950  -0.18389
  16   31405.2    318.4   0.041385350   0.43383  -0.15193  -0.46351   0.44262
  17   31968.7    312.8   0.107011271   1.10200   0.19863   0.76467  -0.69125
  18   32244.3    310.1   0.001649360   0.01684   0.03229  -0.12085   0.03453
  19   32325.4    309.4   0.021948959   0.22354  -0.23081   0.35056   0.21764
  20   32860.6    304.3   0.008323463   0.08339  -0.04863  -0.25355   0.12936
  21   32990.6    303.1   0.009196172   0.09177  -0.25200   0.16409   0.03657
  22   33260.7    300.7   0.053526717   0.52980  -0.48161   0.54476   0.03311
  23   34102.5    293.2   0.034143369   0.32961  -0.45907   0.34344   0.03008
  24   34374.6    290.9   0.184227681   1.76438   0.81070  -1.03739  -0.17599
  25   34722.6    288.0   0.069963206   0.66333   0.57792  -0.54872   0.16808
  26   35161.5    284.4   0.166939614   1.56303   0.91072   0.03635  -0.85575
  27   35219.0    283.9   0.010847586   0.10140  -0.23044  -0.21113  -0.06098
  28   35816.0    279.2   0.026575348   0.24427  -0.32050   0.33721   0.16686
  29   35920.8    278.4   0.015779309   0.14462   0.02542  -0.29563   0.23785
  30   36823.8    271.6   0.024856723   0.22222   0.28138  -0.32512   0.19326
  31   37168.3    269.0   0.025203011   0.22323  -0.13501   0.39343  -0.22409
  32   37882.1    264.0   0.016478935   0.14321  -0.23902   0.06727   0.28557
  33   37951.5    263.5   0.028237808   0.24495   0.25456  -0.40569   0.12476
  34   38105.5    262.4   0.074293565   0.64186   0.23405  -0.75013   0.15613
  35   38211.9    261.7   0.010265535   0.08844  -0.20426   0.20811  -0.05839
  36   38376.5    260.6   0.038582986   0.33098  -0.07959   0.08569  -0.56330
  37   38600.8    259.1   0.000766212   0.00653  -0.00006   0.07717   0.02409
  38   38754.5    258.0   0.003841727   0.03263   0.12750   0.12737  -0.01243
  39   38841.8    257.5   0.032583084   0.27616  -0.48463  -0.18488   0.08436
  40   39302.3    254.4   0.002715020   0.02274  -0.13148  -0.02222   0.07044
  41   39372.9    254.0   0.009147557   0.07649  -0.11708   0.22062   0.11877
  42   39678.1    252.0   0.076070794   0.63117  -0.60126  -0.40274   0.32779
  43   40098.9    249.4   0.014058290   0.11542  -0.32200  -0.05169   0.09521
  44   40250.0    248.4   0.033887868   0.27718   0.51146  -0.04023   0.11815

FINAL SINGLE POINT ENERGY     -4563.221905330783

DIPOLE MOMENT
-------------
                                X             Y             Z
Electronic contribution:     -9.20250      18.14647      -7.10332
Nuclear contribution   :      8.33261     -16.28781       5.00372
                        -----------------------------------------
Total Dipole Moment    :     -0.86989       1.85866      -2.09960
                        -----------------------------------------
Magnitude (a.u.)       :      2.93592
Magnitude (Debye)      :      7.46251

Rotational constants in cm-1:     0.003114     0.000223     0.000215
Rotational constants in MHz :    93.343663     6.681363     6.458693

                             ****ORCA TERMINATED NORMALLY****
TOTAL RUN TIME: 0 days 0 hours 7 minutes 59 seconds 92 msec
