                         Program Version 4.2.0 -  RELEASE  -
|  1> # ORCA input file
|  2> # SCF done       -149.207297137654          0.000594042302
|  3> ! CAM-B3LYP def2-SVP def2/J RIJCOSX Grid4 TightSCF
|  4> %maxcore 5000
|  5> %tddft
|  6>     Mode sTDDFT
|  7>     Ethresh 5.0
|  8>     maxcore 5000
|  9> end
| 10>
| 11> %pal
| 12>   nprocs 6
| 13>   end
| 14> * xyz 0 1
| 15>    C       -2.59500         0.21661         0.89507
| 16>    C       -2.16009         0.03988        -0.43145
| 17>    N       -2.06767         0.88265        -1.44384
| 18>    O       -1.59372         0.18200        -2.46735
| 19>    N       -1.36869        -1.09466        -2.17166
| 20>    C       -1.70522        -1.24610        -0.90616
| 21>    C       -1.68581        -2.37473        -0.03915
| 22>    C       -2.12212        -2.14440         1.24876
| 23>    C       -2.56376        -0.88419         1.70228
| 24>    C       -1.23817        -3.65694        -0.50261
| 25>    S       -1.22656        -5.04360         0.55328
| 26>    C       -0.60305        -6.07244        -0.70583
| 27>    C       -0.41999        -5.34414        -1.88508
| 28>    C       -0.78136        -3.99083        -1.75278
| 29>    C        0.08951        -5.89072        -3.14326
| 30>    O        0.23613        -5.23727        -4.14613
| 31>    C       -0.35030        -7.44322        -0.48771
| 32>    C       -0.55230        -8.08996         0.69197
| 33>    C       -0.28732        -9.47086         0.84508
| 34>    N       -0.48927       -10.17121         2.01322
| 35>    C       -1.03945        -9.65507         3.24279
| 36>    C       -2.55789        -9.51286         3.17189
| 37>    C       -0.14470       -11.52596         1.88297
| 38>    O       -0.24376       -12.33279         2.78719
| 39>    C        0.31690       -11.65018         0.51833
| 40>    C        0.21562       -10.37286        -0.09139
| 41>    C        0.67518       -10.49417        -1.45371
| 42>    O        0.76821        -9.68495        -2.35934
| 43>    N        1.02412       -11.84690        -1.58550
| 44>    C        1.58095       -12.35375        -2.81581
| 45>    C        3.09934       -12.49493        -2.73822
| 46>    C        0.82034       -12.54901        -0.41791
| 47>    C        1.08311       -13.93905        -0.28019
| 48>    C        0.88140       -14.59732         0.88439
| 49>    C        1.11184       -15.99769         1.12548
| 50>    C        0.80473       -16.51207         2.39045
| 51>    C        1.00257       -17.84723         2.68291
| 52>    N        0.50609       -18.31487         3.95829
| 53>    O        0.69111       -17.60519         4.92021
| 54>    O       -0.10905       -19.35903         3.96578
| 55>    C        1.55829       -18.73327         1.74615
| 56>    C        1.82505       -18.21711         0.47295
| 57>    C        1.60908       -16.89323         0.16692
| 58>    C        1.91574       -20.10352         2.05500
| 59>    C        2.44242       -20.49929         3.22429
| 60>    C        2.82766       -21.84787         3.56209
| 61>    C        3.58616       -22.06442         4.74471
| 62>    N        4.06023       -21.22121         5.64065
| 63>    O        4.70049       -21.95948         6.54179
| 64>    N        4.67008       -23.26162         6.27409
| 65>    C        3.98224       -23.38983         5.15369
| 66>    C        3.62374       -24.51500         4.38803
| 67>    C        2.89346       -24.28039         3.25837
| 68>    C        2.50348       -22.98442         2.85418
| 69>    H       -2.93106         1.18238         1.23166
| 70>    H       -2.12688        -2.96912         1.94704
| 71>    H       -2.88702        -0.80231         2.72918
| 72>    H       -0.70670        -3.28344        -2.55912
| 73>    H        0.34202        -6.96440        -3.11897
| 74>    H        0.02679        -8.00564        -1.33074
| 75>    H       -0.92658        -7.53953         1.54443
| 76>    H       -0.56885        -8.69680         3.48011
| 77>    H       -0.77569       -10.37948         4.01855
| 78>    H       -2.85009        -8.82684         2.37984
| 79>    H       -2.93644        -9.13735         4.11844
| 80>    H       -3.01158       -10.48124         2.97606
| 81>    H        1.32142       -11.62300        -3.58704
| 82>    H        1.11079       -13.30915        -3.06609
| 83>    H        3.55095       -11.52610        -2.54033
| 84>    H        3.48301       -12.86970        -3.68312
| 85>    H        3.38975       -13.17916        -1.94379
| 86>    H        1.44907       -14.45745        -1.15407
| 87>    H        0.51155       -14.03714         1.73294
| 88>    H        0.38498       -15.86521         3.14730
| 89>    H        2.23573       -18.87879        -0.27533
| 90>    H        1.83777       -16.54482        -0.82794
| 91>    H        1.80885       -20.80477         1.23899
| 92>    H        2.64892       -19.77800         4.00448
| 93>    H        3.91926       -25.50235         4.70001
| 94>    H        2.59056       -25.11303         2.64095
| 95>    H        1.91057       -22.89709         1.95706
| 96> *
| 97>
| 98>                          ****END OF INPUT****

CARTESIAN COORDINATES (ANGSTROEM)
---------------------------------
  C     -2.595000    0.216610    0.895070
  C     -2.160090    0.039880   -0.431450
  N     -2.067670    0.882650   -1.443840
  O     -1.593720    0.182000   -2.467350
  N     -1.368690   -1.094660   -2.171660
  C     -1.705220   -1.246100   -0.906160
  C     -1.685810   -2.374730   -0.039150
  C     -2.122120   -2.144400    1.248760
  C     -2.563760   -0.884190    1.702280
  C     -1.238170   -3.656940   -0.502610
  S     -1.226560   -5.043600    0.553280
  C     -0.603050   -6.072440   -0.705830
  C     -0.419990   -5.344140   -1.885080
  C     -0.781360   -3.990830   -1.752780
  C      0.089510   -5.890720   -3.143260
  O      0.236130   -5.237270   -4.146130
  C     -0.350300   -7.443220   -0.487710
  C     -0.552300   -8.089960    0.691970
  C     -0.287320   -9.470860    0.845080
  N     -0.489270  -10.171210    2.013220
  C     -1.039450   -9.655070    3.242790
  C     -2.557890   -9.512860    3.171890
  C     -0.144700  -11.525960    1.882970
  O     -0.243760  -12.332790    2.787190
  C      0.316900  -11.650180    0.518330
  C      0.215620  -10.372860   -0.091390
  C      0.675180  -10.494170   -1.453710
  O      0.768210   -9.684950   -2.359340
  N      1.024120  -11.846900   -1.585500
  C      1.580950  -12.353750   -2.815810
  C      3.099340  -12.494930   -2.738220
  C      0.820340  -12.549010   -0.417910
  C      1.083110  -13.939050   -0.280190
  C      0.881400  -14.597320    0.884390
  C      1.111840  -15.997690    1.125480
  C      0.804730  -16.512070    2.390450
  C      1.002570  -17.847230    2.682910
  N      0.506090  -18.314870    3.958290
  O      0.691110  -17.605190    4.920210
  O     -0.109050  -19.359030    3.965780
  C      1.558290  -18.733270    1.746150
  C      1.825050  -18.217110    0.472950
  C      1.609080  -16.893230    0.166920
  C      1.915740  -20.103520    2.055000
  C      2.442420  -20.499290    3.224290
  C      2.827660  -21.847870    3.562090
  C      3.586160  -22.064420    4.744710
  N      4.060230  -21.221210    5.640650
  O      4.700490  -21.959480    6.541790
  N      4.670080  -23.261620    6.274090
  C      3.982240  -23.389830    5.153690
  C      3.623740  -24.515000    4.388030
  C      2.893460  -24.280390    3.258370
  C      2.503480  -22.984420    2.854180
  H     -2.931060    1.182380    1.231660
  H     -2.126880   -2.969120    1.947040
  H     -2.887020   -0.802310    2.729180
  H     -0.706700   -3.283440   -2.559120
  H      0.342020   -6.964400   -3.118970
  H      0.026790   -8.005640   -1.330740
  H     -0.926580   -7.539530    1.544430
  H     -0.568850   -8.696800    3.480110
  H     -0.775690  -10.379480    4.018550
  H     -2.850090   -8.826840    2.379840
  H     -2.936440   -9.137350    4.118440
  H     -3.011580  -10.481240    2.976060
  H      1.321420  -11.623000   -3.587040
  H      1.110790  -13.309150   -3.066090
  H      3.550950  -11.526100   -2.540330
  H      3.483010  -12.869700   -3.683120
  H      3.389750  -13.179160   -1.943790
  H      1.449070  -14.457450   -1.154070
  H      0.511550  -14.037140    1.732940
  H      0.384980  -15.865210    3.147300
  H      2.235730  -18.878790   -0.275330
  H      1.837770  -16.544820   -0.827940
  H      1.808850  -20.804770    1.238990
  H      2.648920  -19.778000    4.004480
  H      3.919260  -25.502350    4.700010
  H      2.590560  -25.113030    2.640950
  H      1.910570  -22.897090    1.957060

 Total Charge           Charge          ....    0
 Multiplicity           Mult            ....    1
 Number of Electrons    NEL             ....  382
 Basis Dimension        Dim             ....  895

ORBITAL ENERGIES
----------------

  NO   OCC          E(Eh)            E(eV)
   0   2.0000     -88.971451     -2421.0363
   1   2.0000     -19.356199      -526.7090
   2   2.0000     -19.350454      -526.5526
   3   2.0000     -19.243975      -523.6552
   4   2.0000     -19.241940      -523.5998
   5   2.0000     -19.205063      -522.5963
   6   2.0000     -19.196664      -522.3678
   7   2.0000     -19.194224      -522.3014
   8   2.0000     -14.647308      -398.5735
   9   2.0000     -14.480856      -394.0441
  10   2.0000     -14.479278      -394.0012
  11   2.0000     -14.474386      -393.8681
  12   2.0000     -14.472876      -393.8270
  13   2.0000     -14.458231      -393.4285
  14   2.0000     -14.457306      -393.4033
  15   2.0000     -10.378181      -282.4047
  16   2.0000     -10.377158      -282.3768
  17   2.0000     -10.349586      -281.6266
  18   2.0000     -10.342751      -281.4406
  19   2.0000     -10.342365      -281.4301
  20   2.0000     -10.333846      -281.1982
  21   2.0000     -10.327905      -281.0366
  22   2.0000     -10.325041      -280.9587
  23   2.0000     -10.324888      -280.9545
  24   2.0000     -10.319537      -280.8089
  25   2.0000     -10.319144      -280.7982
  26   2.0000     -10.319038      -280.7953
  27   2.0000     -10.318821      -280.7894
  28   2.0000     -10.314143      -280.6621
  29   2.0000     -10.313502      -280.6447
  30   2.0000     -10.312446      -280.6159
  31   2.0000     -10.306313      -280.4490
  32   2.0000     -10.303131      -280.3624
  33   2.0000     -10.303004      -280.3590
  34   2.0000     -10.302023      -280.3323
  35   2.0000     -10.301301      -280.3126
  36   2.0000     -10.300997      -280.3044
  37   2.0000     -10.300869      -280.3009
  38   2.0000     -10.299915      -280.2749
  39   2.0000     -10.298932      -280.2482
  40   2.0000     -10.297923      -280.2207
  41   2.0000     -10.297160      -280.2000
  42   2.0000     -10.296628      -280.1855
  43   2.0000     -10.296202      -280.1739
  44   2.0000     -10.295620      -280.1581
  45   2.0000     -10.294595      -280.1302
  46   2.0000     -10.293407      -280.0978
  47   2.0000     -10.291619      -280.0492
  48   2.0000     -10.288169      -279.9553
  49   2.0000     -10.282301      -279.7956
  50   2.0000     -10.269041      -279.4348
  51   2.0000     -10.267987      -279.4061
  52   2.0000     -10.264472      -279.3105
  53   2.0000     -10.263762      -279.2912
  54   2.0000      -8.066886      -219.5111
  55   2.0000      -6.036050      -164.2493
  56   2.0000      -6.032106      -164.1420
  57   2.0000      -6.029098      -164.0601
  58   2.0000      -1.324261       -36.0350
  59   2.0000      -1.310151       -35.6510
  60   2.0000      -1.303503       -35.4701
  61   2.0000      -1.143311       -31.1111
  62   2.0000      -1.137856       -30.9626
  63   2.0000      -1.131131       -30.7796
  64   2.0000      -1.117531       -30.4096
  65   2.0000      -1.067737       -29.0546
  66   2.0000      -1.059652       -28.8346
  67   2.0000      -1.015144       -27.6235
  68   2.0000      -1.006230       -27.3809
  69   2.0000      -1.005977       -27.3740
  70   2.0000      -0.995953       -27.1013
  71   2.0000      -0.992842       -27.0166
  72   2.0000      -0.991315       -26.9750
  73   2.0000      -0.935617       -25.4594
  74   2.0000      -0.931254       -25.3407
  75   2.0000      -0.925389       -25.1811
  76   2.0000      -0.917927       -24.9781
  77   2.0000      -0.914838       -24.8940
  78   2.0000      -0.902286       -24.5524
  79   2.0000      -0.895086       -24.3565
  80   2.0000      -0.887101       -24.1392
  81   2.0000      -0.877842       -23.8873
  82   2.0000      -0.870651       -23.6916
  83   2.0000      -0.850487       -23.1429
  84   2.0000      -0.839704       -22.8495
  85   2.0000      -0.834089       -22.6967
  86   2.0000      -0.824860       -22.4456
  87   2.0000      -0.797389       -21.6981
  88   2.0000      -0.790811       -21.5190
  89   2.0000      -0.784229       -21.3400
  90   2.0000      -0.768314       -20.9069
  91   2.0000      -0.765366       -20.8267
  92   2.0000      -0.764960       -20.8156
  93   2.0000      -0.750819       -20.4308
  94   2.0000      -0.742094       -20.1934
  95   2.0000      -0.733408       -19.9571
  96   2.0000      -0.723745       -19.6941
  97   2.0000      -0.718621       -19.5547
  98   2.0000      -0.713431       -19.4135
  99   2.0000      -0.709926       -19.3181
 100   2.0000      -0.701995       -19.1023
 101   2.0000      -0.688521       -18.7356
 102   2.0000      -0.664833       -18.0910
 103   2.0000      -0.659276       -17.9398
 104   2.0000      -0.656724       -17.8704
 105   2.0000      -0.648570       -17.6485
 106   2.0000      -0.645153       -17.5555
 107   2.0000      -0.642050       -17.4711
 108   2.0000      -0.634942       -17.2776
 109   2.0000      -0.629990       -17.1429
 110   2.0000      -0.620831       -16.8937
 111   2.0000      -0.618483       -16.8298
 112   2.0000      -0.611009       -16.6264
 113   2.0000      -0.607132       -16.5209
 114   2.0000      -0.607120       -16.5206
 115   2.0000      -0.602155       -16.3855
 116   2.0000      -0.600764       -16.3476
 117   2.0000      -0.595867       -16.2144
 118   2.0000      -0.589979       -16.0542
 119   2.0000      -0.586924       -15.9710
 120   2.0000      -0.582187       -15.8421
 121   2.0000      -0.578487       -15.7414
 122   2.0000      -0.576875       -15.6976
 123   2.0000      -0.573316       -15.6007
 124   2.0000      -0.572286       -15.5727
 125   2.0000      -0.570046       -15.5117
 126   2.0000      -0.557851       -15.1799
 127   2.0000      -0.552797       -15.0424
 128   2.0000      -0.541034       -14.7223
 129   2.0000      -0.538516       -14.6538
 130   2.0000      -0.535849       -14.5812
 131   2.0000      -0.533670       -14.5219
 132   2.0000      -0.528295       -14.3756
 133   2.0000      -0.526771       -14.3342
 134   2.0000      -0.521679       -14.1956
 135   2.0000      -0.521154       -14.1813
 136   2.0000      -0.516942       -14.0667
 137   2.0000      -0.512381       -13.9426
 138   2.0000      -0.511710       -13.9243
 139   2.0000      -0.508526       -13.8377
 140   2.0000      -0.504755       -13.7351
 141   2.0000      -0.497831       -13.5467
 142   2.0000      -0.494395       -13.4532
 143   2.0000      -0.491392       -13.3715
 144   2.0000      -0.486277       -13.2323
 145   2.0000      -0.481513       -13.1026
 146   2.0000      -0.480164       -13.0659
 147   2.0000      -0.477544       -12.9946
 148   2.0000      -0.475410       -12.9366
 149   2.0000      -0.473337       -12.8802
 150   2.0000      -0.471659       -12.8345
 151   2.0000      -0.470515       -12.8034
 152   2.0000      -0.467843       -12.7306
 153   2.0000      -0.463266       -12.6061
 154   2.0000      -0.461372       -12.5546
 155   2.0000      -0.460191       -12.5224
 156   2.0000      -0.458524       -12.4771
 157   2.0000      -0.455407       -12.3922
 158   2.0000      -0.454668       -12.3721
 159   2.0000      -0.449361       -12.2277
 160   2.0000      -0.444327       -12.0908
 161   2.0000      -0.441279       -12.0078
 162   2.0000      -0.440482       -11.9861
 163   2.0000      -0.431232       -11.7344
 164   2.0000      -0.430233       -11.7072
 165   2.0000      -0.428915       -11.6714
 166   2.0000      -0.423444       -11.5225
 167   2.0000      -0.418952       -11.4003
 168   2.0000      -0.404113       -10.9965
 169   2.0000      -0.402761       -10.9597
 170   2.0000      -0.397585       -10.8188
 171   2.0000      -0.392220       -10.6729
 172   2.0000      -0.388271       -10.5654
 173   2.0000      -0.387168       -10.5354
 174   2.0000      -0.383589       -10.4380
 175   2.0000      -0.381276       -10.3750
 176   2.0000      -0.374734       -10.1970
 177   2.0000      -0.366320        -9.9681
 178   2.0000      -0.363865        -9.9013
 179   2.0000      -0.356065        -9.6890
 180   2.0000      -0.352674        -9.5967
 181   2.0000      -0.344014        -9.3611
 182   2.0000      -0.336564        -9.1584
 183   2.0000      -0.335307        -9.1242
 184   2.0000      -0.331271        -9.0143
 185   2.0000      -0.323612        -8.8059
 186   2.0000      -0.322271        -8.7694
 187   2.0000      -0.319095        -8.6830
 188   2.0000      -0.287180        -7.8146
 189   2.0000      -0.281215        -7.6522
 190   2.0000      -0.237285        -6.4569
 191   0.0000      -0.098603        -2.6831
 192   0.0000      -0.073520        -2.0006
 193   0.0000      -0.059919        -1.6305
 194   0.0000      -0.043018        -1.1706
 195   0.0000      -0.033208        -0.9036

MULLIKEN ATOMIC CHARGES
-----------------------
   0 C :   -0.022188
   1 C :    0.000554
   2 N :    0.061548
   3 O :   -0.091641
   4 N :    0.041663
   5 C :   -0.073816
   6 C :    0.186179
   7 C :   -0.076879
   8 C :    0.046046
   9 C :   -0.089453
  10 S :    0.097161
  11 C :   -0.036430
  12 C :    0.024410
  13 C :   -0.032074
  14 C :    0.134275
  15 O :   -0.176379
  16 C :    0.003281
  17 C :   -0.029681
  18 C :    0.133355
  19 N :   -0.255813
  20 C :    0.101544
  21 C :    0.003380
  22 C :    0.162285
  23 O :   -0.212145
  24 C :   -0.064512
  25 C :   -0.064230
  26 C :    0.160446
  27 O :   -0.218387
  28 N :   -0.255551
  29 C :    0.102141
  30 C :    0.003832
  31 C :    0.125411
  32 C :    0.006270
  33 C :    0.003890
  34 C :    0.100123
  35 C :   -0.035528
  36 C :    0.107533
  37 N :    0.226376
  38 O :   -0.224234
  39 O :   -0.220903
  40 C :    0.092044
  41 C :   -0.021551
  42 C :    0.012540
  43 C :   -0.005290
  44 C :    0.013152
  45 C :    0.079711
  46 C :   -0.065695
  47 N :    0.044808
  48 O :   -0.099480
  49 N :    0.052890
  50 C :    0.014031
  51 C :   -0.026879
  52 C :    0.049717
  53 C :   -0.044360
  54 H :   -0.006716
  55 H :   -0.002125
  56 H :    0.003284
  57 H :    0.019760
  58 H :    0.009895
  59 H :    0.022413
  60 H :   -0.021611
  61 H :    0.022136
  62 H :    0.045176
  63 H :    0.015464
  64 H :    0.023415
  65 H :    0.030352
  66 H :    0.045332
  67 H :    0.021606
  68 H :    0.031115
  69 H :    0.023718
  70 H :    0.014480
  71 H :   -0.035446
  72 H :    0.011820
  73 H :    0.015489
  74 H :   -0.016295
  75 H :   -0.017578
  76 H :   -0.002475
  77 H :    0.018321
  78 H :   -0.008722
  79 H :    0.000782
  80 H :   -0.011085
Sum of atomic charges:   -0.0000000

LOEWDIN ATOMIC CHARGES
----------------------
   0 C :   -0.014408
   1 C :   -0.057915
   2 N :   -0.020042
   3 O :    0.081775
   4 N :   -0.021738
   5 C :   -0.047008
   6 C :   -0.032526
   7 C :   -0.017307
   8 C :   -0.006565
   9 C :   -0.157868
  10 S :    0.437099
  11 C :   -0.142883
  12 C :   -0.098788
  13 C :   -0.011076
  14 C :    0.106850
  15 O :   -0.128686
  16 C :    0.006705
  17 C :   -0.049364
  18 C :    0.073642
  19 N :    0.000532
  20 C :    0.036646
  21 C :   -0.060681
  22 C :    0.080181
  23 O :   -0.202525
  24 C :   -0.122527
  25 C :   -0.121438
  26 C :    0.080359
  27 O :   -0.207345
  28 N :    0.001430
  29 C :    0.036180
  30 C :   -0.060733
  31 C :    0.076666
  32 C :   -0.048041
  33 C :    0.034465
  34 C :   -0.028452
  35 C :    0.019102
  36 C :   -0.021042
  37 N :    0.279922
  38 O :   -0.192127
  39 O :   -0.193638
  40 C :   -0.003139
  41 C :   -0.007930
  42 C :    0.008076
  43 C :   -0.011266
  44 C :    0.002379
  45 C :   -0.021752
  46 C :   -0.053115
  47 N :   -0.027237
  48 O :    0.078859
  49 N :   -0.025720
  50 C :   -0.059898
  51 C :   -0.013847
  52 C :   -0.007624
  53 C :   -0.003192
  54 H :    0.041249
  55 H :    0.026857
  56 H :    0.037493
  57 H :    0.040592
  58 H :    0.006892
  59 H :    0.040395
  60 H :    0.022061
  61 H :    0.022799
  62 H :    0.038550
  63 H :    0.021665
  64 H :    0.030818
  65 H :    0.032774
  66 H :    0.038713
  67 H :    0.022078
  68 H :    0.033233
  69 H :    0.030857
  70 H :    0.021350
  71 H :    0.024868
  72 H :    0.038712
  73 H :    0.047827
  74 H :    0.034082
  75 H :    0.030540
  76 H :    0.030224
  77 H :    0.035556
  78 H :    0.040193
  79 H :    0.036110
  80 H :    0.032088

  Mayer bond orders larger than 0.100000
B(  0-C ,  1-C ) :   1.1637 B(  0-C ,  6-C ) :   0.1068 B(  0-C ,  8-C ) :   1.5328
B(  0-C , 54-H ) :   1.0230 B(  1-C ,  2-N ) :   1.5953 B(  1-C ,  5-C ) :   1.1483
B(  2-N ,  3-O ) :   1.0759 B(  2-N ,  4-N ) :   0.1852 B(  3-O ,  4-N ) :   1.0623
B(  4-N ,  5-C ) :   1.5938 B(  5-C ,  6-C ) :   1.1454 B(  6-C ,  7-C ) :   1.5220
B(  6-C ,  9-C ) :   1.1009 B(  7-C ,  8-C ) :   1.1995 B(  7-C , 55-H ) :   0.9872
B(  8-C , 56-H ) :   0.9807 B(  9-C , 10-S ) :   1.0932 B(  9-C , 13-C ) :   1.5269
B( 10-S , 11-C ) :   1.1197 B( 11-C , 12-C ) :   1.3983 B( 11-C , 16-C ) :   1.1800
B( 12-C , 13-C ) :   1.1994 B( 12-C , 14-C ) :   0.9801 B( 13-C , 57-H ) :   0.9943
B( 14-C , 15-O ) :   2.1797 B( 14-C , 58-H ) :   0.9650 B( 16-C , 17-C ) :   1.5777
B( 16-C , 59-H ) :   0.9473 B( 17-C , 18-C ) :   1.1718 B( 17-C , 60-H ) :   0.9619
B( 18-C , 19-N ) :   1.1562 B( 18-C , 25-C ) :   1.3376 B( 19-N , 20-C ) :   0.9472
B( 19-N , 22-C ) :   1.0634 B( 20-C , 21-C ) :   1.1191 B( 20-C , 61-H ) :   0.9498
B( 20-C , 62-H ) :   0.9280 B( 21-C , 63-H ) :   0.9688 B( 21-C , 64-H ) :   0.9684
B( 21-C , 65-H ) :   0.9639 B( 22-C , 23-O ) :   2.0217 B( 22-C , 24-C ) :   0.9861
B( 23-O , 72-H ) :   0.1149 B( 24-C , 25-C ) :   1.2473 B( 24-C , 31-C ) :   1.3507
B( 25-C , 26-C ) :   0.9962 B( 26-C , 27-O ) :   2.0089 B( 26-C , 28-N ) :   1.0667
B( 28-N , 29-C ) :   0.9472 B( 28-N , 31-C ) :   1.1558 B( 29-C , 30-C ) :   1.1191
B( 29-C , 66-H ) :   0.9271 B( 29-C , 67-H ) :   0.9493 B( 30-C , 68-H ) :   0.9637
B( 30-C , 69-H ) :   0.9684 B( 30-C , 70-H ) :   0.9688 B( 31-C , 32-C ) :   1.1520
B( 32-C , 33-C ) :   1.6088 B( 32-C , 71-H ) :   0.9559 B( 33-C , 34-C ) :   1.0803
B( 33-C , 72-H ) :   0.9655 B( 34-C , 35-C ) :   1.2906 B( 34-C , 42-C ) :   1.3197
B( 35-C , 36-C ) :   1.3872 B( 35-C , 73-H ) :   1.0043 B( 36-C , 37-N ) :   0.8532
B( 36-C , 40-C ) :   1.3687 B( 37-N , 38-O ) :   1.5414 B( 37-N , 39-O ) :   1.5491
B( 38-O , 39-O ) :   0.2748 B( 40-C , 41-C ) :   1.3328 B( 40-C , 43-C ) :   1.0503
B( 41-C , 42-C ) :   1.4180 B( 41-C , 74-H ) :   0.9892 B( 42-C , 75-H ) :   0.9906
B( 43-C , 44-C ) :   1.7339 B( 43-C , 76-H ) :   0.9564 B( 44-C , 45-C ) :   1.1120
B( 44-C , 77-H ) :   0.9727 B( 45-C , 46-C ) :   1.1273 B( 45-C , 51-C ) :   0.1074
B( 45-C , 53-C ) :   1.5300 B( 46-C , 47-N ) :   1.6115 B( 46-C , 50-C ) :   1.1498
B( 47-N , 48-O ) :   1.0664 B( 47-N , 49-N ) :   0.1879 B( 48-O , 49-N ) :   1.0720
B( 49-N , 50-C ) :   1.5897 B( 50-C , 51-C ) :   1.1618 B( 51-C , 52-C ) :   1.5322
B( 51-C , 78-H ) :   1.0240 B( 52-C , 53-C ) :   1.1980 B( 52-C , 79-H ) :   0.9821
B( 53-C , 80-H ) :   0.9872

-----------------------------------------------------------------------------
         ABSORPTION SPECTRUM VIA TRANSITION ELECTRIC DIPOLE MOMENTS
-----------------------------------------------------------------------------
State   Energy  Wavelength   fosc         T2         TX        TY        TZ
        (cm-1)    (nm)                  (au**2)     (au)      (au)      (au)
-----------------------------------------------------------------------------
   0   14991.5    667.0   1.137405800  24.97740   1.20875  -4.84831   0.10127
   1   22485.7    444.7   0.040515060   0.59318   0.21135  -0.64346   0.36669
   2   25314.1    395.0   0.373346203   4.85539  -0.39007   2.15452  -0.24756
   3   25815.5    387.4   0.115411564   1.47179  -0.41211   1.08989  -0.33779
   4   26819.7    372.9   0.586699533   7.20174   0.57547  -2.33268   1.19548
   5   27352.9    365.6   0.091609580   1.10259   0.26382  -0.90187   0.46863
   6   28226.3    354.3   0.000006907   0.00008   0.00725  -0.00508   0.00151
   7   28882.0    346.2   0.018678533   0.21291  -0.13334   0.37942   0.22621
   8   29363.0    340.6   0.007206295   0.08080  -0.06710   0.14039  -0.23787
   9   29434.3    339.7   0.105089623   1.17539  -0.09594   0.79120  -0.73497
  10   31908.1    313.4   0.026884308   0.27738  -0.45892   0.23159   0.11464
  11   32803.2    304.8   0.002191394   0.02199   0.05778  -0.07959  -0.11099
  12   33171.0    301.5   0.061375446   0.60913   0.24636  -0.51000  -0.53697
  13   33959.9    294.5   0.008016211   0.07771   0.07163  -0.26601  -0.04260
  14   34347.2    291.1   0.044416523   0.42573  -0.19571   0.61920   0.06329
  15   34616.0    288.9   0.055793309   0.53062   0.03372  -0.45484   0.56798
  16   35648.3    280.5   0.018731391   0.17298  -0.22884   0.21080   0.27600
  17   35940.9    278.2   0.043372747   0.39729  -0.13374  -0.03241   0.61510
  18   36569.6    273.5   0.704788098   6.34475   0.20876   1.71351  -1.83441
  19   37646.9    265.6   0.014119958   0.12348  -0.12590   0.15158   0.29094
  20   38114.3    262.4   0.000010584   0.00009  -0.00359   0.00726  -0.00508
  21   38243.0    261.5   0.076809373   0.66121  -0.08757   0.69380  -0.41494
  22   38503.0    259.7   0.000159332   0.00136   0.02601   0.00294   0.02603
  23   39538.0    252.9   0.094918599   0.79034   0.18660   0.25806  -0.83001
  24   40184.5    248.9   0.090050363   0.73774   0.27570  -0.73902   0.33997

FINAL SINGLE POINT ENERGY     -2807.065816879697

DIPOLE MOMENT
-------------
                                X             Y             Z
Electronic contribution:      0.02498      12.11074       8.07179
Nuclear contribution   :     -0.59499     -13.24618      -8.40223
                        -----------------------------------------
Total Dipole Moment    :     -0.57001      -1.13544      -0.33044
                        -----------------------------------------
Magnitude (a.u.)       :      1.31276
Magnitude (Debye)      :      3.33676

Rotational constants in cm-1:     0.005352     0.000358     0.000342
Rotational constants in MHz :   160.438071    10.734316    10.255736

                             ****ORCA TERMINATED NORMALLY****
TOTAL RUN TIME: 0 days 0 hours 5 minutes 20 seconds 980 msec
