                         Program Version 4.2.0 -  RELEASE  -
|  1> # ORCA input file
|  2> # SCF done       -148.341982999511          0.000293564519
|  3> ! CAM-B3LYP def2-SVP def2/J RIJCOSX Grid4 TightSCF
|  4> %maxcore 5000
|  5> %tddft
|  6>     Mode sTDDFT
|  7>     Ethresh 5.0
|  8>     maxcore 5000
|  9> end
| 10>
| 11> %pal
| 12>   nprocs 6
| 13>   end
| 14> * xyz 0 1
| 15>    C        0.36491        -0.82070         2.64867
| 16>    C        0.15505        -1.44091         3.83665
| 17>    O        1.32568        -1.75469         4.42279
| 18>    C        2.30160        -1.35267         3.60569
| 19>    C        1.78049        -0.76714         2.47997
| 20>    C        2.47851        -0.12654         1.35478
| 21>    O        1.99317         0.80163         0.73559
| 22>    C        3.79505        -0.66352         1.01663
| 23>    C        4.36536        -1.88380         1.29732
| 24>    C        5.63345        -2.03761         0.73361
| 25>    C        6.04318        -0.93718         0.01031
| 26>    S        4.82607         0.30008         0.01458
| 27>    C        7.28559        -0.75522        -0.68816
| 28>    C        7.51399         0.32939        -1.54775
| 29>    N        8.63981         0.50583        -2.19769
| 30>    C        9.60630        -0.40199        -2.02101
| 31>    N        9.49456        -1.46581        -1.22160
| 32>    C        8.37437        -1.63975        -0.57189
| 33>    C       10.86571        -0.27230        -2.70992
| 34>    N       11.20292         0.72328        -3.59042
| 35>    C       10.37747         1.81162        -4.05656
| 36>    C        9.41596         1.35837        -5.15075
| 37>    C       12.50642         0.55110        -4.09219
| 38>    O       13.01894         1.30916        -4.89267
| 39>    C       12.98807        -0.64327        -3.43835
| 40>    C       11.95266        -1.12548        -2.59068
| 41>    C       12.44235        -2.31606        -1.91922
| 42>    O       11.96256        -3.07626        -1.11255
| 43>    N       13.76107        -2.46320        -2.41603
| 44>    C       14.58044        -3.58268        -2.02207
| 45>    C       14.59339        -4.67912        -3.08469
| 46>    C       14.08849        -1.48537        -3.32025
| 47>    C       15.35198        -1.41633        -3.97461
| 48>    C       15.65583        -0.48711        -4.90245
| 49>    C       16.94243        -0.45818        -5.56793
| 50>    N       17.86295        -1.36700        -5.22375
| 51>    C       19.02106        -1.31119        -5.85519
| 52>    C       19.29353        -0.37153        -6.83534
| 53>    C       18.26965         0.53770        -7.13663
| 54>    N       17.10543         0.47912        -6.49261
| 55>    C       18.43189         1.54683        -8.16258
| 56>    C       17.45729         2.41291        -8.47344
| 57>    C       17.53944         3.41253        -9.50451
| 58>    C       16.78444         4.55619        -9.58508
| 59>    O       17.15502         5.30897       -10.62723
| 60>    C       18.16002         4.67160       -11.24198
| 61>    C       18.44471         3.49037       -10.62007
| 62>    C       19.45461         2.50694       -11.06665
| 63>    O       20.61327         2.80735       -11.27583
| 64>    C       18.96194         1.14656       -11.27624
| 65>    C       19.73304         0.03568       -11.51957
| 66>    C       18.97267        -1.13019       -11.69579
| 67>    C       17.63323        -0.89442       -11.60058
| 68>    S       17.27306         0.74713       -11.28496
| 69>    H       -0.36263        -0.44980         1.95783
| 70>    H       -0.74186        -1.70491         4.36037
| 71>    H        3.31164        -1.48706         3.93976
| 72>    H        3.87018        -2.64954         1.86602
| 73>    H        6.22436        -2.92900         0.84179
| 74>    H        6.74653         1.07645        -1.71423
| 75>    H        8.33866        -2.50792         0.07179
| 76>    H       11.06702         2.56045        -4.45660
| 77>    H        9.82109         2.22484        -3.21473
| 78>    H        9.96903         0.92494        -5.98072
| 79>    H        8.84828         2.20981        -5.51473
| 80>    H        8.72310         0.61875        -4.75838
| 81>    H       14.13572        -3.97031        -1.10096
| 82>    H       15.59559        -3.23771        -1.80789
| 83>    H       13.58091        -5.03287        -3.26317
| 84>    H       15.19895        -5.51466        -2.74448
| 85>    H       15.00227        -4.30793        -4.02170
| 86>    H       16.10413        -2.14960        -3.72069
| 87>    H       14.95153         0.27566        -5.20199
| 88>    H       19.75381        -2.05322        -5.56099
| 89>    H       20.24248        -0.33870        -7.34567
| 90>    H       19.38604         1.56314        -8.67140
| 91>    H       16.54067         2.38137        -7.90079
| 92>    H       15.99816         4.92359        -8.95580
| 93>    H       18.57857         5.11933       -12.12133
| 94>    H       20.80657         0.08046       -11.55921
| 95>    H       19.39445        -2.10014       -11.88878
| 96>    H       16.83066        -1.59862       -11.70078
| 97> *
| 98>
| 99>                          ****END OF INPUT****

CARTESIAN COORDINATES (ANGSTROEM)
---------------------------------
  C      0.364910   -0.820700    2.648670
  C      0.155050   -1.440910    3.836650
  O      1.325680   -1.754690    4.422790
  C      2.301600   -1.352670    3.605690
  C      1.780490   -0.767140    2.479970
  C      2.478510   -0.126540    1.354780
  O      1.993170    0.801630    0.735590
  C      3.795050   -0.663520    1.016630
  C      4.365360   -1.883800    1.297320
  C      5.633450   -2.037610    0.733610
  C      6.043180   -0.937180    0.010310
  S      4.826070    0.300080    0.014580
  C      7.285590   -0.755220   -0.688160
  C      7.513990    0.329390   -1.547750
  N      8.639810    0.505830   -2.197690
  C      9.606300   -0.401990   -2.021010
  N      9.494560   -1.465810   -1.221600
  C      8.374370   -1.639750   -0.571890
  C     10.865710   -0.272300   -2.709920
  N     11.202920    0.723280   -3.590420
  C     10.377470    1.811620   -4.056560
  C      9.415960    1.358370   -5.150750
  C     12.506420    0.551100   -4.092190
  O     13.018940    1.309160   -4.892670
  C     12.988070   -0.643270   -3.438350
  C     11.952660   -1.125480   -2.590680
  C     12.442350   -2.316060   -1.919220
  O     11.962560   -3.076260   -1.112550
  N     13.761070   -2.463200   -2.416030
  C     14.580440   -3.582680   -2.022070
  C     14.593390   -4.679120   -3.084690
  C     14.088490   -1.485370   -3.320250
  C     15.351980   -1.416330   -3.974610
  C     15.655830   -0.487110   -4.902450
  C     16.942430   -0.458180   -5.567930
  N     17.862950   -1.367000   -5.223750
  C     19.021060   -1.311190   -5.855190
  C     19.293530   -0.371530   -6.835340
  C     18.269650    0.537700   -7.136630
  N     17.105430    0.479120   -6.492610
  C     18.431890    1.546830   -8.162580
  C     17.457290    2.412910   -8.473440
  C     17.539440    3.412530   -9.504510
  C     16.784440    4.556190   -9.585080
  O     17.155020    5.308970  -10.627230
  C     18.160020    4.671600  -11.241980
  C     18.444710    3.490370  -10.620070
  C     19.454610    2.506940  -11.066650
  O     20.613270    2.807350  -11.275830
  C     18.961940    1.146560  -11.276240
  C     19.733040    0.035680  -11.519570
  C     18.972670   -1.130190  -11.695790
  C     17.633230   -0.894420  -11.600580
  S     17.273060    0.747130  -11.284960
  H     -0.362630   -0.449800    1.957830
  H     -0.741860   -1.704910    4.360370
  H      3.311640   -1.487060    3.939760
  H      3.870180   -2.649540    1.866020
  H      6.224360   -2.929000    0.841790
  H      6.746530    1.076450   -1.714230
  H      8.338660   -2.507920    0.071790
  H     11.067020    2.560450   -4.456600
  H      9.821090    2.224840   -3.214730
  H      9.969030    0.924940   -5.980720
  H      8.848280    2.209810   -5.514730
  H      8.723100    0.618750   -4.758380
  H     14.135720   -3.970310   -1.100960
  H     15.595590   -3.237710   -1.807890
  H     13.580910   -5.032870   -3.263170
  H     15.198950   -5.514660   -2.744480
  H     15.002270   -4.307930   -4.021700
  H     16.104130   -2.149600   -3.720690
  H     14.951530    0.275660   -5.201990
  H     19.753810   -2.053220   -5.560990
  H     20.242480   -0.338700   -7.345670
  H     19.386040    1.563140   -8.671400
  H     16.540670    2.381370   -7.900790
  H     15.998160    4.923590   -8.955800
  H     18.578570    5.119330  -12.121330
  H     20.806570    0.080460  -11.559210
  H     19.394450   -2.100140  -11.888780
  H     16.830660   -1.598620  -11.700780

 Total Charge           Charge          ....    0
 Multiplicity           Mult            ....    1
 Number of Electrons    NEL             ....  390
 Basis Dimension        Dim             ....  904

ORBITAL ENERGIES
----------------

  NO   OCC          E(Eh)            E(eV)
   0   2.0000     -88.967205     -2420.9207
   1   2.0000     -88.960237     -2420.7311
   2   2.0000     -19.299640      -525.1699
   3   2.0000     -19.298845      -525.1483
   4   2.0000     -19.201898      -522.5102
   5   2.0000     -19.201662      -522.5038
   6   2.0000     -19.180264      -521.9215
   7   2.0000     -19.176059      -521.8071
   8   2.0000     -14.443091      -393.0165
   9   2.0000     -14.440513      -392.9463
  10   2.0000     -14.421275      -392.4228
  11   2.0000     -14.413681      -392.2162
  12   2.0000     -14.404529      -391.9672
  13   2.0000     -14.402740      -391.9185
  14   2.0000     -10.365397      -282.0568
  15   2.0000     -10.364933      -282.0442
  16   2.0000     -10.363975      -282.0181
  17   2.0000     -10.359605      -281.8992
  18   2.0000     -10.352692      -281.7111
  19   2.0000     -10.337227      -281.2902
  20   2.0000     -10.335701      -281.2487
  21   2.0000     -10.333948      -281.2010
  22   2.0000     -10.331103      -281.1236
  23   2.0000     -10.330349      -281.1031
  24   2.0000     -10.328465      -281.0518
  25   2.0000     -10.327986      -281.0388
  26   2.0000     -10.324819      -280.9526
  27   2.0000     -10.323456      -280.9155
  28   2.0000     -10.323067      -280.9049
  29   2.0000     -10.319666      -280.8124
  30   2.0000     -10.317515      -280.7538
  31   2.0000     -10.306742      -280.4607
  32   2.0000     -10.304208      -280.3918
  33   2.0000     -10.300439      -280.2892
  34   2.0000     -10.299806      -280.2720
  35   2.0000     -10.292217      -280.0655
  36   2.0000     -10.292209      -280.0653
  37   2.0000     -10.286867      -279.9199
  38   2.0000     -10.283397      -279.8255
  39   2.0000     -10.283107      -279.8176
  40   2.0000     -10.282136      -279.7911
  41   2.0000     -10.280439      -279.7450
  42   2.0000     -10.280118      -279.7362
  43   2.0000     -10.279367      -279.7158
  44   2.0000     -10.278170      -279.6832
  45   2.0000     -10.276732      -279.6441
  46   2.0000     -10.275570      -279.6125
  47   2.0000     -10.274879      -279.5937
  48   2.0000     -10.272378      -279.5256
  49   2.0000     -10.269666      -279.4518
  50   2.0000     -10.257337      -279.1163
  51   2.0000     -10.256626      -279.0970
  52   2.0000     -10.250205      -278.9223
  53   2.0000     -10.243100      -278.7289
  54   2.0000      -8.062272      -219.3856
  55   2.0000      -8.055468      -219.2004
  56   2.0000      -6.031477      -164.1248
  57   2.0000      -6.027195      -164.0083
  58   2.0000      -6.024783      -163.9427
  59   2.0000      -6.024626      -163.9384
  60   2.0000      -6.020272      -163.8199
  61   2.0000      -6.018121      -163.7614
  62   2.0000      -1.219593       -33.1868
  63   2.0000      -1.218843       -33.1664
  64   2.0000      -1.122846       -30.5542
  65   2.0000      -1.120458       -30.4892
  66   2.0000      -1.118342       -30.4316
  67   2.0000      -1.114775       -30.3346
  68   2.0000      -1.092918       -29.7398
  69   2.0000      -1.077567       -29.3221
  70   2.0000      -1.052490       -28.6397
  71   2.0000      -1.041306       -28.3354
  72   2.0000      -0.995350       -27.0849
  73   2.0000      -0.986651       -26.8481
  74   2.0000      -0.982516       -26.7356
  75   2.0000      -0.976664       -26.5764
  76   2.0000      -0.927260       -25.2320
  77   2.0000      -0.918991       -25.0070
  78   2.0000      -0.916259       -24.9327
  79   2.0000      -0.909180       -24.7400
  80   2.0000      -0.904153       -24.6033
  81   2.0000      -0.878456       -23.9040
  82   2.0000      -0.864019       -23.5111
  83   2.0000      -0.858121       -23.3507
  84   2.0000      -0.853942       -23.2370
  85   2.0000      -0.843389       -22.9498
  86   2.0000      -0.840088       -22.8600
  87   2.0000      -0.836733       -22.7687
  88   2.0000      -0.831953       -22.6386
  89   2.0000      -0.828109       -22.5340
  90   2.0000      -0.807548       -21.9745
  91   2.0000      -0.804487       -21.8912
  92   2.0000      -0.789545       -21.4846
  93   2.0000      -0.759470       -20.6662
  94   2.0000      -0.758012       -20.6266
  95   2.0000      -0.748122       -20.3574
  96   2.0000      -0.746435       -20.3115
  97   2.0000      -0.739788       -20.1307
  98   2.0000      -0.729624       -19.8541
  99   2.0000      -0.719619       -19.5818
 100   2.0000      -0.698838       -19.0163
 101   2.0000      -0.695350       -18.9214
 102   2.0000      -0.683378       -18.5957
 103   2.0000      -0.675702       -18.3868
 104   2.0000      -0.669464       -18.2170
 105   2.0000      -0.667303       -18.1582
 106   2.0000      -0.663678       -18.0596
 107   2.0000      -0.657583       -17.8937
 108   2.0000      -0.645216       -17.5572
 109   2.0000      -0.644396       -17.5349
 110   2.0000      -0.641495       -17.4560
 111   2.0000      -0.635859       -17.3026
 112   2.0000      -0.629491       -17.1293
 113   2.0000      -0.625773       -17.0282
 114   2.0000      -0.623590       -16.9687
 115   2.0000      -0.609707       -16.5910
 116   2.0000      -0.604758       -16.4563
 117   2.0000      -0.599715       -16.3191
 118   2.0000      -0.583702       -15.8834
 119   2.0000      -0.578578       -15.7439
 120   2.0000      -0.571943       -15.5634
 121   2.0000      -0.565667       -15.3926
 122   2.0000      -0.564249       -15.3540
 123   2.0000      -0.561550       -15.2806
 124   2.0000      -0.557791       -15.1783
 125   2.0000      -0.555344       -15.1117
 126   2.0000      -0.543775       -14.7969
 127   2.0000      -0.541008       -14.7216
 128   2.0000      -0.536102       -14.5881
 129   2.0000      -0.534679       -14.5494
 130   2.0000      -0.531516       -14.4633
 131   2.0000      -0.526893       -14.3375
 132   2.0000      -0.525847       -14.3090
 133   2.0000      -0.521247       -14.1839
 134   2.0000      -0.520164       -14.1544
 135   2.0000      -0.518175       -14.1003
 136   2.0000      -0.517427       -14.0799
 137   2.0000      -0.515126       -14.0173
 138   2.0000      -0.512843       -13.9552
 139   2.0000      -0.510112       -13.8808
 140   2.0000      -0.507665       -13.8143
 141   2.0000      -0.504208       -13.7202
 142   2.0000      -0.502428       -13.6718
 143   2.0000      -0.499814       -13.6006
 144   2.0000      -0.499087       -13.5809
 145   2.0000      -0.497079       -13.5262
 146   2.0000      -0.491353       -13.3704
 147   2.0000      -0.490385       -13.3440
 148   2.0000      -0.487604       -13.2684
 149   2.0000      -0.485418       -13.2089
 150   2.0000      -0.484597       -13.1866
 151   2.0000      -0.479081       -13.0364
 152   2.0000      -0.471708       -12.8358
 153   2.0000      -0.466188       -12.6856
 154   2.0000      -0.464424       -12.6376
 155   2.0000      -0.463003       -12.5990
 156   2.0000      -0.457156       -12.4399
 157   2.0000      -0.455222       -12.3872
 158   2.0000      -0.451121       -12.2756
 159   2.0000      -0.448886       -12.2148
 160   2.0000      -0.447001       -12.1635
 161   2.0000      -0.444680       -12.1004
 162   2.0000      -0.439543       -11.9606
 163   2.0000      -0.434103       -11.8125
 164   2.0000      -0.432733       -11.7753
 165   2.0000      -0.428086       -11.6488
 166   2.0000      -0.427713       -11.6387
 167   2.0000      -0.423303       -11.5187
 168   2.0000      -0.419055       -11.4031
 169   2.0000      -0.416148       -11.3240
 170   2.0000      -0.412522       -11.2253
 171   2.0000      -0.407216       -11.0809
 172   2.0000      -0.397202       -10.8084
 173   2.0000      -0.384335       -10.4583
 174   2.0000      -0.382304       -10.4030
 175   2.0000      -0.378103       -10.2887
 176   2.0000      -0.373980       -10.1765
 177   2.0000      -0.369444       -10.0531
 178   2.0000      -0.359773        -9.7899
 179   2.0000      -0.339386        -9.2352
 180   2.0000      -0.338202        -9.2030
 181   2.0000      -0.337407        -9.1813
 182   2.0000      -0.330605        -8.9962
 183   2.0000      -0.328576        -8.9410
 184   2.0000      -0.324790        -8.8380
 185   2.0000      -0.320322        -8.7164
 186   2.0000      -0.319741        -8.7006
 187   2.0000      -0.313877        -8.5410
 188   2.0000      -0.312737        -8.5100
 189   2.0000      -0.310332        -8.4446
 190   2.0000      -0.308017        -8.3816
 191   2.0000      -0.303587        -8.2610
 192   2.0000      -0.296618        -8.0714
 193   2.0000      -0.280929        -7.6445
 194   2.0000      -0.235078        -6.3968
 195   0.0000      -0.081684        -2.2227
 196   0.0000      -0.045438        -1.2364
 197   0.0000      -0.031777        -0.8647
 198   0.0000      -0.028332        -0.7709
 199   0.0000      -0.010362        -0.2820

MULLIKEN ATOMIC CHARGES
-----------------------
   0 C :   -0.017270
   1 C :    0.131879
   2 O :   -0.173055
   3 C :    0.084220
   4 C :   -0.057013
   5 C :    0.201511
   6 O :   -0.177899
   7 C :   -0.168264
   8 C :    0.037249
   9 C :   -0.009471
  10 C :   -0.059718
  11 S :    0.173554
  12 C :    0.059730
  13 C :    0.017833
  14 N :   -0.053895
  15 C :   -0.192297
  16 N :    0.009067
  17 C :    0.026013
  18 C :    0.195895
  19 N :   -0.261022
  20 C :    0.143223
  21 C :    0.005641
  22 C :    0.156677
  23 O :   -0.212211
  24 C :   -0.066714
  25 C :   -0.057163
  26 C :    0.149392
  27 O :   -0.160109
  28 N :   -0.268983
  29 C :    0.101112
  30 C :    0.005146
  31 C :    0.154741
  32 C :   -0.002226
  33 C :    0.051082
  34 C :   -0.082857
  35 N :   -0.080673
  36 C :    0.081240
  37 C :   -0.044133
  38 C :    0.038901
  39 N :   -0.033417
  40 C :   -0.004841
  41 C :    0.020473
  42 C :    0.067213
  43 C :    0.084298
  44 O :   -0.164515
  45 C :    0.110673
  46 C :   -0.070078
  47 C :    0.134989
  48 O :   -0.170111
  49 C :   -0.193682
  50 C :    0.033090
  51 C :    0.046882
  52 C :   -0.067619
  53 S :    0.170815
  54 H :    0.001619
  55 H :    0.015994
  56 H :    0.017494
  57 H :   -0.003576
  58 H :   -0.009522
  59 H :    0.017343
  60 H :    0.010656
  61 H :    0.027886
  62 H :    0.023989
  63 H :    0.016792
  64 H :    0.011743
  65 H :    0.011098
  66 H :    0.039605
  67 H :    0.025026
  68 H :    0.025785
  69 H :    0.019712
  70 H :    0.018715
  71 H :   -0.007900
  72 H :    0.013903
  73 H :    0.003276
  74 H :   -0.005075
  75 H :   -0.006144
  76 H :    0.017456
  77 H :    0.016838
  78 H :    0.017032
  79 H :    0.006318
  80 H :   -0.005802
  81 H :    0.036436
Sum of atomic charges:    0.0000000

LOEWDIN ATOMIC CHARGES
----------------------
   0 C :   -0.046066
   1 C :    0.034042
   2 O :    0.031186
   3 C :    0.047234
   4 C :   -0.108752
   5 C :    0.057803
   6 O :   -0.160756
   7 C :   -0.212590
   8 C :   -0.033619
   9 C :   -0.058205
  10 C :   -0.157501
  11 S :    0.484475
  12 C :   -0.082050
  13 C :    0.044364
  14 N :   -0.067276
  15 C :    0.017295
  16 N :   -0.039455
  17 C :    0.060891
  18 C :    0.046459
  19 N :    0.009019
  20 C :    0.035103
  21 C :   -0.061196
  22 C :    0.076946
  23 O :   -0.203954
  24 C :   -0.127095
  25 C :   -0.095210
  26 C :    0.084275
  27 O :   -0.167833
  28 N :   -0.005925
  29 C :    0.035479
  30 C :   -0.061135
  31 C :    0.089359
  32 C :   -0.026283
  33 C :    0.026012
  34 C :    0.022764
  35 N :   -0.096035
  36 C :    0.048373
  37 C :   -0.063593
  38 C :    0.040330
  39 N :   -0.078152
  40 C :   -0.051105
  41 C :    0.021618
  42 C :   -0.078225
  43 C :    0.049961
  44 O :    0.038767
  45 C :    0.063061
  46 C :   -0.109242
  47 C :    0.059859
  48 O :   -0.148874
  49 C :   -0.231125
  50 C :   -0.017673
  51 C :   -0.068638
  52 C :   -0.168076
  53 S :    0.479251
  54 H :    0.037993
  55 H :    0.024629
  56 H :    0.025222
  57 H :    0.033602
  58 H :    0.031239
  59 H :    0.021797
  60 H :    0.028576
  61 H :    0.028969
  62 H :    0.022108
  63 H :    0.025359
  64 H :    0.026965
  65 H :    0.018053
  66 H :    0.035714
  67 H :    0.024053
  68 H :    0.030614
  69 H :    0.029335
  70 H :    0.023438
  71 H :    0.031732
  72 H :    0.039930
  73 H :    0.025310
  74 H :    0.033970
  75 H :    0.029929
  76 H :    0.039949
  77 H :    0.028241
  78 H :    0.029934
  79 H :    0.037300
  80 H :    0.031229
  81 H :    0.026519

  Mayer bond orders larger than 0.100000
B(  0-C ,  1-C ) :   1.5756 B(  0-C ,  4-C ) :   1.2298 B(  0-C , 54-H ) :   1.0179
B(  1-C ,  2-O ) :   1.1308 B(  1-C , 55-H ) :   1.0013 B(  2-O ,  3-C ) :   1.1949
B(  3-C ,  4-C ) :   1.5185 B(  3-C , 56-H ) :   1.0051 B(  4-C ,  5-C ) :   0.9493
B(  5-C ,  6-O ) :   2.2434 B(  5-C ,  7-C ) :   0.9655 B(  7-C ,  8-C ) :   1.5201
B(  7-C , 10-C ) :   0.1123 B(  7-C , 11-S ) :   1.1316 B(  8-C ,  9-C ) :   1.2686
B(  8-C , 57-H ) :   0.9908 B(  9-C , 10-C ) :   1.5165 B(  9-C , 58-H ) :   0.9944
B( 10-C , 11-S ) :   1.1571 B( 10-C , 12-C ) :   1.0648 B( 12-C , 13-C ) :   1.3140
B( 12-C , 17-C ) :   1.2911 B( 13-C , 14-N ) :   1.5617 B( 13-C , 59-H ) :   0.9821
B( 14-N , 15-C ) :   1.4935 B( 15-C , 16-N ) :   1.6425 B( 15-C , 18-C ) :   0.9871
B( 16-N , 17-C ) :   1.6021 B( 16-N , 18-C ) :  -0.1319 B( 17-C , 60-H ) :   0.9890
B( 18-C , 19-N ) :   1.1986 B( 18-C , 25-C ) :   1.3969 B( 19-N , 20-C ) :   0.9399
B( 19-N , 22-C ) :   1.0582 B( 20-C , 21-C ) :   1.1239 B( 20-C , 61-H ) :   0.9266
B( 20-C , 62-H ) :   0.9352 B( 21-C , 63-H ) :   0.9659 B( 21-C , 64-H ) :   0.9681
B( 21-C , 65-H ) :   0.9660 B( 22-C , 23-O ) :   2.0376 B( 22-C , 24-C ) :   0.9871
B( 24-C , 25-C ) :   1.2406 B( 24-C , 31-C ) :   1.3390 B( 25-C , 26-C ) :   0.9425
B( 26-C , 27-O ) :   2.1796 B( 26-C , 28-N ) :   1.0126 B( 28-N , 29-C ) :   0.9484
B( 28-N , 31-C ) :   1.1819 B( 29-C , 30-C ) :   1.1227 B( 29-C , 66-H ) :   0.9269
B( 29-C , 67-H ) :   0.9498 B( 30-C , 68-H ) :   0.9634 B( 30-C , 69-H ) :   0.9676
B( 30-C , 70-H ) :   0.9683 B( 31-C , 32-C ) :   1.1034 B( 32-C , 33-C ) :   1.6452
B( 32-C , 71-H ) :   0.9615 B( 33-C , 34-C ) :   1.0166 B( 33-C , 72-H ) :   0.9559
B( 34-C , 35-N ) :   1.5139 B( 34-C , 39-N ) :   1.5627 B( 35-N , 36-C ) :   1.5500
B( 36-C , 37-C ) :   1.3671 B( 36-C , 73-H ) :   0.9797 B( 37-C , 38-C ) :   1.3359
B( 37-C , 74-H ) :   0.9741 B( 38-C , 39-N ) :   1.5147 B( 38-C , 40-C ) :   1.0785
B( 40-C , 41-C ) :   1.7471 B( 40-C , 75-H ) :   0.9638 B( 41-C , 42-C ) :   1.0492
B( 41-C , 76-H ) :   0.9671 B( 42-C , 43-C ) :   1.4959 B( 42-C , 46-C ) :   1.2395
B( 43-C , 44-O ) :   1.1642 B( 43-C , 77-H ) :   1.0055 B( 44-O , 45-C ) :   1.1679
B( 45-C , 46-C ) :   1.5650 B( 45-C , 78-H ) :   1.0103 B( 46-C , 47-C ) :   0.9134
B( 47-C , 48-O ) :   2.2443 B( 47-C , 49-C ) :   0.9935 B( 49-C , 50-C ) :   1.5107
B( 49-C , 53-S ) :   1.1504 B( 50-C , 51-C ) :   1.2679 B( 50-C , 79-H ) :   1.0051
B( 51-C , 52-C ) :   1.5330 B( 51-C , 80-H ) :   0.9996 B( 52-C , 53-S ) :   1.2115
B( 52-C , 81-H ) :   0.9742

-----------------------------------------------------------------------------
         ABSORPTION SPECTRUM VIA TRANSITION ELECTRIC DIPOLE MOMENTS
-----------------------------------------------------------------------------
State   Energy  Wavelength   fosc         T2         TX        TY        TZ
        (cm-1)    (nm)                  (au**2)     (au)      (au)      (au)
-----------------------------------------------------------------------------
   0   17084.9    585.3   0.690557336  13.30644  -3.39543   0.78387   1.07845
   1   25642.8    390.0   0.026897005   0.34531   0.49741   0.09849  -0.29698
   2   26669.4    375.0   0.000720727   0.00890  -0.02536   0.03109   0.08536
   3   27002.8    370.3   0.012954298   0.15794  -0.32284  -0.09212   0.21266
   4   29394.2    340.2   0.015479903   0.17337   0.35843   0.04098  -0.20790
   5   29507.2    338.9   0.001907146   0.02128   0.11313   0.08077  -0.04424
   6   30439.4    328.5   0.009865515   0.10670   0.18893   0.18037  -0.19614
   7   30519.2    327.7   0.051490894   0.55543  -0.70000   0.17250   0.18887
   8   30905.4    323.6   0.065593569   0.69872  -0.74623  -0.03918   0.37459
   9   31391.4    318.6   0.760198187   7.97245   2.38301   0.33372  -1.47727
  10   32038.1    312.1   0.054888655   0.56402  -0.66722  -0.06677   0.33818
  11   33462.6    298.8   0.025604027   0.25190  -0.24868  -0.23115   0.36963
  12   33790.3    295.9   0.013441323   0.13096   0.14728  -0.14599   0.29656
  13   35027.2    285.5   0.006986899   0.06567   0.01905  -0.13701   0.21572
  14   35232.7    283.8   0.007787567   0.07277   0.10004   0.09472  -0.23192
  15   35649.4    280.5   0.663865689   6.13062  -1.13385  -1.36419   1.72742
  16   35882.5    278.7   0.013322792   0.12223   0.07640   0.27663  -0.19969
  17   36262.6    275.8   0.015533366   0.14102  -0.18815   0.14773   0.28948
  18   37009.4    270.2   0.015664550   0.13934   0.10133  -0.12577   0.33653
  19   37590.5    266.0   0.011337176   0.09929  -0.12874  -0.14107  -0.25062
  20   38483.3    259.9   0.003947667   0.03377   0.13588  -0.06287   0.10656
  21   39071.8    255.9   0.608042235   5.12326  -0.92658   1.67072  -1.21384
  22   39786.1    251.3   0.069877818   0.57821  -0.48105   0.48673  -0.33150
  23   39851.9    250.9   0.006216250   0.05135   0.15522   0.05576  -0.15540

FINAL SINGLE POINT ENERGY     -3114.208439609841

DIPOLE MOMENT
-------------
                                X             Y             Z
Electronic contribution:     -9.53914      15.10217       2.09695
Nuclear contribution   :      9.19821     -16.77901      -1.79239
                        -----------------------------------------
Total Dipole Moment    :     -0.34093      -1.67684       0.30455
                        -----------------------------------------
Magnitude (a.u.)       :      1.73804
Magnitude (Debye)      :      4.41774

Rotational constants in cm-1:     0.003851     0.000384     0.000360
Rotational constants in MHz :   115.454019    11.512946    10.785250

                             ****ORCA TERMINATED NORMALLY****
TOTAL RUN TIME: 0 days 0 hours 5 minutes 35 seconds 715 msec
