                         Program Version 4.2.0 -  RELEASE  -
|  1> # ORCA input file
|  2> # SCF done       -176.686702383873          0.000547493682
|  3> ! CAM-B3LYP def2-SVP def2/J RIJCOSX Grid4 TightSCF
|  4> %maxcore 5000
|  5> %tddft
|  6>     Mode sTDDFT
|  7>     Ethresh 5.0
|  8>     maxcore 5000
|  9> end
| 10>
| 11> %pal
| 12>   nprocs 6
| 13>   end
| 14> * xyz 0 1
| 15>    C       -3.45899         1.67011        -3.91011
| 16>    C       -3.35646         1.24067        -2.61692
| 17>    C       -3.32963        -0.12787        -2.28378
| 18>    C       -3.39309        -1.10774        -3.24569
| 19>    C       -3.50878        -0.69692        -4.60600
| 20>    C       -3.53976         0.70558        -4.93484
| 21>    N       -3.64477         0.95612        -6.23579
| 22>   Se       -3.71939        -0.55461        -7.10816
| 23>    N       -3.60633        -1.51201        -5.64865
| 24>    C       -3.40538        -2.53660        -2.98566
| 25>    C       -4.34154        -3.25068        -2.27995
| 26>    N       -5.43396        -2.76304        -1.53289
| 27>    O       -6.31824        -3.55817        -1.26910
| 28>    O       -5.44126        -1.59217        -1.19646
| 29>    C       -4.17520        -4.66751        -2.55151
| 30>    C       -3.12904        -4.82396        -3.38648
| 31>    C       -2.53504        -3.52890        -3.64440
| 32>    C       -1.33711        -3.24943        -4.25595
| 33>    C       -0.78563        -1.93296        -4.47365
| 34>    C        0.17272        -2.00403        -5.42683
| 35>    C        0.33548        -3.38070        -5.80718
| 36>    N        1.32761        -3.80709        -6.70812
| 37>    O        1.86089        -2.95113        -7.39312
| 38>    O        1.61097        -4.99392        -6.74842
| 39>    C       -0.50459        -4.18284        -5.04519
| 40>    C       -0.49358        -5.59898        -5.07905
| 41>    C       -0.57629        -6.40750        -3.98353
| 42>    C       -0.49680        -7.81267        -4.08632
| 43>    N       -0.38700        -8.66693        -3.01904
| 44>    C       -0.27731        -8.29874        -1.62799
| 45>    C        1.12378        -7.80194        -1.28127
| 46>    C       -0.29141       -10.01690        -3.42567
| 47>    O       -0.16882       -10.94273        -2.65836
| 48>    C       -0.38916        -9.95106        -4.87097
| 49>    C       -0.51626        -8.60421        -5.24496
| 50>    C       -0.64887        -8.56104        -6.68690
| 51>    O       -0.84021        -7.64657        -7.45755
| 52>    N       -0.55056        -9.90958        -7.09275
| 53>    C       -0.61133       -10.21602        -8.50217
| 54>    C        0.78312       -10.31842        -9.11682
| 55>    C       -0.39340       -10.75659        -6.02176
| 56>    C       -0.27849       -12.16216        -5.97252
| 57>    C       -0.12236       -13.04838        -6.99807
| 58>    C       -0.04277       -14.45261        -6.84177
| 59>    C       -0.17382       -15.23346        -5.70677
| 60>    C       -0.02882       -16.60318        -6.06280
| 61>    C        0.20968       -16.62715        -7.51847
| 62>    C        0.19285       -15.34538        -7.96605
| 63>    C        0.40478       -17.75130        -8.32800
| 64>    N        0.56648       -18.64831        -9.02779
| 65>    C       -0.10233       -17.70434        -5.23942
| 66>    C        0.07569       -19.06896        -5.60583
| 67>    C       -0.07925       -19.86813        -4.49683
| 68>    C       -0.37439       -18.99617        -3.36396
| 69>    C       -0.39085       -17.70824        -3.79152
| 70>    C       -0.66490       -16.59642        -2.98820
| 71>    N       -0.90338       -15.70280        -2.30712
| 72>    C        0.01623       -21.30256        -4.44450
| 73>    C        0.12712       -22.05463        -5.60488
| 74>    C        0.21842       -23.45291        -5.60345
| 75>    C        0.20551       -24.17255        -4.43914
| 76>    C        0.09772       -23.47005        -3.22465
| 77>    C       -0.00036       -22.02732        -3.21197
| 78>    N       -0.08845       -21.50926        -1.99439
| 79>   Se       -0.05916       -22.79526        -0.80582
| 80>    N        0.07886       -24.03564        -2.02199
| 81>    H       -3.48108         2.71605        -4.16989
| 82>    H       -3.29536         1.96171        -1.81635
| 83>    H       -3.23897        -0.40823        -1.24687
| 84>    H       -4.82531        -5.42034        -2.14857
| 85>    H       -2.78501        -5.74853        -3.80162
| 86>    H       -1.09863        -1.04588        -3.96162
| 87>    H        0.76141        -1.20385        -5.83391
| 88>    H       -0.27723        -6.05133        -6.04081
| 89>    H       -0.63678        -5.97059        -2.99589
| 90>    H       -0.49630        -9.20592        -1.05797
| 91>    H       -1.03023        -7.54181        -1.39041
| 92>    H        1.85292        -8.58449        -1.47540
| 93>    H        1.16999        -7.53871        -0.22838
| 94>    H        1.38737        -6.92850        -1.87387
| 95>    H       -1.14285        -9.38036        -8.96798
| 96>    H       -1.19567       -11.12621        -8.65367
| 97>    H        1.28796        -9.35912        -9.03526
| 98>    H        0.70511       -10.57989       -10.16861
| 99>    H        1.38838       -11.06671        -8.60929
|100>    H       -0.29863       -12.54744        -4.96089
|101>    H       -0.02839       -12.70173        -8.01586
|102>    H       -0.35654       -14.88376        -4.71002
|103>    H        0.33162       -15.02450        -8.98265
|104>    H        0.31568       -19.38858        -6.59955
|105>    H       -0.55004       -19.34424        -2.36495
|106>    H        0.13382       -21.54782        -6.55681
|107>    H        0.29891       -23.96531        -6.55016
|108>    H        0.27445       -25.24802        -4.42191
|109> *
|110>
|111>                          ****END OF INPUT****

CARTESIAN COORDINATES (ANGSTROEM)
---------------------------------
  C     -3.458990    1.670110   -3.910110
  C     -3.356460    1.240670   -2.616920
  C     -3.329630   -0.127870   -2.283780
  C     -3.393090   -1.107740   -3.245690
  C     -3.508780   -0.696920   -4.606000
  C     -3.539760    0.705580   -4.934840
  N     -3.644770    0.956120   -6.235790
  Se    -3.719390   -0.554610   -7.108160
  N     -3.606330   -1.512010   -5.648650
  C     -3.405380   -2.536600   -2.985660
  C     -4.341540   -3.250680   -2.279950
  N     -5.433960   -2.763040   -1.532890
  O     -6.318240   -3.558170   -1.269100
  O     -5.441260   -1.592170   -1.196460
  C     -4.175200   -4.667510   -2.551510
  C     -3.129040   -4.823960   -3.386480
  C     -2.535040   -3.528900   -3.644400
  C     -1.337110   -3.249430   -4.255950
  C     -0.785630   -1.932960   -4.473650
  C      0.172720   -2.004030   -5.426830
  C      0.335480   -3.380700   -5.807180
  N      1.327610   -3.807090   -6.708120
  O      1.860890   -2.951130   -7.393120
  O      1.610970   -4.993920   -6.748420
  C     -0.504590   -4.182840   -5.045190
  C     -0.493580   -5.598980   -5.079050
  C     -0.576290   -6.407500   -3.983530
  C     -0.496800   -7.812670   -4.086320
  N     -0.387000   -8.666930   -3.019040
  C     -0.277310   -8.298740   -1.627990
  C      1.123780   -7.801940   -1.281270
  C     -0.291410  -10.016900   -3.425670
  O     -0.168820  -10.942730   -2.658360
  C     -0.389160   -9.951060   -4.870970
  C     -0.516260   -8.604210   -5.244960
  C     -0.648870   -8.561040   -6.686900
  O     -0.840210   -7.646570   -7.457550
  N     -0.550560   -9.909580   -7.092750
  C     -0.611330  -10.216020   -8.502170
  C      0.783120  -10.318420   -9.116820
  C     -0.393400  -10.756590   -6.021760
  C     -0.278490  -12.162160   -5.972520
  C     -0.122360  -13.048380   -6.998070
  C     -0.042770  -14.452610   -6.841770
  C     -0.173820  -15.233460   -5.706770
  C     -0.028820  -16.603180   -6.062800
  C      0.209680  -16.627150   -7.518470
  C      0.192850  -15.345380   -7.966050
  C      0.404780  -17.751300   -8.328000
  N      0.566480  -18.648310   -9.027790
  C     -0.102330  -17.704340   -5.239420
  C      0.075690  -19.068960   -5.605830
  C     -0.079250  -19.868130   -4.496830
  C     -0.374390  -18.996170   -3.363960
  C     -0.390850  -17.708240   -3.791520
  C     -0.664900  -16.596420   -2.988200
  N     -0.903380  -15.702800   -2.307120
  C      0.016230  -21.302560   -4.444500
  C      0.127120  -22.054630   -5.604880
  C      0.218420  -23.452910   -5.603450
  C      0.205510  -24.172550   -4.439140
  C      0.097720  -23.470050   -3.224650
  C     -0.000360  -22.027320   -3.211970
  N     -0.088450  -21.509260   -1.994390
  Se    -0.059160  -22.795260   -0.805820
  N      0.078860  -24.035640   -2.021990
  H     -3.481080    2.716050   -4.169890
  H     -3.295360    1.961710   -1.816350
  H     -3.238970   -0.408230   -1.246870
  H     -4.825310   -5.420340   -2.148570
  H     -2.785010   -5.748530   -3.801620
  H     -1.098630   -1.045880   -3.961620
  H      0.761410   -1.203850   -5.833910
  H     -0.277230   -6.051330   -6.040810
  H     -0.636780   -5.970590   -2.995890
  H     -0.496300   -9.205920   -1.057970
  H     -1.030230   -7.541810   -1.390410
  H      1.852920   -8.584490   -1.475400
  H      1.169990   -7.538710   -0.228380
  H      1.387370   -6.928500   -1.873870
  H     -1.142850   -9.380360   -8.967980
  H     -1.195670  -11.126210   -8.653670
  H      1.287960   -9.359120   -9.035260
  H      0.705110  -10.579890  -10.168610
  H      1.388380  -11.066710   -8.609290
  H     -0.298630  -12.547440   -4.960890
  H     -0.028390  -12.701730   -8.015860
  H     -0.356540  -14.883760   -4.710020
  H      0.331620  -15.024500   -8.982650
  H      0.315680  -19.388580   -6.599550
  H     -0.550040  -19.344240   -2.364950
  H      0.133820  -21.547820   -6.556810
  H      0.298910  -23.965310   -6.550160
  H      0.274450  -25.248020   -4.421910

 Total Charge           Charge          ....    0
 Multiplicity           Mult            ....    1
 Number of Electrons    NEL             ....  502
 Basis Dimension        Dim             .... 1100

ORBITAL ENERGIES
----------------

  NO   OCC          E(Eh)            E(eV)
   0   2.0000    -453.981110    -12353.4541
   1   2.0000    -453.979875    -12353.4204
   2   2.0000     -58.195062     -1583.5681
   3   2.0000     -58.193764     -1583.5328
   4   2.0000     -52.265729     -1422.2228
   5   2.0000     -52.264419     -1422.1871
   6   2.0000     -52.263391     -1422.1592
   7   2.0000     -52.262948     -1422.1471
   8   2.0000     -52.262100     -1422.1240
   9   2.0000     -52.261644     -1422.1116
  10   2.0000     -19.242266      -523.6087
  11   2.0000     -19.241193      -523.5795
  12   2.0000     -19.236181      -523.4431
  13   2.0000     -19.235855      -523.4342
  14   2.0000     -19.196624      -522.3667
  15   2.0000     -19.194504      -522.3090
  16   2.0000     -14.650192      -398.6520
  17   2.0000     -14.644504      -398.4972
  18   2.0000     -14.458490      -393.4355
  19   2.0000     -14.458366      -393.4321
  20   2.0000     -14.437127      -392.8542
  21   2.0000     -14.436167      -392.8281
  22   2.0000     -14.435757      -392.8169
  23   2.0000     -14.435434      -392.8081
  24   2.0000     -14.407895      -392.0587
  25   2.0000     -14.398936      -391.8150
  26   2.0000     -10.378935      -282.4252
  27   2.0000     -10.378111      -282.4028
  28   2.0000     -10.348035      -281.5844
  29   2.0000     -10.343807      -281.4693
  30   2.0000     -10.335901      -281.2542
  31   2.0000     -10.330917      -281.1185
  32   2.0000     -10.330624      -281.1106
  33   2.0000     -10.329439      -281.0783
  34   2.0000     -10.328368      -281.0492
  35   2.0000     -10.326219      -280.9907
  36   2.0000     -10.323978      -280.9297
  37   2.0000     -10.323368      -280.9131
  38   2.0000     -10.323259      -280.9101
  39   2.0000     -10.322005      -280.8760
  40   2.0000     -10.319201      -280.7997
  41   2.0000     -10.317800      -280.7616
  42   2.0000     -10.312833      -280.6264
  43   2.0000     -10.312707      -280.6230
  44   2.0000     -10.310839      -280.5722
  45   2.0000     -10.310668      -280.5675
  46   2.0000     -10.306086      -280.4429
  47   2.0000     -10.305103      -280.4161
  48   2.0000     -10.305020      -280.4139
  49   2.0000     -10.304692      -280.4049
  50   2.0000     -10.303329      -280.3678
  51   2.0000     -10.302172      -280.3364
  52   2.0000     -10.301214      -280.3103
  53   2.0000     -10.300926      -280.3024
  54   2.0000     -10.300862      -280.3007
  55   2.0000     -10.299125      -280.2534
  56   2.0000     -10.298999      -280.2500
  57   2.0000     -10.298134      -280.2265
  58   2.0000     -10.297664      -280.2137
  59   2.0000     -10.296429      -280.1801
  60   2.0000     -10.295243      -280.1478
  61   2.0000     -10.293734      -280.1068
  62   2.0000     -10.292426      -280.0712
  63   2.0000     -10.291808      -280.0543
  64   2.0000     -10.290678      -280.0236
  65   2.0000     -10.290163      -280.0096
  66   2.0000     -10.286719      -279.9159
  67   2.0000     -10.286517      -279.9104
  68   2.0000     -10.282356      -279.7971
  69   2.0000     -10.278244      -279.6852
  70   2.0000     -10.269672      -279.4520
  71   2.0000     -10.269071      -279.4356
  72   2.0000     -10.266944      -279.3778
  73   2.0000     -10.265727      -279.3446
  74   2.0000      -7.970879      -216.8986
  75   2.0000      -7.969663      -216.8655
  76   2.0000      -5.921013      -161.1190
  77   2.0000      -5.919780      -161.0854
  78   2.0000      -5.914386      -160.9386
  79   2.0000      -5.913144      -160.9048
  80   2.0000      -5.910795      -160.8409
  81   2.0000      -5.909563      -160.8074
  82   2.0000      -2.275099       -61.9086
  83   2.0000      -2.274491       -61.8921
  84   2.0000      -2.273853       -61.8747
  85   2.0000      -2.273272       -61.8589
  86   2.0000      -2.270088       -61.7722
  87   2.0000      -2.268870       -61.7391
  88   2.0000      -2.265008       -61.6340
  89   2.0000      -2.264798       -61.6283
  90   2.0000      -2.263785       -61.6007
  91   2.0000      -2.263592       -61.5955
  92   2.0000      -1.321439       -35.9582
  93   2.0000      -1.314866       -35.7793
  94   2.0000      -1.139344       -31.0031
  95   2.0000      -1.138791       -30.9881
  96   2.0000      -1.132648       -30.8209
  97   2.0000      -1.132262       -30.8104
  98   2.0000      -1.091475       -29.7006
  99   2.0000      -1.091047       -29.6889
 100   2.0000      -1.069283       -29.0967
 101   2.0000      -1.060143       -28.8479
 102   2.0000      -1.019476       -27.7413
 103   2.0000      -1.011641       -27.5282
 104   2.0000      -0.999793       -27.2058
 105   2.0000      -0.995875       -27.0991
 106   2.0000      -0.982281       -26.7292
 107   2.0000      -0.978214       -26.6186
 108   2.0000      -0.966948       -26.3120
 109   2.0000      -0.965817       -26.2812
 110   2.0000      -0.956714       -26.0335
 111   2.0000      -0.953562       -25.9477
 112   2.0000      -0.934864       -25.4389
 113   2.0000      -0.919508       -25.0211
 114   2.0000      -0.912660       -24.8348
 115   2.0000      -0.911146       -24.7936
 116   2.0000      -0.883535       -24.0422
 117   2.0000      -0.879617       -23.9356
 118   2.0000      -0.875157       -23.8142
 119   2.0000      -0.869505       -23.6604
 120   2.0000      -0.857146       -23.3241
 121   2.0000      -0.849363       -23.1123
 122   2.0000      -0.848891       -23.0995
 123   2.0000      -0.847178       -23.0529
 124   2.0000      -0.844165       -22.9709
 125   2.0000      -0.825402       -22.4603
 126   2.0000      -0.825012       -22.4497
 127   2.0000      -0.821662       -22.3586
 128   2.0000      -0.801755       -21.8169
 129   2.0000      -0.791895       -21.5486
 130   2.0000      -0.773253       -21.0413
 131   2.0000      -0.764501       -20.8031
 132   2.0000      -0.761645       -20.7254
 133   2.0000      -0.740784       -20.1577
 134   2.0000      -0.738627       -20.0991
 135   2.0000      -0.729067       -19.8389
 136   2.0000      -0.719239       -19.5715
 137   2.0000      -0.715133       -19.4598
 138   2.0000      -0.713063       -19.4034
 139   2.0000      -0.710813       -19.3422
 140   2.0000      -0.700931       -19.0733
 141   2.0000      -0.700718       -19.0675
 142   2.0000      -0.693560       -18.8727
 143   2.0000      -0.688084       -18.7237
 144   2.0000      -0.682998       -18.5853
 145   2.0000      -0.672153       -18.2902
 146   2.0000      -0.668592       -18.1933
 147   2.0000      -0.656399       -17.8615
 148   2.0000      -0.653604       -17.7855
 149   2.0000      -0.649291       -17.6681
 150   2.0000      -0.638699       -17.3799
 151   2.0000      -0.635519       -17.2934
 152   2.0000      -0.631836       -17.1931
 153   2.0000      -0.627479       -17.0746
 154   2.0000      -0.625547       -17.0220
 155   2.0000      -0.622315       -16.9341
 156   2.0000      -0.615226       -16.7411
 157   2.0000      -0.609787       -16.5932
 158   2.0000      -0.601670       -16.3723
 159   2.0000      -0.591930       -16.1072
 160   2.0000      -0.591408       -16.0930
 161   2.0000      -0.589109       -16.0305
 162   2.0000      -0.587676       -15.9915
 163   2.0000      -0.583143       -15.8681
 164   2.0000      -0.581663       -15.8279
 165   2.0000      -0.576761       -15.6945
 166   2.0000      -0.575453       -15.6589
 167   2.0000      -0.575268       -15.6538
 168   2.0000      -0.569446       -15.4954
 169   2.0000      -0.564859       -15.3706
 170   2.0000      -0.556432       -15.1413
 171   2.0000      -0.553036       -15.0489
 172   2.0000      -0.551011       -14.9938
 173   2.0000      -0.546537       -14.8720
 174   2.0000      -0.541248       -14.7281
 175   2.0000      -0.538951       -14.6656
 176   2.0000      -0.535054       -14.5596
 177   2.0000      -0.534453       -14.5432
 178   2.0000      -0.532197       -14.4818
 179   2.0000      -0.528065       -14.3694
 180   2.0000      -0.523054       -14.2330
 181   2.0000      -0.522561       -14.2196
 182   2.0000      -0.519152       -14.1269
 183   2.0000      -0.517780       -14.0895
 184   2.0000      -0.515209       -14.0196
 185   2.0000      -0.511459       -13.9175
 186   2.0000      -0.508648       -13.8410
 187   2.0000      -0.506571       -13.7845
 188   2.0000      -0.502997       -13.6872
 189   2.0000      -0.502348       -13.6696
 190   2.0000      -0.496918       -13.5218
 191   2.0000      -0.491631       -13.3780
 192   2.0000      -0.486901       -13.2492
 193   2.0000      -0.484027       -13.1710
 194   2.0000      -0.481988       -13.1156
 195   2.0000      -0.480378       -13.0717
 196   2.0000      -0.478931       -13.0324
 197   2.0000      -0.477586       -12.9958
 198   2.0000      -0.475847       -12.9484
 199   2.0000      -0.472298       -12.8519
 200   2.0000      -0.469110       -12.7651
 201   2.0000      -0.466254       -12.6874
 202   2.0000      -0.464450       -12.6383
 203   2.0000      -0.463990       -12.6258
 204   2.0000      -0.463537       -12.6135
 205   2.0000      -0.462066       -12.5735
 206   2.0000      -0.457842       -12.4585
 207   2.0000      -0.455818       -12.4034
 208   2.0000      -0.451867       -12.2959
 209   2.0000      -0.450627       -12.2622
 210   2.0000      -0.445750       -12.1295
 211   2.0000      -0.445548       -12.1240
 212   2.0000      -0.443735       -12.0746
 213   2.0000      -0.440212       -11.9788
 214   2.0000      -0.438357       -11.9283
 215   2.0000      -0.431224       -11.7342
 216   2.0000      -0.430258       -11.7079
 217   2.0000      -0.428561       -11.6617
 218   2.0000      -0.427724       -11.6390
 219   2.0000      -0.423590       -11.5265
 220   2.0000      -0.421550       -11.4710
 221   2.0000      -0.412231       -11.2174
 222   2.0000      -0.408674       -11.1206
 223   2.0000      -0.407082       -11.0773
 224   2.0000      -0.392508       -10.6807
 225   2.0000      -0.389936       -10.6107
 226   2.0000      -0.387346       -10.5402
 227   2.0000      -0.386608       -10.5201
 228   2.0000      -0.386103       -10.5064
 229   2.0000      -0.380725       -10.3600
 230   2.0000      -0.375364       -10.2142
 231   2.0000      -0.374735       -10.1970
 232   2.0000      -0.371016       -10.0959
 233   2.0000      -0.367290        -9.9945
 234   2.0000      -0.362530        -9.8650
 235   2.0000      -0.360327        -9.8050
 236   2.0000      -0.356637        -9.7046
 237   2.0000      -0.352745        -9.5987
 238   2.0000      -0.340450        -9.2641
 239   2.0000      -0.337330        -9.1792
 240   2.0000      -0.336294        -9.1510
 241   2.0000      -0.329935        -8.9780
 242   2.0000      -0.328073        -8.9273
 243   2.0000      -0.326064        -8.8727
 244   2.0000      -0.322254        -8.7690
 245   2.0000      -0.317789        -8.6475
 246   2.0000      -0.304246        -8.2790
 247   2.0000      -0.298345        -8.1184
 248   2.0000      -0.293814        -7.9951
 249   2.0000      -0.275297        -7.4912
 250   2.0000      -0.236175        -6.4266
 251   0.0000      -0.133774        -3.6402
 252   0.0000      -0.119615        -3.2549
 253   0.0000      -0.077751        -2.1157
 254   0.0000      -0.068143        -1.8543
 255   0.0000      -0.065456        -1.7811

MULLIKEN ATOMIC CHARGES
-----------------------
   0 C :   -0.010771
   1 C :    0.025993
   2 C :    0.054061
   3 C :   -0.046996
   4 C :   -0.025164
   5 C :    0.053287
   6 N :   -0.267246
   7 Se:    0.530590
   8 N :   -0.269247
   9 C :    0.031297
  10 C :    0.080957
  11 N :    0.264218
  12 O :   -0.241422
  13 O :   -0.241333
  14 C :    0.016311
  15 C :   -0.006586
  16 C :    0.079090
  17 C :    0.025994
  18 C :    0.035861
  19 C :    0.005838
  20 C :    0.088773
  21 N :    0.267572
  22 O :   -0.248652
  23 O :   -0.241153
  24 C :    0.028271
  25 C :   -0.015167
  26 C :   -0.060600
  27 C :    0.134155
  28 N :   -0.261567
  29 C :    0.093419
  30 C :    0.000725
  31 C :    0.147873
  32 O :   -0.171843
  33 C :   -0.044813
  34 C :   -0.048560
  35 C :    0.158021
  36 O :   -0.197519
  37 N :   -0.266968
  38 C :    0.102736
  39 C :    0.001506
  40 C :    0.125697
  41 C :   -0.020717
  42 C :    0.001559
  43 C :    0.107927
  44 C :   -0.109113
  45 C :    0.103990
  46 C :   -0.093994
  47 C :   -0.010083
  48 C :   -0.172425
  49 N :    0.124279
  50 C :    0.127578
  51 C :   -0.134061
  52 C :    0.057896
  53 C :    0.001657
  54 C :   -0.094494
  55 C :   -0.176426
  56 N :    0.140200
  57 C :    0.127898
  58 C :   -0.041786
  59 C :    0.042092
  60 C :   -0.002720
  61 C :    0.030309
  62 C :    0.002290
  63 N :   -0.301217
  64 Se:    0.530634
  65 N :   -0.266795
  66 H :   -0.011814
  67 H :    0.003230
  68 H :   -0.013917
  69 H :    0.004162
  70 H :    0.009773
  71 H :    0.001766
  72 H :    0.004122
  73 H :    0.056227
  74 H :   -0.001741
  75 H :    0.049571
  76 H :    0.022195
  77 H :    0.034201
  78 H :    0.025699
  79 H :    0.018035
  80 H :    0.043139
  81 H :    0.023745
  82 H :    0.037304
  83 H :    0.022339
  84 H :    0.020495
  85 H :    0.022371
  86 H :   -0.026874
  87 H :    0.014621
  88 H :   -0.005546
  89 H :   -0.004344
  90 H :    0.006493
  91 H :   -0.005317
  92 H :    0.000431
  93 H :   -0.011480
Sum of atomic charges:   -0.0000000

LOEWDIN ATOMIC CHARGES
----------------------
   0 C :   -0.005395
   1 C :   -0.016618
   2 C :    0.018933
   3 C :   -0.052041
   4 C :   -0.041654
   5 C :   -0.050207
   6 N :   -0.248126
   7 Se:    0.579407
   8 N :   -0.258315
   9 C :    0.027881
  10 C :   -0.029479
  11 N :    0.283021
  12 O :   -0.205930
  13 O :   -0.202676
  14 C :    0.007107
  15 C :   -0.034339
  16 C :    0.050984
  17 C :    0.040401
  18 C :   -0.029834
  19 C :    0.008826
  20 C :   -0.034580
  21 N :    0.283856
  22 O :   -0.213612
  23 O :   -0.204292
  24 C :    0.010487
  25 C :    0.034454
  26 C :   -0.034560
  27 C :    0.075529
  28 N :   -0.002878
  29 C :    0.036275
  30 C :   -0.060880
  31 C :    0.078650
  32 O :   -0.177628
  33 C :   -0.103429
  34 C :   -0.115009
  35 C :    0.082261
  36 O :   -0.185701
  37 N :   -0.001477
  38 C :    0.035043
  39 C :   -0.063160
  40 C :    0.069019
  41 C :   -0.006733
  42 C :   -0.010752
  43 C :   -0.024093
  44 C :   -0.013915
  45 C :    0.029361
  46 C :   -0.082611
  47 C :    0.048985
  48 C :   -0.028888
  49 N :   -0.071101
  50 C :    0.047130
  51 C :   -0.030815
  52 C :    0.002528
  53 C :    0.061907
  54 C :   -0.089661
  55 C :   -0.032439
  56 N :   -0.063227
  57 C :   -0.031377
  58 C :    0.012374
  59 C :   -0.015325
  60 C :   -0.006141
  61 C :   -0.046573
  62 C :   -0.032367
  63 N :   -0.255468
  64 Se:    0.575646
  65 N :   -0.247282
  66 H :    0.039973
  67 H :    0.036563
  68 H :    0.034497
  69 H :    0.037865
  70 H :    0.032939
  71 H :    0.033104
  72 H :    0.038534
  73 H :    0.045141
  74 H :    0.031507
  75 H :    0.040200
  76 H :    0.022378
  77 H :    0.034027
  78 H :    0.031618
  79 H :    0.022531
  80 H :    0.037780
  81 H :    0.021907
  82 H :    0.036639
  83 H :    0.030615
  84 H :    0.021111
  85 H :    0.051975
  86 H :    0.029867
  87 H :    0.036365
  88 H :    0.035103
  89 H :    0.030117
  90 H :    0.033505
  91 H :    0.038376
  92 H :    0.036584
  93 H :    0.039706

  Mayer bond orders larger than 0.100000
B(  0-C ,  1-C ) :   1.5091 B(  0-C ,  3-C ) :   0.1059 B(  0-C ,  5-C ) :   1.1775
B(  0-C , 66-H ) :   1.0208 B(  1-C ,  2-C ) :   1.1685 B(  1-C , 67-H ) :   0.9881
B(  2-C ,  3-C ) :   1.5684 B(  2-C , 68-H ) :   0.9943 B(  3-C ,  4-C ) :   1.1780
B(  3-C ,  9-C ) :   0.9474 B(  4-C ,  5-C ) :   1.1345 B(  4-C ,  8-N ) :   1.6044
B(  5-C ,  6-N ) :   1.5649 B(  6-N ,  7-Se) :   1.2617 B(  6-N ,  8-N ) :   0.1301
B(  7-Se,  8-N ) :   1.2335 B(  9-C , 10-C ) :   1.6831 B(  9-C , 16-C ) :   1.0534
B( 10-C , 11-N ) :   0.9288 B( 10-C , 14-C ) :   1.0878 B( 11-N , 12-O ) :   1.5359
B( 11-N , 13-O ) :   1.5167 B( 12-O , 13-O ) :   0.2690 B( 14-C , 15-C ) :   1.6351
B( 14-C , 69-H ) :   1.0128 B( 15-C , 16-C ) :   1.0712 B( 15-C , 70-H ) :   1.0011
B( 16-C , 17-C ) :   1.5731 B( 17-C , 18-C ) :   1.1086 B( 17-C , 24-C ) :   1.0121
B( 18-C , 19-C ) :   1.6039 B( 18-C , 71-H ) :   0.9822 B( 19-C , 20-C ) :   1.1169
B( 19-C , 72-H ) :   1.0169 B( 20-C , 21-N ) :   0.9438 B( 20-C , 24-C ) :   1.5498
B( 21-N , 22-O ) :   1.5236 B( 21-N , 23-O ) :   1.5032 B( 22-O , 23-O ) :   0.2637
B( 24-C , 25-C ) :   1.1401 B( 25-C , 26-C ) :   1.5878 B( 25-C , 73-H ) :   0.9109
B( 26-C , 27-C ) :   1.1733 B( 26-C , 74-H ) :   0.9640 B( 27-C , 28-N ) :   1.1776
B( 27-C , 34-C ) :   1.3108 B( 28-N , 29-C ) :   0.9447 B( 28-N , 31-C ) :   1.0232
B( 29-C , 30-C ) :   1.1190 B( 29-C , 75-H ) :   0.9287 B( 29-C , 76-H ) :   0.9506
B( 30-C , 77-H ) :   0.9642 B( 30-C , 78-H ) :   0.9679 B( 30-C , 79-H ) :   0.9684
B( 31-C , 32-O ) :   2.1481 B( 31-C , 33-C ) :   0.9749 B( 33-C , 34-C ) :   1.2778
B( 33-C , 40-C ) :   1.3074 B( 34-C , 35-C ) :   0.9785 B( 35-C , 36-O ) :   2.0533
B( 35-C , 37-N ) :   1.0540 B( 37-N , 38-C ) :   0.9429 B( 37-N , 40-C ) :   1.1667
B( 38-C , 39-C ) :   1.1158 B( 38-C , 80-H ) :   0.9241 B( 38-C , 81-H ) :   0.9504
B( 39-C , 82-H ) :   0.9604 B( 39-C , 83-H ) :   0.9690 B( 39-C , 84-H ) :   0.9669
B( 40-C , 41-C ) :   1.2004 B( 41-C , 42-C ) :   1.5436 B( 41-C , 85-H ) :   0.9533
B( 42-C , 43-C ) :   1.1193 B( 42-C , 86-H ) :   0.9748 B( 43-C , 44-C ) :   1.5180
B( 43-C , 47-C ) :   1.0348 B( 44-C , 45-C ) :   1.1424 B( 44-C , 87-H ) :   0.9961
B( 45-C , 46-C ) :   1.1024 B( 45-C , 50-C ) :   1.3963 B( 46-C , 47-C ) :   1.6662
B( 46-C , 48-C ) :   1.0859 B( 47-C , 88-H ) :   1.0233 B( 48-C , 49-N ) :   2.9692
B( 50-C , 51-C ) :   1.1207 B( 50-C , 54-C ) :   1.1037 B( 51-C , 52-C ) :   1.5728
B( 51-C , 89-H ) :   0.9927 B( 52-C , 53-C ) :   1.0649 B( 52-C , 57-C ) :   1.0241
B( 53-C , 54-C ) :   1.6423 B( 53-C , 90-H ) :   1.0087 B( 54-C , 55-C ) :   1.0874
B( 55-C , 56-N ) :   2.9727 B( 57-C , 58-C ) :   1.5113 B( 57-C , 60-C ) :   0.1057
B( 57-C , 62-C ) :   1.1493 B( 58-C , 59-C ) :   1.1978 B( 58-C , 91-H ) :   0.9993
B( 59-C , 60-C ) :   1.4901 B( 59-C , 92-H ) :   0.9850 B( 60-C , 61-C ) :   1.1900
B( 60-C , 93-H ) :   1.0178 B( 61-C , 62-C ) :   1.1166 B( 61-C , 65-N ) :   1.5616
B( 62-C , 63-N ) :   1.5810 B( 63-N , 64-Se) :   1.2245 B( 63-N , 65-N ) :   0.1310
B( 64-Se, 65-N ) :   1.2622

-----------------------------------------------------------------------------
         ABSORPTION SPECTRUM VIA TRANSITION ELECTRIC DIPOLE MOMENTS
-----------------------------------------------------------------------------
State   Energy  Wavelength   fosc         T2         TX        TY        TZ
        (cm-1)    (nm)                  (au**2)     (au)      (au)      (au)
-----------------------------------------------------------------------------
   0    7918.1   1262.9   0.521833400  21.69623  -0.40882   4.61768   0.45399
   1   11518.6    868.2   0.219567174   6.27545   0.16471   2.46335  -0.42454
   2   15107.7    661.9   0.059732091   1.30162  -0.04095  -0.78290   0.82886
   3   16103.2    621.0   0.029352920   0.60009   0.17539  -0.74112   0.14165
   4   18206.5    549.3   0.014859529   0.26869  -0.16563  -0.24946  -0.42312
   5   18961.6    527.4   0.118064155   2.04983   0.07993   0.90729   1.10466
   6   20056.8    498.6   0.096804683   1.58895  -0.13565  -1.16807  -0.45404
   7   23227.3    430.5   0.017845690   0.25294   0.15631   0.46761  -0.09923
   8   23485.5    425.8   0.308525406   4.32481  -0.21975   2.03616  -0.36138
   9   23867.0    419.0   0.004357966   0.06011   0.01981  -0.22607  -0.09280
  10   24411.3    409.6   0.004158382   0.05608   0.00014   0.01289  -0.23646
  11   24650.1    405.7   0.272053463   3.63339   0.03590   1.63584  -0.97781
  12   24724.0    404.5   0.011718660   0.15604  -0.11892   0.04923   0.37346
  13   25300.9    395.2   0.151593943   1.97252   0.10727  -1.38710   0.19227
  14   25529.8    391.7   0.002708071   0.03492   0.04583   0.16203   0.08104
  15   26604.6    375.9   0.058528332   0.72424  -0.63783   0.53996   0.16081
  16   26775.7    373.5   0.079376888   0.97595  -0.54214   0.82585  -0.00030
  17   26953.5    371.0   0.019858451   0.24255   0.12635   0.42820   0.20793
  18   27810.9    359.6   0.034405195   0.40727  -0.19800  -0.26138  -0.54749
  19   28020.2    356.9   0.083955693   0.98640  -0.32305   0.92957  -0.13398
  20   28346.0    352.8   0.187840395   2.18159  -1.06629  -0.20339   1.00163
  21   28660.7    348.9   0.001421813   0.01633  -0.01248  -0.03854   0.12120
  22   28790.8    347.3   0.050063963   0.57246  -0.09917  -0.35903   0.65858
  23   29030.2    344.5   0.037443518   0.42462  -0.00242  -0.64878  -0.06081
  24   29147.5    343.1   0.020631897   0.23303  -0.16676   0.00222   0.45301
  25   29412.8    340.0   0.058729973   0.65735  -0.66037   0.31413   0.35012
  26   29962.4    333.8   0.144873283   1.59179  -0.06358  -1.07211   0.66207
  27   30206.6    331.1   0.046730983   0.50931   0.10555   0.61540  -0.34562
  28   30406.4    328.9   0.042707862   0.46240  -0.31423  -0.56557   0.20926
  29   31590.4    316.6   0.062459059   0.65090   0.02386   0.80424   0.05949
  30   32019.5    312.3   0.065278719   0.67117  -0.67855   0.29136   0.35476
  31   32235.8    310.2   0.004712350   0.04813  -0.13125  -0.16536   0.05963
  32   32350.3    309.1   0.000865456   0.00881  -0.01890  -0.07725   0.04983
  33   32506.8    307.6   0.043226006   0.43777  -0.12477   0.64887  -0.03421
  34   33044.4    302.6   0.111372840   1.10958  -0.81335  -0.45503   0.49091
  35   33071.4    302.4   0.064583493   0.64290   0.38004   0.34401  -0.61655
  36   33171.8    301.5   0.030238883   0.30010   0.27511   0.33588  -0.33407
  37   33428.9    299.1   0.008890597   0.08756   0.00195   0.29317   0.04002
  38   33674.1    297.0   0.053600902   0.52403  -0.62609  -0.14510   0.33313
  39   34174.1    292.6   0.036351461   0.35019  -0.41390  -0.08167   0.41498
  40   34294.7    291.6   0.017062666   0.16379   0.18593  -0.35880   0.02199
  41   34319.0    291.4   0.050288471   0.48240  -0.16735  -0.61581   0.27417
  42   34542.8    289.5   0.000511780   0.00488  -0.05702  -0.03487   0.02025
  43   34665.4    288.5   0.052778624   0.50123  -0.32258  -0.45068   0.44052
  44   35113.1    284.8   0.114471825   1.07326   0.70688   0.40943  -0.63714
  45   35247.9    283.7   0.019351111   0.18074   0.28191  -0.09018  -0.30518
  46   35665.4    280.4   0.006298155   0.05814   0.21918  -0.10045   0.00268
  47   35995.7    277.8   0.004655497   0.04258  -0.03630  -0.11496   0.16747
  48   36505.0    273.9   0.000104274   0.00094   0.01147  -0.02834   0.00234
  49   36581.4    273.4   0.078348633   0.70509   0.65270  -0.01793  -0.52797
  50   36887.1    271.1   0.019268092   0.17196  -0.04121   0.12251   0.39403
  51   37048.2    269.9   0.011909187   0.10583   0.27446  -0.02201  -0.17325
  52   37117.8    269.4   0.008030885   0.07123  -0.08768  -0.21259  -0.13545
  53   37195.0    268.9   0.021323549   0.18873   0.23844   0.28814   0.22104
  54   37332.8    267.9   0.100818828   0.88905   0.69698   0.10793  -0.62579
  55   37474.1    266.9   0.035197718   0.30921   0.04815   0.23189   0.50311
  56   37594.1    266.0   0.133649193   1.17037   0.92511   0.05499  -0.55814
  57   37808.7    264.5   0.016583022   0.14439   0.00274  -0.08817   0.36961
  58   38150.8    262.1   0.035734961   0.30837   0.23825  -0.15546  -0.47690
  59   38281.3    261.2   0.012291310   0.10570  -0.19069   0.25770  -0.05417
  60   38387.4    260.5   0.028054070   0.24059   0.03765   0.39143  -0.29319
  61   38724.7    258.2   0.035863229   0.30489  -0.10099   0.47620  -0.26062
  62   38770.2    257.9   0.008980933   0.07626   0.12750  -0.10824   0.21974
  63   39418.6    253.7   0.015094300   0.12606  -0.32399  -0.05103   0.13598
  64   39723.1    251.7   0.335440216   2.78002   0.25465  -0.07559  -1.64604
  65   39889.5    250.7   0.275175135   2.27105   0.02163   0.28875  -1.47892
  66   40062.1    249.6   0.022737908   0.18685  -0.32387  -0.27196  -0.08941

FINAL SINGLE POINT ENERGY     -7643.637062791299

DIPOLE MOMENT
-------------
                                X             Y             Z
Electronic contribution:    -31.24558     -38.80136      20.98861
Nuclear contribution   :     31.56194      38.55304     -20.67114
                        -----------------------------------------
Total Dipole Moment    :      0.31636      -0.24832       0.31747
                        -----------------------------------------
Magnitude (a.u.)       :      0.51238
Magnitude (Debye)      :      1.30236

Rotational constants in cm-1:     0.002295     0.000237     0.000224
Rotational constants in MHz :    68.802350     7.091858     6.704006

                             ****ORCA TERMINATED NORMALLY****
TOTAL RUN TIME: 0 days 0 hours 10 minutes 21 seconds 643 msec
