                         Program Version 4.2.0 -  RELEASE  -
|  1> # ORCA input file
|  2> # SCF done       -170.651907621018          0.000817775458
|  3> ! CAM-B3LYP def2-SVP def2/J RIJCOSX Grid4 TightSCF
|  4> %maxcore 5000
|  5> %tddft
|  6>     Mode sTDDFT
|  7>     Ethresh 5.0
|  8>     maxcore 5000
|  9> end
| 10>
| 11> %pal
| 12>   nprocs 6
| 13>   end
| 14> * xyz 0 1
| 15>    C        0.47570         2.96129         0.28499
| 16>    C        0.45882         1.73151         0.79383
| 17>    C        1.59229         0.84775         0.66939
| 18>    C        2.77901         1.26842         0.20366
| 19>    C        2.97393         2.72514        -0.17252
| 20>    C        1.65656         3.46407        -0.50239
| 21>    N        1.72903         4.89493        -0.31706
| 22>    C        2.56577         5.35880         0.49780
| 23>    C        3.52975         4.50758         1.22284
| 24>    N        3.72287         3.30236         0.92614
| 25>    F        4.20312         5.05078         2.23116
| 26>    F        2.61508         6.66963         0.70704
| 27>    C        3.95781         0.40310         0.16728
| 28>    C        4.16930        -0.53087         1.17515
| 29>    C        5.27756        -1.36623         1.16498
| 30>    N        5.36222        -2.33801         2.22190
| 31>    O        4.68249        -2.15391         3.20989
| 32>    O        6.08951        -3.30072         2.06786
| 33>    C        6.24461        -1.29391         0.14423
| 34>    C        6.01047        -0.35364        -0.86721
| 35>    C        4.90483         0.46526        -0.86156
| 36>    C        7.45128        -2.09185         0.14811
| 37>    C        8.07339        -2.48612        -0.98088
| 38>    C        9.26788        -3.24992        -1.12955
| 39>    N        9.94905        -4.01422        -0.21589
| 40>    C        9.60949        -4.29362         1.15956
| 41>    C       10.23401        -3.27629         2.11313
| 42>    C       11.10450        -4.60359        -0.78572
| 43>    O       11.85550        -5.32872        -0.16884
| 44>    C       11.10086        -4.14694        -2.15600
| 45>    C        9.95726        -3.33486        -2.33453
| 46>    C        9.94710        -2.87544        -3.70110
| 47>    O        9.17165        -2.17513        -4.32026
| 48>    N       11.10452        -3.44922        -4.27160
| 49>    C       11.40236        -3.19991        -5.66051
| 50>    C       12.34645        -2.01156        -5.83658
| 51>    C       11.80801        -4.20216        -3.35472
| 52>    C       13.01633        -4.92990        -3.50796
| 53>    C       13.89916        -4.94045        -4.53636
| 54>    C       15.09254        -5.70996        -4.54878
| 55>    S       15.52119        -6.82448        -3.27355
| 56>    C       17.00428        -7.25549        -4.06634
| 57>    C       17.14639        -6.55346        -5.26882
| 58>    C       16.06162        -5.69566        -5.52456
| 59>    C       18.26636        -6.66164        -6.19145
| 60>    O       18.36076        -6.04797        -7.22661
| 61>    C       17.89451        -8.20438        -3.50169
| 62>    C       17.63905        -8.90199        -2.37007
| 63>    C       18.51104        -9.86602        -1.76533
| 64>    C       19.83161        -9.98459        -2.03035
| 65>    C       20.66081       -10.96434        -1.38796
| 66>    C       20.14496       -11.91962        -0.61187
| 67>    C       18.66051       -12.05021        -0.40659
| 68>    C       17.88813       -10.73912        -0.68358
| 69>    N       16.50035       -10.95439        -1.02658
| 70>    C       16.16366       -12.04718        -1.54726
| 71>    C       17.11050       -13.16045        -1.74865
| 72>    N       18.25303       -13.17390        -1.22756
| 73>    F       16.72673       -14.17348        -2.51884
| 74>    F       14.89826       -12.23371        -1.90644
| 75>    H       -0.35257         3.64554         0.37401
| 76>    H       -0.40837         1.36501         1.32110
| 77>    H        1.45686        -0.18145         0.96495
| 78>    H        3.64178         2.79251        -1.04044
| 79>    H        1.42023         3.32033        -1.56692
| 80>    H        3.47696        -0.61566         1.99886
| 81>    H        6.73540        -0.25542        -1.65996
| 82>    H        4.76872         1.15341        -1.68171
| 83>    H        7.83924        -2.36769         1.11401
| 84>    H        7.65776        -2.20278        -1.94026
| 85>    H       10.02245        -5.28252         1.38076
| 86>    H        8.52399        -4.33379         1.26811
| 87>    H       11.31790        -3.35047         2.07114
| 88>    H        9.90894        -3.47990         3.12949
| 89>    H        9.95005        -2.25949         1.84899
| 90>    H       10.44474        -2.96370        -6.13553
| 91>    H       11.80240        -4.10828        -6.11638
| 92>    H       11.86368        -1.10704        -5.47526
| 93>    H       12.58547        -1.88089        -6.88855
| 94>    H       13.26944        -2.15265        -5.27814
| 95>    H       13.24849        -5.52993        -2.63512
| 96>    H       13.76058        -4.33019        -5.41503
| 97>    H       16.01330        -5.08550        -6.40896
| 98>    H       19.06089        -7.36601        -5.88059
| 99>    H       18.81430        -8.37310        -4.04319
|100>    H       16.68557        -8.75970        -1.87864
|101>    H       20.30212        -9.32198        -2.73978
|102>    H       21.72442       -10.91712        -1.56616
|103>    H       20.74964       -12.70098        -0.18254
|104>    H       18.47064       -12.36706         0.62868
|105>    H       17.87155       -10.13612         0.23531
|106> *
|107>
|108>                          ****END OF INPUT****

CARTESIAN COORDINATES (ANGSTROEM)
---------------------------------
  C      0.475700    2.961290    0.284990
  C      0.458820    1.731510    0.793830
  C      1.592290    0.847750    0.669390
  C      2.779010    1.268420    0.203660
  C      2.973930    2.725140   -0.172520
  C      1.656560    3.464070   -0.502390
  N      1.729030    4.894930   -0.317060
  C      2.565770    5.358800    0.497800
  C      3.529750    4.507580    1.222840
  N      3.722870    3.302360    0.926140
  F      4.203120    5.050780    2.231160
  F      2.615080    6.669630    0.707040
  C      3.957810    0.403100    0.167280
  C      4.169300   -0.530870    1.175150
  C      5.277560   -1.366230    1.164980
  N      5.362220   -2.338010    2.221900
  O      4.682490   -2.153910    3.209890
  O      6.089510   -3.300720    2.067860
  C      6.244610   -1.293910    0.144230
  C      6.010470   -0.353640   -0.867210
  C      4.904830    0.465260   -0.861560
  C      7.451280   -2.091850    0.148110
  C      8.073390   -2.486120   -0.980880
  C      9.267880   -3.249920   -1.129550
  N      9.949050   -4.014220   -0.215890
  C      9.609490   -4.293620    1.159560
  C     10.234010   -3.276290    2.113130
  C     11.104500   -4.603590   -0.785720
  O     11.855500   -5.328720   -0.168840
  C     11.100860   -4.146940   -2.156000
  C      9.957260   -3.334860   -2.334530
  C      9.947100   -2.875440   -3.701100
  O      9.171650   -2.175130   -4.320260
  N     11.104520   -3.449220   -4.271600
  C     11.402360   -3.199910   -5.660510
  C     12.346450   -2.011560   -5.836580
  C     11.808010   -4.202160   -3.354720
  C     13.016330   -4.929900   -3.507960
  C     13.899160   -4.940450   -4.536360
  C     15.092540   -5.709960   -4.548780
  S     15.521190   -6.824480   -3.273550
  C     17.004280   -7.255490   -4.066340
  C     17.146390   -6.553460   -5.268820
  C     16.061620   -5.695660   -5.524560
  C     18.266360   -6.661640   -6.191450
  O     18.360760   -6.047970   -7.226610
  C     17.894510   -8.204380   -3.501690
  C     17.639050   -8.901990   -2.370070
  C     18.511040   -9.866020   -1.765330
  C     19.831610   -9.984590   -2.030350
  C     20.660810  -10.964340   -1.387960
  C     20.144960  -11.919620   -0.611870
  C     18.660510  -12.050210   -0.406590
  C     17.888130  -10.739120   -0.683580
  N     16.500350  -10.954390   -1.026580
  C     16.163660  -12.047180   -1.547260
  C     17.110500  -13.160450   -1.748650
  N     18.253030  -13.173900   -1.227560
  F     16.726730  -14.173480   -2.518840
  F     14.898260  -12.233710   -1.906440
  H     -0.352570    3.645540    0.374010
  H     -0.408370    1.365010    1.321100
  H      1.456860   -0.181450    0.964950
  H      3.641780    2.792510   -1.040440
  H      1.420230    3.320330   -1.566920
  H      3.476960   -0.615660    1.998860
  H      6.735400   -0.255420   -1.659960
  H      4.768720    1.153410   -1.681710
  H      7.839240   -2.367690    1.114010
  H      7.657760   -2.202780   -1.940260
  H     10.022450   -5.282520    1.380760
  H      8.523990   -4.333790    1.268110
  H     11.317900   -3.350470    2.071140
  H      9.908940   -3.479900    3.129490
  H      9.950050   -2.259490    1.848990
  H     10.444740   -2.963700   -6.135530
  H     11.802400   -4.108280   -6.116380
  H     11.863680   -1.107040   -5.475260
  H     12.585470   -1.880890   -6.888550
  H     13.269440   -2.152650   -5.278140
  H     13.248490   -5.529930   -2.635120
  H     13.760580   -4.330190   -5.415030
  H     16.013300   -5.085500   -6.408960
  H     19.060890   -7.366010   -5.880590
  H     18.814300   -8.373100   -4.043190
  H     16.685570   -8.759700   -1.878640
  H     20.302120   -9.321980   -2.739780
  H     21.724420  -10.917120   -1.566160
  H     20.749640  -12.700980   -0.182540
  H     18.470640  -12.367060    0.628680
  H     17.871550  -10.136120    0.235310

 Total Charge           Charge          ....    0
 Multiplicity           Mult            ....    1
 Number of Electrons    NEL             ....  430
 Basis Dimension        Dim             ....  999

ORBITAL ENERGIES
----------------

  NO   OCC          E(Eh)            E(eV)
   0   2.0000     -88.964896     -2420.8579
   1   2.0000     -24.805073      -674.9804
   2   2.0000     -24.804911      -674.9759
   3   2.0000     -24.804482      -674.9643
   4   2.0000     -24.802949      -674.9226
   5   2.0000     -19.247949      -523.7633
   6   2.0000     -19.246481      -523.7234
   7   2.0000     -19.208571      -522.6918
   8   2.0000     -19.184399      -522.0340
   9   2.0000     -19.183017      -521.9964
  10   2.0000     -14.653236      -398.7348
  11   2.0000     -14.448471      -393.1629
  12   2.0000     -14.446950      -393.1215
  13   2.0000     -14.433546      -392.7568
  14   2.0000     -14.433105      -392.7448
  15   2.0000     -14.432957      -392.7407
  16   2.0000     -14.432086      -392.7170
  17   2.0000     -10.420070      -283.5445
  18   2.0000     -10.419335      -283.5245
  19   2.0000     -10.418782      -283.5095
  20   2.0000     -10.416884      -283.4578
  21   2.0000     -10.367951      -282.1263
  22   2.0000     -10.366504      -282.0869
  23   2.0000     -10.355792      -281.7954
  24   2.0000     -10.335355      -281.2393
  25   2.0000     -10.334647      -281.2200
  26   2.0000     -10.334327      -281.2113
  27   2.0000     -10.334174      -281.2072
  28   2.0000     -10.330817      -281.1158
  29   2.0000     -10.330424      -281.1051
  30   2.0000     -10.329443      -281.0784
  31   2.0000     -10.324488      -280.9436
  32   2.0000     -10.313884      -280.6550
  33   2.0000     -10.310553      -280.5644
  34   2.0000     -10.304715      -280.4055
  35   2.0000     -10.302866      -280.3552
  36   2.0000     -10.299617      -280.2668
  37   2.0000     -10.298567      -280.2383
  38   2.0000     -10.298489      -280.2361
  39   2.0000     -10.297650      -280.2133
  40   2.0000     -10.297226      -280.2018
  41   2.0000     -10.295284      -280.1489
  42   2.0000     -10.294506      -280.1278
  43   2.0000     -10.294179      -280.1189
  44   2.0000     -10.294078      -280.1161
  45   2.0000     -10.290230      -280.0114
  46   2.0000     -10.290212      -280.0109
  47   2.0000     -10.289301      -279.9861
  48   2.0000     -10.286696      -279.9152
  49   2.0000     -10.286083      -279.8985
  50   2.0000     -10.285371      -279.8792
  51   2.0000     -10.284654      -279.8597
  52   2.0000     -10.284438      -279.8538
  53   2.0000     -10.283894      -279.8390
  54   2.0000     -10.283219      -279.8206
  55   2.0000     -10.282899      -279.8119
  56   2.0000     -10.261160      -279.2203
  57   2.0000     -10.254742      -279.0457
  58   2.0000     -10.254238      -279.0320
  59   2.0000     -10.253634      -279.0156
  60   2.0000      -8.060327      -219.3326
  61   2.0000      -6.029482      -164.0706
  62   2.0000      -6.025482      -163.9617
  63   2.0000      -6.022518      -163.8810
  64   2.0000      -1.334823       -36.3224
  65   2.0000      -1.333881       -36.2968
  66   2.0000      -1.327785       -36.1309
  67   2.0000      -1.320082       -35.9213
  68   2.0000      -1.319036       -35.8928
  69   2.0000      -1.145526       -31.1714
  70   2.0000      -1.126258       -30.6470
  71   2.0000      -1.121547       -30.5188
  72   2.0000      -1.119370       -30.4596
  73   2.0000      -1.084610       -29.5137
  74   2.0000      -1.083774       -29.4910
  75   2.0000      -1.055996       -28.7351
  76   2.0000      -1.047209       -28.4960
  77   2.0000      -1.017699       -27.6930
  78   2.0000      -1.016692       -27.6656
  79   2.0000      -0.996535       -27.1171
  80   2.0000      -0.994174       -27.0528
  81   2.0000      -0.953694       -25.9513
  82   2.0000      -0.953116       -25.9356
  83   2.0000      -0.923490       -25.1295
  84   2.0000      -0.918774       -25.0011
  85   2.0000      -0.914851       -24.8944
  86   2.0000      -0.906845       -24.6765
  87   2.0000      -0.897077       -24.4107
  88   2.0000      -0.877012       -23.8647
  89   2.0000      -0.867219       -23.5982
  90   2.0000      -0.861538       -23.4436
  91   2.0000      -0.859823       -23.3970
  92   2.0000      -0.857921       -23.3452
  93   2.0000      -0.850886       -23.1538
  94   2.0000      -0.838422       -22.8146
  95   2.0000      -0.819629       -22.3032
  96   2.0000      -0.814732       -22.1700
  97   2.0000      -0.805017       -21.9056
  98   2.0000      -0.786887       -21.4123
  99   2.0000      -0.776957       -21.1421
 100   2.0000      -0.775552       -21.1038
 101   2.0000      -0.769424       -20.9371
 102   2.0000      -0.761041       -20.7090
 103   2.0000      -0.758509       -20.6401
 104   2.0000      -0.754762       -20.5381
 105   2.0000      -0.740541       -20.1511
 106   2.0000      -0.733425       -19.9575
 107   2.0000      -0.710408       -19.3312
 108   2.0000      -0.705235       -19.1904
 109   2.0000      -0.703550       -19.1446
 110   2.0000      -0.692940       -18.8559
 111   2.0000      -0.680499       -18.5173
 112   2.0000      -0.679912       -18.5014
 113   2.0000      -0.674692       -18.3593
 114   2.0000      -0.670365       -18.2415
 115   2.0000      -0.666884       -18.1468
 116   2.0000      -0.664750       -18.0888
 117   2.0000      -0.660097       -17.9622
 118   2.0000      -0.657359       -17.8877
 119   2.0000      -0.647248       -17.6125
 120   2.0000      -0.644650       -17.5418
 121   2.0000      -0.640193       -17.4205
 122   2.0000      -0.636458       -17.3189
 123   2.0000      -0.630383       -17.1536
 124   2.0000      -0.627508       -17.0754
 125   2.0000      -0.622372       -16.9356
 126   2.0000      -0.616599       -16.7785
 127   2.0000      -0.611193       -16.6314
 128   2.0000      -0.604179       -16.4405
 129   2.0000      -0.601989       -16.3809
 130   2.0000      -0.596893       -16.2423
 131   2.0000      -0.590983       -16.0815
 132   2.0000      -0.588630       -16.0174
 133   2.0000      -0.588302       -16.0085
 134   2.0000      -0.583672       -15.8825
 135   2.0000      -0.581782       -15.8311
 136   2.0000      -0.576435       -15.6856
 137   2.0000      -0.570267       -15.5177
 138   2.0000      -0.569953       -15.5092
 139   2.0000      -0.563838       -15.3428
 140   2.0000      -0.562932       -15.3182
 141   2.0000      -0.556867       -15.1531
 142   2.0000      -0.551493       -15.0069
 143   2.0000      -0.547175       -14.8894
 144   2.0000      -0.546753       -14.8779
 145   2.0000      -0.544416       -14.8143
 146   2.0000      -0.541858       -14.7447
 147   2.0000      -0.537196       -14.6179
 148   2.0000      -0.536325       -14.5942
 149   2.0000      -0.533994       -14.5307
 150   2.0000      -0.533122       -14.5070
 151   2.0000      -0.530945       -14.4477
 152   2.0000      -0.528737       -14.3877
 153   2.0000      -0.526150       -14.3173
 154   2.0000      -0.516396       -14.0518
 155   2.0000      -0.515196       -14.0192
 156   2.0000      -0.513597       -13.9757
 157   2.0000      -0.510395       -13.8885
 158   2.0000      -0.508964       -13.8496
 159   2.0000      -0.505681       -13.7603
 160   2.0000      -0.502360       -13.6699
 161   2.0000      -0.500653       -13.6235
 162   2.0000      -0.499344       -13.5879
 163   2.0000      -0.497856       -13.5474
 164   2.0000      -0.497613       -13.5407
 165   2.0000      -0.490932       -13.3589
 166   2.0000      -0.486899       -13.2492
 167   2.0000      -0.484138       -13.1741
 168   2.0000      -0.476624       -12.9696
 169   2.0000      -0.472550       -12.8587
 170   2.0000      -0.470227       -12.7955
 171   2.0000      -0.464517       -12.6401
 172   2.0000      -0.463071       -12.6008
 173   2.0000      -0.459614       -12.5067
 174   2.0000      -0.456646       -12.4260
 175   2.0000      -0.455185       -12.3862
 176   2.0000      -0.452513       -12.3135
 177   2.0000      -0.452254       -12.3064
 178   2.0000      -0.448281       -12.1983
 179   2.0000      -0.446873       -12.1600
 180   2.0000      -0.446504       -12.1500
 181   2.0000      -0.445398       -12.1199
 182   2.0000      -0.440153       -11.9772
 183   2.0000      -0.438186       -11.9236
 184   2.0000      -0.429131       -11.6772
 185   2.0000      -0.427081       -11.6215
 186   2.0000      -0.420922       -11.4539
 187   2.0000      -0.419559       -11.4168
 188   2.0000      -0.418962       -11.4005
 189   2.0000      -0.417976       -11.3737
 190   2.0000      -0.416921       -11.3450
 191   2.0000      -0.412454       -11.2234
 192   2.0000      -0.400183       -10.8895
 193   2.0000      -0.398852       -10.8533
 194   2.0000      -0.395298       -10.7566
 195   2.0000      -0.394319       -10.7300
 196   2.0000      -0.385531       -10.4908
 197   2.0000      -0.381752       -10.3880
 198   2.0000      -0.366502        -9.9730
 199   2.0000      -0.362967        -9.8768
 200   2.0000      -0.360580        -9.8119
 201   2.0000      -0.356723        -9.7069
 202   2.0000      -0.351153        -9.5554
 203   2.0000      -0.348457        -9.4820
 204   2.0000      -0.345720        -9.4075
 205   2.0000      -0.341836        -9.3018
 206   2.0000      -0.330930        -9.0051
 207   2.0000      -0.328938        -8.9509
 208   2.0000      -0.328762        -8.9461
 209   2.0000      -0.324749        -8.8369
 210   2.0000      -0.312838        -8.5128
 211   2.0000      -0.308912        -8.4059
 212   2.0000      -0.289865        -7.8876
 213   2.0000      -0.266700        -7.2573
 214   2.0000      -0.229731        -6.2513
 215   0.0000      -0.088688        -2.4133
 216   0.0000      -0.064769        -1.7625
 217   0.0000      -0.048364        -1.3160
 218   0.0000      -0.038710        -1.0534
 219   0.0000      -0.034910        -0.9499

MULLIKEN ATOMIC CHARGES
-----------------------
   0 C :   -0.042723
   1 C :    0.060146
   2 C :   -0.045767
   3 C :    0.027056
   4 C :    0.073846
   5 C :    0.114340
   6 N :   -0.092096
   7 C :    0.101518
   8 C :    0.114301
   9 N :   -0.080401
  10 F :   -0.144066
  11 F :   -0.143904
  12 C :    0.120414
  13 C :   -0.072163
  14 C :    0.141705
  15 N :    0.253284
  16 O :   -0.229321
  17 O :   -0.242047
  18 C :    0.056386
  19 C :   -0.041452
  20 C :    0.016892
  21 C :    0.009028
  22 C :   -0.042173
  23 C :    0.108037
  24 N :   -0.268221
  25 C :    0.096602
  26 C :    0.001086
  27 C :    0.146296
  28 O :   -0.196509
  29 C :   -0.037112
  30 C :   -0.037350
  31 C :    0.142597
  32 O :   -0.206703
  33 N :   -0.272859
  34 C :    0.103045
  35 C :    0.003727
  36 C :    0.115610
  37 C :   -0.045114
  38 C :    0.033682
  39 C :   -0.030161
  40 S :    0.134761
  41 C :   -0.048725
  42 C :    0.014284
  43 C :   -0.017273
  44 C :    0.141156
  45 O :   -0.185227
  46 C :    0.010560
  47 C :    0.022565
  48 C :   -0.025994
  49 C :   -0.026823
  50 C :    0.030323
  51 C :    0.007446
  52 C :    0.106823
  53 C :    0.104733
  54 N :   -0.099730
  55 C :    0.111443
  56 C :    0.113289
  57 N :   -0.090499
  58 F :   -0.144945
  59 F :   -0.141464
  60 H :    0.015191
  61 H :   -0.003973
  62 H :   -0.008344
  63 H :    0.029406
  64 H :    0.037843
  65 H :    0.005721
  66 H :    0.004073
  67 H :   -0.013828
  68 H :    0.011535
  69 H :    0.014976
  70 H :    0.035639
  71 H :    0.042651
  72 H :    0.029565
  73 H :    0.024367
  74 H :    0.015167
  75 H :    0.037884
  76 H :    0.023588
  77 H :    0.028516
  78 H :    0.021375
  79 H :    0.019278
  80 H :    0.015491
  81 H :   -0.011122
  82 H :   -0.002599
  83 H :   -0.023780
  84 H :   -0.011839
  85 H :    0.020341
  86 H :   -0.017254
  87 H :   -0.004839
  88 H :    0.007350
  89 H :    0.029741
  90 H :    0.041720
Sum of atomic charges:   -0.0000000

LOEWDIN ATOMIC CHARGES
----------------------
   0 C :   -0.015643
   1 C :   -0.032557
   2 C :   -0.018823
   3 C :   -0.015900
   4 C :    0.019545
   5 C :    0.010274
   6 N :   -0.070284
   7 C :    0.046256
   8 C :    0.045537
   9 N :   -0.068588
  10 F :   -0.032567
  11 F :   -0.032452
  12 C :   -0.010801
  13 C :    0.015714
  14 C :   -0.028214
  15 N :    0.288884
  16 O :   -0.196804
  17 O :   -0.200625
  18 C :   -0.004011
  19 C :   -0.000846
  20 C :    0.008244
  21 C :    0.000182
  22 C :   -0.024746
  23 C :    0.074700
  24 N :   -0.002633
  25 C :    0.035351
  26 C :   -0.063185
  27 C :    0.080419
  28 O :   -0.197539
  29 C :   -0.119097
  30 C :   -0.121681
  31 C :    0.079511
  32 O :   -0.206715
  33 N :   -0.007469
  34 C :    0.034686
  35 C :   -0.063885
  36 C :    0.074506
  37 C :   -0.041578
  38 C :   -0.017063
  39 C :   -0.166566
  40 S :    0.460400
  41 C :   -0.129336
  42 C :   -0.121803
  43 C :   -0.015721
  44 C :    0.103267
  45 O :   -0.140403
  46 C :   -0.040281
  47 C :   -0.008208
  48 C :   -0.032659
  49 C :   -0.018454
  50 C :   -0.031141
  51 C :   -0.005776
  52 C :    0.012579
  53 C :    0.019947
  54 N :   -0.071719
  55 C :    0.052580
  56 C :    0.042335
  57 N :   -0.065626
  58 F :   -0.033877
  59 F :   -0.030534
  60 H :    0.032633
  61 H :    0.034035
  62 H :    0.031963
  63 H :    0.035034
  64 H :    0.046054
  65 H :    0.040330
  66 H :    0.040124
  67 H :    0.031597
  68 H :    0.028971
  69 H :    0.043757
  70 H :    0.035802
  71 H :    0.029307
  72 H :    0.032137
  73 H :    0.031467
  74 H :    0.019227
  75 H :    0.036375
  76 H :    0.022202
  77 H :    0.033119
  78 H :    0.029838
  79 H :    0.021034
  80 H :    0.039927
  81 H :    0.036552
  82 H :    0.037014
  83 H :   -0.006410
  84 H :    0.028942
  85 H :    0.028425
  86 H :    0.028754
  87 H :    0.033778
  88 H :    0.031266
  89 H :    0.040592
  90 H :    0.047046

  Mayer bond orders larger than 0.100000
B(  0-C ,  1-C ) :   1.8225 B(  0-C ,  5-C ) :   0.9640 B(  0-C , 60-H ) :   0.9809
B(  1-C ,  2-C ) :   1.0500 B(  1-C , 61-H ) :   0.9819 B(  2-C ,  3-C ) :   1.7980
B(  2-C , 62-H ) :   0.9837 B(  3-C ,  4-C ) :   0.9959 B(  3-C , 12-C ) :   0.9882
B(  4-C ,  5-C ) :   0.9737 B(  4-C ,  9-N ) :   1.0249 B(  4-C , 63-H ) :   0.8970
B(  5-C ,  6-N ) :   1.0039 B(  5-C , 64-H ) :   0.8861 B(  6-N ,  7-C ) :   1.9572
B(  7-C ,  8-C ) :   0.9335 B(  7-C , 11-F ) :   1.1623 B(  8-C ,  9-N ) :   1.9582
B(  8-C , 10-F ) :   1.1646 B( 12-C , 13-C ) :   1.3419 B( 12-C , 20-C ) :   1.3272
B( 13-C , 14-C ) :   1.3597 B( 13-C , 65-H ) :   0.9918 B( 14-C , 15-N ) :   0.8888
B( 14-C , 18-C ) :   1.3403 B( 15-N , 16-O ) :   1.5620 B( 15-N , 17-O ) :   1.5027
B( 16-O , 17-O ) :   0.2611 B( 18-C , 19-C ) :   1.3495 B( 18-C , 21-C ) :   1.0580
B( 19-C , 20-C ) :   1.4094 B( 19-C , 66-H ) :   0.9887 B( 20-C , 67-H ) :   0.9901
B( 21-C , 22-C ) :   1.6767 B( 21-C , 68-H ) :   0.9458 B( 22-C , 23-C ) :   1.1581
B( 22-C , 69-H ) :   0.9460 B( 23-C , 24-N ) :   1.1863 B( 23-C , 30-C ) :   1.3531
B( 24-N , 25-C ) :   0.9370 B( 24-N , 27-C ) :   1.0292 B( 25-C , 26-C ) :   1.1155
B( 25-C , 70-H ) :   0.9281 B( 25-C , 71-H ) :   0.9508 B( 26-C , 72-H ) :   0.9611
B( 26-C , 73-H ) :   0.9692 B( 26-C , 74-H ) :   0.9663 B( 27-C , 28-O ) :   2.1239
B( 27-C , 29-C ) :   0.9836 B( 29-C , 30-C ) :   1.2214 B( 29-C , 36-C ) :   1.3504
B( 30-C , 31-C ) :   0.9846 B( 31-C , 32-O ) :   2.1156 B( 31-C , 33-N ) :   1.0380
B( 33-N , 34-C ) :   0.9464 B( 33-N , 36-C ) :   1.1622 B( 34-C , 35-C ) :   1.1171
B( 34-C , 75-H ) :   0.9255 B( 34-C , 76-H ) :   0.9513 B( 35-C , 77-H ) :   0.9606
B( 35-C , 78-H ) :   0.9685 B( 35-C , 79-H ) :   0.9669 B( 36-C , 37-C ) :   1.1960
B( 37-C , 38-C ) :   1.5665 B( 37-C , 80-H ) :   0.9450 B( 38-C , 39-C ) :   1.1684
B( 38-C , 81-H ) :   0.9792 B( 39-C , 40-S ) :   1.0809 B( 39-C , 43-C ) :   1.4707
B( 40-S , 41-C ) :   1.1496 B( 41-C , 42-C ) :   1.3825 B( 41-C , 46-C ) :   1.1778
B( 42-C , 43-C ) :   1.2299 B( 42-C , 44-C ) :   0.9965 B( 43-C , 82-H ) :   1.0082
B( 44-C , 45-O ) :   2.1784 B( 44-C , 83-H ) :   0.9614 B( 46-C , 47-C ) :   1.6615
B( 46-C , 84-H ) :   0.9639 B( 47-C , 48-C ) :   1.1162 B( 47-C , 85-H ) :   0.9659
B( 48-C , 49-C ) :   1.7400 B( 48-C , 53-C ) :   0.9359 B( 49-C , 50-C ) :   1.0787
B( 49-C , 86-H ) :   0.9800 B( 50-C , 51-C ) :   1.8129 B( 50-C , 87-H ) :   0.9800
B( 51-C , 52-C ) :   0.9960 B( 51-C , 88-H ) :   0.9742 B( 52-C , 53-C ) :   0.9801
B( 52-C , 57-N ) :   0.9999 B( 52-C , 89-H ) :   0.9031 B( 53-C , 54-N ) :   1.0156
B( 53-C , 90-H ) :   0.8844 B( 54-N , 55-C ) :   1.9436 B( 55-C , 56-C ) :   0.9336
B( 55-C , 59-F ) :   1.1672 B( 56-C , 57-N ) :   1.9602 B( 56-C , 58-F ) :   1.1630

-----------------------------------------------------------------------------
         ABSORPTION SPECTRUM VIA TRANSITION ELECTRIC DIPOLE MOMENTS
-----------------------------------------------------------------------------
State   Energy  Wavelength   fosc         T2         TX        TY        TZ
        (cm-1)    (nm)                  (au**2)     (au)      (au)      (au)
-----------------------------------------------------------------------------
   0   15994.9    625.2   1.092263965  22.48127   3.81333  -2.02069  -1.96383
   1   21888.5    456.9   0.113968306   1.71413  -0.14329   0.68827  -1.10448
   2   24355.9    410.6   0.424410145   5.73664  -1.60954   1.57096  -0.82346
   3   24984.5    400.2   0.259951351   3.42528  -0.34682   0.94531  -1.55286
   4   26980.2    370.6   0.003124259   0.03812  -0.17821   0.03838   0.06993
   5   27911.1    358.3   0.031512219   0.37169  -0.57427   0.12789  -0.15981
   6   29125.0    343.3   0.087550537   0.98962   0.67010  -0.13853  -0.72207
   7   29426.3    339.8   0.062388350   0.69798  -0.61801   0.06341   0.55859
   8   30247.2    330.6   0.394191018   4.29039  -1.58577   1.30199  -0.28381
   9   30792.8    324.8   0.067354177   0.72010   0.18527   0.51858  -0.64563
  10   30846.4    324.2   0.044171902   0.47143  -0.21074  -0.08852   0.64744
  11   32045.1    312.1   0.000033828   0.00035  -0.00657   0.00497   0.01672
  12   33009.4    302.9   0.000402402   0.00401   0.04679  -0.02860  -0.03172
  13   33249.9    300.8   0.006920317   0.06852  -0.16660   0.16859  -0.11109
  14   33626.1    297.4   0.112682783   1.10320  -0.77930   0.70199   0.05573
  15   34033.6    293.8   0.044100400   0.42659   0.53217  -0.31102  -0.21599
  16   34123.6    293.1   0.084566669   0.81587   0.60977  -0.56899   0.34684
  17   34734.4    287.9   0.162664222   1.54173  -0.98304   0.70355  -0.28352
  18   35750.1    279.7   0.049385711   0.45478   0.08073   0.24072  -0.62475
  19   36199.6    276.2   0.013481565   0.12261  -0.26664  -0.00903   0.22678
  20   36828.9    271.5   0.016896849   0.15104  -0.19062  -0.04622   0.33551
  21   37067.0    269.8   0.050437921   0.44797   0.20630   0.20060  -0.60429
  22   37421.8    267.2   0.066753638   0.58725  -0.57967   0.09835   0.49149
  23   37891.0    263.9   0.044271227   0.38465   0.37584   0.26521  -0.41600
  24   38286.5    261.2   0.004902209   0.04215  -0.08029  -0.10013   0.16025
  25   38414.6    260.3   0.000207923   0.00178   0.03900  -0.00933  -0.01319
  26   38939.4    256.8   0.008425681   0.07123   0.10362  -0.03830   0.24296
  27   39803.6    251.2   0.248589100   2.05606   1.21606  -0.66316  -0.37079
  28   40131.4    249.2   0.057702849   0.47336  -0.42277   0.50340  -0.20302

FINAL SINGLE POINT ENERGY     -3210.440011893767

DIPOLE MOMENT
-------------
                                X             Y             Z
Electronic contribution:    -15.10280      -2.64044      12.13677
Nuclear contribution   :     15.30710       2.80022     -12.07487
                        -----------------------------------------
Total Dipole Moment    :      0.20430       0.15978       0.06189
                        -----------------------------------------
Magnitude (a.u.)       :      0.26664
Magnitude (Debye)      :      0.67775

Rotational constants in cm-1:     0.002814     0.000310     0.000291
Rotational constants in MHz :    84.361553     9.298838     8.735019

                             ****ORCA TERMINATED NORMALLY****
TOTAL RUN TIME: 0 days 0 hours 9 minutes 40 seconds 687 msec
