                         Program Version 4.2.0 -  RELEASE  -
|  1> # ORCA input file
|  2> # SCF done       -149.896133661453          0.000473686339
|  3> ! CAM-B3LYP def2-SVP def2/J RIJCOSX Grid4 TightSCF
|  4> %maxcore 5000
|  5> %tddft
|  6>     Mode sTDDFT
|  7>     Ethresh 5.0
|  8>     maxcore 5000
|  9> end
| 10>
| 11> %pal
| 12>   nprocs 6
| 13>   end
| 14> * xyz 0 1
| 15>    C       -1.20535        -0.45710         2.61633
| 16>    C       -0.74921         0.69437         2.12324
| 17>    C        0.49618         0.76015         1.40730
| 18>    C        1.16273        -0.34779         1.02747
| 19>    C        0.60039        -1.72698         1.32750
| 20>    C       -0.40766        -1.72826         2.50187
| 21>    N       -1.34342        -2.82746         2.47087
| 22>    C       -1.59060        -3.38823         1.37403
| 23>    C       -0.92765        -3.00008         0.11445
| 24>    N        0.06311        -2.22890         0.08042
| 25>    F       -1.43070        -3.46878        -1.02402
| 26>    F       -2.48028        -4.37417         1.33059
| 27>    C        2.37856        -0.30502         0.26468
| 28>    S        3.29127         1.16135         0.09294
| 29>    C        4.51778         0.34536        -0.82256
| 30>    C        5.75039         1.03212        -1.11349
| 31>    O        5.94537         2.21453        -0.96047
| 32>    C        4.19857        -0.99624        -1.01627
| 33>    C        2.99490        -1.35075        -0.37987
| 34>    C        4.96421        -2.00612        -1.70684
| 35>    N        5.63109        -1.88494        -2.90119
| 36>    C        5.52697        -0.79597        -3.85133
| 37>    C        6.88936        -0.24771        -4.26498
| 38>    C        6.23512        -3.11351        -3.27685
| 39>    O        6.82386        -3.28458        -4.32412
| 40>    C        5.93657        -4.00352        -2.18395
| 41>    C        5.12042        -3.30312        -1.25548
| 42>    C        4.80372        -4.21469        -0.18046
| 43>    O        4.11838        -4.09525         0.81578
| 44>    N        5.47394        -5.40923        -0.52233
| 45>    C        5.33726        -6.56826         0.32546
| 46>    C        4.31206        -7.55810        -0.22375
| 47>    C        6.14771        -5.29366        -1.71974
| 48>    C        6.95839        -6.22676        -2.42962
| 49>    C        7.26823        -7.51007        -2.15711
| 50>    C        8.12372        -8.33630        -2.98074
| 51>    C        8.71210        -7.90598        -4.17247
| 52>    C        9.53000        -8.76891        -4.89455
| 53>    C        9.73262       -10.05142        -4.36962
| 54>    N        9.17296       -10.47716        -3.25455
| 55>    C        8.39240        -9.65427        -2.58458
| 56>    C       10.17011        -8.35766        -6.14237
| 57>    C       10.32963        -9.19059        -7.18196
| 58>    C       10.97689        -8.77757        -8.40324
| 59>    C       11.62051        -7.61488        -8.48764
| 60>    C       11.73897        -6.69881        -7.29878
| 61>    C       10.61105        -6.90681        -6.26365
| 62>    N       10.95662        -6.41923        -4.94660
| 63>    C       12.16691        -6.41631        -4.60784
| 64>    C       13.25460        -6.78945        -5.53254
| 65>    N       13.07347        -6.90719        -6.76971
| 66>    F       14.46443        -6.99564        -5.02145
| 67>    F       12.49858        -6.01359        -3.38523
| 68>    H       -2.13910        -0.53716         3.14934
| 69>    H       -1.30902         1.60829         2.24812
| 70>    H        0.88397         1.73466         1.14835
| 71>    H        1.43709        -2.39336         1.57742
| 72>    H        0.14533        -1.84562         3.44525
| 73>    H        6.55306         0.35454        -1.46139
| 74>    H        2.58975        -2.34333        -0.42231
| 75>    H        4.90825        -0.01057        -3.41277
| 76>    H        5.02176        -1.18257        -4.74464
| 77>    H        7.43499         0.14860        -3.41285
| 78>    H        6.74914         0.55189        -4.98693
| 79>    H        7.47882        -1.03683        -4.72260
| 80>    H        4.99115        -6.19013         1.29250
| 81>    H        6.31432        -7.03653         0.46647
| 82>    H        3.33151        -7.08970        -0.25890
| 83>    H        4.25647        -8.42970         0.42274
| 84>    H        4.57464        -7.87999        -1.22903
| 85>    H        7.36468        -5.77290        -3.32423
| 86>    H        6.88401        -8.00845        -1.28018
| 87>    H        8.52959        -6.91187        -4.54444
| 88>    H       10.39015       -10.75505        -4.86233
| 89>    H        7.95852       -10.05894        -1.67859
| 90>    H        9.95998       -10.20311        -7.12477
| 91>    H       10.93809        -9.45144        -9.24528
| 92>    H       12.16740        -7.32061        -9.36783
| 93>    H       11.72180        -5.65597        -7.64511
| 94>    H        9.73287        -6.32420        -6.57675
| 95> *
| 96>
| 97>                          ****END OF INPUT****

CARTESIAN COORDINATES (ANGSTROEM)
---------------------------------
  C     -1.205350   -0.457100    2.616330
  C     -0.749210    0.694370    2.123240
  C      0.496180    0.760150    1.407300
  C      1.162730   -0.347790    1.027470
  C      0.600390   -1.726980    1.327500
  C     -0.407660   -1.728260    2.501870
  N     -1.343420   -2.827460    2.470870
  C     -1.590600   -3.388230    1.374030
  C     -0.927650   -3.000080    0.114450
  N      0.063110   -2.228900    0.080420
  F     -1.430700   -3.468780   -1.024020
  F     -2.480280   -4.374170    1.330590
  C      2.378560   -0.305020    0.264680
  S      3.291270    1.161350    0.092940
  C      4.517780    0.345360   -0.822560
  C      5.750390    1.032120   -1.113490
  O      5.945370    2.214530   -0.960470
  C      4.198570   -0.996240   -1.016270
  C      2.994900   -1.350750   -0.379870
  C      4.964210   -2.006120   -1.706840
  N      5.631090   -1.884940   -2.901190
  C      5.526970   -0.795970   -3.851330
  C      6.889360   -0.247710   -4.264980
  C      6.235120   -3.113510   -3.276850
  O      6.823860   -3.284580   -4.324120
  C      5.936570   -4.003520   -2.183950
  C      5.120420   -3.303120   -1.255480
  C      4.803720   -4.214690   -0.180460
  O      4.118380   -4.095250    0.815780
  N      5.473940   -5.409230   -0.522330
  C      5.337260   -6.568260    0.325460
  C      4.312060   -7.558100   -0.223750
  C      6.147710   -5.293660   -1.719740
  C      6.958390   -6.226760   -2.429620
  C      7.268230   -7.510070   -2.157110
  C      8.123720   -8.336300   -2.980740
  C      8.712100   -7.905980   -4.172470
  C      9.530000   -8.768910   -4.894550
  C      9.732620  -10.051420   -4.369620
  N      9.172960  -10.477160   -3.254550
  C      8.392400   -9.654270   -2.584580
  C     10.170110   -8.357660   -6.142370
  C     10.329630   -9.190590   -7.181960
  C     10.976890   -8.777570   -8.403240
  C     11.620510   -7.614880   -8.487640
  C     11.738970   -6.698810   -7.298780
  C     10.611050   -6.906810   -6.263650
  N     10.956620   -6.419230   -4.946600
  C     12.166910   -6.416310   -4.607840
  C     13.254600   -6.789450   -5.532540
  N     13.073470   -6.907190   -6.769710
  F     14.464430   -6.995640   -5.021450
  F     12.498580   -6.013590   -3.385230
  H     -2.139100   -0.537160    3.149340
  H     -1.309020    1.608290    2.248120
  H      0.883970    1.734660    1.148350
  H      1.437090   -2.393360    1.577420
  H      0.145330   -1.845620    3.445250
  H      6.553060    0.354540   -1.461390
  H      2.589750   -2.343330   -0.422310
  H      4.908250   -0.010570   -3.412770
  H      5.021760   -1.182570   -4.744640
  H      7.434990    0.148600   -3.412850
  H      6.749140    0.551890   -4.986930
  H      7.478820   -1.036830   -4.722600
  H      4.991150   -6.190130    1.292500
  H      6.314320   -7.036530    0.466470
  H      3.331510   -7.089700   -0.258900
  H      4.256470   -8.429700    0.422740
  H      4.574640   -7.879990   -1.229030
  H      7.364680   -5.772900   -3.324230
  H      6.884010   -8.008450   -1.280180
  H      8.529590   -6.911870   -4.544440
  H     10.390150  -10.755050   -4.862330
  H      7.958520  -10.058940   -1.678590
  H      9.959980  -10.203110   -7.124770
  H     10.938090   -9.451440   -9.245280
  H     12.167400   -7.320610   -9.367830
  H     11.721800   -5.655970   -7.645110
  H      9.732870   -6.324200   -6.576750

 Total Charge           Charge          ....    0
 Multiplicity           Mult            ....    1
 Number of Electrons    NEL             ....  380
 Basis Dimension        Dim             ....  881

ORBITAL ENERGIES
----------------

  NO   OCC          E(Eh)            E(eV)
   0   2.0000     -88.967135     -2420.9188
   1   2.0000     -24.803403      -674.9349
   2   2.0000     -24.803252      -674.9308
   3   2.0000     -24.803130      -674.9275
   4   2.0000     -24.801304      -674.8778
   5   2.0000     -19.209113      -522.7065
   6   2.0000     -19.193159      -522.2724
   7   2.0000     -19.192313      -522.2494
   8   2.0000     -14.458872      -393.4459
   9   2.0000     -14.455765      -393.3614
  10   2.0000     -14.432031      -392.7155
  11   2.0000     -14.431608      -392.7040
  12   2.0000     -14.430814      -392.6824
  13   2.0000     -14.430132      -392.6639
  14   2.0000     -14.403086      -391.9279
  15   2.0000     -10.417874      -283.4848
  16   2.0000     -10.417475      -283.4739
  17   2.0000     -10.417303      -283.4692
  18   2.0000     -10.414958      -283.4054
  19   2.0000     -10.377516      -282.3866
  20   2.0000     -10.375574      -282.3337
  21   2.0000     -10.359024      -281.8834
  22   2.0000     -10.346405      -281.5400
  23   2.0000     -10.341796      -281.4146
  24   2.0000     -10.329830      -281.0890
  25   2.0000     -10.329430      -281.0781
  26   2.0000     -10.328203      -281.0447
  27   2.0000     -10.327487      -281.0252
  28   2.0000     -10.315821      -280.7078
  29   2.0000     -10.309957      -280.5482
  30   2.0000     -10.309544      -280.5370
  31   2.0000     -10.308304      -280.5032
  32   2.0000     -10.307665      -280.4858
  33   2.0000     -10.307066      -280.4695
  34   2.0000     -10.306360      -280.4503
  35   2.0000     -10.299594      -280.2662
  36   2.0000     -10.298202      -280.2283
  37   2.0000     -10.293141      -280.0906
  38   2.0000     -10.291194      -280.0376
  39   2.0000     -10.291071      -280.0343
  40   2.0000     -10.290467      -280.0179
  41   2.0000     -10.290153      -280.0093
  42   2.0000     -10.289207      -279.9836
  43   2.0000     -10.285203      -279.8746
  44   2.0000     -10.282862      -279.8109
  45   2.0000     -10.281669      -279.7784
  46   2.0000     -10.281568      -279.7757
  47   2.0000     -10.281441      -279.7722
  48   2.0000     -10.280075      -279.7351
  49   2.0000     -10.265807      -279.3468
  50   2.0000     -10.262362      -279.2531
  51   2.0000     -10.260312      -279.1973
  52   2.0000     -10.253918      -279.0233
  53   2.0000      -8.062476      -219.3911
  54   2.0000      -6.031623      -164.1288
  55   2.0000      -6.027442      -164.0150
  56   2.0000      -6.024863      -163.9449
  57   2.0000      -1.332965       -36.2718
  58   2.0000      -1.331980       -36.2450
  59   2.0000      -1.318218       -35.8705
  60   2.0000      -1.317240       -35.8439
  61   2.0000      -1.134762       -30.8784
  62   2.0000      -1.127998       -30.6944
  63   2.0000      -1.123194       -30.5637
  64   2.0000      -1.082775       -29.4638
  65   2.0000      -1.082470       -29.4555
  66   2.0000      -1.065354       -28.9898
  67   2.0000      -1.056265       -28.7424
  68   2.0000      -1.039806       -28.2946
  69   2.0000      -1.016412       -27.6580
  70   2.0000      -1.014562       -27.6076
  71   2.0000      -0.996811       -27.1246
  72   2.0000      -0.950924       -25.8760
  73   2.0000      -0.949472       -25.8364
  74   2.0000      -0.930928       -25.3318
  75   2.0000      -0.926149       -25.2018
  76   2.0000      -0.898135       -24.4395
  77   2.0000      -0.890990       -24.2451
  78   2.0000      -0.878708       -23.9109
  79   2.0000      -0.864281       -23.5183
  80   2.0000      -0.863048       -23.4847
  81   2.0000      -0.856680       -23.3114
  82   2.0000      -0.855794       -23.2873
  83   2.0000      -0.831525       -22.6270
  84   2.0000      -0.830367       -22.5954
  85   2.0000      -0.820593       -22.3295
  86   2.0000      -0.800357       -21.7788
  87   2.0000      -0.777176       -21.1480
  88   2.0000      -0.774809       -21.0836
  89   2.0000      -0.773508       -21.0482
  90   2.0000      -0.762097       -20.7377
  91   2.0000      -0.760187       -20.6857
  92   2.0000      -0.758047       -20.6275
  93   2.0000      -0.741109       -20.1666
  94   2.0000      -0.730334       -19.8734
  95   2.0000      -0.727328       -19.7916
  96   2.0000      -0.711285       -19.3550
  97   2.0000      -0.697173       -18.9710
  98   2.0000      -0.688046       -18.7227
  99   2.0000      -0.683548       -18.6003
 100   2.0000      -0.672683       -18.3046
 101   2.0000      -0.668045       -18.1784
 102   2.0000      -0.663296       -18.0492
 103   2.0000      -0.662835       -18.0366
 104   2.0000      -0.657903       -17.9025
 105   2.0000      -0.655561       -17.8387
 106   2.0000      -0.646307       -17.5869
 107   2.0000      -0.641386       -17.4530
 108   2.0000      -0.635152       -17.2834
 109   2.0000      -0.632363       -17.2075
 110   2.0000      -0.619422       -16.8553
 111   2.0000      -0.619114       -16.8469
 112   2.0000      -0.605242       -16.4695
 113   2.0000      -0.603765       -16.4293
 114   2.0000      -0.600537       -16.3415
 115   2.0000      -0.592574       -16.1247
 116   2.0000      -0.587442       -15.9851
 117   2.0000      -0.586900       -15.9704
 118   2.0000      -0.581609       -15.8264
 119   2.0000      -0.575400       -15.6574
 120   2.0000      -0.572516       -15.5790
 121   2.0000      -0.566400       -15.4125
 122   2.0000      -0.562381       -15.3032
 123   2.0000      -0.561656       -15.2834
 124   2.0000      -0.555659       -15.1203
 125   2.0000      -0.551321       -15.0022
 126   2.0000      -0.548558       -14.9270
 127   2.0000      -0.542851       -14.7717
 128   2.0000      -0.542211       -14.7543
 129   2.0000      -0.540357       -14.7039
 130   2.0000      -0.537402       -14.6235
 131   2.0000      -0.535518       -14.5722
 132   2.0000      -0.533139       -14.5074
 133   2.0000      -0.529292       -14.4028
 134   2.0000      -0.523411       -14.2427
 135   2.0000      -0.520660       -14.1679
 136   2.0000      -0.518357       -14.1052
 137   2.0000      -0.516922       -14.0662
 138   2.0000      -0.512762       -13.9530
 139   2.0000      -0.510929       -13.9031
 140   2.0000      -0.509847       -13.8737
 141   2.0000      -0.507088       -13.7986
 142   2.0000      -0.505185       -13.7468
 143   2.0000      -0.502971       -13.6865
 144   2.0000      -0.497398       -13.5349
 145   2.0000      -0.496737       -13.5169
 146   2.0000      -0.492616       -13.4048
 147   2.0000      -0.487510       -13.2658
 148   2.0000      -0.486888       -13.2489
 149   2.0000      -0.478104       -13.0099
 150   2.0000      -0.472903       -12.8683
 151   2.0000      -0.470087       -12.7917
 152   2.0000      -0.465669       -12.6715
 153   2.0000      -0.463291       -12.6068
 154   2.0000      -0.461623       -12.5614
 155   2.0000      -0.456449       -12.4206
 156   2.0000      -0.455618       -12.3980
 157   2.0000      -0.453001       -12.3268
 158   2.0000      -0.451516       -12.2864
 159   2.0000      -0.447829       -12.1860
 160   2.0000      -0.445763       -12.1298
 161   2.0000      -0.440675       -11.9914
 162   2.0000      -0.438090       -11.9210
 163   2.0000      -0.429589       -11.6897
 164   2.0000      -0.426691       -11.6109
 165   2.0000      -0.423538       -11.5251
 166   2.0000      -0.418184       -11.3794
 167   2.0000      -0.416863       -11.3434
 168   2.0000      -0.415723       -11.3124
 169   2.0000      -0.413747       -11.2586
 170   2.0000      -0.406071       -11.0498
 171   2.0000      -0.399532       -10.8718
 172   2.0000      -0.397277       -10.8105
 173   2.0000      -0.390539       -10.6271
 174   2.0000      -0.366008        -9.9596
 175   2.0000      -0.358737        -9.7617
 176   2.0000      -0.355362        -9.6699
 177   2.0000      -0.350377        -9.5343
 178   2.0000      -0.348478        -9.4826
 179   2.0000      -0.344149        -9.3648
 180   2.0000      -0.340022        -9.2525
 181   2.0000      -0.335425        -9.1274
 182   2.0000      -0.332031        -9.0350
 183   2.0000      -0.328603        -8.9417
 184   2.0000      -0.327101        -8.9009
 185   2.0000      -0.318944        -8.6789
 186   2.0000      -0.316153        -8.6030
 187   2.0000      -0.287491        -7.8230
 188   2.0000      -0.276851        -7.5335
 189   2.0000      -0.245802        -6.6886
 190   0.0000      -0.082720        -2.2509
 191   0.0000      -0.054091        -1.4719
 192   0.0000      -0.036559        -0.9948
 193   0.0000      -0.034655        -0.9430
 194   0.0000      -0.026594        -0.7237

MULLIKEN ATOMIC CHARGES
-----------------------
   0 C :   -0.036685
   1 C :    0.056965
   2 C :   -0.074324
   3 C :    0.082849
   4 C :    0.058338
   5 C :    0.121772
   6 N :   -0.089750
   7 C :    0.097997
   8 C :    0.117868
   9 N :   -0.085641
  10 F :   -0.145340
  11 F :   -0.145319
  12 C :   -0.078159
  13 S :    0.172923
  14 C :   -0.205597
  15 C :    0.139858
  16 O :   -0.187882
  17 C :    0.098047
  18 C :    0.001392
  19 C :    0.076267
  20 N :   -0.259378
  21 C :    0.101870
  22 C :   -0.010355
  23 C :    0.161561
  24 O :   -0.200919
  25 C :   -0.050284
  26 C :   -0.031339
  27 C :    0.138173
  28 O :   -0.205071
  29 N :   -0.272317
  30 C :    0.104080
  31 C :    0.000874
  32 C :    0.128725
  33 C :   -0.014998
  34 C :    0.012860
  35 C :    0.048095
  36 C :    0.036134
  37 C :    0.040924
  38 C :   -0.017449
  39 N :   -0.047629
  40 C :   -0.024698
  41 C :   -0.021154
  42 C :   -0.020486
  43 C :    0.022649
  44 C :    0.011045
  45 C :    0.111947
  46 C :    0.083294
  47 N :   -0.091354
  48 C :    0.110935
  49 C :    0.115330
  50 N :   -0.088669
  51 F :   -0.145253
  52 F :   -0.143067
  53 H :    0.015046
  54 H :   -0.004170
  55 H :   -0.001914
  56 H :    0.055490
  57 H :    0.044153
  58 H :   -0.005205
  59 H :    0.006268
  60 H :    0.036692
  61 H :    0.027127
  62 H :    0.016242
  63 H :    0.020760
  64 H :    0.049568
  65 H :    0.040762
  66 H :    0.025998
  67 H :    0.025870
  68 H :    0.022995
  69 H :    0.021391
  70 H :    0.004199
  71 H :   -0.023640
  72 H :    0.007998
  73 H :   -0.000677
  74 H :   -0.005514
  75 H :   -0.011792
  76 H :   -0.004671
  77 H :    0.005021
  78 H :    0.028503
  79 H :    0.043846
Sum of atomic charges:    0.0000000

LOEWDIN ATOMIC CHARGES
----------------------
   0 C :   -0.010362
   1 C :   -0.034260
   2 C :   -0.018076
   3 C :   -0.034510
   4 C :    0.020997
   5 C :    0.011947
   6 N :   -0.067488
   7 C :    0.046052
   8 C :    0.046225
   9 N :   -0.068060
  10 F :   -0.034542
  11 F :   -0.033424
  12 C :   -0.142507
  13 S :    0.486873
  14 C :   -0.230640
  15 C :    0.071665
  16 O :   -0.146070
  17 C :   -0.042888
  18 C :   -0.026548
  19 C :    0.077730
  20 N :   -0.005221
  21 C :    0.038985
  22 C :   -0.062524
  23 C :    0.083499
  24 O :   -0.196544
  25 C :   -0.119807
  26 C :   -0.124572
  27 C :    0.084782
  28 O :   -0.204539
  29 N :   -0.005806
  30 C :    0.035142
  31 C :   -0.063193
  32 C :    0.080072
  33 C :   -0.031262
  34 C :    0.007575
  35 C :   -0.052423
  36 C :    0.037328
  37 C :   -0.043457
  38 C :    0.027091
  39 N :   -0.066107
  40 C :    0.023197
  41 C :   -0.022820
  42 C :   -0.024335
  43 C :   -0.028687
  44 C :   -0.008454
  45 C :    0.014849
  46 C :    0.017090
  47 N :   -0.068302
  48 C :    0.052353
  49 C :    0.042463
  50 N :   -0.065480
  51 F :   -0.034427
  52 F :   -0.032027
  53 H :    0.032985
  54 H :    0.034404
  55 H :    0.026257
  56 H :    0.047215
  57 H :    0.049668
  58 H :    0.000385
  59 H :    0.035520
  60 H :    0.028361
  61 H :    0.031340
  62 H :    0.021608
  63 H :    0.031066
  64 H :    0.031851
  65 H :    0.036837
  66 H :    0.021977
  67 H :    0.031871
  68 H :    0.030785
  69 H :    0.022297
  70 H :    0.044955
  71 H :    0.029057
  72 H :    0.033178
  73 H :    0.021098
  74 H :    0.019419
  75 H :    0.031520
  76 H :    0.033110
  77 H :    0.030545
  78 H :    0.040311
  79 H :    0.045827

  Mayer bond orders larger than 0.100000
B(  0-C ,  1-C ) :   1.8094 B(  0-C ,  5-C ) :   0.9688 B(  0-C , 53-H ) :   0.9809
B(  1-C ,  2-C ) :   1.0685 B(  1-C , 54-H ) :   0.9816 B(  2-C ,  3-C ) :   1.7378
B(  2-C , 55-H ) :   0.9807 B(  3-C ,  4-C ) :   0.9848 B(  3-C , 12-C ) :   1.1059
B(  4-C ,  5-C ) :   0.9746 B(  4-C ,  9-N ) :   1.0127 B(  4-C , 56-H ) :   0.8939
B(  5-C ,  6-N ) :   1.0055 B(  5-C , 57-H ) :   0.8836 B(  6-N ,  7-C ) :   1.9587
B(  7-C ,  8-C ) :   0.9319 B(  7-C , 11-F ) :   1.1603 B(  8-C ,  9-N ) :   1.9599
B(  8-C , 10-F ) :   1.1638 B( 12-C , 13-S ) :   1.1487 B( 12-C , 18-C ) :   1.4997
B( 13-S , 14-C ) :   1.1065 B( 14-C , 15-C ) :   1.0314 B( 14-C , 17-C ) :   1.4124
B( 15-C , 16-O ) :   2.1685 B( 15-C , 58-H ) :   0.9471 B( 17-C , 18-C ) :   1.2734
B( 17-C , 19-C ) :   0.9981 B( 18-C , 59-H ) :   0.9855 B( 19-C , 20-N ) :   1.2137
B( 19-C , 26-C ) :   1.4363 B( 20-N , 21-C ) :   0.9335 B( 20-N , 23-C ) :   1.0178
B( 21-C , 22-C ) :   1.1037 B( 21-C , 60-H ) :   0.9515 B( 21-C , 61-H ) :   0.9442
B( 22-C , 62-H ) :   0.9665 B( 22-C , 63-H ) :   0.9625 B( 22-C , 64-H ) :   0.9604
B( 23-C , 24-O ) :   2.0941 B( 23-C , 25-C ) :   0.9969 B( 25-C , 26-C ) :   1.1930
B( 25-C , 32-C ) :   1.3698 B( 26-C , 27-C ) :   0.9671 B( 27-C , 28-O ) :   2.1061
B( 27-C , 29-N ) :   1.0456 B( 29-N , 30-C ) :   0.9438 B( 29-N , 32-C ) :   1.1596
B( 30-C , 31-C ) :   1.1155 B( 30-C , 65-H ) :   0.9245 B( 30-C , 66-H ) :   0.9516
B( 31-C , 67-H ) :   0.9616 B( 31-C , 68-H ) :   0.9685 B( 31-C , 69-H ) :   0.9686
B( 32-C , 33-C ) :   1.1612 B( 33-C , 34-C ) :   1.6160 B( 33-C , 70-H ) :   0.9406
B( 34-C , 35-C ) :   1.0537 B( 34-C , 71-H ) :   0.9896 B( 35-C , 36-C ) :   1.3750
B( 35-C , 40-C ) :   1.3090 B( 36-C , 37-C ) :   1.3998 B( 36-C , 72-H ) :   0.9710
B( 37-C , 38-C ) :   1.3409 B( 37-C , 41-C ) :   0.9892 B( 38-C , 39-N ) :   1.5602
B( 38-C , 73-H ) :   0.9843 B( 39-N , 40-C ) :   1.5718 B( 40-C , 74-H ) :   0.9875
B( 41-C , 42-C ) :   1.8042 B( 41-C , 46-C ) :   0.9480 B( 42-C , 43-C ) :   1.0618
B( 42-C , 75-H ) :   0.9804 B( 43-C , 44-C ) :   1.8319 B( 43-C , 76-H ) :   0.9813
B( 44-C , 45-C ) :   0.9945 B( 44-C , 77-H ) :   0.9754 B( 45-C , 46-C ) :   0.9848
B( 45-C , 50-N ) :   0.9995 B( 45-C , 78-H ) :   0.9031 B( 46-C , 47-N ) :   1.0167
B( 46-C , 79-H ) :   0.8761 B( 47-N , 48-C ) :   1.9430 B( 48-C , 49-C ) :   0.9345
B( 48-C , 52-F ) :   1.1662 B( 49-C , 50-N ) :   1.9583 B( 49-C , 51-F ) :   1.1629

-----------------------------------------------------------------------------
         ABSORPTION SPECTRUM VIA TRANSITION ELECTRIC DIPOLE MOMENTS
-----------------------------------------------------------------------------
State   Energy  Wavelength   fosc         T2         TX        TY        TZ
        (cm-1)    (nm)                  (au**2)     (au)      (au)      (au)
-----------------------------------------------------------------------------
   0   19275.7    518.8   0.625908403  10.68995   1.02837  -3.10361  -0.00492
   1   25253.8    396.0   0.079111432   1.03131   0.19661  -0.97942   0.18273
   2   26676.4    374.9   0.161733312   1.99594  -1.34703  -0.08032   0.41832
   3   28041.5    356.6   0.005361414   0.06294   0.17563  -0.17738  -0.02522
   4   29781.7    335.8   0.007656216   0.08463   0.11590   0.26665   0.00985
   5   29975.3    333.6   0.062654191   0.68812  -0.50152   0.33627   0.56879
   6   30010.8    333.2   0.045960255   0.50417  -0.24573   0.62141   0.24008
   7   30095.1    332.3   0.001719863   0.01881  -0.01579  -0.05192  -0.12597
   8   31233.3    320.2   0.014166398   0.14932   0.35142  -0.08640  -0.13549
   9   31709.6    315.4   0.047471485   0.49285  -0.57702   0.04496   0.39734
  10   32596.4    306.8   0.306607506   3.09663  -1.50336   0.32123   0.85635
  11   32654.2    306.2   0.202048746   2.03701  -1.09363   0.60545   0.68878
  12   33265.5    300.6   0.198822914   1.96765  -0.95752  -0.86545   0.54937
  13   33773.8    296.1   0.133577165   1.30205   0.71790  -0.15055  -0.87407
  14   33971.9    294.4   0.012045384   0.11673   0.25697  -0.17686  -0.13934
  15   34575.1    289.2   0.042654291   0.40614  -0.46439   0.35633   0.25201
  16   35154.5    284.5   0.445531258   4.17228   1.13467  -1.16527  -1.23569
  17   37355.1    267.7   0.031330607   0.27612  -0.18623   0.45471   0.18620
  18   38853.3    257.4   0.014475412   0.12265   0.00608  -0.24063   0.25439
  19   39113.3    255.7   0.268181840   2.25725   0.82075  -0.76066  -1.00250
  20   40046.6    249.7   0.336530617   2.76652   0.76938  -0.14102  -1.46789
  21   40203.1    248.7   0.049576772   0.40597  -0.45705   0.37889   0.23133

FINAL SINGLE POINT ENERGY     -2867.580644157487

DIPOLE MOMENT
-------------
                                X             Y             Z
Electronic contribution:     -4.13210       4.71525       8.99453
Nuclear contribution   :      3.37248      -5.14820      -9.55780
                        -----------------------------------------
Total Dipole Moment    :     -0.75963      -0.43295      -0.56326
                        -----------------------------------------
Magnitude (a.u.)       :      1.04007
Magnitude (Debye)      :      2.64364

Rotational constants in cm-1:     0.003174     0.000646     0.000577
Rotational constants in MHz :    95.146369    19.378736    17.301437

                             ****ORCA TERMINATED NORMALLY****
TOTAL RUN TIME: 0 days 0 hours 5 minutes 7 seconds 558 msec
