                         Program Version 4.2.0 -  RELEASE  -
|  1> # ORCA input file
|  2> # SCF done       -195.028498964881          0.000421615047
|  3> ! CAM-B3LYP def2-SVP def2/J RIJCOSX Grid4 TightSCF
|  4> %maxcore 5000
|  5> %tddft
|  6>     Mode sTDDFT
|  7>     Ethresh 5.0
|  8>     maxcore 5000
|  9> end
| 10>
| 11> %pal
| 12>   nprocs 6
| 13>   end
| 14> * xyz 0 1
| 15>    C        0.21960         0.28285         6.62315
| 16>    N        0.08129         0.16157         5.33388
| 17>    N       -0.41456        -0.89225         4.75951
| 18>    C       -0.75880        -1.98109         5.41239
| 19>    C       -0.60091        -1.99089         6.82626
| 20>    C       -0.13430        -0.79411         7.46104
| 21>    N       -0.06725        -0.92832         8.78583
| 22>    S       -0.53516        -2.41302         9.17015
| 23>    N       -0.83105        -2.96767         7.69925
| 24>    C       -1.34358        -3.12896         4.75046
| 25>    C       -2.49681        -3.75919         5.17786
| 26>    N       -3.39524        -3.30032         6.15849
| 27>    O       -3.27479        -2.15291         6.56127
| 28>    O       -4.25190        -4.07303         6.54214
| 29>    C       -2.70810        -4.95875         4.40904
| 30>    C       -1.66780        -5.09722         3.55619
| 31>    C       -0.77188        -3.97219         3.71023
| 32>    C        0.36497        -3.73443         2.95546
| 33>    C        0.87948        -2.45589         2.59342
| 34>    C        1.76208        -2.61160         1.55905
| 35>    C        1.91601        -3.99989         1.28104
| 36>    N        2.81563        -4.48858         0.32010
| 37>    O        2.92780        -5.69974         0.18001
| 38>    O        3.43384        -3.66992        -0.33645
| 39>    C        1.11300        -4.73766         2.16904
| 40>    C        1.18516        -6.11815         2.37960
| 41>    C        0.76427        -6.74692         3.53054
| 42>    C        0.76370        -8.10687         3.85051
| 43>    N        1.17536        -9.21782         3.15353
| 44>    C        1.73749        -9.29041         1.82235
| 45>    C        0.66524        -9.15537         0.74511
| 46>    C        0.94915       -10.40010         3.87856
| 47>    O        1.23818       -11.50569         3.46806
| 48>    C        0.34621        -9.96361         5.12887
| 49>    C        0.25504        -8.57580         5.08227
| 50>    C       -0.35686        -8.10334         6.31402
| 51>    O       -0.61392        -6.98807         6.70598
| 52>    N       -0.59899        -9.28138         7.04141
| 53>    C       -1.26010        -9.24719         8.32692
| 54>    C       -2.73511        -9.62028         8.21596
| 55>    C       -0.19086       -10.40429         6.36671
| 56>    C       -0.28116       -11.70220         6.87802
| 57>    C        0.21368       -12.77868         6.17549
| 58>    C        0.22082       -14.13414         6.52946
| 59>    C       -0.51889       -14.91337         7.44005
| 60>    N       -1.38896       -14.54543         8.47955
| 61>    O       -1.40618       -13.38687         8.87231
| 62>    O       -2.08158       -15.42518         8.96045
| 63>    C       -0.30955       -16.29413         7.14270
| 64>    C        0.53884       -16.40908         6.07985
| 65>    C        0.95039       -15.10297         5.68524
| 66>    C        1.98974       -14.78829         4.82493
| 67>    C        2.87768       -13.67227         4.96187
| 68>    C        3.92254       -13.82980         4.10502
| 69>    C        3.70786       -15.02107         3.33602
| 70>    N        4.58419       -15.42483         2.31144
| 71>    O        4.28766       -16.39068         1.62625
| 72>    O        5.61130       -14.78373         2.17490
| 73>    C        2.52470       -15.62955         3.74450
| 74>    C        1.90522       -16.74562         3.12709
| 75>    C        0.57152       -16.98512         3.09630
| 76>    C       -0.00923       -18.10898         2.42759
| 77>    N       -1.33189       -18.16080         2.36115
| 78>    N       -1.98925       -19.09581         1.75941
| 79>    C       -1.41888       -20.09129         1.13591
| 80>    C       -0.01230       -20.18673         1.12854
| 81>    C        0.72945       -19.16615         1.81520
| 82>    N        2.03956       -19.38690         1.76055
| 83>    S        2.30777       -20.72447         0.91448
| 84>    N        0.78574       -21.10656         0.58562
| 85>    H        0.61401         1.21289         7.00001
| 86>    H       -3.56724        -5.59093         4.52086
| 87>    H       -1.55201        -5.85797         2.80950
| 88>    H        0.52407        -1.52686         2.99724
| 89>    H        2.27728        -1.83616         1.02384
| 90>    H        1.68880        -6.67430         1.60304
| 91>    H        0.38581        -6.13406         4.33905
| 92>    H        2.20284       -10.27748         1.74790
| 93>    H        2.51453        -8.53237         1.70761
| 94>    H       -0.03571        -9.98418         0.81004
| 95>    H        1.13373        -9.16988        -0.23428
| 96>    H        0.11296        -8.22471         0.85084
| 97>    H       -1.16517        -8.21927         8.68684
| 98>    H       -0.74586        -9.91847         9.01870
| 99>    H       -3.24450        -8.94204         7.53566
|100>    H       -3.20125        -9.54530         9.19372
|101>    H       -2.85300       -10.63899         7.85564
|102>    H       -0.71928       -11.84662         7.85293
|103>    H        0.66237       -12.56995         5.21270
|104>    H       -0.76162       -17.09107         7.70285
|105>    H        0.92715       -17.32310         5.67585
|106>    H        2.79242       -12.91283         5.71399
|107>    H        4.77990       -13.19446         3.99006
|108>    H        2.56198       -17.40282         2.56775
|109>    H       -0.14032       -16.29577         3.52765
|110>    H       -2.05538       -20.81285         0.64985
|111> *
|112>
|113>                          ****END OF INPUT****

CARTESIAN COORDINATES (ANGSTROEM)
---------------------------------
  C      0.219600    0.282850    6.623150
  N      0.081290    0.161570    5.333880
  N     -0.414560   -0.892250    4.759510
  C     -0.758800   -1.981090    5.412390
  C     -0.600910   -1.990890    6.826260
  C     -0.134300   -0.794110    7.461040
  N     -0.067250   -0.928320    8.785830
  S     -0.535160   -2.413020    9.170150
  N     -0.831050   -2.967670    7.699250
  C     -1.343580   -3.128960    4.750460
  C     -2.496810   -3.759190    5.177860
  N     -3.395240   -3.300320    6.158490
  O     -3.274790   -2.152910    6.561270
  O     -4.251900   -4.073030    6.542140
  C     -2.708100   -4.958750    4.409040
  C     -1.667800   -5.097220    3.556190
  C     -0.771880   -3.972190    3.710230
  C      0.364970   -3.734430    2.955460
  C      0.879480   -2.455890    2.593420
  C      1.762080   -2.611600    1.559050
  C      1.916010   -3.999890    1.281040
  N      2.815630   -4.488580    0.320100
  O      2.927800   -5.699740    0.180010
  O      3.433840   -3.669920   -0.336450
  C      1.113000   -4.737660    2.169040
  C      1.185160   -6.118150    2.379600
  C      0.764270   -6.746920    3.530540
  C      0.763700   -8.106870    3.850510
  N      1.175360   -9.217820    3.153530
  C      1.737490   -9.290410    1.822350
  C      0.665240   -9.155370    0.745110
  C      0.949150  -10.400100    3.878560
  O      1.238180  -11.505690    3.468060
  C      0.346210   -9.963610    5.128870
  C      0.255040   -8.575800    5.082270
  C     -0.356860   -8.103340    6.314020
  O     -0.613920   -6.988070    6.705980
  N     -0.598990   -9.281380    7.041410
  C     -1.260100   -9.247190    8.326920
  C     -2.735110   -9.620280    8.215960
  C     -0.190860  -10.404290    6.366710
  C     -0.281160  -11.702200    6.878020
  C      0.213680  -12.778680    6.175490
  C      0.220820  -14.134140    6.529460
  C     -0.518890  -14.913370    7.440050
  N     -1.388960  -14.545430    8.479550
  O     -1.406180  -13.386870    8.872310
  O     -2.081580  -15.425180    8.960450
  C     -0.309550  -16.294130    7.142700
  C      0.538840  -16.409080    6.079850
  C      0.950390  -15.102970    5.685240
  C      1.989740  -14.788290    4.824930
  C      2.877680  -13.672270    4.961870
  C      3.922540  -13.829800    4.105020
  C      3.707860  -15.021070    3.336020
  N      4.584190  -15.424830    2.311440
  O      4.287660  -16.390680    1.626250
  O      5.611300  -14.783730    2.174900
  C      2.524700  -15.629550    3.744500
  C      1.905220  -16.745620    3.127090
  C      0.571520  -16.985120    3.096300
  C     -0.009230  -18.108980    2.427590
  N     -1.331890  -18.160800    2.361150
  N     -1.989250  -19.095810    1.759410
  C     -1.418880  -20.091290    1.135910
  C     -0.012300  -20.186730    1.128540
  C      0.729450  -19.166150    1.815200
  N      2.039560  -19.386900    1.760550
  S      2.307770  -20.724470    0.914480
  N      0.785740  -21.106560    0.585620
  H      0.614010    1.212890    7.000010
  H     -3.567240   -5.590930    4.520860
  H     -1.552010   -5.857970    2.809500
  H      0.524070   -1.526860    2.997240
  H      2.277280   -1.836160    1.023840
  H      1.688800   -6.674300    1.603040
  H      0.385810   -6.134060    4.339050
  H      2.202840  -10.277480    1.747900
  H      2.514530   -8.532370    1.707610
  H     -0.035710   -9.984180    0.810040
  H      1.133730   -9.169880   -0.234280
  H      0.112960   -8.224710    0.850840
  H     -1.165170   -8.219270    8.686840
  H     -0.745860   -9.918470    9.018700
  H     -3.244500   -8.942040    7.535660
  H     -3.201250   -9.545300    9.193720
  H     -2.853000  -10.638990    7.855640
  H     -0.719280  -11.846620    7.852930
  H      0.662370  -12.569950    5.212700
  H     -0.761620  -17.091070    7.702850
  H      0.927150  -17.323100    5.675850
  H      2.792420  -12.912830    5.713990
  H      4.779900  -13.194460    3.990060
  H      2.561980  -17.402820    2.567750
  H     -0.140320  -16.295770    3.527650
  H     -2.055380  -20.812850    0.649850

 Total Charge           Charge          ....    0
 Multiplicity           Mult            ....    1
 Number of Electrons    NEL             ....  500
 Basis Dimension        Dim             .... 1118

ORBITAL ENERGIES
----------------

  NO   OCC          E(Eh)            E(eV)
   0   2.0000     -89.050868     -2423.1973
   1   2.0000     -89.044298     -2423.0185
   2   2.0000     -19.250547      -523.8340
   3   2.0000     -19.248739      -523.7848
   4   2.0000     -19.245860      -523.7065
   5   2.0000     -19.242810      -523.6235
   6   2.0000     -19.241666      -523.5923
   7   2.0000     -19.240670      -523.5653
   8   2.0000     -19.238666      -523.5107
   9   2.0000     -19.237314      -523.4739
  10   2.0000     -19.215110      -522.8697
  11   2.0000     -19.214909      -522.8643
  12   2.0000     -14.658699      -398.8835
  13   2.0000     -14.651372      -398.6841
  14   2.0000     -14.650427      -398.6584
  15   2.0000     -14.647329      -398.5741
  16   2.0000     -14.474505      -393.8713
  17   2.0000     -14.474071      -393.8595
  18   2.0000     -14.463747      -393.5786
  19   2.0000     -14.463245      -393.5649
  20   2.0000     -14.455714      -393.3600
  21   2.0000     -14.454861      -393.3368
  22   2.0000     -14.448838      -393.1729
  23   2.0000     -14.446467      -393.1083
  24   2.0000     -14.446404      -393.1066
  25   2.0000     -14.444320      -393.0499
  26   2.0000     -10.397427      -282.9284
  27   2.0000     -10.397182      -282.9217
  28   2.0000     -10.365452      -282.0583
  29   2.0000     -10.357807      -281.8502
  30   2.0000     -10.347512      -281.5701
  31   2.0000     -10.347477      -281.5692
  32   2.0000     -10.345264      -281.5090
  33   2.0000     -10.345156      -281.5060
  34   2.0000     -10.343128      -281.4508
  35   2.0000     -10.339476      -281.3515
  36   2.0000     -10.339284      -281.3462
  37   2.0000     -10.338465      -281.3239
  38   2.0000     -10.338166      -281.3158
  39   2.0000     -10.337232      -281.2904
  40   2.0000     -10.335383      -281.2401
  41   2.0000     -10.333281      -281.1829
  42   2.0000     -10.331890      -281.1450
  43   2.0000     -10.331775      -281.1419
  44   2.0000     -10.331255      -281.1277
  45   2.0000     -10.330202      -281.0991
  46   2.0000     -10.330154      -281.0978
  47   2.0000     -10.326262      -280.9919
  48   2.0000     -10.325605      -280.9740
  49   2.0000     -10.319991      -280.8212
  50   2.0000     -10.318437      -280.7789
  51   2.0000     -10.317716      -280.7593
  52   2.0000     -10.316298      -280.7207
  53   2.0000     -10.315607      -280.7019
  54   2.0000     -10.311695      -280.5955
  55   2.0000     -10.308816      -280.5171
  56   2.0000     -10.306119      -280.4438
  57   2.0000     -10.303261      -280.3660
  58   2.0000     -10.302152      -280.3358
  59   2.0000     -10.300844      -280.3002
  60   2.0000     -10.300318      -280.2859
  61   2.0000     -10.297568      -280.2111
  62   2.0000     -10.294308      -280.1224
  63   2.0000     -10.292944      -280.0852
  64   2.0000     -10.291699      -280.0514
  65   2.0000     -10.291081      -280.0345
  66   2.0000     -10.290238      -280.0116
  67   2.0000     -10.278304      -279.6869
  68   2.0000     -10.271422      -279.4996
  69   2.0000     -10.270094      -279.4635
  70   2.0000      -8.142527      -221.5694
  71   2.0000      -8.135868      -221.3882
  72   2.0000      -6.113587      -166.3592
  73   2.0000      -6.106829      -166.1753
  74   2.0000      -6.105671      -166.1438
  75   2.0000      -6.105357      -166.1352
  76   2.0000      -6.099054      -165.9637
  77   2.0000      -6.098812      -165.9571
  78   2.0000      -1.328513       -36.1507
  79   2.0000      -1.322931       -35.9988
  80   2.0000      -1.320570       -35.9345
  81   2.0000      -1.316617       -35.8270
  82   2.0000      -1.156789       -31.4778
  83   2.0000      -1.153779       -31.3959
  84   2.0000      -1.150281       -31.3007
  85   2.0000      -1.149157       -31.2701
  86   2.0000      -1.144716       -31.1493
  87   2.0000      -1.139842       -31.0167
  88   2.0000      -1.137448       -30.9515
  89   2.0000      -1.133739       -30.8506
  90   2.0000      -1.127179       -30.6721
  91   2.0000      -1.125151       -30.6169
  92   2.0000      -1.086392       -29.5622
  93   2.0000      -1.076324       -29.2883
  94   2.0000      -1.026959       -27.9450
  95   2.0000      -1.021708       -27.8021
  96   2.0000      -1.006142       -27.3785
  97   2.0000      -1.003902       -27.3176
  98   2.0000      -1.003544       -27.3078
  99   2.0000      -0.992851       -27.0168
 100   2.0000      -0.950094       -25.8534
 101   2.0000      -0.949115       -25.8267
 102   2.0000      -0.938080       -25.5265
 103   2.0000      -0.930673       -25.3249
 104   2.0000      -0.925030       -25.1713
 105   2.0000      -0.922658       -25.1068
 106   2.0000      -0.920458       -25.0469
 107   2.0000      -0.917811       -24.9749
 108   2.0000      -0.912356       -24.8265
 109   2.0000      -0.897460       -24.4211
 110   2.0000      -0.888916       -24.1886
 111   2.0000      -0.887411       -24.1477
 112   2.0000      -0.883897       -24.0521
 113   2.0000      -0.861680       -23.4475
 114   2.0000      -0.852683       -23.2027
 115   2.0000      -0.840755       -22.8781
 116   2.0000      -0.835148       -22.7255
 117   2.0000      -0.834140       -22.6981
 118   2.0000      -0.814268       -22.1573
 119   2.0000      -0.811491       -22.0818
 120   2.0000      -0.787225       -21.4215
 121   2.0000      -0.783018       -21.3070
 122   2.0000      -0.779162       -21.2021
 123   2.0000      -0.773413       -21.0456
 124   2.0000      -0.768375       -20.9085
 125   2.0000      -0.746910       -20.3245
 126   2.0000      -0.744735       -20.2653
 127   2.0000      -0.739209       -20.1149
 128   2.0000      -0.731883       -19.9155
 129   2.0000      -0.730436       -19.8762
 130   2.0000      -0.724799       -19.7228
 131   2.0000      -0.722674       -19.6650
 132   2.0000      -0.715566       -19.4715
 133   2.0000      -0.710865       -19.3436
 134   2.0000      -0.696582       -18.9550
 135   2.0000      -0.688854       -18.7447
 136   2.0000      -0.680037       -18.5047
 137   2.0000      -0.675309       -18.3761
 138   2.0000      -0.668432       -18.1889
 139   2.0000      -0.663589       -18.0572
 140   2.0000      -0.659604       -17.9487
 141   2.0000      -0.657106       -17.8808
 142   2.0000      -0.649842       -17.6831
 143   2.0000      -0.644909       -17.5489
 144   2.0000      -0.640332       -17.4243
 145   2.0000      -0.638928       -17.3861
 146   2.0000      -0.638116       -17.3640
 147   2.0000      -0.632050       -17.1990
 148   2.0000      -0.631387       -17.1809
 149   2.0000      -0.629256       -17.1229
 150   2.0000      -0.628911       -17.1135
 151   2.0000      -0.628349       -17.0983
 152   2.0000      -0.620476       -16.8840
 153   2.0000      -0.617628       -16.8065
 154   2.0000      -0.612936       -16.6788
 155   2.0000      -0.607972       -16.5438
 156   2.0000      -0.605339       -16.4721
 157   2.0000      -0.603663       -16.4265
 158   2.0000      -0.602459       -16.3937
 159   2.0000      -0.596339       -16.2272
 160   2.0000      -0.593799       -16.1581
 161   2.0000      -0.589832       -16.0501
 162   2.0000      -0.586559       -15.9611
 163   2.0000      -0.580791       -15.8041
 164   2.0000      -0.579474       -15.7683
 165   2.0000      -0.577132       -15.7046
 166   2.0000      -0.571653       -15.5555
 167   2.0000      -0.568385       -15.4665
 168   2.0000      -0.567979       -15.4555
 169   2.0000      -0.565900       -15.3989
 170   2.0000      -0.564215       -15.3531
 171   2.0000      -0.561691       -15.2844
 172   2.0000      -0.553244       -15.0545
 173   2.0000      -0.550631       -14.9834
 174   2.0000      -0.547146       -14.8886
 175   2.0000      -0.544825       -14.8254
 176   2.0000      -0.539665       -14.6850
 177   2.0000      -0.536361       -14.5951
 178   2.0000      -0.532290       -14.4843
 179   2.0000      -0.529202       -14.4003
 180   2.0000      -0.526556       -14.3283
 181   2.0000      -0.523920       -14.2566
 182   2.0000      -0.522377       -14.2146
 183   2.0000      -0.518875       -14.1193
 184   2.0000      -0.516117       -14.0443
 185   2.0000      -0.514564       -14.0020
 186   2.0000      -0.511954       -13.9310
 187   2.0000      -0.509647       -13.8682
 188   2.0000      -0.502843       -13.6830
 189   2.0000      -0.499668       -13.5967
 190   2.0000      -0.498306       -13.5596
 191   2.0000      -0.494634       -13.4597
 192   2.0000      -0.492223       -13.3941
 193   2.0000      -0.491239       -13.3673
 194   2.0000      -0.488603       -13.2956
 195   2.0000      -0.488365       -13.2891
 196   2.0000      -0.487288       -13.2598
 197   2.0000      -0.484318       -13.1790
 198   2.0000      -0.482966       -13.1422
 199   2.0000      -0.477081       -12.9820
 200   2.0000      -0.474047       -12.8995
 201   2.0000      -0.472738       -12.8639
 202   2.0000      -0.470277       -12.7969
 203   2.0000      -0.463794       -12.6205
 204   2.0000      -0.461918       -12.5694
 205   2.0000      -0.458519       -12.4769
 206   2.0000      -0.451288       -12.2802
 207   2.0000      -0.449216       -12.2238
 208   2.0000      -0.447269       -12.1708
 209   2.0000      -0.445738       -12.1292
 210   2.0000      -0.437588       -11.9074
 211   2.0000      -0.434486       -11.8230
 212   2.0000      -0.434220       -11.8157
 213   2.0000      -0.431822       -11.7505
 214   2.0000      -0.429224       -11.6798
 215   2.0000      -0.401095       -10.9143
 216   2.0000      -0.398833       -10.8528
 217   2.0000      -0.397674       -10.8213
 218   2.0000      -0.395818       -10.7707
 219   2.0000      -0.394475       -10.7342
 220   2.0000      -0.392714       -10.6863
 221   2.0000      -0.390929       -10.6377
 222   2.0000      -0.389305       -10.5935
 223   2.0000      -0.388364       -10.5679
 224   2.0000      -0.384647       -10.4668
 225   2.0000      -0.384254       -10.4561
 226   2.0000      -0.382619       -10.4116
 227   2.0000      -0.381533       -10.3820
 228   2.0000      -0.380036       -10.3413
 229   2.0000      -0.377381       -10.2691
 230   2.0000      -0.375888       -10.2284
 231   2.0000      -0.374918       -10.2020
 232   2.0000      -0.374115       -10.1802
 233   2.0000      -0.369887       -10.0651
 234   2.0000      -0.367018        -9.9871
 235   2.0000      -0.364749        -9.9253
 236   2.0000      -0.359772        -9.7899
 237   2.0000      -0.354981        -9.6595
 238   2.0000      -0.350585        -9.5399
 239   2.0000      -0.349621        -9.5137
 240   2.0000      -0.343587        -9.3495
 241   2.0000      -0.340336        -9.2610
 242   2.0000      -0.339628        -9.2418
 243   2.0000      -0.315441        -8.5836
 244   2.0000      -0.313522        -8.5314
 245   2.0000      -0.305474        -8.3124
 246   2.0000      -0.303128        -8.2485
 247   2.0000      -0.300912        -8.1882
 248   2.0000      -0.288056        -7.8384
 249   2.0000      -0.245351        -6.6763
 250   0.0000      -0.158472        -4.3123
 251   0.0000      -0.135147        -3.6775
 252   0.0000      -0.101309        -2.7568
 253   0.0000      -0.087426        -2.3790
 254   0.0000      -0.077839        -2.1181

MULLIKEN ATOMIC CHARGES
-----------------------
   0 C :   -0.000927
   1 N :   -0.047400
   2 N :   -0.052585
   3 C :   -0.068231
   4 C :    0.040973
   5 C :    0.039568
   6 N :   -0.253607
   7 S :    0.544036
   8 N :   -0.248364
   9 C :    0.067137
  10 C :    0.085148
  11 N :    0.270570
  12 O :   -0.245919
  13 O :   -0.233803
  14 C :    0.021926
  15 C :   -0.008195
  16 C :    0.035132
  17 C :    0.021285
  18 C :    0.002305
  19 C :    0.023339
  20 C :    0.086127
  21 N :    0.274461
  22 O :   -0.265578
  23 O :   -0.243297
  24 C :    0.037752
  25 C :   -0.037891
  26 C :   -0.057238
  27 C :    0.127699
  28 N :   -0.257427
  29 C :    0.095290
  30 C :    0.002334
  31 C :    0.166413
  32 O :   -0.202805
  33 C :   -0.061294
  34 C :   -0.041550
  35 C :    0.158383
  36 O :   -0.169222
  37 N :   -0.260622
  38 C :    0.094421
  39 C :    0.006150
  40 C :    0.156601
  41 C :   -0.013912
  42 C :   -0.085535
  43 C :    0.091239
  44 C :    0.076270
  45 N :    0.277769
  46 O :   -0.257057
  47 O :   -0.238205
  48 C :    0.020011
  49 C :    0.018729
  50 C :    0.002132
  51 C :    0.051230
  52 C :    0.024520
  53 C :    0.018921
  54 C :    0.089517
  55 N :    0.271219
  56 O :   -0.246615
  57 O :   -0.244880
  58 C :    0.052570
  59 C :   -0.026441
  60 C :   -0.013304
  61 C :   -0.037288
  62 N :   -0.048998
  63 N :   -0.039110
  64 C :   -0.006391
  65 C :    0.047602
  66 C :    0.034392
  67 N :   -0.265859
  68 S :    0.549427
  69 N :   -0.253044
  70 H :    0.007333
  71 H :   -0.002481
  72 H :    0.002390
  73 H :    0.019305
  74 H :    0.010586
  75 H :    0.018722
  76 H :    0.040339
  77 H :    0.044444
  78 H :    0.045162
  79 H :    0.026897
  80 H :    0.035740
  81 H :    0.018466
  82 H :    0.044384
  83 H :    0.037958
  84 H :    0.029018
  85 H :    0.031699
  86 H :    0.022323
  87 H :    0.002900
  88 H :    0.034119
  89 H :    0.009822
  90 H :    0.006265
  91 H :   -0.003335
  92 H :    0.006363
  93 H :    0.049234
  94 H :    0.004050
  95 H :    0.008292
Sum of atomic charges:   -0.0000000

LOEWDIN ATOMIC CHARGES
----------------------
   0 C :    0.022650
   1 N :   -0.043837
   2 N :   -0.038852
   3 C :    0.002321
   4 C :   -0.058797
   5 C :   -0.069036
   6 N :   -0.272378
   7 S :    0.687712
   8 N :   -0.272082
   9 C :   -0.008693
  10 C :   -0.002359
  11 N :    0.289049
  12 O :   -0.209266
  13 O :   -0.195481
  14 C :   -0.002126
  15 C :   -0.026191
  16 C :    0.035698
  17 C :    0.051958
  18 C :   -0.032197
  19 C :    0.029266
  20 C :   -0.052295
  21 N :    0.285638
  22 O :   -0.231768
  23 O :   -0.208591
  24 C :    0.008727
  25 C :   -0.003064
  26 C :   -0.007157
  27 C :    0.060764
  28 N :    0.003347
  29 C :    0.037830
  30 C :   -0.059986
  31 C :    0.081532
  32 O :   -0.187595
  33 C :   -0.111480
  34 C :   -0.084146
  35 C :    0.081104
  36 O :   -0.170831
  37 N :    0.003859
  38 C :    0.038816
  39 C :   -0.057692
  40 C :    0.085491
  41 C :   -0.020032
  42 C :    0.024451
  43 C :   -0.003426
  44 C :   -0.034336
  45 N :    0.287438
  46 O :   -0.218495
  47 O :   -0.202329
  48 C :    0.013080
  49 C :   -0.027378
  50 C :    0.042715
  51 C :    0.054970
  52 C :   -0.029586
  53 C :    0.023774
  54 C :   -0.036258
  55 N :    0.284888
  56 O :   -0.210672
  57 O :   -0.209491
  58 C :    0.008954
  59 C :    0.000202
  60 C :   -0.001533
  61 C :   -0.008632
  62 N :   -0.048622
  63 N :   -0.037722
  64 C :    0.014867
  65 C :   -0.070579
  66 C :   -0.056021
  67 N :   -0.267255
  68 S :    0.684657
  69 N :   -0.268841
  70 H :    0.036971
  71 H :    0.037258
  72 H :    0.030850
  73 H :    0.031351
  74 H :    0.041162
  75 H :    0.035554
  76 H :    0.049650
  77 H :    0.038340
  78 H :    0.029871
  79 H :    0.031270
  80 H :    0.037541
  81 H :    0.021425
  82 H :    0.038280
  83 H :    0.029559
  84 H :    0.031375
  85 H :    0.035591
  86 H :    0.025150
  87 H :    0.030104
  88 H :    0.041416
  89 H :    0.040481
  90 H :    0.033767
  91 H :    0.030843
  92 H :    0.039649
  93 H :    0.038699
  94 H :    0.038386
  95 H :    0.036808

  Mayer bond orders larger than 0.100000
B(  0-C ,  1-N ) :   1.7351 B(  0-C ,  3-C ) :   0.1105 B(  0-C ,  5-C ) :   1.1285
B(  0-C , 70-H ) :   1.0167 B(  1-N ,  2-N ) :   1.1861 B(  2-N ,  3-C ) :   1.7244
B(  3-C ,  4-C ) :   1.1394 B(  3-C ,  9-C ) :   0.9642 B(  4-C ,  5-C ) :   1.2079
B(  4-C ,  8-N ) :   1.5349 B(  5-C ,  6-N ) :   1.4963 B(  6-N ,  7-S ) :   1.3034
B(  6-N ,  8-N ) :   0.1476 B(  7-S ,  8-N ) :   1.2924 B(  9-C , 10-C ) :   1.6191
B(  9-C , 16-C ) :   1.1334 B( 10-C , 11-N ) :   0.9282 B( 10-C , 14-C ) :   1.1184
B( 11-N , 12-O ) :   1.5088 B( 11-N , 13-O ) :   1.5408 B( 12-O , 13-O ) :   0.2703
B( 14-C , 15-C ) :   1.6089 B( 14-C , 71-H ) :   1.0162 B( 15-C , 16-C ) :   1.1014
B( 15-C , 72-H ) :   0.9920 B( 16-C , 17-C ) :   1.4622 B( 17-C , 18-C ) :   1.1858
B( 17-C , 24-C ) :   0.9769 B( 18-C , 19-C ) :   1.5040 B( 18-C , 73-H ) :   0.9886
B( 19-C , 20-C ) :   1.1565 B( 19-C , 74-H ) :   1.0124 B( 20-C , 21-N ) :   0.9625
B( 20-C , 24-C ) :   1.4305 B( 21-N , 22-O ) :   1.4777 B( 21-N , 23-O ) :   1.5376
B( 22-O , 23-O ) :   0.2528 B( 24-C , 25-C ) :   1.2639 B( 25-C , 26-C ) :   1.3988
B( 25-C , 75-H ) :   0.9495 B( 26-C , 27-C ) :   1.2804 B( 26-C , 76-H ) :   0.9290
B( 27-C , 28-N ) :   1.1626 B( 27-C , 34-C ) :   1.2715 B( 28-N , 29-C ) :   0.9285
B( 28-N , 31-C ) :   1.0772 B( 29-C , 30-C ) :   1.1181 B( 29-C , 77-H ) :   0.9250
B( 29-C , 78-H ) :   0.9509 B( 30-C , 79-H ) :   0.9620 B( 30-C , 80-H ) :   0.9678
B( 30-C , 81-H ) :   0.9686 B( 31-C , 32-O ) :   2.0079 B( 31-C , 33-C ) :   0.9791
B( 32-O , 88-H ) :   0.1117 B( 33-C , 34-C ) :   1.3336 B( 33-C , 40-C ) :   1.2240
B( 34-C , 35-C ) :   0.9596 B( 35-C , 36-O ) :   2.1358 B( 35-C , 37-N ) :   1.0411
B( 37-N , 38-C ) :   0.9301 B( 37-N , 40-C ) :   1.1808 B( 38-C , 39-C ) :   1.1249
B( 38-C , 82-H ) :   0.9290 B( 38-C , 83-H ) :   0.9483 B( 39-C , 84-H ) :   0.9635
B( 39-C , 85-H ) :   0.9674 B( 39-C , 86-H ) :   0.9674 B( 40-C , 41-C ) :   1.2014
B( 41-C , 42-C ) :   1.4956 B( 41-C , 87-H ) :   0.9491 B( 42-C , 43-C ) :   1.2022
B( 42-C , 88-H ) :   0.9376 B( 43-C , 44-C ) :   1.4138 B( 43-C , 50-C ) :   1.0229
B( 44-C , 45-N ) :   0.9608 B( 44-C , 48-C ) :   1.1722 B( 45-N , 46-O ) :   1.4598
B( 45-N , 47-O ) :   1.5423 B( 46-O , 47-O ) :   0.2543 B( 46-O , 87-H ) :   0.1013
B( 48-C , 49-C ) :   1.5352 B( 48-C , 89-H ) :   1.0060 B( 49-C , 50-C ) :   1.1541
B( 49-C , 90-H ) :   1.0006 B( 50-C , 51-C ) :   1.4739 B( 51-C , 52-C ) :   1.1467
B( 51-C , 58-C ) :   1.0178 B( 52-C , 53-C ) :   1.5608 B( 52-C , 91-H ) :   1.0030
B( 53-C , 54-C ) :   1.1326 B( 53-C , 92-H ) :   1.0119 B( 54-C , 55-N ) :   0.9423
B( 54-C , 58-C ) :   1.5239 B( 55-N , 56-O ) :   1.4990 B( 55-N , 57-O ) :   1.5334
B( 56-O , 57-O ) :   0.2640 B( 58-C , 59-C ) :   1.1498 B( 59-C , 60-C ) :   1.5725
B( 59-C , 93-H ) :   0.9265 B( 60-C , 61-C ) :   1.1504 B( 60-C , 94-H ) :   0.9632
B( 61-C , 62-N ) :   1.6765 B( 61-C , 64-C ) :   0.1105 B( 61-C , 66-C ) :   1.0894
B( 62-N , 63-N ) :   1.2094 B( 63-N , 64-C ) :   1.7136 B( 64-C , 65-C ) :   1.1342
B( 64-C , 95-H ) :   1.0159 B( 65-C , 66-C ) :   1.2058 B( 65-C , 69-N ) :   1.4932
B( 66-C , 67-N ) :   1.5183 B( 67-N , 68-S ) :   1.2741 B( 67-N , 69-N ) :   0.1464
B( 68-S , 69-N ) :   1.3036

-----------------------------------------------------------------------------
         ABSORPTION SPECTRUM VIA TRANSITION ELECTRIC DIPOLE MOMENTS
-----------------------------------------------------------------------------
State   Energy  Wavelength   fosc         T2         TX        TY        TZ
        (cm-1)    (nm)                  (au**2)     (au)      (au)      (au)
-----------------------------------------------------------------------------
   0    3983.7   2510.2   0.195074929  16.12104  -0.21246   3.92212  -0.83238
   1    8308.1   1203.6   0.006597133   0.26141  -0.18244   0.19303  -0.43688
   2   11029.9    906.6   0.035746050   1.06692  -0.19357  -0.37678  -0.94206
   3   14051.6    711.7   0.010361191   0.24275   0.15834  -0.01888   0.46618
   4   15102.8    662.1   0.000592314   0.01291   0.01108  -0.00908  -0.11272
   5   15464.1    646.7   0.004934893   0.10506   0.05737   0.05682  -0.31391
   6   16228.3    616.2   0.131816286   2.67407  -0.54580  -0.32799   1.50618
   7   16475.6    607.0   0.143871843   2.87481   0.42267   0.96225  -1.33050
   8   17112.5    584.4   0.020270063   0.38996   0.28183  -0.54179   0.13037
   9   20586.8    485.7   0.000914930   0.01463   0.01803   0.11950  -0.00509
  10   21018.6    475.8   0.089784785   1.40629   0.22031  -1.16142  -0.09412
  11   21101.1    473.9   0.056847799   0.88692  -0.67061  -0.65988  -0.04196
  12   21635.9    462.2   0.007360989   0.11200  -0.01238  -0.30261  -0.14240
  13   21743.4    459.9   0.002482914   0.03759  -0.11230  -0.14650  -0.05933
  14   21914.0    456.3   0.071145443   1.06881   0.03143   1.00664   0.23345
  15   22571.1    443.0   0.030778596   0.44892  -0.08598   0.31490   0.58512
  16   22845.4    437.7   0.001440881   0.02076   0.03684   0.13466   0.03568
  17   23760.7    420.9   0.005354979   0.07419   0.26865   0.01381  -0.04277
  18   24139.4    414.3   0.186361042   2.54158   0.16332  -1.40024  -0.74447
  19   24250.2    412.4   0.064266887   0.87246   0.41592   0.69894   0.45930
  20   24857.1    402.3   0.139173942   1.84325   0.85762  -0.37968  -0.98162
  21   24973.6    400.4   0.133034037   1.75371  -0.35231  -1.12178   0.60926
  22   25156.3    397.5   0.018648517   0.24405  -0.04810  -0.03474  -0.49043
  23   25371.9    394.1   0.080904349   1.04977  -0.45324  -0.60853  -0.68850
  24   25658.3    389.7   0.006847722   0.08786  -0.10611   0.27432   0.03676
  25   25709.0    389.0   0.089883498   1.15098  -0.88733  -0.59822   0.07600
  26   25951.6    385.3   0.148194756   1.87994   1.06159   0.77239  -0.39546
  27   26009.4    384.5   0.002406623   0.03046   0.03497   0.00232   0.17098
  28   26360.5    379.4   0.055779947   0.69663   0.62559   0.07322  -0.54764
  29   26991.7    370.5   0.003168137   0.03864  -0.11753  -0.03043   0.15460
  30   27231.5    367.2   0.496542258   6.00288  -1.72299  -0.35470   1.70540
  31   27317.1    366.1   0.010306382   0.12421   0.11663   0.27629  -0.18511
  32   27544.6    363.0   0.034538395   0.41280  -0.50373   0.17152   0.36005
  33   28263.2    353.8   0.113687999   1.32425  -0.06031  -0.90423  -0.70921
  34   28860.1    346.5   0.042568932   0.48559  -0.03827   0.48557  -0.49834
  35   29799.2    335.6   0.032319787   0.35706   0.22292   0.43236   0.34703
  36   29896.9    334.5   0.032417869   0.35697   0.02710  -0.40307  -0.44020
  37   29965.3    333.7   0.015545837   0.17079   0.16302  -0.32541  -0.19577
  38   30215.6    331.0   0.114727030   1.25000  -0.35196  -1.04050   0.20850
  39   30360.6    329.4   0.033997929   0.36865   0.20245   0.54132  -0.18612
  40   30649.8    326.3   0.003706693   0.03981  -0.02605   0.19687   0.01938
  41   30899.4    323.6   0.164296290   1.75046  -0.45148  -1.13918   0.49889
  42   30945.9    323.1   0.067794755   0.72122   0.72404  -0.00009  -0.44383
  43   31122.7    321.3   0.004228369   0.04473   0.01004   0.20655   0.04432
  44   31303.1    319.5   0.135651513   1.42663  -0.86310  -0.12955   0.81542
  45   31339.6    319.1   0.027010075   0.28373   0.10647  -0.51253   0.09853
  46   31575.5    316.7   0.043394211   0.45244  -0.32551  -0.49930   0.31173
  47   31637.9    316.1   0.046358713   0.48239   0.57463  -0.07820  -0.38220
  48   31810.4    314.4   0.032770144   0.33914   0.53904   0.06272  -0.21130
  49   32191.9    310.6   0.060064419   0.61425   0.51583   0.18720  -0.55958
  50   32530.8    307.4   0.106529188   1.07808  -0.69508  -0.38975   0.66560
  51   32688.7    305.9   0.017196463   0.17319  -0.38121  -0.09172   0.13948
  52   32737.3    305.5   0.088665837   0.89164   0.74602   0.20826  -0.54011
  53   32792.6    304.9   0.011915402   0.11962   0.19110   0.16275  -0.23794
  54   32943.6    303.5   0.007728204   0.07723   0.26830  -0.07167  -0.01044
  55   33387.3    299.5   0.030333063   0.29910   0.25756   0.35684  -0.32469
  56   33482.3    298.7   0.007117577   0.06998   0.18460  -0.00476  -0.18943
  57   33628.4    297.4   0.004686227   0.04588   0.07243  -0.17515   0.09976
  58   33811.6    295.8   0.006211341   0.06048   0.22095  -0.03959  -0.10046
  59   33817.5    295.7   0.059755317   0.58172   0.68030  -0.02646  -0.34382
  60   33980.7    294.3   0.110998715   1.07538  -0.49997  -0.75139   0.51070
  61   34103.5    293.2   0.088750522   0.85674  -0.76219  -0.44797   0.27408
  62   34333.4    291.3   0.098456407   0.94407  -0.85220  -0.08106   0.45962
  63   34400.2    290.7   0.024799354   0.23733   0.19018  -0.19556  -0.40363
  64   34531.6    289.6   0.036283190   0.34591   0.20701   0.54929  -0.03657
  65   34556.1    289.4   0.006211574   0.05918  -0.09816   0.22241   0.00871
  66   34927.8    286.3   0.043865135   0.41345  -0.25076  -0.03885   0.59081
  67   35395.1    282.5   0.008182155   0.07610   0.12149   0.13295   0.20897
  68   35420.3    282.3   0.012461278   0.11582   0.26254   0.21337  -0.03695
  69   35678.2    280.3   0.002271147   0.02096   0.12943  -0.03433  -0.05500
  70   35810.5    279.2   0.008765109   0.08058  -0.01703  -0.18486   0.21475
  71   35888.0    278.6   0.010821870   0.09927  -0.25813   0.17489   0.04534
  72   36024.7    277.6   0.001822461   0.01665   0.04580   0.00641  -0.12048
  73   36071.1    277.2   0.002592643   0.02366   0.00179  -0.01654   0.15292
  74   36413.5    274.6   0.003340882   0.03020   0.15692   0.02416  -0.07069
  75   36523.7    273.8   0.006803833   0.06133   0.00089  -0.08969   0.23083
  76   36590.3    273.3   0.003667570   0.03300  -0.09085  -0.01584   0.15650
  77   37095.1    269.6   0.113697319   1.00904   0.85406   0.15064  -0.50689
  78   37148.6    269.2   0.012782215   0.11328   0.16957  -0.02696  -0.28947
  79   37287.6    268.2   0.064616347   0.57050  -0.53367   0.18680   0.50080
  80   37421.1    267.2   0.019769213   0.17392   0.26205   0.14070  -0.29232
  81   37473.1    266.9   0.010402284   0.09139  -0.27055  -0.06979   0.11540
  82   37533.4    266.4   0.064996837   0.57010  -0.58435   0.02072   0.47771
  83   37981.3    263.3   0.008861686   0.07681  -0.20058   0.13016   0.14013
  84   38109.4    262.4   0.010845509   0.09369  -0.28591  -0.09422  -0.05541
  85   38191.1    261.8   0.009382169   0.08088  -0.04131   0.25175   0.12565
  86   38394.9    260.5   0.028098924   0.24093  -0.23059   0.32379   0.28795
  87   38472.7    259.9   0.007275643   0.06226  -0.23651   0.04758   0.06370
  88   38505.9    259.7   0.003467910   0.02965  -0.04427  -0.03578  -0.16251
  89   38713.2    258.3   0.014795070   0.12582   0.04894   0.21411   0.27853
  90   38870.9    257.3   0.024159587   0.20462  -0.28201  -0.24481   0.25526
  91   38927.0    256.9   0.013067912   0.11052   0.06704   0.07549   0.31674
  92   39032.7    256.2   0.018273278   0.15412   0.30680   0.17612   0.17022
  93   39196.0    255.1   0.029538753   0.24810   0.49731   0.02728  -0.00641
  94   39295.3    254.5   0.004689204   0.03929   0.02593   0.16517   0.10645
  95   39336.7    254.2   0.045547866   0.38119   0.46221  -0.28753  -0.29135
  96   39701.5    251.9   0.041670770   0.34554  -0.45954   0.26895   0.24905
  97   39748.7    251.6   0.010832549   0.08972   0.24690   0.12084   0.11899
  98   39932.4    250.4   0.022289289   0.18376   0.24078   0.25147   0.25009
  99   40160.5    249.0   0.047172032   0.38669  -0.43722  -0.04580   0.43981
 100   40205.2    248.7   0.021739140   0.17801  -0.30239   0.01681   0.29374
 101   40281.7    248.3   0.010728523   0.08768   0.22107   0.19058   0.04986

FINAL SINGLE POINT ENERGY     -4002.639540180514

DIPOLE MOMENT
-------------
                                X             Y             Z
Electronic contribution:      6.78609      -0.62641       2.22906
Nuclear contribution   :     -6.09760      -1.26480      -1.07413
                        -----------------------------------------
Total Dipole Moment    :      0.68849      -1.89121       1.15493
                        -----------------------------------------
Magnitude (a.u.)       :      2.32047
Magnitude (Debye)      :      5.89816

Rotational constants in cm-1:     0.001755     0.000396     0.000350
Rotational constants in MHz :    52.602607    11.869484    10.507676

                             ****ORCA TERMINATED NORMALLY****
TOTAL RUN TIME: 0 days 0 hours 11 minutes 35 seconds 503 msec
