                         Program Version 4.2.0 -  RELEASE  -
|  1> # ORCA input file
|  2> # SCF done       -139.563753616643          0.000550316576
|  3> ! CAM-B3LYP def2-SVP def2/J RIJCOSX Grid4 TightSCF
|  4> %maxcore 5000
|  5> %tddft
|  6>     Mode sTDDFT
|  7>     Ethresh 5.0
|  8>     maxcore 5000
|  9> end
| 10>
| 11> %pal
| 12>   nprocs 6
| 13>   end
| 14> * xyz 0 1
| 15>    C        0.87896         0.87402         0.05227
| 16>    N        1.38405        -0.09110         0.76966
| 17>    N        1.01339        -1.33732         0.62694
| 18>    C        0.10182        -1.72260        -0.24728
| 19>    C       -0.52107        -0.75630        -1.08683
| 20>    C       -0.10549         0.60588        -0.92285
| 21>    N       -0.74609         1.42679        -1.75481
| 22>    S       -1.76288         0.56404        -2.64584
| 23>    N       -1.44951        -0.88963        -2.02999
| 24>    C       -0.20529        -3.11913        -0.29511
| 25>    S        0.63273        -4.20027         0.76735
| 26>    C       -0.22872        -5.56829         0.12734
| 27>    C       -1.13523        -5.16487        -0.85840
| 28>    C       -1.11068        -3.77865        -1.09055
| 29>    C       -2.04548        -5.99737        -1.53332
| 30>    N       -2.83700        -6.61174        -2.09206
| 31>    C        0.06955        -6.85700         0.64273
| 32>    C       -0.34678        -8.03040         0.10213
| 33>    C       -0.07464        -9.35055         0.54608
| 34>    N        0.39240        -9.79034         1.76681
| 35>    C        0.68111        -9.02563         2.95658
| 36>    C        2.14852        -8.60611         3.02193
| 37>    C        0.52608       -11.19067         1.80042
| 38>    O        0.91549       -11.79952         2.77960
| 39>    C        0.10566       -11.63124         0.49182
| 40>    C       -0.26432       -10.48078        -0.24471
| 41>    C       -0.68297       -10.90143        -1.56403
| 42>    O       -1.05841       -10.29077        -2.53872
| 43>    N       -0.56571       -12.30964        -1.52290
| 44>    C       -0.86667       -13.11223        -2.68288
| 45>    C        0.39725       -13.52601        -3.43312
| 46>    C       -0.08866       -12.75346        -0.31389
| 47>    C        0.12987       -14.12064        -0.00550
| 48>    C        0.63952       -14.51978         1.18667
| 49>    C        0.87442       -15.87488         1.54582
| 50>    S        1.56861       -16.22451         3.10086
| 51>    C        1.53118       -17.93011         2.79916
| 52>    C        1.87863       -18.90907         3.84211
| 53>    O        1.46456       -20.03839         3.84083
| 54>    O        2.67106       -18.46734         4.83124
| 55>    C        1.00569       -18.19946         1.54503
| 56>    C        0.63331       -17.04051         0.84908
| 57>    C        0.88222       -19.54068         0.98809
| 58>    N       -0.21506       -19.84507         0.33751
| 59>    N       -0.43257       -21.04075        -0.16243
| 60>    C        0.40422       -22.02657        -0.00279
| 61>    C        1.63889       -21.82428         0.64934
| 62>    C        1.91400       -20.50363         1.12785
| 63>    N        3.13893       -20.39335         1.63843
| 64>    S        3.84063       -21.83397         1.56968
| 65>    N        2.66150       -22.65433         0.86014
| 66>    H        1.24510         1.87146         0.23805
| 67>    H       -1.73304        -3.27725        -1.81035
| 68>    H        0.72716        -6.84358         1.49806
| 69>    H       -0.91710        -8.00950        -0.81790
| 70>    H        0.46743        -9.68527         3.80371
| 71>    H        0.00965        -8.16615         3.00399
| 72>    H        2.77600        -9.49126         3.08750
| 73>    H        2.31877        -7.99285         3.90255
| 74>    H        2.44181        -8.04422         2.13770
| 75>    H       -1.48568       -12.48401        -3.32959
| 76>    H       -1.44757       -13.98878        -2.38268
| 77>    H        0.93655       -12.64202        -3.76418
| 78>    H        0.13043       -14.11670        -4.30497
| 79>    H        1.05527       -14.11504        -2.79767
| 80>    H       -0.12588       -14.85287        -0.75660
| 81>    H        0.89121       -13.77422         1.93000
| 82>    H        2.93936       -17.54474         4.72262
| 83>    H        0.19972       -17.08071        -0.13262
| 84>    H        0.11914       -22.98596        -0.40643
| 85> *
| 86>
| 87>                          ****END OF INPUT****

CARTESIAN COORDINATES (ANGSTROEM)
---------------------------------
  C      0.878960    0.874020    0.052270
  N      1.384050   -0.091100    0.769660
  N      1.013390   -1.337320    0.626940
  C      0.101820   -1.722600   -0.247280
  C     -0.521070   -0.756300   -1.086830
  C     -0.105490    0.605880   -0.922850
  N     -0.746090    1.426790   -1.754810
  S     -1.762880    0.564040   -2.645840
  N     -1.449510   -0.889630   -2.029990
  C     -0.205290   -3.119130   -0.295110
  S      0.632730   -4.200270    0.767350
  C     -0.228720   -5.568290    0.127340
  C     -1.135230   -5.164870   -0.858400
  C     -1.110680   -3.778650   -1.090550
  C     -2.045480   -5.997370   -1.533320
  N     -2.837000   -6.611740   -2.092060
  C      0.069550   -6.857000    0.642730
  C     -0.346780   -8.030400    0.102130
  C     -0.074640   -9.350550    0.546080
  N      0.392400   -9.790340    1.766810
  C      0.681110   -9.025630    2.956580
  C      2.148520   -8.606110    3.021930
  C      0.526080  -11.190670    1.800420
  O      0.915490  -11.799520    2.779600
  C      0.105660  -11.631240    0.491820
  C     -0.264320  -10.480780   -0.244710
  C     -0.682970  -10.901430   -1.564030
  O     -1.058410  -10.290770   -2.538720
  N     -0.565710  -12.309640   -1.522900
  C     -0.866670  -13.112230   -2.682880
  C      0.397250  -13.526010   -3.433120
  C     -0.088660  -12.753460   -0.313890
  C      0.129870  -14.120640   -0.005500
  C      0.639520  -14.519780    1.186670
  C      0.874420  -15.874880    1.545820
  S      1.568610  -16.224510    3.100860
  C      1.531180  -17.930110    2.799160
  C      1.878630  -18.909070    3.842110
  O      1.464560  -20.038390    3.840830
  O      2.671060  -18.467340    4.831240
  C      1.005690  -18.199460    1.545030
  C      0.633310  -17.040510    0.849080
  C      0.882220  -19.540680    0.988090
  N     -0.215060  -19.845070    0.337510
  N     -0.432570  -21.040750   -0.162430
  C      0.404220  -22.026570   -0.002790
  C      1.638890  -21.824280    0.649340
  C      1.914000  -20.503630    1.127850
  N      3.138930  -20.393350    1.638430
  S      3.840630  -21.833970    1.569680
  N      2.661500  -22.654330    0.860140
  H      1.245100    1.871460    0.238050
  H     -1.733040   -3.277250   -1.810350
  H      0.727160   -6.843580    1.498060
  H     -0.917100   -8.009500   -0.817900
  H      0.467430   -9.685270    3.803710
  H      0.009650   -8.166150    3.003990
  H      2.776000   -9.491260    3.087500
  H      2.318770   -7.992850    3.902550
  H      2.441810   -8.044220    2.137700
  H     -1.485680  -12.484010   -3.329590
  H     -1.447570  -13.988780   -2.382680
  H      0.936550  -12.642020   -3.764180
  H      0.130430  -14.116700   -4.304970
  H      1.055270  -14.115040   -2.797670
  H     -0.125880  -14.852870   -0.756600
  H      0.891210  -13.774220    1.930000
  H      2.939360  -17.544740    4.722620
  H      0.199720  -17.080710   -0.132620
  H      0.119140  -22.985960   -0.406430

 Total Charge           Charge          ....    0
 Multiplicity           Mult            ....    1
 Number of Electrons    NEL             ....  384
 Basis Dimension        Dim             ....  825

ORBITAL ENERGIES
----------------

  NO   OCC          E(Eh)            E(eV)
   0   2.0000     -89.052773     -2423.2491
   1   2.0000     -89.040315     -2422.9102
   2   2.0000     -88.984621     -2421.3946
   3   2.0000     -88.975913     -2421.1577
   4   2.0000     -19.266989      -524.2814
   5   2.0000     -19.203334      -522.5493
   6   2.0000     -19.192686      -522.2595
   7   2.0000     -19.192472      -522.2537
   8   2.0000     -14.467754      -393.6876
   9   2.0000     -14.465392      -393.6233
  10   2.0000     -14.455732      -393.3605
  11   2.0000     -14.455545      -393.3554
  12   2.0000     -14.452705      -393.2781
  13   2.0000     -14.452564      -393.2742
  14   2.0000     -14.449528      -393.1917
  15   2.0000     -14.448615      -393.1668
  16   2.0000     -14.441462      -392.9722
  17   2.0000     -14.439060      -392.9068
  18   2.0000     -14.404082      -391.9550
  19   2.0000     -10.414488      -283.3926
  20   2.0000     -10.375874      -282.3419
  21   2.0000     -10.374955      -282.3169
  22   2.0000     -10.350903      -281.6624
  23   2.0000     -10.350023      -281.6384
  24   2.0000     -10.347380      -281.5665
  25   2.0000     -10.346929      -281.5543
  26   2.0000     -10.338642      -281.3288
  27   2.0000     -10.337886      -281.3082
  28   2.0000     -10.335177      -281.2345
  29   2.0000     -10.334181      -281.2073
  30   2.0000     -10.332194      -281.1533
  31   2.0000     -10.329844      -281.0893
  32   2.0000     -10.327838      -281.0348
  33   2.0000     -10.324118      -280.9335
  34   2.0000     -10.323926      -280.9283
  35   2.0000     -10.318682      -280.7856
  36   2.0000     -10.316464      -280.7253
  37   2.0000     -10.310220      -280.5553
  38   2.0000     -10.309911      -280.5469
  39   2.0000     -10.309292      -280.5301
  40   2.0000     -10.306499      -280.4541
  41   2.0000     -10.304507      -280.3999
  42   2.0000     -10.304263      -280.3933
  43   2.0000     -10.300339      -280.2865
  44   2.0000     -10.299908      -280.2747
  45   2.0000     -10.299525      -280.2643
  46   2.0000     -10.297771      -280.2166
  47   2.0000     -10.266095      -279.3546
  48   2.0000     -10.265738      -279.3449
  49   2.0000     -10.265132      -279.3284
  50   2.0000     -10.262585      -279.2591
  51   2.0000      -8.144402      -221.6204
  52   2.0000      -8.132079      -221.2851
  53   2.0000      -8.080332      -219.8770
  54   2.0000      -8.070769      -219.6168
  55   2.0000      -6.115487      -166.4109
  56   2.0000      -6.107601      -166.1963
  57   2.0000      -6.107173      -166.1846
  58   2.0000      -6.103064      -166.0728
  59   2.0000      -6.095250      -165.8602
  60   2.0000      -6.094945      -165.8519
  61   2.0000      -6.049467      -164.6144
  62   2.0000      -6.045273      -164.5002
  63   2.0000      -6.042790      -164.4327
  64   2.0000      -6.039982      -164.3563
  65   2.0000      -6.035778      -164.2419
  66   2.0000      -6.033113      -164.1694
  67   2.0000      -1.190220       -32.3875
  68   2.0000      -1.154936       -31.4274
  69   2.0000      -1.142949       -31.1012
  70   2.0000      -1.135457       -30.8974
  71   2.0000      -1.128766       -30.7153
  72   2.0000      -1.125399       -30.6237
  73   2.0000      -1.115141       -30.3445
  74   2.0000      -1.103146       -30.0181
  75   2.0000      -1.065726       -28.9999
  76   2.0000      -1.056409       -28.7463
  77   2.0000      -1.016545       -27.6616
  78   2.0000      -1.011803       -27.5326
  79   2.0000      -1.003227       -27.2992
  80   2.0000      -0.991401       -26.9774
  81   2.0000      -0.984163       -26.7804
  82   2.0000      -0.945853       -25.7380
  83   2.0000      -0.939223       -25.5576
  84   2.0000      -0.931424       -25.3453
  85   2.0000      -0.923615       -25.1328
  86   2.0000      -0.917893       -24.9771
  87   2.0000      -0.911516       -24.8036
  88   2.0000      -0.909840       -24.7580
  89   2.0000      -0.877819       -23.8867
  90   2.0000      -0.866528       -23.5794
  91   2.0000      -0.857281       -23.3278
  92   2.0000      -0.855440       -23.2777
  93   2.0000      -0.850317       -23.1383
  94   2.0000      -0.822923       -22.3929
  95   2.0000      -0.807754       -21.9801
  96   2.0000      -0.794911       -21.6306
  97   2.0000      -0.784036       -21.3347
  98   2.0000      -0.779927       -21.2229
  99   2.0000      -0.762837       -20.7579
 100   2.0000      -0.751173       -20.4405
 101   2.0000      -0.744476       -20.2582
 102   2.0000      -0.732892       -19.9430
 103   2.0000      -0.731211       -19.8973
 104   2.0000      -0.724019       -19.7016
 105   2.0000      -0.716095       -19.4859
 106   2.0000      -0.709509       -19.3067
 107   2.0000      -0.703852       -19.1528
 108   2.0000      -0.690731       -18.7957
 109   2.0000      -0.682762       -18.5789
 110   2.0000      -0.677467       -18.4348
 111   2.0000      -0.665753       -18.1161
 112   2.0000      -0.654900       -17.8207
 113   2.0000      -0.651062       -17.7163
 114   2.0000      -0.645183       -17.5563
 115   2.0000      -0.634187       -17.2571
 116   2.0000      -0.626689       -17.0531
 117   2.0000      -0.617799       -16.8112
 118   2.0000      -0.611346       -16.6356
 119   2.0000      -0.603590       -16.4245
 120   2.0000      -0.594195       -16.1689
 121   2.0000      -0.589621       -16.0444
 122   2.0000      -0.584239       -15.8979
 123   2.0000      -0.579500       -15.7690
 124   2.0000      -0.579286       -15.7632
 125   2.0000      -0.568687       -15.4747
 126   2.0000      -0.565985       -15.4012
 127   2.0000      -0.558276       -15.1914
 128   2.0000      -0.553001       -15.0479
 129   2.0000      -0.549454       -14.9514
 130   2.0000      -0.547833       -14.9073
 131   2.0000      -0.544415       -14.8143
 132   2.0000      -0.541504       -14.7351
 133   2.0000      -0.536651       -14.6030
 134   2.0000      -0.534830       -14.5535
 135   2.0000      -0.533905       -14.5283
 136   2.0000      -0.525684       -14.3046
 137   2.0000      -0.522872       -14.2281
 138   2.0000      -0.520070       -14.1518
 139   2.0000      -0.516293       -14.0490
 140   2.0000      -0.511235       -13.9114
 141   2.0000      -0.506053       -13.7704
 142   2.0000      -0.503785       -13.7087
 143   2.0000      -0.501838       -13.6557
 144   2.0000      -0.501171       -13.6376
 145   2.0000      -0.495077       -13.4717
 146   2.0000      -0.490205       -13.3392
 147   2.0000      -0.488402       -13.2901
 148   2.0000      -0.484774       -13.1914
 149   2.0000      -0.478236       -13.0135
 150   2.0000      -0.473381       -12.8814
 151   2.0000      -0.470117       -12.7925
 152   2.0000      -0.466196       -12.6858
 153   2.0000      -0.463551       -12.6139
 154   2.0000      -0.458786       -12.4842
 155   2.0000      -0.457758       -12.4562
 156   2.0000      -0.451646       -12.2899
 157   2.0000      -0.451566       -12.2877
 158   2.0000      -0.446403       -12.1472
 159   2.0000      -0.445703       -12.1282
 160   2.0000      -0.441876       -12.0240
 161   2.0000      -0.439625       -11.9628
 162   2.0000      -0.436406       -11.8752
 163   2.0000      -0.432053       -11.7568
 164   2.0000      -0.431414       -11.7394
 165   2.0000      -0.429804       -11.6956
 166   2.0000      -0.428177       -11.6513
 167   2.0000      -0.425928       -11.5901
 168   2.0000      -0.421164       -11.4605
 169   2.0000      -0.403583       -10.9820
 170   2.0000      -0.402959       -10.9651
 171   2.0000      -0.397726       -10.8227
 172   2.0000      -0.393272       -10.7015
 173   2.0000      -0.392657       -10.6847
 174   2.0000      -0.385528       -10.4907
 175   2.0000      -0.382085       -10.3971
 176   2.0000      -0.380149       -10.3444
 177   2.0000      -0.378008       -10.2861
 178   2.0000      -0.369602       -10.0574
 179   2.0000      -0.359111        -9.7719
 180   2.0000      -0.353434        -9.6174
 181   2.0000      -0.352697        -9.5974
 182   2.0000      -0.349812        -9.5189
 183   2.0000      -0.334387        -9.0991
 184   2.0000      -0.333734        -9.0814
 185   2.0000      -0.326461        -8.8835
 186   2.0000      -0.317903        -8.6506
 187   2.0000      -0.312123        -8.4933
 188   2.0000      -0.307573        -8.3695
 189   2.0000      -0.303078        -8.2472
 190   2.0000      -0.295151        -8.0315
 191   2.0000      -0.238384        -6.4868
 192   0.0000      -0.103254        -2.8097
 193   0.0000      -0.085385        -2.3234
 194   0.0000      -0.077082        -2.0975
 195   0.0000      -0.048923        -1.3313
 196   0.0000      -0.016137        -0.4391

MULLIKEN ATOMIC CHARGES
-----------------------
   0 C :   -0.011346
   1 N :   -0.035648
   2 N :   -0.070975
   3 C :    0.043309
   4 C :    0.009548
   5 C :    0.042016
   6 N :   -0.249997
   7 S :    0.544221
   8 N :   -0.257252
   9 C :   -0.128865
  10 S :    0.205204
  11 C :   -0.060560
  12 C :   -0.064326
  13 C :    0.006732
  14 C :   -0.187504
  15 N :    0.140073
  16 C :    0.041732
  17 C :   -0.030679
  18 C :    0.095335
  19 N :   -0.265049
  20 C :    0.107102
  21 C :    0.002595
  22 C :    0.160188
  23 O :   -0.222506
  24 C :   -0.064863
  25 C :   -0.030213
  26 C :    0.150850
  27 O :   -0.171654
  28 N :   -0.266776
  29 C :    0.096249
  30 C :    0.001921
  31 C :    0.144103
  32 C :   -0.027897
  33 C :    0.089970
  34 C :   -0.077586
  35 S :    0.142887
  36 C :   -0.212298
  37 C :    0.199861
  38 O :   -0.184879
  39 O :   -0.151939
  40 C :    0.094320
  41 C :    0.009779
  42 C :   -0.078693
  43 N :   -0.045241
  44 N :   -0.048963
  45 C :   -0.005357
  46 C :    0.038178
  47 C :    0.065179
  48 N :   -0.248416
  49 S :    0.540657
  50 N :   -0.255404
  51 H :    0.007371
  52 H :    0.009145
  53 H :   -0.022974
  54 H :    0.031040
  55 H :    0.037804
  56 H :    0.025890
  57 H :    0.031934
  58 H :    0.022934
  59 H :    0.020087
  60 H :    0.048817
  61 H :    0.026328
  62 H :    0.031223
  63 H :    0.026651
  64 H :    0.012993
  65 H :   -0.022409
  66 H :    0.009822
  67 H :    0.181637
  68 H :   -0.001927
  69 H :    0.006511
Sum of atomic charges:   -0.0000000

LOEWDIN ATOMIC CHARGES
----------------------
   0 C :    0.005402
   1 N :   -0.032822
   2 N :   -0.071681
   3 C :   -0.014073
   4 C :   -0.059185
   5 C :   -0.067995
   6 N :   -0.267203
   7 S :    0.679803
   8 N :   -0.271589
   9 C :   -0.187300
  10 S :    0.501891
  11 C :   -0.131617
  12 C :   -0.107694
  13 C :   -0.001394
  14 C :   -0.035203
  15 N :   -0.046142
  16 C :   -0.043736
  17 C :   -0.004128
  18 C :    0.060560
  19 N :   -0.000767
  20 C :    0.035925
  21 C :   -0.063215
  22 C :    0.079135
  23 O :   -0.211444
  24 C :   -0.129816
  25 C :   -0.102290
  26 C :    0.082104
  27 O :   -0.176031
  28 N :   -0.004174
  29 C :    0.036149
  30 C :   -0.061299
  31 C :    0.087503
  32 C :   -0.041141
  33 C :    0.015628
  34 C :   -0.160683
  35 S :    0.465752
  36 C :   -0.221742
  37 C :    0.066339
  38 O :   -0.159393
  39 O :   -0.026314
  40 C :   -0.027561
  41 C :   -0.015311
  42 C :    0.003012
  43 N :   -0.047587
  44 N :   -0.042253
  45 C :    0.017635
  46 C :   -0.067753
  47 C :   -0.056291
  48 N :   -0.271431
  49 S :    0.683923
  50 N :   -0.272136
  51 H :    0.036186
  52 H :    0.041385
  53 H :    0.028925
  54 H :    0.053802
  55 H :    0.036408
  56 H :    0.024342
  57 H :    0.033824
  58 H :    0.030771
  59 H :    0.020412
  60 H :    0.040107
  61 H :    0.023894
  62 H :    0.032942
  63 H :    0.031876
  64 H :    0.020703
  65 H :    0.030531
  66 H :    0.037408
  67 H :    0.082253
  68 H :    0.038155
  69 H :    0.035707

  Mayer bond orders larger than 0.100000
B(  0-C ,  1-N ) :   1.7357 B(  0-C ,  3-C ) :   0.1042 B(  0-C ,  5-C ) :   1.1283
B(  0-C , 51-H ) :   1.0147 B(  1-N ,  2-N ) :   1.1989 B(  2-N ,  3-C ) :   1.7514
B(  3-C ,  4-C ) :   1.1199 B(  3-C ,  9-C ) :   1.1234 B(  4-C ,  5-C ) :   1.2007
B(  4-C ,  8-N ) :   1.5469 B(  5-C ,  6-N ) :   1.5007 B(  6-N ,  7-S ) :   1.3012
B(  6-N ,  8-N ) :   0.1469 B(  7-S ,  8-N ) :   1.2693 B(  9-C , 10-S ) :   1.1106
B(  9-C , 13-C ) :   1.5162 B( 10-S , 11-C ) :   1.1429 B( 11-C , 12-C ) :   1.4436
B( 11-C , 16-C ) :   1.1474 B( 12-C , 13-C ) :   1.2728 B( 12-C , 14-C ) :   1.1064
B( 13-C , 52-H ) :   0.9917 B( 14-C , 15-N ) :   2.9944 B( 16-C , 17-C ) :   1.6016
B( 16-C , 53-H ) :   0.9457 B( 17-C , 18-C ) :   1.1945 B( 17-C , 54-H ) :   0.9365
B( 18-C , 19-N ) :   1.1572 B( 18-C , 25-C ) :   1.3529 B( 19-N , 20-C ) :   0.9430
B( 19-N , 22-C ) :   1.0727 B( 20-C , 21-C ) :   1.1165 B( 20-C , 55-H ) :   0.9282
B( 20-C , 56-H ) :   0.9503 B( 21-C , 57-H ) :   0.9597 B( 21-C , 58-H ) :   0.9691
B( 21-C , 59-H ) :   0.9655 B( 22-C , 23-O ) :   2.0017 B( 22-C , 24-C ) :   0.9957
B( 23-O , 66-H ) :   0.1204 B( 24-C , 25-C ) :   1.2478 B( 24-C , 31-C ) :   1.3195
B( 25-C , 26-C ) :   0.9664 B( 26-C , 27-O ) :   2.1507 B( 26-C , 28-N ) :   1.0222
B( 28-N , 29-C ) :   0.9442 B( 28-N , 31-C ) :   1.1755 B( 29-C , 30-C ) :   1.1200
B( 29-C , 60-H ) :   0.9278 B( 29-C , 61-H ) :   0.9501 B( 30-C , 62-H ) :   0.9639
B( 30-C , 63-H ) :   0.9678 B( 30-C , 64-H ) :   0.9686 B( 31-C , 32-C ) :   1.1602
B( 32-C , 33-C ) :   1.6356 B( 32-C , 65-H ) :   0.9645 B( 33-C , 34-C ) :   1.1102
B( 33-C , 66-H ) :   0.9338 B( 34-C , 35-S ) :   1.1476 B( 34-C , 41-C ) :   1.4447
B( 35-S , 36-C ) :   1.1166 B( 36-C , 37-C ) :   0.9291 B( 36-C , 40-C ) :   1.5341
B( 37-C , 38-O ) :   2.1453 B( 37-C , 39-O ) :   1.2499 B( 39-O , 67-H ) :   0.9482
B( 40-C , 41-C ) :   1.3121 B( 40-C , 42-C ) :   0.9913 B( 41-C , 68-H ) :   1.0029
B( 42-C , 43-N ) :   1.7804 B( 42-C , 45-C ) :   0.1072 B( 42-C , 47-C ) :   1.1226
B( 43-N , 44-N ) :   1.1782 B( 44-N , 45-C ) :   1.7477 B( 45-C , 46-C ) :   1.1290
B( 45-C , 69-H ) :   1.0137 B( 46-C , 47-C ) :   1.2084 B( 46-C , 50-N ) :   1.4951
B( 47-C , 48-N ) :   1.5427 B( 48-N , 49-S ) :   1.2886 B( 48-N , 50-N ) :   0.1492
B( 49-S , 50-N ) :   1.3052

-----------------------------------------------------------------------------
         ABSORPTION SPECTRUM VIA TRANSITION ELECTRIC DIPOLE MOMENTS
-----------------------------------------------------------------------------
State   Energy  Wavelength   fosc         T2         TX        TY        TZ
        (cm-1)    (nm)                  (au**2)     (au)      (au)      (au)
-----------------------------------------------------------------------------
   0   14853.4    673.2   1.118234877  24.78460   0.19113  -4.97446  -0.05275
   1   20263.0    493.5   0.009629070   0.15644  -0.18406  -0.27698   0.21413
   2   20885.4    478.8   0.000048059   0.00076  -0.00902  -0.02559   0.00462
   3   21837.4    457.9   0.000993651   0.01498   0.05659  -0.02679   0.10517
   4   23374.8    427.8   0.014110679   0.19874   0.01862   0.23150   0.38052
   5   25012.8    399.8   0.046502052   0.61205   0.01089   0.74497  -0.23865
   6   26551.4    376.6   0.298680499   3.70335   0.08019  -1.88388   0.38460
   7   27117.4    368.8   0.138891511   1.68618  -0.07110   1.27922  -0.21146
   8   28567.5    350.0   0.001921443   0.02214   0.03278  -0.14242  -0.02803
   9   29628.9    337.5   0.387556611   4.30622   0.56260  -1.67756   1.08421
  10   30440.2    328.5   0.026108188   0.28236   0.27814  -0.32163   0.31867
  11   30630.8    326.5   0.017706732   0.19031   0.03582  -0.38594   0.20018
  12   31964.8    312.8   0.002838083   0.02923   0.06731  -0.13817   0.07488
  13   32387.1    308.8   0.136365408   1.38614  -0.15020   1.16732  -0.03066
  14   32968.8    303.3   0.034810368   0.34760   0.35936   0.29748   0.36051
  15   33340.8    299.9   0.002476868   0.02446  -0.11534  -0.01263   0.10485
  16   33700.6    296.7   0.477020851   4.65989  -0.47755   1.77005  -1.13963
  17   34500.0    289.9   0.178127046   1.69976   0.23719   0.37309   1.22650
  18   35742.5    279.8   0.023723283   0.21851   0.20776  -0.32427   0.26495
  19   36791.5    271.8   0.053702312   0.48053  -0.13418  -0.65437  -0.18527
  20   37471.5    266.9   0.007601735   0.06679   0.04689   0.16928   0.18955
  21   37548.2    266.3   0.007975495   0.06993   0.14477  -0.10950  -0.19230
  22   37942.7    263.6   0.005322247   0.04618  -0.18059   0.07076   0.09252
  23   37991.1    263.2   0.009655293   0.08367   0.00773  -0.20701   0.20188
  24   38252.4    261.4   0.106060234   0.91279   0.36320   0.85628   0.21831
  25   38393.9    260.5   0.086008140   0.73748  -0.12756   0.72194  -0.44723
  26   39146.3    255.5   0.006875800   0.05782  -0.21024   0.03725   0.11062
  27   39273.8    254.6   0.011329886   0.09497  -0.09862  -0.28879   0.04293
  28   39358.7    254.1   0.005432664   0.04544  -0.01717   0.20884  -0.03914
  29   39441.9    253.5   0.013617367   0.11366   0.14385  -0.27684   0.12778
  30   39729.9    251.7   0.030926588   0.25627  -0.00887   0.31493  -0.39624
  31   40068.6    249.6   0.006488726   0.05331  -0.09364   0.14931   0.14917

FINAL SINGLE POINT ENERGY     -3723.552663386095

DIPOLE MOMENT
-------------
                                X             Y             Z
Electronic contribution:     -0.10643       4.04216       3.77558
Nuclear contribution   :      1.52639      -2.46687      -4.31702
                        -----------------------------------------
Total Dipole Moment    :      1.41996       1.57529      -0.54144
                        -----------------------------------------
Magnitude (a.u.)       :      2.18884
Magnitude (Debye)      :      5.56358

Rotational constants in cm-1:     0.005628     0.000384     0.000367
Rotational constants in MHz :   168.713782    11.512697    10.989411

                             ****ORCA TERMINATED NORMALLY****
TOTAL RUN TIME: 0 days 0 hours 5 minutes 5 seconds 581 msec
