                         Program Version 4.2.0 -  RELEASE  -
|  1> # ORCA input file
|  2> # SCF done       -171.978925317219          0.000483956641
|  3> ! CAM-B3LYP def2-SVP def2/J RIJCOSX Grid4 TightSCF
|  4> %maxcore 5000
|  5> %tddft
|  6>     Mode sTDDFT
|  7>     Ethresh 5.0
|  8>     maxcore 5000
|  9> end
| 10>
| 11> %pal
| 12>   nprocs 6
| 13>   end
| 14> * xyz 0 1
| 15>    C       -0.15785        -0.14709        -0.29025
| 16>    C        0.63261        -0.99825         0.43033
| 17>    F        1.84627        -0.59838         0.83920
| 18>    C        0.22704        -2.31010         0.75987
| 19>    F        1.09489        -3.09451         1.43165
| 20>    C       -0.99266        -2.82402         0.37899
| 21>    C       -1.83657        -1.95776        -0.35395
| 22>    C       -1.41430        -0.62574        -0.69415
| 23>    N       -2.34601         0.02199        -1.39481
| 24>    S       -3.60611        -0.94771        -1.59824
| 25>    N       -3.06142        -2.22706        -0.80058
| 26>    C       -1.38092        -4.19299         0.66610
| 27>    C       -1.76270        -5.15491        -0.24221
| 28>    N       -1.86815        -5.01505        -1.64067
| 29>    O       -1.36508        -4.03568        -2.16465
| 30>    O       -2.43678        -5.90323        -2.24781
| 31>    C       -1.98100        -6.40572         0.44831
| 32>    C       -1.67103        -6.22969         1.75209
| 33>    C       -1.31191        -4.84096         1.96213
| 34>    C       -1.11930        -4.21464         3.17820
| 35>    C       -1.44933        -2.87225         3.51280
| 36>    C       -1.46535        -2.75227         4.87481
| 37>    C       -1.06275        -3.98959         5.46374
| 38>    N       -0.90054        -4.17102         6.84219
| 39>    O       -1.16087        -3.22725         7.57007
| 40>    O       -0.51721        -5.26067         7.24742
| 41>    C       -0.77480        -4.90206         4.44363
| 42>    C       -0.12100        -6.13157         4.54809
| 43>    C        0.62578        -6.68700         3.53338
| 44>    C        1.25465        -7.92799         3.60870
| 45>    S        0.96293        -9.09004         4.89072
| 46>    C        2.06105       -10.27601         4.23814
| 47>    C        2.64660        -9.78578         3.05739
| 48>    C        2.17788        -8.48758         2.71773
| 49>    N        2.77679        -8.09675         1.56995
| 50>    C        3.61618        -9.10965         1.15731
| 51>    C        4.39178        -9.01140        -0.00747
| 52>    N        5.03443        -8.94396        -0.95486
| 53>    C        3.55981       -10.16396         2.04706
| 54>    C        2.19365       -11.50725         4.90312
| 55>    C        3.10565       -12.46804         4.58306
| 56>    C        3.20960       -13.73017         5.21149
| 57>    S        4.48126       -14.81351         4.73400
| 58>    C        3.93851       -16.03754         5.83277
| 59>    C        4.59621       -17.34370         6.01436
| 60>    O        4.21046       -18.13045         6.83590
| 61>    O        5.64730       -17.60870         5.22694
| 62>    C        2.82406       -15.62908         6.52240
| 63>    C        2.41574       -14.32875         6.19395
| 64>    O        1.32444       -13.68985         6.68553
| 65>    C        0.86500       -13.99866         7.93076
| 66>    C       -0.48820       -13.88976         8.18009
| 67>    F       -1.31190       -13.54903         7.17874
| 68>    C       -1.03550       -14.12789         9.46160
| 69>    F       -2.35952       -14.00531         9.60043
| 70>    C       -0.26576       -14.48105        10.53410
| 71>    C        1.11707       -14.58486        10.32187
| 72>    C        1.69321       -14.33769         9.02477
| 73>    N        3.02247       -14.45866         9.03492
| 74>    S        3.49033       -14.85705        10.51852
| 75>    N        2.05395       -14.88715        11.22114
| 76>    H        0.17237         0.84479        -0.54703
| 77>    H       -2.32625        -7.29678        -0.03914
| 78>    H       -1.77784        -6.94928         2.53971
| 79>    H       -1.76017        -2.12354         2.81011
| 80>    H       -1.73221        -1.88319         5.44689
| 81>    H       -0.12021        -6.60975         5.52003
| 82>    H        0.79438        -6.11352         2.63078
| 83>    H        2.64981        -7.22178         1.08780
| 84>    H        4.11165       -11.07658         1.95140
| 85>    H        1.51242       -11.67738         5.72307
| 86>    H        3.82490       -12.27725         3.80040
| 87>    H        5.85653       -16.89744         4.60624
| 88>    H        2.32570       -16.27461         7.22173
| 89>    H       -0.69772       -14.66385        11.50260
| 90> *
| 91>
| 92>                          ****END OF INPUT****

CARTESIAN COORDINATES (ANGSTROEM)
---------------------------------
  C     -0.157850   -0.147090   -0.290250
  C      0.632610   -0.998250    0.430330
  F      1.846270   -0.598380    0.839200
  C      0.227040   -2.310100    0.759870
  F      1.094890   -3.094510    1.431650
  C     -0.992660   -2.824020    0.378990
  C     -1.836570   -1.957760   -0.353950
  C     -1.414300   -0.625740   -0.694150
  N     -2.346010    0.021990   -1.394810
  S     -3.606110   -0.947710   -1.598240
  N     -3.061420   -2.227060   -0.800580
  C     -1.380920   -4.192990    0.666100
  C     -1.762700   -5.154910   -0.242210
  N     -1.868150   -5.015050   -1.640670
  O     -1.365080   -4.035680   -2.164650
  O     -2.436780   -5.903230   -2.247810
  C     -1.981000   -6.405720    0.448310
  C     -1.671030   -6.229690    1.752090
  C     -1.311910   -4.840960    1.962130
  C     -1.119300   -4.214640    3.178200
  C     -1.449330   -2.872250    3.512800
  C     -1.465350   -2.752270    4.874810
  C     -1.062750   -3.989590    5.463740
  N     -0.900540   -4.171020    6.842190
  O     -1.160870   -3.227250    7.570070
  O     -0.517210   -5.260670    7.247420
  C     -0.774800   -4.902060    4.443630
  C     -0.121000   -6.131570    4.548090
  C      0.625780   -6.687000    3.533380
  C      1.254650   -7.927990    3.608700
  S      0.962930   -9.090040    4.890720
  C      2.061050  -10.276010    4.238140
  C      2.646600   -9.785780    3.057390
  C      2.177880   -8.487580    2.717730
  N      2.776790   -8.096750    1.569950
  C      3.616180   -9.109650    1.157310
  C      4.391780   -9.011400   -0.007470
  N      5.034430   -8.943960   -0.954860
  C      3.559810  -10.163960    2.047060
  C      2.193650  -11.507250    4.903120
  C      3.105650  -12.468040    4.583060
  C      3.209600  -13.730170    5.211490
  S      4.481260  -14.813510    4.734000
  C      3.938510  -16.037540    5.832770
  C      4.596210  -17.343700    6.014360
  O      4.210460  -18.130450    6.835900
  O      5.647300  -17.608700    5.226940
  C      2.824060  -15.629080    6.522400
  C      2.415740  -14.328750    6.193950
  O      1.324440  -13.689850    6.685530
  C      0.865000  -13.998660    7.930760
  C     -0.488200  -13.889760    8.180090
  F     -1.311900  -13.549030    7.178740
  C     -1.035500  -14.127890    9.461600
  F     -2.359520  -14.005310    9.600430
  C     -0.265760  -14.481050   10.534100
  C      1.117070  -14.584860   10.321870
  C      1.693210  -14.337690    9.024770
  N      3.022470  -14.458660    9.034920
  S      3.490330  -14.857050   10.518520
  N      2.053950  -14.887150   11.221140
  H      0.172370    0.844790   -0.547030
  H     -2.326250   -7.296780   -0.039140
  H     -1.777840   -6.949280    2.539710
  H     -1.760170   -2.123540    2.810110
  H     -1.732210   -1.883190    5.446890
  H     -0.120210   -6.609750    5.520030
  H      0.794380   -6.113520    2.630780
  H      2.649810   -7.221780    1.087800
  H      4.111650  -11.076580    1.951400
  H      1.512420  -11.677380    5.723070
  H      3.824900  -12.277250    3.800400
  H      5.856530  -16.897440    4.606240
  H      2.325700  -16.274610    7.221730
  H     -0.697720  -14.663850   11.502600

 Total Charge           Charge          ....    0
 Multiplicity           Mult            ....    1
 Number of Electrons    NEL             ....  454
 Basis Dimension        Dim             ....  940

ORBITAL ENERGIES
----------------

  NO   OCC          E(Eh)            E(eV)
   0   2.0000     -89.044615     -2423.0272
   1   2.0000     -89.025258     -2422.5004
   2   2.0000     -88.992583     -2421.6113
   3   2.0000     -88.989849     -2421.5369
   4   2.0000     -24.814395      -675.2340
   5   2.0000     -24.810339      -675.1236
   6   2.0000     -24.808535      -675.0746
   7   2.0000     -24.798097      -674.7905
   8   2.0000     -19.313181      -525.5384
   9   2.0000     -19.275363      -524.5093
  10   2.0000     -19.237544      -523.4802
  11   2.0000     -19.236394      -523.4489
  12   2.0000     -19.222725      -523.0769
  13   2.0000     -19.222665      -523.0753
  14   2.0000     -19.209276      -522.7110
  15   2.0000     -14.644473      -398.4964
  16   2.0000     -14.632958      -398.1830
  17   2.0000     -14.504951      -394.6998
  18   2.0000     -14.459414      -393.4607
  19   2.0000     -14.455819      -393.3628
  20   2.0000     -14.438743      -392.8982
  21   2.0000     -14.438207      -392.8836
  22   2.0000     -14.432203      -392.7202
  23   2.0000     -10.420676      -283.5610
  24   2.0000     -10.398822      -282.9663
  25   2.0000     -10.398289      -282.9518
  26   2.0000     -10.386539      -282.6321
  27   2.0000     -10.386485      -282.6306
  28   2.0000     -10.384149      -282.5671
  29   2.0000     -10.374391      -282.3015
  30   2.0000     -10.369245      -282.1615
  31   2.0000     -10.352193      -281.6975
  32   2.0000     -10.352110      -281.6952
  33   2.0000     -10.349542      -281.6253
  34   2.0000     -10.348147      -281.5874
  35   2.0000     -10.337695      -281.3030
  36   2.0000     -10.332455      -281.1604
  37   2.0000     -10.331086      -281.1232
  38   2.0000     -10.330803      -281.1154
  39   2.0000     -10.330714      -281.1130
  40   2.0000     -10.329821      -281.0887
  41   2.0000     -10.329537      -281.0810
  42   2.0000     -10.327857      -281.0353
  43   2.0000     -10.324135      -280.9340
  44   2.0000     -10.322544      -280.8907
  45   2.0000     -10.319886      -280.8184
  46   2.0000     -10.318436      -280.7789
  47   2.0000     -10.316751      -280.7331
  48   2.0000     -10.314181      -280.6631
  49   2.0000     -10.313462      -280.6436
  50   2.0000     -10.312537      -280.6184
  51   2.0000     -10.311348      -280.5861
  52   2.0000     -10.311298      -280.5847
  53   2.0000     -10.310881      -280.5733
  54   2.0000     -10.310750      -280.5698
  55   2.0000     -10.300905      -280.3019
  56   2.0000     -10.300801      -280.2990
  57   2.0000     -10.299969      -280.2764
  58   2.0000     -10.287457      -279.9359
  59   2.0000     -10.285772      -279.8901
  60   2.0000     -10.278965      -279.7049
  61   2.0000      -8.136278      -221.3994
  62   2.0000      -8.117126      -220.8782
  63   2.0000      -8.088467      -220.0984
  64   2.0000      -8.084614      -219.9935
  65   2.0000      -6.107434      -166.1917
  66   2.0000      -6.099624      -165.9792
  67   2.0000      -6.098829      -165.9576
  68   2.0000      -6.088264      -165.6701
  69   2.0000      -6.080500      -165.4588
  70   2.0000      -6.079654      -165.4358
  71   2.0000      -6.057729      -164.8392
  72   2.0000      -6.053905      -164.7351
  73   2.0000      -6.053817      -164.7327
  74   2.0000      -6.050394      -164.6396
  75   2.0000      -6.049775      -164.6228
  76   2.0000      -6.046771      -164.5410
  77   2.0000      -1.336286       -36.3622
  78   2.0000      -1.325372       -36.0652
  79   2.0000      -1.320137       -35.9228
  80   2.0000      -1.315911       -35.8078
  81   2.0000      -1.308118       -35.5957
  82   2.0000      -1.301422       -35.4135
  83   2.0000      -1.221320       -33.2338
  84   2.0000      -1.197756       -32.5926
  85   2.0000      -1.145874       -31.1808
  86   2.0000      -1.134016       -30.8581
  87   2.0000      -1.127190       -30.6724
  88   2.0000      -1.126733       -30.6600
  89   2.0000      -1.118587       -30.4383
  90   2.0000      -1.110430       -30.2163
  91   2.0000      -1.019150       -27.7325
  92   2.0000      -1.016820       -27.6691
  93   2.0000      -1.014817       -27.6146
  94   2.0000      -1.005702       -27.3665
  95   2.0000      -0.998323       -27.1658
  96   2.0000      -0.995804       -27.0972
  97   2.0000      -0.988172       -26.8895
  98   2.0000      -0.979112       -26.6430
  99   2.0000      -0.972894       -26.4738
 100   2.0000      -0.945349       -25.7243
 101   2.0000      -0.921929       -25.0870
 102   2.0000      -0.908455       -24.7203
 103   2.0000      -0.903590       -24.5879
 104   2.0000      -0.895380       -24.3645
 105   2.0000      -0.883698       -24.0466
 106   2.0000      -0.881472       -23.9861
 107   2.0000      -0.878388       -23.9022
 108   2.0000      -0.873765       -23.7763
 109   2.0000      -0.864153       -23.5148
 110   2.0000      -0.863076       -23.4855
 111   2.0000      -0.851201       -23.1624
 112   2.0000      -0.838211       -22.8089
 113   2.0000      -0.823114       -22.3981
 114   2.0000      -0.799578       -21.7576
 115   2.0000      -0.787218       -21.4213
 116   2.0000      -0.782478       -21.2923
 117   2.0000      -0.767141       -20.8750
 118   2.0000      -0.755406       -20.5557
 119   2.0000      -0.753512       -20.5041
 120   2.0000      -0.750466       -20.4212
 121   2.0000      -0.741906       -20.1883
 122   2.0000      -0.731679       -19.9100
 123   2.0000      -0.725428       -19.7399
 124   2.0000      -0.721877       -19.6433
 125   2.0000      -0.720511       -19.6061
 126   2.0000      -0.705450       -19.1963
 127   2.0000      -0.704077       -19.1589
 128   2.0000      -0.700944       -19.0737
 129   2.0000      -0.681752       -18.5514
 130   2.0000      -0.677248       -18.4288
 131   2.0000      -0.669890       -18.2286
 132   2.0000      -0.663725       -18.0609
 133   2.0000      -0.654834       -17.8189
 134   2.0000      -0.650151       -17.6915
 135   2.0000      -0.645986       -17.5782
 136   2.0000      -0.644195       -17.5295
 137   2.0000      -0.643066       -17.4987
 138   2.0000      -0.636558       -17.3216
 139   2.0000      -0.635489       -17.2925
 140   2.0000      -0.631183       -17.1754
 141   2.0000      -0.627861       -17.0850
 142   2.0000      -0.624011       -16.9802
 143   2.0000      -0.619160       -16.8482
 144   2.0000      -0.615345       -16.7444
 145   2.0000      -0.614433       -16.7196
 146   2.0000      -0.611419       -16.6376
 147   2.0000      -0.608166       -16.5490
 148   2.0000      -0.603368       -16.4185
 149   2.0000      -0.596821       -16.2403
 150   2.0000      -0.590839       -16.0776
 151   2.0000      -0.586202       -15.9514
 152   2.0000      -0.579801       -15.7772
 153   2.0000      -0.577006       -15.7011
 154   2.0000      -0.570872       -15.5342
 155   2.0000      -0.569544       -15.4981
 156   2.0000      -0.567983       -15.4556
 157   2.0000      -0.564660       -15.3652
 158   2.0000      -0.562398       -15.3036
 159   2.0000      -0.561404       -15.2766
 160   2.0000      -0.560203       -15.2439
 161   2.0000      -0.558943       -15.2096
 162   2.0000      -0.553985       -15.0747
 163   2.0000      -0.551616       -15.0102
 164   2.0000      -0.546170       -14.8620
 165   2.0000      -0.545199       -14.8356
 166   2.0000      -0.544347       -14.8124
 167   2.0000      -0.542880       -14.7725
 168   2.0000      -0.536218       -14.5912
 169   2.0000      -0.535297       -14.5662
 170   2.0000      -0.529628       -14.4119
 171   2.0000      -0.529226       -14.4010
 172   2.0000      -0.515751       -14.0343
 173   2.0000      -0.513551       -13.9744
 174   2.0000      -0.510911       -13.9026
 175   2.0000      -0.507439       -13.8081
 176   2.0000      -0.503867       -13.7109
 177   2.0000      -0.499400       -13.5894
 178   2.0000      -0.497471       -13.5369
 179   2.0000      -0.496171       -13.5015
 180   2.0000      -0.489088       -13.3088
 181   2.0000      -0.486582       -13.2406
 182   2.0000      -0.484657       -13.1882
 183   2.0000      -0.482597       -13.1321
 184   2.0000      -0.478719       -13.0266
 185   2.0000      -0.476361       -12.9624
 186   2.0000      -0.475385       -12.9359
 187   2.0000      -0.472747       -12.8641
 188   2.0000      -0.465872       -12.6770
 189   2.0000      -0.463498       -12.6124
 190   2.0000      -0.461343       -12.5538
 191   2.0000      -0.459813       -12.5122
 192   2.0000      -0.457242       -12.4422
 193   2.0000      -0.455729       -12.4010
 194   2.0000      -0.452771       -12.3205
 195   2.0000      -0.441768       -12.0211
 196   2.0000      -0.440188       -11.9781
 197   2.0000      -0.437526       -11.9057
 198   2.0000      -0.434188       -11.8149
 199   2.0000      -0.427852       -11.6424
 200   2.0000      -0.426974       -11.6186
 201   2.0000      -0.421648       -11.4736
 202   2.0000      -0.414146       -11.2695
 203   2.0000      -0.409890       -11.1537
 204   2.0000      -0.406071       -11.0497
 205   2.0000      -0.396411       -10.7869
 206   2.0000      -0.389302       -10.5934
 207   2.0000      -0.382777       -10.4159
 208   2.0000      -0.378384       -10.2964
 209   2.0000      -0.376889       -10.2557
 210   2.0000      -0.370691       -10.0870
 211   2.0000      -0.368329       -10.0227
 212   2.0000      -0.366140        -9.9632
 213   2.0000      -0.363366        -9.8877
 214   2.0000      -0.362680        -9.8690
 215   2.0000      -0.351582        -9.5670
 216   2.0000      -0.345120        -9.3912
 217   2.0000      -0.341683        -9.2977
 218   2.0000      -0.340503        -9.2656
 219   2.0000      -0.332981        -9.0609
 220   2.0000      -0.331225        -9.0131
 221   2.0000      -0.328479        -8.9384
 222   2.0000      -0.326138        -8.8747
 223   2.0000      -0.316482        -8.6119
 224   2.0000      -0.301370        -8.2007
 225   2.0000      -0.290567        -7.9067
 226   2.0000      -0.246494        -6.7075
 227   0.0000      -0.132393        -3.6026
 228   0.0000      -0.092392        -2.5141
 229   0.0000      -0.076663        -2.0861
 230   0.0000      -0.063103        -1.7171
 231   0.0000      -0.042557        -1.1580

MULLIKEN ATOMIC CHARGES
-----------------------
   0 C :   -0.123601
   1 C :    0.266597
   2 F :   -0.176202
   3 C :    0.154828
   4 F :   -0.177282
   5 C :   -0.057141
   6 C :    0.036300
   7 C :    0.054628
   8 N :   -0.266065
   9 S :    0.516551
  10 N :   -0.264891
  11 C :    0.038210
  12 C :    0.087114
  13 N :    0.268481
  14 O :   -0.242484
  15 O :   -0.243429
  16 C :   -0.004061
  17 C :    0.008507
  18 C :   -0.011734
  19 C :    0.035128
  20 C :   -0.008067
  21 C :    0.033441
  22 C :    0.070044
  23 N :    0.277943
  24 O :   -0.263602
  25 O :   -0.275354
  26 C :    0.043097
  27 C :   -0.076506
  28 C :   -0.005267
  29 C :   -0.146486
  30 S :    0.178546
  31 C :   -0.122343
  32 C :    0.109845
  33 C :    0.121297
  34 N :   -0.016341
  35 C :   -0.096605
  36 C :   -0.150150
  37 N :    0.177629
  38 C :   -0.031585
  39 C :    0.055064
  40 C :    0.043332
  41 C :   -0.128188
  42 S :    0.114489
  43 C :   -0.171485
  44 C :    0.184642
  45 O :   -0.168050
  46 O :   -0.150567
  47 C :    0.010511
  48 C :    0.246057
  49 O :   -0.246737
  50 C :    0.128234
  51 C :    0.149724
  52 F :   -0.157734
  53 C :    0.267082
  54 F :   -0.167016
  55 C :   -0.135711
  56 C :    0.092572
  57 C :   -0.022791
  58 N :   -0.285186
  59 S :    0.536524
  60 N :   -0.264786
  61 H :   -0.003221
  62 H :   -0.006077
  63 H :    0.001127
  64 H :   -0.007257
  65 H :    0.006095
  66 H :    0.028521
  67 H :    0.018814
  68 H :    0.142461
  69 H :   -0.004210
  70 H :    0.001690
  71 H :   -0.026913
  72 H :    0.182357
  73 H :    0.020005
  74 H :   -0.002364
Sum of atomic charges:   -0.0000000

LOEWDIN ATOMIC CHARGES
----------------------
   0 C :   -0.037531
   1 C :    0.067980
   2 F :   -0.051507
   3 C :    0.073675
   4 F :   -0.056560
   5 C :   -0.054377
   6 C :   -0.049184
   7 C :   -0.053778
   8 N :   -0.286092
   9 S :    0.658155
  10 N :   -0.286940
  11 C :   -0.005415
  12 C :   -0.017766
  13 N :    0.286354
  14 O :   -0.207713
  15 O :   -0.205905
  16 C :   -0.022273
  17 C :   -0.032376
  18 C :    0.007150
  19 C :    0.057689
  20 C :   -0.066334
  21 C :    0.046500
  22 C :   -0.085700
  23 N :    0.285907
  24 O :   -0.227895
  25 O :   -0.237822
  26 C :    0.023365
  27 C :   -0.032073
  28 C :    0.009262
  29 C :   -0.211251
  30 S :    0.480855
  31 C :   -0.132107
  32 C :   -0.074804
  33 C :    0.015010
  34 N :    0.089228
  35 C :   -0.025208
  36 C :   -0.047636
  37 N :   -0.027189
  38 C :   -0.027464
  39 C :   -0.041939
  40 C :   -0.018463
  41 C :   -0.183279
  42 S :    0.435709
  43 C :   -0.229361
  44 C :    0.063225
  45 O :   -0.155855
  46 O :   -0.026617
  47 C :   -0.022389
  48 C :    0.032092
  49 O :   -0.021812
  50 C :    0.015707
  51 C :    0.048890
  52 F :   -0.041152
  53 C :    0.073308
  54 F :   -0.041475
  55 C :   -0.047820
  56 C :   -0.047038
  57 C :   -0.078472
  58 N :   -0.284247
  59 S :    0.670486
  60 N :   -0.280092
  61 H :    0.051181
  62 H :    0.035023
  63 H :    0.030491
  64 H :    0.028742
  65 H :    0.039856
  66 H :    0.034541
  67 H :    0.038248
  68 H :    0.104307
  69 H :    0.035055
  70 H :    0.033367
  71 H :    0.030618
  72 H :    0.083118
  73 H :    0.044430
  74 H :    0.053390

  Mayer bond orders larger than 0.100000
B(  0-C ,  1-C ) :   1.4572 B(  0-C ,  5-C ) :   0.1366 B(  0-C ,  7-C ) :   1.1368
B(  0-C , 61-H ) :   1.0503 B(  1-C ,  2-F ) :   1.1110 B(  1-C ,  3-C ) :   1.1263
B(  3-C ,  4-F ) :   1.1519 B(  3-C ,  5-C ) :   1.4774 B(  5-C ,  6-C ) :   1.2183
B(  5-C , 11-C ) :   0.9213 B(  6-C ,  7-C ) :   1.1645 B(  6-C , 10-N ) :   1.5591
B(  7-C ,  8-N ) :   1.5145 B(  8-N ,  9-S ) :   1.2849 B(  8-N , 10-N ) :   0.1493
B(  9-S , 10-N ) :   1.2701 B( 11-C , 12-C ) :   1.6309 B( 11-C , 18-C ) :   1.1258
B( 12-C , 13-N ) :   0.9266 B( 12-C , 16-C ) :   1.1309 B( 13-N , 14-O ) :   1.5214
B( 13-N , 15-O ) :   1.5297 B( 14-O , 15-O ) :   0.2696 B( 16-C , 17-C ) :   1.5957
B( 16-C , 62-H ) :   1.0172 B( 17-C , 18-C ) :   1.1077 B( 17-C , 63-H ) :   0.9929
B( 18-C , 19-C ) :   1.4342 B( 19-C , 20-C ) :   1.2055 B( 19-C , 26-C ) :   0.9913
B( 20-C , 21-C ) :   1.4975 B( 20-C , 64-H ) :   1.0038 B( 21-C , 22-C ) :   1.1670
B( 21-C , 65-H ) :   1.0096 B( 22-C , 23-N ) :   0.9774 B( 22-C , 26-C ) :   1.4095
B( 23-N , 24-O ) :   1.5221 B( 23-N , 25-O ) :   1.4783 B( 24-O , 25-O ) :   0.2444
B( 26-C , 27-C ) :   1.3013 B( 27-C , 28-C ) :   1.4112 B( 27-C , 66-H ) :   0.9565
B( 28-C , 29-C ) :   1.2968 B( 28-C , 67-H ) :   0.9681 B( 29-C , 30-S ) :   1.0712
B( 29-C , 33-C ) :   1.2924 B( 30-S , 31-C ) :   1.1659 B( 31-C , 32-C ) :   1.2595
B( 31-C , 39-C ) :   1.1872 B( 32-C , 33-C ) :   1.2576 B( 32-C , 38-C ) :   1.1782
B( 33-C , 34-N ) :   1.2195 B( 34-N , 35-C ) :   1.1976 B( 34-N , 68-H ) :   0.9312
B( 35-C , 36-C ) :   1.0570 B( 35-C , 38-C ) :   1.5961 B( 36-C , 37-N ) :   3.0552
B( 38-C , 69-H ) :   1.0075 B( 39-C , 40-C ) :   1.6296 B( 39-C , 70-H ) :   0.9534
B( 40-C , 41-C ) :   1.1743 B( 40-C , 71-H ) :   0.9520 B( 41-C , 42-S ) :   1.1280
B( 41-C , 48-C ) :   1.4399 B( 42-S , 43-C ) :   1.0991 B( 43-C , 44-C ) :   0.9306
B( 43-C , 47-C ) :   1.5285 B( 44-C , 45-O ) :   2.1984 B( 44-C , 46-O ) :   1.2463
B( 46-O , 72-H ) :   0.9494 B( 47-C , 48-C ) :   1.2259 B( 47-C , 73-H ) :   0.9994
B( 48-C , 49-O ) :   1.0687 B( 49-O , 50-C ) :   1.0910 B( 50-C , 51-C ) :   1.4398
B( 50-C , 55-C ) :   0.1264 B( 50-C , 57-C ) :   1.1575 B( 51-C , 52-F ) :   1.1973
B( 51-C , 53-C ) :   1.1353 B( 53-C , 54-F ) :   1.1222 B( 53-C , 55-C ) :   1.4412
B( 55-C , 56-C ) :   1.1393 B( 55-C , 74-H ) :   1.0618 B( 56-C , 57-C ) :   1.1678
B( 56-C , 60-N ) :   1.5083 B( 57-C , 58-N ) :   1.5051 B( 58-N , 59-S ) :   1.2668
B( 58-N , 60-N ) :   0.1484 B( 59-S , 60-N ) :   1.2905

-----------------------------------------------------------------------------
         ABSORPTION SPECTRUM VIA TRANSITION ELECTRIC DIPOLE MOMENTS
-----------------------------------------------------------------------------
State   Energy  Wavelength   fosc         T2         TX        TY        TZ
        (cm-1)    (nm)                  (au**2)     (au)      (au)      (au)
-----------------------------------------------------------------------------
   0    8535.0   1171.6   0.380113066  14.66168   1.76281  -3.20002   1.14632
   1   16167.8    618.5   0.073135743   1.48921   0.72205  -0.95943   0.21759
   2   18332.8    545.5   0.715608865  12.85056  -0.93788   3.43558  -0.40952
   3   20252.6    493.8   0.095054903   1.54515  -0.18576   1.18326  -0.33249
   4   23674.4    422.4   0.048008965   0.66760  -0.49978   0.25408   0.59436
   5   23843.6    419.4   0.013984637   0.19309   0.00414   0.33535  -0.28392
   6   25125.2    398.0   0.012595916   0.16504   0.27201   0.03484   0.29973
   7   25486.6    392.4   0.091436944   1.18110   0.21175   0.58276  -0.89255
   8   25738.0    388.5   0.019235892   0.24604  -0.26600  -0.24988   0.33593
   9   26372.3    379.2   0.080161512   1.00068  -0.34698   0.41094   0.84345
  10   26665.7    375.0   0.123802363   1.52845  -0.95765  -0.50028   0.60090
  11   27180.9    367.9   0.012410613   0.15032   0.01270  -0.31158  -0.23037
  12   28235.5    354.2   0.082648111   0.96364  -0.13334   0.88114  -0.41163
  13   28464.4    351.3   0.089261125   1.03237   0.26963  -0.31747  -0.92676
  14   29316.5    341.1   0.261510684   2.93666   0.14853  -0.26076  -1.68719
  15   29976.9    333.6   0.124451695   1.36675  -0.02487  -0.47149   1.06950
  16   30808.9    324.6   0.393078716   4.20028  -0.30750   0.58947   1.93862
  17   31519.2    317.3   0.320230948   3.34475  -0.29404  -0.07242   1.80362
  18   31715.8    315.3   0.001450640   0.01506  -0.10476  -0.01131  -0.06290
  19   31915.9    313.3   0.087668517   0.90430   0.14332  -0.86941  -0.35762
  20   31969.1    312.8   0.074100959   0.76308  -0.36350  -0.76150  -0.22595
  21   32166.1    310.9   0.033385109   0.34169   0.25769  -0.52460  -0.00858
  22   32562.1    307.1   0.002172324   0.02196  -0.02402   0.14539  -0.01576
  23   33017.3    302.9   0.012828014   0.12791   0.20876  -0.28348   0.06297
  24   33612.8    297.5   0.079629997   0.77991  -0.15858  -0.34287  -0.79825
  25   34112.3    293.1   0.176545339   1.70381   0.54127  -0.89876  -0.77658
  26   34163.5    292.7   0.008901967   0.08578  -0.16602   0.16084  -0.17987
  27   34953.1    286.1   0.014264048   0.13435   0.28910  -0.12835   0.18519
  28   35136.8    284.6   0.014075165   0.13188   0.36198   0.02578   0.01353
  29   35454.3    282.1   0.014216481   0.13201   0.07077  -0.10141   0.34164
  30   36026.7    277.6   0.015619682   0.14273  -0.23399   0.13779   0.26267
  31   36153.6    276.6   0.043301757   0.39430  -0.32565  -0.24035   0.48009
  32   36348.0    275.1   0.024955356   0.22603  -0.16324   0.10878   0.43307
  33   36713.8    272.4   0.015551311   0.13945   0.31923   0.03645  -0.19029
  34   36926.1    270.8   0.034073075   0.30378   0.07114   0.29494   0.46014
  35   37331.2    267.9   0.033513596   0.29555   0.14054   0.23333  -0.47048
  36   37486.7    266.8   0.165445938   1.45296  -0.50528   0.04448  -1.09347
  37   37549.9    266.3   0.256279246   2.24688   1.11465  -0.89926  -0.44246
  38   37819.5    264.4   0.033185134   0.28887   0.46948  -0.18952   0.18039
  39   37863.1    264.1   0.000187307   0.00163  -0.01627  -0.01188   0.03496
  40   38251.4    261.4   0.022021056   0.18952  -0.38086  -0.20168   0.06162
  41   38768.9    257.9   0.025743645   0.21861   0.18367   0.37677   0.20717
  42   39520.8    253.0   0.034434965   0.28685   0.03759  -0.01491  -0.53405
  43   39869.0    250.8   0.066940214   0.55275  -0.27942   0.65182   0.22315
  44   40102.6    249.4   0.004141013   0.03399  -0.00106  -0.03455   0.18111
  45   40264.1    248.4   0.066833600   0.54645   0.30139   0.04384   0.67357

FINAL SINGLE POINT ENERGY     -4408.971422093979

DIPOLE MOMENT
-------------
                                X             Y             Z
Electronic contribution:     -5.00790       1.86036       5.03088
Nuclear contribution   :      5.83393      -2.88208      -4.24115
                        -----------------------------------------
Total Dipole Moment    :      0.82603      -1.02172       0.78973
                        -----------------------------------------
Magnitude (a.u.)       :      1.53294
Magnitude (Debye)      :      3.89644

Rotational constants in cm-1:     0.002157     0.000435     0.000397
Rotational constants in MHz :    64.677632    13.026350    11.890998

                             ****ORCA TERMINATED NORMALLY****
TOTAL RUN TIME: 0 days 0 hours 7 minutes 36 seconds 197 msec
