                         Program Version 4.2.0 -  RELEASE  -
|  1> # ORCA input file
|  2> # SCF done       -161.848484223758          0.000741399006
|  3> ! CAM-B3LYP def2-SVP def2/J RIJCOSX Grid4 TightSCF
|  4> %maxcore 5000
|  5> %tddft
|  6>     Mode sTDDFT
|  7>     Ethresh 5.0
|  8>     maxcore 5000
|  9> end
| 10>
| 11> %pal
| 12>   nprocs 6
| 13>   end
| 14> * xyz 0 1
| 15>    C       -0.67030        -0.85806        -9.46463
| 16>    C       -0.19737        -1.47940        -8.33518
| 17>    C       -1.19622        -2.17195        -7.66037
| 18>    C       -2.43967        -2.09403        -8.28553
| 19>    S       -2.32067        -1.15782        -9.75846
| 20>    C       -3.62529        -2.71429        -7.83422
| 21>    C       -4.71357        -3.20698        -8.55038
| 22>    N       -5.03025        -3.01501        -9.89081
| 23>    O       -4.45781        -2.11572       -10.50479
| 24>    O       -5.87370        -3.73850       -10.39329
| 25>    C       -5.49810        -4.05209        -7.69325
| 26>    C       -4.93239        -4.08137        -6.45766
| 27>    C       -3.80240        -3.20750        -6.44966
| 28>    C       -3.16943        -2.71051        -5.32516
| 29>    C       -2.61897        -1.39959        -5.17160
| 30>    C       -2.33174        -1.20250        -3.85662
| 31>    C       -2.63838        -2.39051        -3.11752
| 32>    N       -2.34703        -2.45178        -1.74778
| 33>    O       -2.77520        -3.38005        -1.07393
| 34>    O       -1.66815        -1.55006        -1.28328
| 35>    C       -3.14336        -3.35927        -4.00118
| 36>    C       -3.36929        -4.74392        -3.89804
| 37>    C       -3.58010        -5.49558        -2.77035
| 38>    C       -3.74005        -6.88818        -2.83924
| 39>    N       -3.98169        -7.68340        -1.74596
| 40>    C       -4.07384        -7.24912        -0.37057
| 41>    C       -2.70614        -6.93754         0.22990
| 42>    C       -4.09953        -9.04127        -2.09056
| 43>    O       -4.31836        -9.93141        -1.29838
| 44>    C       -3.91665        -9.05291        -3.52948
| 45>    C       -3.70069        -7.73948        -3.96393
| 46>    C       -3.52868        -7.78376        -5.40232
| 47>    O       -3.32549        -6.90982        -6.22248
| 48>    N       -3.65829        -9.14443        -5.73990
| 49>    C       -3.51289        -9.55208        -7.11754
| 50>    C       -2.10361       -10.05917        -7.41425
| 51>    C       -3.88050        -9.92635        -4.63005
| 52>    C       -4.06170       -11.31330        -4.48709
| 53>    C       -3.99426       -12.31707        -5.41328
| 54>    C       -4.19539       -13.67772        -5.10139
| 55>    C       -4.07982       -14.73120        -5.99851
| 56>    C       -4.33497       -15.95151        -5.32822
| 57>    C       -4.63539       -15.59144        -3.93089
| 58>    C       -4.54667       -14.24059        -3.80756
| 59>    C       -4.96076       -16.46774        -2.88941
| 60>    N       -5.23059       -17.16209        -2.01464
| 61>    C       -4.29827       -17.23123        -5.85023
| 62>    C       -4.53533       -18.45104        -5.17606
| 63>    C       -4.38072       -19.50616        -6.05725
| 64>    C       -4.03323       -18.94628        -7.35711
| 65>    C       -3.98089       -17.59388        -7.24859
| 66>    C       -3.67431       -16.71703        -8.29375
| 67>    N       -3.41925       -16.02110        -9.17217
| 68>    C       -4.53031       -20.87417        -5.73047
| 69>    C       -4.36704       -21.90742        -6.59887
| 70>    C       -4.51130       -23.27673        -6.25926
| 71>    C       -4.82899       -23.86790        -5.05134
| 72>    C       -4.87347       -25.26519        -5.11658
| 73>    C       -4.59291       -25.74647        -6.36358
| 74>    S       -4.26787       -24.49792        -7.48465
| 75>    H       -0.10659        -0.26161       -10.15548
| 76>    H        0.82637        -1.43476        -8.00944
| 77>    H       -1.02599        -2.75609        -6.77503
| 78>    H       -6.39384        -4.54678        -8.01794
| 79>    H       -5.33999        -4.56451        -5.59211
| 80>    H       -2.55283        -0.66740        -5.95197
| 81>    H       -1.94454        -0.31127        -3.40001
| 82>    H       -3.37086        -5.26586        -4.84680
| 83>    H       -3.63727        -5.02018        -1.80491
| 84>    H       -4.53521        -8.07926         0.17178
| 85>    H       -4.72718        -6.37526        -0.30706
| 86>    H       -2.04631        -7.79569         0.12569
| 87>    H       -2.81964        -6.71297         1.28638
| 88>    H       -2.25076        -6.07846        -0.25536
| 89>    H       -3.70699        -8.65794        -7.71777
| 90>    H       -4.27037       -10.30182        -7.35609
| 91>    H       -1.38517        -9.25721        -7.26311
| 92>    H       -2.04161       -10.38989        -8.44718
| 93>    H       -1.83587       -10.88795        -6.76250
| 94>    H       -4.26772       -11.58594        -3.45990
| 95>    H       -3.76039       -12.11291        -6.44718
| 96>    H       -3.82862       -14.64005        -7.03732
| 97>    H       -4.71227       -13.68227        -2.90552
| 98>    H       -4.79224       -18.54020        -4.13904
| 99>    H       -3.84887       -19.51100        -8.25171
|100>    H       -4.79158       -21.08160        -4.70180
|101>    H       -4.10671       -21.70482        -7.62853
|102>    H       -5.02166       -23.31059        -4.15321
|103>    H       -5.10328       -25.89693        -4.27743
|104>    H       -4.55909       -26.76862        -6.68514
|105> *
|106>
|107>                          ****END OF INPUT****

CARTESIAN COORDINATES (ANGSTROEM)
---------------------------------
  C     -0.670300   -0.858060   -9.464630
  C     -0.197370   -1.479400   -8.335180
  C     -1.196220   -2.171950   -7.660370
  C     -2.439670   -2.094030   -8.285530
  S     -2.320670   -1.157820   -9.758460
  C     -3.625290   -2.714290   -7.834220
  C     -4.713570   -3.206980   -8.550380
  N     -5.030250   -3.015010   -9.890810
  O     -4.457810   -2.115720  -10.504790
  O     -5.873700   -3.738500  -10.393290
  C     -5.498100   -4.052090   -7.693250
  C     -4.932390   -4.081370   -6.457660
  C     -3.802400   -3.207500   -6.449660
  C     -3.169430   -2.710510   -5.325160
  C     -2.618970   -1.399590   -5.171600
  C     -2.331740   -1.202500   -3.856620
  C     -2.638380   -2.390510   -3.117520
  N     -2.347030   -2.451780   -1.747780
  O     -2.775200   -3.380050   -1.073930
  O     -1.668150   -1.550060   -1.283280
  C     -3.143360   -3.359270   -4.001180
  C     -3.369290   -4.743920   -3.898040
  C     -3.580100   -5.495580   -2.770350
  C     -3.740050   -6.888180   -2.839240
  N     -3.981690   -7.683400   -1.745960
  C     -4.073840   -7.249120   -0.370570
  C     -2.706140   -6.937540    0.229900
  C     -4.099530   -9.041270   -2.090560
  O     -4.318360   -9.931410   -1.298380
  C     -3.916650   -9.052910   -3.529480
  C     -3.700690   -7.739480   -3.963930
  C     -3.528680   -7.783760   -5.402320
  O     -3.325490   -6.909820   -6.222480
  N     -3.658290   -9.144430   -5.739900
  C     -3.512890   -9.552080   -7.117540
  C     -2.103610  -10.059170   -7.414250
  C     -3.880500   -9.926350   -4.630050
  C     -4.061700  -11.313300   -4.487090
  C     -3.994260  -12.317070   -5.413280
  C     -4.195390  -13.677720   -5.101390
  C     -4.079820  -14.731200   -5.998510
  C     -4.334970  -15.951510   -5.328220
  C     -4.635390  -15.591440   -3.930890
  C     -4.546670  -14.240590   -3.807560
  C     -4.960760  -16.467740   -2.889410
  N     -5.230590  -17.162090   -2.014640
  C     -4.298270  -17.231230   -5.850230
  C     -4.535330  -18.451040   -5.176060
  C     -4.380720  -19.506160   -6.057250
  C     -4.033230  -18.946280   -7.357110
  C     -3.980890  -17.593880   -7.248590
  C     -3.674310  -16.717030   -8.293750
  N     -3.419250  -16.021100   -9.172170
  C     -4.530310  -20.874170   -5.730470
  C     -4.367040  -21.907420   -6.598870
  C     -4.511300  -23.276730   -6.259260
  C     -4.828990  -23.867900   -5.051340
  C     -4.873470  -25.265190   -5.116580
  C     -4.592910  -25.746470   -6.363580
  S     -4.267870  -24.497920   -7.484650
  H     -0.106590   -0.261610  -10.155480
  H      0.826370   -1.434760   -8.009440
  H     -1.025990   -2.756090   -6.775030
  H     -6.393840   -4.546780   -8.017940
  H     -5.339990   -4.564510   -5.592110
  H     -2.552830   -0.667400   -5.951970
  H     -1.944540   -0.311270   -3.400010
  H     -3.370860   -5.265860   -4.846800
  H     -3.637270   -5.020180   -1.804910
  H     -4.535210   -8.079260    0.171780
  H     -4.727180   -6.375260   -0.307060
  H     -2.046310   -7.795690    0.125690
  H     -2.819640   -6.712970    1.286380
  H     -2.250760   -6.078460   -0.255360
  H     -3.706990   -8.657940   -7.717770
  H     -4.270370  -10.301820   -7.356090
  H     -1.385170   -9.257210   -7.263110
  H     -2.041610  -10.389890   -8.447180
  H     -1.835870  -10.887950   -6.762500
  H     -4.267720  -11.585940   -3.459900
  H     -3.760390  -12.112910   -6.447180
  H     -3.828620  -14.640050   -7.037320
  H     -4.712270  -13.682270   -2.905520
  H     -4.792240  -18.540200   -4.139040
  H     -3.848870  -19.511000   -8.251710
  H     -4.791580  -21.081600   -4.701800
  H     -4.106710  -21.704820   -7.628530
  H     -5.021660  -23.310590   -4.153210
  H     -5.103280  -25.896930   -4.277430
  H     -4.559090  -26.768620   -6.685140

 Total Charge           Charge          ....    0
 Multiplicity           Mult            ....    1
 Number of Electrons    NEL             ....  428
 Basis Dimension        Dim             ....  998

ORBITAL ENERGIES
----------------

  NO   OCC          E(Eh)            E(eV)
   0   2.0000     -88.966076     -2420.8900
   1   2.0000     -88.965783     -2420.8820
   2   2.0000     -19.239036      -523.5208
   3   2.0000     -19.236491      -523.4515
   4   2.0000     -19.233297      -523.3646
   5   2.0000     -19.231085      -523.3044
   6   2.0000     -19.203281      -522.5478
   7   2.0000     -19.196263      -522.3569
   8   2.0000     -14.646646      -398.5555
   9   2.0000     -14.639734      -398.3674
  10   2.0000     -14.463065      -393.5600
  11   2.0000     -14.458399      -393.4330
  12   2.0000     -14.410697      -392.1350
  13   2.0000     -14.405947      -392.0058
  14   2.0000     -10.384882      -282.5870
  15   2.0000     -10.379841      -282.4498
  16   2.0000     -10.347134      -281.5598
  17   2.0000     -10.346642      -281.5464
  18   2.0000     -10.330951      -281.1195
  19   2.0000     -10.328949      -281.0650
  20   2.0000     -10.328796      -281.0608
  21   2.0000     -10.323052      -280.9045
  22   2.0000     -10.321906      -280.8733
  23   2.0000     -10.321206      -280.8543
  24   2.0000     -10.319415      -280.8056
  25   2.0000     -10.318241      -280.7736
  26   2.0000     -10.317352      -280.7494
  27   2.0000     -10.317005      -280.7400
  28   2.0000     -10.313320      -280.6397
  29   2.0000     -10.312810      -280.6258
  30   2.0000     -10.312798      -280.6255
  31   2.0000     -10.310161      -280.5538
  32   2.0000     -10.309894      -280.5465
  33   2.0000     -10.308075      -280.4970
  34   2.0000     -10.307253      -280.4746
  35   2.0000     -10.305053      -280.4148
  36   2.0000     -10.304903      -280.4107
  37   2.0000     -10.304557      -280.4012
  38   2.0000     -10.304424      -280.3976
  39   2.0000     -10.302718      -280.3512
  40   2.0000     -10.302667      -280.3498
  41   2.0000     -10.300723      -280.2969
  42   2.0000     -10.300249      -280.2840
  43   2.0000     -10.300039      -280.2783
  44   2.0000     -10.296221      -280.1744
  45   2.0000     -10.295252      -280.1480
  46   2.0000     -10.292024      -280.0602
  47   2.0000     -10.291751      -280.0528
  48   2.0000     -10.290741      -280.0253
  49   2.0000     -10.284920      -279.8669
  50   2.0000     -10.284656      -279.8597
  51   2.0000     -10.284409      -279.8530
  52   2.0000     -10.282383      -279.7979
  53   2.0000     -10.281149      -279.7643
  54   2.0000     -10.280980      -279.7597
  55   2.0000     -10.276453      -279.6365
  56   2.0000     -10.273774      -279.5636
  57   2.0000     -10.271982      -279.5148
  58   2.0000     -10.267317      -279.3879
  59   2.0000     -10.258551      -279.1494
  60   2.0000      -8.061874      -219.3748
  61   2.0000      -8.060160      -219.3281
  62   2.0000      -6.031018      -164.1123
  63   2.0000      -6.029525      -164.0717
  64   2.0000      -6.026803      -163.9976
  65   2.0000      -6.024770      -163.9423
  66   2.0000      -6.024345      -163.9308
  67   2.0000      -6.022668      -163.8851
  68   2.0000      -1.315971       -35.8094
  69   2.0000      -1.309260       -35.6268
  70   2.0000      -1.142859       -31.0988
  71   2.0000      -1.134326       -30.8666
  72   2.0000      -1.131828       -30.7986
  73   2.0000      -1.126425       -30.6516
  74   2.0000      -1.071363       -29.1533
  75   2.0000      -1.062254       -28.9054
  76   2.0000      -1.018774       -27.7222
  77   2.0000      -1.014361       -27.6022
  78   2.0000      -0.999558       -27.1993
  79   2.0000      -0.998627       -27.1740
  80   2.0000      -0.991469       -26.9792
  81   2.0000      -0.984835       -26.7987
  82   2.0000      -0.982759       -26.7422
  83   2.0000      -0.979839       -26.6628
  84   2.0000      -0.935828       -25.4652
  85   2.0000      -0.919160       -25.0116
  86   2.0000      -0.914618       -24.8880
  87   2.0000      -0.911138       -24.7933
  88   2.0000      -0.908520       -24.7221
  89   2.0000      -0.881948       -23.9990
  90   2.0000      -0.877802       -23.8862
  91   2.0000      -0.867117       -23.5955
  92   2.0000      -0.863629       -23.5005
  93   2.0000      -0.855835       -23.2885
  94   2.0000      -0.848156       -23.0795
  95   2.0000      -0.845064       -22.9954
  96   2.0000      -0.840364       -22.8675
  97   2.0000      -0.838105       -22.8060
  98   2.0000      -0.824290       -22.4301
  99   2.0000      -0.817918       -22.2567
 100   2.0000      -0.810918       -22.0662
 101   2.0000      -0.795999       -21.6602
 102   2.0000      -0.778010       -21.1707
 103   2.0000      -0.766575       -20.8596
 104   2.0000      -0.763458       -20.7748
 105   2.0000      -0.758955       -20.6522
 106   2.0000      -0.735188       -20.0055
 107   2.0000      -0.728180       -19.8148
 108   2.0000      -0.726864       -19.7790
 109   2.0000      -0.712968       -19.4009
 110   2.0000      -0.711040       -19.3484
 111   2.0000      -0.700542       -19.0627
 112   2.0000      -0.686975       -18.6935
 113   2.0000      -0.683085       -18.5877
 114   2.0000      -0.672723       -18.3057
 115   2.0000      -0.670450       -18.2439
 116   2.0000      -0.665393       -18.1063
 117   2.0000      -0.663827       -18.0636
 118   2.0000      -0.656288       -17.8585
 119   2.0000      -0.653068       -17.7709
 120   2.0000      -0.644775       -17.5452
 121   2.0000      -0.643098       -17.4996
 122   2.0000      -0.632077       -17.1997
 123   2.0000      -0.628853       -17.1120
 124   2.0000      -0.627397       -17.0723
 125   2.0000      -0.623726       -16.9724
 126   2.0000      -0.617873       -16.8132
 127   2.0000      -0.616873       -16.7860
 128   2.0000      -0.613925       -16.7057
 129   2.0000      -0.609441       -16.5837
 130   2.0000      -0.602308       -16.3896
 131   2.0000      -0.600680       -16.3453
 132   2.0000      -0.592930       -16.1345
 133   2.0000      -0.590018       -16.0552
 134   2.0000      -0.586709       -15.9652
 135   2.0000      -0.582476       -15.8500
 136   2.0000      -0.573520       -15.6063
 137   2.0000      -0.560479       -15.2514
 138   2.0000      -0.556464       -15.1422
 139   2.0000      -0.555850       -15.1254
 140   2.0000      -0.552574       -15.0363
 141   2.0000      -0.548694       -14.9307
 142   2.0000      -0.546936       -14.8829
 143   2.0000      -0.537593       -14.6286
 144   2.0000      -0.535320       -14.5668
 145   2.0000      -0.533740       -14.5238
 146   2.0000      -0.528775       -14.3887
 147   2.0000      -0.524414       -14.2700
 148   2.0000      -0.521141       -14.1810
 149   2.0000      -0.519325       -14.1316
 150   2.0000      -0.516425       -14.0526
 151   2.0000      -0.510912       -13.9026
 152   2.0000      -0.509266       -13.8578
 153   2.0000      -0.505929       -13.7670
 154   2.0000      -0.504348       -13.7240
 155   2.0000      -0.501494       -13.6463
 156   2.0000      -0.498565       -13.5666
 157   2.0000      -0.496693       -13.5157
 158   2.0000      -0.495305       -13.4779
 159   2.0000      -0.491299       -13.3689
 160   2.0000      -0.489962       -13.3325
 161   2.0000      -0.486159       -13.2290
 162   2.0000      -0.484901       -13.1948
 163   2.0000      -0.484670       -13.1885
 164   2.0000      -0.483573       -13.1587
 165   2.0000      -0.481845       -13.1117
 166   2.0000      -0.478892       -13.0313
 167   2.0000      -0.474046       -12.8994
 168   2.0000      -0.471394       -12.8273
 169   2.0000      -0.469424       -12.7737
 170   2.0000      -0.467191       -12.7129
 171   2.0000      -0.465273       -12.6607
 172   2.0000      -0.461919       -12.5695
 173   2.0000      -0.457648       -12.4532
 174   2.0000      -0.453077       -12.3289
 175   2.0000      -0.451494       -12.2858
 176   2.0000      -0.448180       -12.1956
 177   2.0000      -0.447919       -12.1885
 178   2.0000      -0.447069       -12.1654
 179   2.0000      -0.444294       -12.0899
 180   2.0000      -0.439754       -11.9663
 181   2.0000      -0.439650       -11.9635
 182   2.0000      -0.436104       -11.8670
 183   2.0000      -0.435486       -11.8502
 184   2.0000      -0.431630       -11.7453
 185   2.0000      -0.427782       -11.6405
 186   2.0000      -0.426109       -11.5950
 187   2.0000      -0.425030       -11.5657
 188   2.0000      -0.422588       -11.4992
 189   2.0000      -0.415748       -11.3131
 190   2.0000      -0.401713       -10.9312
 191   2.0000      -0.396005       -10.7758
 192   2.0000      -0.387664       -10.5489
 193   2.0000      -0.383015       -10.4224
 194   2.0000      -0.381197       -10.3729
 195   2.0000      -0.375389       -10.2149
 196   2.0000      -0.374662       -10.1951
 197   2.0000      -0.369549       -10.0559
 198   2.0000      -0.363080        -9.8799
 199   2.0000      -0.357700        -9.7335
 200   2.0000      -0.354636        -9.6501
 201   2.0000      -0.351317        -9.5598
 202   2.0000      -0.339701        -9.2437
 203   2.0000      -0.333985        -9.0882
 204   2.0000      -0.333046        -9.0626
 205   2.0000      -0.332393        -9.0449
 206   2.0000      -0.327475        -8.9110
 207   2.0000      -0.324710        -8.8358
 208   2.0000      -0.320248        -8.7144
 209   2.0000      -0.304392        -8.2829
 210   2.0000      -0.299203        -8.1417
 211   2.0000      -0.275995        -7.5102
 212   2.0000      -0.265107        -7.2139
 213   2.0000      -0.232890        -6.3373
 214   0.0000      -0.139787        -3.8038
 215   0.0000      -0.120866        -3.2889
 216   0.0000      -0.079529        -2.1641
 217   0.0000      -0.043023        -1.1707
 218   0.0000      -0.031041        -0.8447

MULLIKEN ATOMIC CHARGES
-----------------------
   0 C :   -0.047424
   1 C :    0.031714
   2 C :    0.030722
   3 C :   -0.200748
   4 S :    0.216003
   5 C :    0.116135
   6 C :    0.031283
   7 N :    0.292069
   8 O :   -0.281270
   9 O :   -0.253380
  10 C :    0.024911
  11 C :    0.022818
  12 C :    0.027100
  13 C :   -0.007392
  14 C :    0.014571
  15 C :    0.008552
  16 C :    0.070395
  17 N :    0.278795
  18 O :   -0.261309
  19 O :   -0.247771
  20 C :    0.087324
  21 C :   -0.094780
  22 C :   -0.015743
  23 C :    0.147681
  24 N :   -0.261042
  25 C :    0.094876
  26 C :    0.002904
  27 C :    0.152806
  28 O :   -0.188170
  29 C :   -0.052101
  30 C :   -0.055982
  31 C :    0.161380
  32 O :   -0.207751
  33 N :   -0.260812
  34 C :    0.098160
  35 C :   -0.000262
  36 C :    0.142011
  37 C :   -0.050286
  38 C :    0.011732
  39 C :    0.100846
  40 C :   -0.109338
  41 C :    0.118793
  42 C :   -0.105125
  43 C :   -0.008460
  44 C :   -0.169722
  45 N :    0.130127
  46 C :    0.130111
  47 C :   -0.123100
  48 C :    0.119295
  49 C :   -0.007259
  50 C :   -0.102167
  51 C :   -0.170995
  52 N :    0.128376
  53 C :   -0.009679
  54 C :    0.084713
  55 C :   -0.128880
  56 C :    0.022716
  57 C :    0.044242
  58 C :   -0.067760
  59 S :    0.129805
  60 H :    0.036614
  61 H :   -0.004143
  62 H :    0.014456
  63 H :    0.002964
  64 H :   -0.005396
  65 H :    0.008926
  66 H :    0.002530
  67 H :    0.037515
  68 H :    0.005870
  69 H :    0.043113
  70 H :    0.032364
  71 H :    0.023098
  72 H :    0.027368
  73 H :    0.026223
  74 H :    0.045295
  75 H :    0.029198
  76 H :    0.029179
  77 H :    0.029281
  78 H :    0.023605
  79 H :    0.006682
  80 H :   -0.013038
  81 H :   -0.001721
  82 H :    0.013738
  83 H :   -0.002664
  84 H :   -0.001866
  85 H :   -0.008761
  86 H :   -0.014992
  87 H :   -0.004480
  88 H :   -0.001624
  89 H :    0.036408
Sum of atomic charges:   -0.0000000

LOEWDIN ATOMIC CHARGES
----------------------
   0 C :   -0.168967
   1 C :   -0.069935
   2 C :   -0.024613
   3 C :   -0.184133
   4 S :    0.518780
   5 C :    0.014906
   6 C :   -0.070798
   7 N :    0.286829
   8 O :   -0.244123
   9 O :   -0.216668
  10 C :    0.030417
  11 C :   -0.039142
  12 C :    0.055014
  13 C :    0.029721
  14 C :   -0.033004
  15 C :    0.000697
  16 C :   -0.043387
  17 N :    0.287898
  18 O :   -0.221876
  19 O :   -0.211925
  20 C :   -0.001615
  21 C :    0.011390
  22 C :   -0.017384
  23 C :    0.076000
  24 N :    0.001703
  25 C :    0.037470
  26 C :   -0.059995
  27 C :    0.077918
  28 O :   -0.190743
  29 C :   -0.102765
  30 C :   -0.114128
  31 C :    0.081975
  32 O :   -0.193853
  33 N :    0.000876
  34 C :    0.035954
  35 C :   -0.062413
  36 C :    0.069729
  37 C :   -0.027900
  38 C :    0.005260
  39 C :   -0.023152
  40 C :   -0.019425
  41 C :    0.022307
  42 C :   -0.077446
  43 C :    0.049455
  44 C :   -0.028123
  45 N :   -0.065452
  46 C :    0.041107
  47 C :   -0.042644
  48 C :   -0.004635
  49 C :    0.050978
  50 C :   -0.075725
  51 C :   -0.029190
  52 N :   -0.066082
  53 C :   -0.020114
  54 C :   -0.012505
  55 C :   -0.180866
  56 C :   -0.041711
  57 C :   -0.059500
  58 C :   -0.175861
  59 S :    0.444964
  60 H :    0.027476
  61 H :    0.032575
  62 H :    0.035578
  63 H :    0.038663
  64 H :    0.031404
  65 H :    0.033984
  66 H :    0.037063
  67 H :    0.040377
  68 H :    0.029704
  69 H :    0.037303
  70 H :    0.027252
  71 H :    0.029406
  72 H :    0.033620
  73 H :    0.025123
  74 H :    0.038336
  75 H :    0.024013
  76 H :    0.032871
  77 H :    0.033643
  78 H :    0.022908
  79 H :    0.045578
  80 H :    0.035226
  81 H :    0.033582
  82 H :    0.040034
  83 H :    0.033976
  84 H :    0.034530
  85 H :    0.035881
  86 H :    0.028376
  87 H :    0.031787
  88 H :    0.033715
  89 H :    0.026470

  Mayer bond orders larger than 0.100000
B(  0-C ,  1-C ) :   1.4811 B(  0-C ,  4-S ) :   1.2011 B(  0-C , 60-H ) :   0.9724
B(  1-C ,  2-C ) :   1.3310 B(  1-C , 61-H ) :   0.9965 B(  2-C ,  3-C ) :   1.4088
B(  2-C , 62-H ) :   0.9841 B(  3-C ,  4-S ) :   1.1375 B(  3-C ,  5-C ) :   1.2002
B(  5-C ,  6-C ) :   1.4892 B(  5-C , 12-C ) :   1.0253 B(  6-C ,  7-N ) :   0.9886
B(  6-C , 10-C ) :   1.1308 B(  7-N ,  8-O ) :   1.4312 B(  7-N ,  9-O ) :   1.5329
B(  8-O ,  9-O ) :   0.2442 B( 10-C , 11-C ) :   1.5585 B( 10-C , 63-H ) :   1.0109
B( 11-C , 12-C ) :   1.1614 B( 11-C , 64-H ) :   1.0025 B( 12-C , 13-C ) :   1.4793
B( 13-C , 14-C ) :   1.1459 B( 13-C , 20-C ) :   1.0335 B( 14-C , 15-C ) :   1.5539
B( 14-C , 65-H ) :   1.0001 B( 15-C , 16-C ) :   1.1619 B( 15-C , 66-H ) :   1.0070
B( 16-C , 17-N ) :   0.9676 B( 16-C , 20-C ) :   1.4303 B( 17-N , 18-O ) :   1.4571
B( 17-N , 19-O ) :   1.5359 B( 18-O , 19-O ) :   0.2487 B( 20-C , 21-C ) :   1.1763
B( 21-C , 22-C ) :   1.5248 B( 21-C , 67-H ) :   0.9376 B( 22-C , 23-C ) :   1.1776
B( 22-C , 68-H ) :   0.9549 B( 23-C , 24-N ) :   1.1707 B( 23-C , 30-C ) :   1.2658
B( 24-N , 25-C ) :   0.9358 B( 24-N , 27-C ) :   1.0451 B( 25-C , 26-C ) :   1.1229
B( 25-C , 69-H ) :   0.9283 B( 25-C , 70-H ) :   0.9493 B( 26-C , 71-H ) :   0.9630
B( 26-C , 72-H ) :   0.9668 B( 26-C , 73-H ) :   0.9655 B( 27-C , 28-O ) :   2.1279
B( 27-C , 29-C ) :   0.9737 B( 29-C , 30-C ) :   1.2940 B( 29-C , 36-C ) :   1.3022
B( 30-C , 31-C ) :   0.9858 B( 31-C , 32-O ) :   2.0088 B( 31-C , 33-N ) :   1.0689
B( 32-O , 67-H ) :   0.1094 B( 33-N , 34-C ) :   0.9393 B( 33-N , 36-C ) :   1.1649
B( 34-C , 35-C ) :   1.1171 B( 34-C , 74-H ) :   0.9258 B( 34-C , 75-H ) :   0.9512
B( 35-C , 76-H ) :   0.9615 B( 35-C , 77-H ) :   0.9689 B( 35-C , 78-H ) :   0.9680
B( 36-C , 37-C ) :   1.2067 B( 37-C , 38-C ) :   1.5078 B( 37-C , 79-H ) :   0.9469
B( 38-C , 39-C ) :   1.1442 B( 38-C , 80-H ) :   0.9821 B( 39-C , 40-C ) :   1.4682
B( 39-C , 43-C ) :   1.0562 B( 40-C , 41-C ) :   1.1430 B( 40-C , 81-H ) :   1.0059
B( 41-C , 42-C ) :   1.1120 B( 41-C , 46-C ) :   1.3683 B( 42-C , 43-C ) :   1.6719
B( 42-C , 44-C ) :   1.0927 B( 43-C , 82-H ) :   1.0145 B( 44-C , 45-N ) :   2.9626
B( 46-C , 47-C ) :   1.1503 B( 46-C , 50-C ) :   1.0967 B( 47-C , 48-C ) :   1.4863
B( 47-C , 83-H ) :   1.0083 B( 48-C , 49-C ) :   1.0363 B( 48-C , 53-C ) :   1.1493
B( 49-C , 50-C ) :   1.6881 B( 49-C , 84-H ) :   1.0141 B( 50-C , 51-C ) :   1.0924
B( 51-C , 52-N ) :   2.9608 B( 53-C , 54-C ) :   1.6370 B( 53-C , 85-H ) :   0.9769
B( 54-C , 55-C ) :   1.1301 B( 54-C , 86-H ) :   0.9626 B( 55-C , 56-C ) :   1.4950
B( 55-C , 59-S ) :   1.1337 B( 56-C , 57-C ) :   1.2915 B( 56-C , 87-H ) :   0.9928
B( 57-C , 58-C ) :   1.5389 B( 57-C , 88-H ) :   0.9940 B( 58-C , 59-S ) :   1.1851
B( 58-C , 89-H ) :   0.9737

-----------------------------------------------------------------------------
         ABSORPTION SPECTRUM VIA TRANSITION ELECTRIC DIPOLE MOMENTS
-----------------------------------------------------------------------------
State   Energy  Wavelength   fosc         T2         TX        TY        TZ
        (cm-1)    (nm)                  (au**2)     (au)      (au)      (au)
-----------------------------------------------------------------------------
   0    5951.8   1680.2   0.434486213  24.03255   0.40967   4.88507  -0.02933
   1   11128.5    898.6   0.600380293  17.76096   0.00878   3.86816   1.67279
   2   11834.2    845.0   0.056591780   1.57431  -0.50150   0.38084   1.08525
   3   14449.5    692.1   0.121914439   2.77766  -0.07375  -1.65605  -0.17243
   4   17190.6    581.7   0.026793832   0.51312   0.04707   0.42463   0.57497
   5   18110.1    552.2   0.127628051   2.32006   0.07805  -1.34616  -0.70839
   6   19638.0    509.2   0.027120402   0.45465   0.03968   0.64607   0.18884
   7   21045.8    475.2   0.061155473   0.95664  -0.18590  -0.85537   0.43638
   8   22732.2    439.9   0.049437884   0.71597  -0.46963  -0.57110  -0.41142
   9   22977.5    435.2   0.013482430   0.19317   0.01710  -0.31157   0.30951
  10   23046.6    433.9   0.003144989   0.04493  -0.07863  -0.12076  -0.15543
  11   23974.9    417.1   0.480752166   6.60147   0.07682   2.55643   0.24543
  12   24371.6    410.3   0.028572329   0.38595  -0.09578   0.01388  -0.61367
  13   25201.6    396.8   0.143590638   1.87574   0.20099  -0.25264   1.33098
  14   25589.1    390.8   0.111053066   1.42873  -0.34863  -1.13517  -0.13632
  15   26274.7    380.6   0.008958187   0.11224   0.04583   0.25983  -0.20647
  16   26568.2    376.4   0.029040565   0.35985  -0.26775  -0.19630  -0.49962
  17   27018.4    370.1   0.067243730   0.81935   0.03092   0.65062  -0.62856
  18   27789.4    359.8   0.045409664   0.53795  -0.15267   0.68236  -0.22141
  19   27898.6    358.4   0.185207352   2.18550  -0.98914  -1.02924  -0.38440
  20   28413.8    351.9   0.025111634   0.29095  -0.18941  -0.50178  -0.05741
  21   28945.9    345.5   0.109308605   1.24320   0.63176  -0.65766  -0.64154
  22   29064.0    344.1   0.150208648   1.70143  -0.22173  -1.28287  -0.08072
  23   29376.1    340.4   0.013115456   0.14698  -0.02148  -0.35904  -0.13271
  24   30228.3    330.8   0.152469095   1.66052  -0.08793   0.24646  -1.26176
  25   30822.2    324.4   0.234148487   2.50094  -0.59109  -0.10028  -1.46338
  26   30973.2    322.9   0.033818113   0.35945   0.00092   0.48159   0.35711
  27   31560.9    316.8   0.065543458   0.68368  -0.34030  -0.59300  -0.46501
  28   32244.7    310.1   0.557710122   5.69412   0.35010   2.35385   0.17586
  29   32263.1    310.0   0.008408585   0.08580   0.12983   0.24862   0.08445
  30   32329.2    309.3   0.041934324   0.42702  -0.46652   0.44704   0.09764
  31   32550.3    307.2   0.081476396   0.82405   0.23946   0.86749   0.11903
  32   32723.6    305.6   0.037912960   0.38142  -0.30058   0.12372  -0.52513
  33   32856.8    304.4   0.028256214   0.28312  -0.19353  -0.14606  -0.47363
  34   33073.3    302.4   0.186995713   1.86136   0.85913   1.03950   0.20663
  35   33283.1    300.5   0.174617037   1.72719   0.54153  -0.32178   1.15342
  36   33899.9    295.0   0.043110643   0.41866  -0.01027   0.64516   0.04815
  37   33946.4    294.6   0.045837038   0.44453  -0.29508  -0.55146  -0.23097
  38   34623.1    288.8   0.003808050   0.03621   0.02799   0.12002   0.14498
  39   34834.3    287.1   0.023496317   0.22206   0.20184   0.04364   0.42357
  40   34888.0    286.6   0.004344115   0.04099   0.09982   0.17093  -0.04255
  41   35109.3    284.8   0.015235075   0.14286  -0.21841  -0.30841  -0.00631
  42   35203.5    284.1   0.100192206   0.93697   0.40618   0.23761   0.84589
  43   35329.8    283.0   0.030086285   0.28035  -0.38314  -0.18303  -0.31631
  44   36245.8    275.9   0.099048748   0.89964   0.06419   0.94604   0.02303
  45   36493.5    274.0   0.027844567   0.25119   0.29055   0.40802   0.01709
  46   37082.0    269.7   0.072525438   0.64388  -0.15170  -0.60065   0.50999
  47   37239.3    268.5   0.072270979   0.63891   0.17042   0.30566   0.71863
  48   37629.8    265.7   0.087186941   0.76277  -0.48891   0.48969  -0.53287
  49   37682.5    265.4   0.004066023   0.03552   0.12876   0.03400   0.13337
  50   38054.0    262.8   0.090888164   0.78629  -0.29612  -0.70668  -0.44632
  51   38204.7    261.7   0.002736816   0.02358   0.05094   0.12727  -0.06922
  52   38527.8    259.6   0.021382832   0.18271   0.02809   0.36077  -0.22752
  53   39144.4    255.5   0.012104738   0.10180   0.17190   0.19183  -0.18830
  54   39681.8    252.0   0.005295969   0.04394  -0.08358   0.01369   0.19174
  55   40019.9    249.9   0.083493802   0.68684  -0.15189   0.38690  -0.71699
  56   40162.3    249.0   0.008142380   0.06674  -0.03095  -0.03286   0.25437

FINAL SINGLE POINT ENERGY     -3343.387440032114

DIPOLE MOMENT
-------------
                                X             Y             Z
Electronic contribution:     -7.49267      13.97559     -15.85793
Nuclear contribution   :      8.23690     -15.87543      15.39818
                        -----------------------------------------
Total Dipole Moment    :      0.74423      -1.89984      -0.45975
                        -----------------------------------------
Magnitude (a.u.)       :      2.09156
Magnitude (Debye)      :      5.31632

Rotational constants in cm-1:     0.002457     0.000342     0.000309
Rotational constants in MHz :    73.658461    10.253363     9.255303

                             ****ORCA TERMINATED NORMALLY****
TOTAL RUN TIME: 0 days 0 hours 8 minutes 32 seconds 334 msec
