                         Program Version 4.2.0 -  RELEASE  -
|  1> # ORCA input file
|  2> # SCF done       -165.853358131918          0.000892819668
|  3> ! CAM-B3LYP def2-SVP def2/J RIJCOSX Grid4 TightSCF
|  4> %maxcore 5000
|  5> %tddft
|  6>     Mode sTDDFT
|  7>     Ethresh 5.0
|  8>     maxcore 5000
|  9> end
| 10>
| 11> %pal
| 12>   nprocs 6
| 13>   end
| 14> * xyz 0 1
| 15>    C       -1.48134        -1.23968        -5.95905
| 16>    N       -0.23866        -1.58169        -5.64388
| 17>    C       -0.06767        -2.46640        -4.70325
| 18>    C       -1.19542        -3.11361        -4.12127
| 19>    N       -2.39202        -2.61383        -4.43303
| 20>    N       -2.53092        -1.67848        -5.29415
| 21>    C       -1.10349        -4.19466        -3.19884
| 22>    C       -0.25724        -5.31265        -3.24650
| 23>    N        0.62645        -5.64405        -4.27020
| 24>    O        1.38108        -6.58933        -4.10499
| 25>    O        0.59749        -4.97632        -5.30262
| 26>    C       -0.57622        -6.17044        -2.15534
| 27>    C       -1.64339        -5.63426        -1.48446
| 28>    C       -1.99841        -4.39775        -2.09290
| 29>    C       -2.95692        -3.47574        -1.63067
| 30>    C       -2.78533        -2.08816        -1.52285
| 31>    C       -3.81396        -1.55990        -0.75999
| 32>    C       -4.69621        -2.59303        -0.40063
| 33>    N       -5.86094        -2.38755         0.34069
| 34>    O       -6.58864        -3.34457         0.58622
| 35>    O       -6.09560        -1.25128         0.72358
| 36>    C       -4.23154        -3.80888        -0.98176
| 37>    C       -4.96559        -4.97615        -1.10811
| 38>    C       -4.71160        -5.98655        -2.02891
| 39>    C       -5.50323        -7.11460        -2.18647
| 40>    C       -6.72891        -7.39547        -1.52377
| 41>    C       -7.30167        -8.51672        -2.08339
| 42>    O       -8.44238        -9.13850        -1.77791
| 43>    C       -9.21035        -8.60067        -0.71925
| 44>    C       -6.42974        -9.03964        -3.10863
| 45>    C       -5.31999        -8.13527        -3.21377
| 46>    C       -4.30443        -8.16771        -4.15938
| 47>    C       -2.98243        -7.70948        -4.03189
| 48>    C       -2.31491        -7.96069        -5.21894
| 49>    O       -1.03755        -7.70323        -5.38784
| 50>    C       -0.38424        -8.08941        -6.58412
| 51>    C       -3.26688        -8.52797        -6.17681
| 52>    C       -4.44282        -8.67389        -5.54672
| 53>    C       -6.60247       -10.29733        -3.68467
| 54>    C       -5.61201       -11.00206        -4.33653
| 55>    C       -5.76297       -12.19990        -5.03651
| 56>    C       -4.73191       -12.83356        -5.73502
| 57>    C       -5.22496       -13.98975        -6.35748
| 58>    C       -6.65503       -14.07202        -5.99355
| 59>    C       -6.96623       -12.99321        -5.22797
| 60>    C       -7.55975       -15.06533        -6.38424
| 61>    N       -8.32765       -15.86428        -6.68675
| 62>    C       -4.52264       -14.87878        -7.16111
| 63>    C       -4.95437       -16.12866        -7.66581
| 64>    C       -3.92196       -16.71489        -8.38124
| 65>    C       -2.79888       -15.79961        -8.36315
| 66>    C       -3.14421       -14.69901        -7.63510
| 67>    C       -2.33980       -13.57203        -7.44728
| 68>    N       -1.67048       -12.64478        -7.32369
| 69>    C       -3.97515       -17.98867        -9.00239
| 70>    C       -2.95507       -18.57750        -9.67160
| 71>    C       -3.07069       -19.87385       -10.26598
| 72>    N       -1.99258       -20.38109       -10.89292
| 73>    C       -2.11351       -21.57136       -11.42467
| 74>    C       -3.32237       -22.27129       -11.32646
| 75>    N       -4.34120       -21.70792       -10.70218
| 76>    N       -4.23117       -20.54176       -10.18628
| 77>    H       -1.64007        -0.53934        -6.76328
| 78>    H        0.93780        -2.64181        -4.35226
| 79>    H       -0.05919        -7.08662        -1.94347
| 80>    H       -2.10650        -6.02638        -0.59862
| 81>    H       -1.93535        -1.53970        -1.88220
| 82>    H       -3.93462        -0.53356        -0.46742
| 83>    H       -5.85828        -5.03769        -0.50050
| 84>    H       -3.88800        -5.85225        -2.71198
| 85>    H       -7.14729        -6.79365        -0.74036
| 86>    H      -10.08515        -9.24110        -0.62694
| 87>    H       -9.52503        -7.57794        -0.94249
| 88>    H       -8.64642        -8.60996         0.21721
| 89>    H       -2.50704        -7.37014        -3.13499
| 90>    H        0.66704        -7.85302        -6.42729
| 91>    H       -0.76438        -7.51830        -7.43493
| 92>    H       -0.50229        -9.15907        -6.77085
| 93>    H       -3.04473        -8.76108        -7.20037
| 94>    H       -5.37405        -8.98819        -5.97673
| 95>    H       -7.57185       -10.75578        -3.53882
| 96>    H       -4.60551       -10.60511        -4.31092
| 97>    H       -3.72049       -12.48182        -5.78555
| 98>    H       -7.93332       -12.76673        -4.81941
| 99>    H       -5.91991       -16.56322        -7.49394
|100>    H       -1.85600       -15.95858        -8.85130
|101>    H       -4.91042       -18.52803        -8.92344
|102>    H       -1.99315       -18.10267        -9.78977
|103>    H       -1.24775       -21.97612       -11.93205
|104>    H       -3.47863       -23.25590       -11.73632
|105> *
|106>
|107>                          ****END OF INPUT****

CARTESIAN COORDINATES (ANGSTROEM)
---------------------------------
  C     -1.481340   -1.239680   -5.959050
  N     -0.238660   -1.581690   -5.643880
  C     -0.067670   -2.466400   -4.703250
  C     -1.195420   -3.113610   -4.121270
  N     -2.392020   -2.613830   -4.433030
  N     -2.530920   -1.678480   -5.294150
  C     -1.103490   -4.194660   -3.198840
  C     -0.257240   -5.312650   -3.246500
  N      0.626450   -5.644050   -4.270200
  O      1.381080   -6.589330   -4.104990
  O      0.597490   -4.976320   -5.302620
  C     -0.576220   -6.170440   -2.155340
  C     -1.643390   -5.634260   -1.484460
  C     -1.998410   -4.397750   -2.092900
  C     -2.956920   -3.475740   -1.630670
  C     -2.785330   -2.088160   -1.522850
  C     -3.813960   -1.559900   -0.759990
  C     -4.696210   -2.593030   -0.400630
  N     -5.860940   -2.387550    0.340690
  O     -6.588640   -3.344570    0.586220
  O     -6.095600   -1.251280    0.723580
  C     -4.231540   -3.808880   -0.981760
  C     -4.965590   -4.976150   -1.108110
  C     -4.711600   -5.986550   -2.028910
  C     -5.503230   -7.114600   -2.186470
  C     -6.728910   -7.395470   -1.523770
  C     -7.301670   -8.516720   -2.083390
  O     -8.442380   -9.138500   -1.777910
  C     -9.210350   -8.600670   -0.719250
  C     -6.429740   -9.039640   -3.108630
  C     -5.319990   -8.135270   -3.213770
  C     -4.304430   -8.167710   -4.159380
  C     -2.982430   -7.709480   -4.031890
  C     -2.314910   -7.960690   -5.218940
  O     -1.037550   -7.703230   -5.387840
  C     -0.384240   -8.089410   -6.584120
  C     -3.266880   -8.527970   -6.176810
  C     -4.442820   -8.673890   -5.546720
  C     -6.602470  -10.297330   -3.684670
  C     -5.612010  -11.002060   -4.336530
  C     -5.762970  -12.199900   -5.036510
  C     -4.731910  -12.833560   -5.735020
  C     -5.224960  -13.989750   -6.357480
  C     -6.655030  -14.072020   -5.993550
  C     -6.966230  -12.993210   -5.227970
  C     -7.559750  -15.065330   -6.384240
  N     -8.327650  -15.864280   -6.686750
  C     -4.522640  -14.878780   -7.161110
  C     -4.954370  -16.128660   -7.665810
  C     -3.921960  -16.714890   -8.381240
  C     -2.798880  -15.799610   -8.363150
  C     -3.144210  -14.699010   -7.635100
  C     -2.339800  -13.572030   -7.447280
  N     -1.670480  -12.644780   -7.323690
  C     -3.975150  -17.988670   -9.002390
  C     -2.955070  -18.577500   -9.671600
  C     -3.070690  -19.873850  -10.265980
  N     -1.992580  -20.381090  -10.892920
  C     -2.113510  -21.571360  -11.424670
  C     -3.322370  -22.271290  -11.326460
  N     -4.341200  -21.707920  -10.702180
  N     -4.231170  -20.541760  -10.186280
  H     -1.640070   -0.539340   -6.763280
  H      0.937800   -2.641810   -4.352260
  H     -0.059190   -7.086620   -1.943470
  H     -2.106500   -6.026380   -0.598620
  H     -1.935350   -1.539700   -1.882200
  H     -3.934620   -0.533560   -0.467420
  H     -5.858280   -5.037690   -0.500500
  H     -3.888000   -5.852250   -2.711980
  H     -7.147290   -6.793650   -0.740360
  H    -10.085150   -9.241100   -0.626940
  H     -9.525030   -7.577940   -0.942490
  H     -8.646420   -8.609960    0.217210
  H     -2.507040   -7.370140   -3.134990
  H      0.667040   -7.853020   -6.427290
  H     -0.764380   -7.518300   -7.434930
  H     -0.502290   -9.159070   -6.770850
  H     -3.044730   -8.761080   -7.200370
  H     -5.374050   -8.988190   -5.976730
  H     -7.571850  -10.755780   -3.538820
  H     -4.605510  -10.605110   -4.310920
  H     -3.720490  -12.481820   -5.785550
  H     -7.933320  -12.766730   -4.819410
  H     -5.919910  -16.563220   -7.493940
  H     -1.856000  -15.958580   -8.851300
  H     -4.910420  -18.528030   -8.923440
  H     -1.993150  -18.102670   -9.789770
  H     -1.247750  -21.976120  -11.932050
  H     -3.478630  -23.255900  -11.736320

 Total Charge           Charge          ....    0
 Multiplicity           Mult            ....    1
 Number of Electrons    NEL             ....  422
 Basis Dimension        Dim             .... 1008

ORBITAL ENERGIES
----------------

  NO   OCC          E(Eh)            E(eV)
   0   2.0000     -19.300138      -525.1835
   1   2.0000     -19.282506      -524.7037
   2   2.0000     -19.227144      -523.1972
   3   2.0000     -19.222978      -523.0838
   4   2.0000     -19.209254      -522.7104
   5   2.0000     -19.208247      -522.6830
   6   2.0000     -14.632220      -398.1629
   7   2.0000     -14.619974      -397.8297
   8   2.0000     -14.458729      -393.4420
   9   2.0000     -14.449208      -393.1829
  10   2.0000     -14.436761      -392.8442
  11   2.0000     -14.436187      -392.8286
  12   2.0000     -14.426346      -392.5608
  13   2.0000     -14.419203      -392.3665
  14   2.0000     -14.417870      -392.3302
  15   2.0000     -14.413185      -392.2027
  16   2.0000     -10.386707      -282.6367
  17   2.0000     -10.364050      -282.0202
  18   2.0000     -10.357578      -281.8440
  19   2.0000     -10.346223      -281.5350
  20   2.0000     -10.340587      -281.3817
  21   2.0000     -10.340479      -281.3787
  22   2.0000     -10.336579      -281.2726
  23   2.0000     -10.330902      -281.1181
  24   2.0000     -10.328630      -281.0563
  25   2.0000     -10.328326      -281.0480
  26   2.0000     -10.326388      -280.9953
  27   2.0000     -10.324106      -280.9332
  28   2.0000     -10.321970      -280.8751
  29   2.0000     -10.321034      -280.8496
  30   2.0000     -10.319869      -280.8179
  31   2.0000     -10.319402      -280.8052
  32   2.0000     -10.319247      -280.8010
  33   2.0000     -10.318972      -280.7935
  34   2.0000     -10.317164      -280.7443
  35   2.0000     -10.316818      -280.7349
  36   2.0000     -10.315989      -280.7123
  37   2.0000     -10.315296      -280.6935
  38   2.0000     -10.315009      -280.6857
  39   2.0000     -10.314598      -280.6745
  40   2.0000     -10.313237      -280.6374
  41   2.0000     -10.312008      -280.6040
  42   2.0000     -10.310750      -280.5698
  43   2.0000     -10.310661      -280.5673
  44   2.0000     -10.309980      -280.5488
  45   2.0000     -10.307196      -280.4731
  46   2.0000     -10.306205      -280.4461
  47   2.0000     -10.305786      -280.4347
  48   2.0000     -10.300466      -280.2899
  49   2.0000     -10.300139      -280.2810
  50   2.0000     -10.298485      -280.2360
  51   2.0000     -10.295572      -280.1568
  52   2.0000     -10.294471      -280.1268
  53   2.0000     -10.292832      -280.0822
  54   2.0000     -10.292793      -280.0811
  55   2.0000     -10.290845      -280.0281
  56   2.0000     -10.288643      -279.9682
  57   2.0000     -10.283950      -279.8405
  58   2.0000     -10.272515      -279.5293
  59   2.0000     -10.267433      -279.3911
  60   2.0000     -10.265722      -279.3445
  61   2.0000     -10.263313      -279.2789
  62   2.0000      -1.300537       -35.3894
  63   2.0000      -1.286880       -35.0178
  64   2.0000      -1.204400       -32.7734
  65   2.0000      -1.188291       -32.3350
  66   2.0000      -1.152744       -31.3678
  67   2.0000      -1.134052       -30.8591
  68   2.0000      -1.116677       -30.3863
  69   2.0000      -1.103306       -30.0225
  70   2.0000      -1.034925       -28.1617
  71   2.0000      -1.024918       -27.8894
  72   2.0000      -1.015369       -27.6296
  73   2.0000      -1.012880       -27.5619
  74   2.0000      -1.009351       -27.4658
  75   2.0000      -0.997869       -27.1534
  76   2.0000      -0.994774       -27.0692
  77   2.0000      -0.990658       -26.9572
  78   2.0000      -0.989293       -26.9200
  79   2.0000      -0.977996       -26.6126
  80   2.0000      -0.949516       -25.8376
  81   2.0000      -0.933304       -25.3965
  82   2.0000      -0.921076       -25.0637
  83   2.0000      -0.909493       -24.7486
  84   2.0000      -0.899170       -24.4676
  85   2.0000      -0.889887       -24.2151
  86   2.0000      -0.878626       -23.9086
  87   2.0000      -0.870924       -23.6990
  88   2.0000      -0.863226       -23.4896
  89   2.0000      -0.862291       -23.4641
  90   2.0000      -0.858060       -23.3490
  91   2.0000      -0.849566       -23.1179
  92   2.0000      -0.838217       -22.8090
  93   2.0000      -0.823188       -22.4001
  94   2.0000      -0.816733       -22.2244
  95   2.0000      -0.810533       -22.0557
  96   2.0000      -0.798160       -21.7190
  97   2.0000      -0.788439       -21.4545
  98   2.0000      -0.784718       -21.3533
  99   2.0000      -0.780807       -21.2468
 100   2.0000      -0.767880       -20.8951
 101   2.0000      -0.760071       -20.6826
 102   2.0000      -0.756780       -20.5930
 103   2.0000      -0.739247       -20.1159
 104   2.0000      -0.734392       -19.9838
 105   2.0000      -0.728602       -19.8263
 106   2.0000      -0.714512       -19.4429
 107   2.0000      -0.712011       -19.3748
 108   2.0000      -0.702375       -19.1126
 109   2.0000      -0.690357       -18.7856
 110   2.0000      -0.681353       -18.5406
 111   2.0000      -0.670487       -18.2449
 112   2.0000      -0.662737       -18.0340
 113   2.0000      -0.659450       -17.9446
 114   2.0000      -0.656864       -17.8742
 115   2.0000      -0.651985       -17.7414
 116   2.0000      -0.647589       -17.6218
 117   2.0000      -0.641738       -17.4626
 118   2.0000      -0.640628       -17.4324
 119   2.0000      -0.635001       -17.2792
 120   2.0000      -0.627394       -17.0723
 121   2.0000      -0.622720       -16.9451
 122   2.0000      -0.619684       -16.8625
 123   2.0000      -0.614750       -16.7282
 124   2.0000      -0.614138       -16.7115
 125   2.0000      -0.612727       -16.6732
 126   2.0000      -0.609386       -16.5822
 127   2.0000      -0.604485       -16.4489
 128   2.0000      -0.600907       -16.3515
 129   2.0000      -0.598723       -16.2921
 130   2.0000      -0.590536       -16.0693
 131   2.0000      -0.586146       -15.9498
 132   2.0000      -0.585532       -15.9331
 133   2.0000      -0.583326       -15.8731
 134   2.0000      -0.570380       -15.5208
 135   2.0000      -0.569827       -15.5058
 136   2.0000      -0.567399       -15.4397
 137   2.0000      -0.561796       -15.2872
 138   2.0000      -0.559393       -15.2219
 139   2.0000      -0.555845       -15.1253
 140   2.0000      -0.554430       -15.0868
 141   2.0000      -0.551154       -14.9977
 142   2.0000      -0.544412       -14.8142
 143   2.0000      -0.542429       -14.7603
 144   2.0000      -0.538200       -14.6452
 145   2.0000      -0.534457       -14.5433
 146   2.0000      -0.533092       -14.5062
 147   2.0000      -0.529376       -14.4050
 148   2.0000      -0.525537       -14.3006
 149   2.0000      -0.520495       -14.1634
 150   2.0000      -0.518845       -14.1185
 151   2.0000      -0.514601       -14.0030
 152   2.0000      -0.512507       -13.9460
 153   2.0000      -0.508822       -13.8457
 154   2.0000      -0.506979       -13.7956
 155   2.0000      -0.504199       -13.7199
 156   2.0000      -0.502485       -13.6733
 157   2.0000      -0.501294       -13.6409
 158   2.0000      -0.499196       -13.5838
 159   2.0000      -0.497564       -13.5394
 160   2.0000      -0.494095       -13.4450
 161   2.0000      -0.490576       -13.3493
 162   2.0000      -0.485943       -13.2232
 163   2.0000      -0.482948       -13.1417
 164   2.0000      -0.477570       -12.9953
 165   2.0000      -0.471395       -12.8273
 166   2.0000      -0.471124       -12.8199
 167   2.0000      -0.467118       -12.7109
 168   2.0000      -0.461211       -12.5502
 169   2.0000      -0.460795       -12.5389
 170   2.0000      -0.455600       -12.3975
 171   2.0000      -0.453187       -12.3319
 172   2.0000      -0.450672       -12.2634
 173   2.0000      -0.449827       -12.2404
 174   2.0000      -0.448213       -12.1965
 175   2.0000      -0.446285       -12.1440
 176   2.0000      -0.440247       -11.9797
 177   2.0000      -0.437505       -11.9051
 178   2.0000      -0.434651       -11.8275
 179   2.0000      -0.434053       -11.8112
 180   2.0000      -0.431362       -11.7379
 181   2.0000      -0.425309       -11.5733
 182   2.0000      -0.420680       -11.4473
 183   2.0000      -0.420304       -11.4371
 184   2.0000      -0.417658       -11.3650
 185   2.0000      -0.410088       -11.1591
 186   2.0000      -0.407074       -11.0770
 187   2.0000      -0.406721       -11.0675
 188   2.0000      -0.402292       -10.9469
 189   2.0000      -0.394969       -10.7476
 190   2.0000      -0.382478       -10.4078
 191   2.0000      -0.377291       -10.2666
 192   2.0000      -0.368977       -10.0404
 193   2.0000      -0.365345        -9.9415
 194   2.0000      -0.362062        -9.8522
 195   2.0000      -0.359977        -9.7955
 196   2.0000      -0.358757        -9.7623
 197   2.0000      -0.351084        -9.5535
 198   2.0000      -0.343458        -9.3460
 199   2.0000      -0.338624        -9.2144
 200   2.0000      -0.337533        -9.1847
 201   2.0000      -0.333552        -9.0764
 202   2.0000      -0.326684        -8.8895
 203   2.0000      -0.316046        -8.6001
 204   2.0000      -0.298046        -8.1103
 205   2.0000      -0.297743        -8.1020
 206   2.0000      -0.290189        -7.8965
 207   2.0000      -0.283605        -7.7173
 208   2.0000      -0.278114        -7.5679
 209   2.0000      -0.270111        -7.3501
 210   2.0000      -0.231637        -6.3032
 211   0.0000      -0.155277        -4.2253
 212   0.0000      -0.118649        -3.2286
 213   0.0000      -0.110551        -3.0083
 214   0.0000      -0.051609        -1.4043
 215   0.0000      -0.045918        -1.2495

MULLIKEN ATOMIC CHARGES
-----------------------
   0 C :    0.058580
   1 N :   -0.066339
   2 C :    0.094935
   3 C :   -0.162679
   4 N :   -0.058120
   5 N :   -0.084816
   6 C :    0.105507
   7 C :    0.061162
   8 N :    0.284145
   9 O :   -0.259754
  10 O :   -0.281171
  11 C :   -0.022325
  12 C :   -0.033575
  13 C :    0.002108
  14 C :    0.067344
  15 C :    0.005571
  16 C :    0.029014
  17 C :    0.062158
  18 N :    0.282475
  19 O :   -0.291369
  20 O :   -0.274027
  21 C :    0.055517
  22 C :   -0.047854
  23 C :   -0.003072
  24 C :    0.089051
  25 C :   -0.137788
  26 C :    0.211923
  27 O :   -0.284830
  28 C :    0.173380
  29 C :    0.019465
  30 C :    0.097677
  31 C :   -0.030540
  32 C :   -0.081826
  33 C :    0.237074
  34 O :   -0.227146
  35 C :    0.148113
  36 C :   -0.038761
  37 C :    0.028329
  38 C :   -0.012354
  39 C :   -0.038369
  40 C :    0.115552
  41 C :   -0.123216
  42 C :    0.138980
  43 C :   -0.097405
  44 C :   -0.003580
  45 C :   -0.178184
  46 N :    0.142720
  47 C :    0.118035
  48 C :   -0.101267
  49 C :    0.119253
  50 C :    0.001299
  51 C :   -0.102589
  52 C :   -0.176272
  53 N :    0.118228
  54 C :    0.024711
  55 C :    0.040327
  56 C :   -0.071803
  57 N :   -0.044170
  58 C :    0.043157
  59 C :    0.033090
  60 N :   -0.037759
  61 N :   -0.065889
  62 H :    0.023818
  63 H :    0.004080
  64 H :   -0.016084
  65 H :   -0.020310
  66 H :   -0.018603
  67 H :    0.005479
  68 H :    0.013408
  69 H :    0.034503
  70 H :    0.003577
  71 H :    0.049449
  72 H :    0.039435
  73 H :    0.035944
  74 H :   -0.023604
  75 H :    0.070926
  76 H :    0.045367
  77 H :    0.055549
  78 H :    0.006326
  79 H :    0.019365
  80 H :    0.003369
  81 H :    0.032562
  82 H :   -0.001007
  83 H :    0.001772
  84 H :    0.006680
  85 H :   -0.000334
  86 H :    0.022568
  87 H :   -0.010797
  88 H :    0.023477
  89 H :    0.023053
Sum of atomic charges:   -0.0000000

LOEWDIN ATOMIC CHARGES
----------------------
   0 C :    0.017197
   1 N :   -0.059320
   2 C :    0.051707
   3 C :   -0.030535
   4 N :   -0.029028
   5 N :   -0.063484
   6 C :   -0.043745
   7 C :   -0.059861
   8 N :    0.293278
   9 O :   -0.222316
  10 O :   -0.235448
  11 C :   -0.037006
  12 C :   -0.052326
  13 C :   -0.016389
  14 C :    0.072522
  15 C :   -0.060032
  16 C :    0.065955
  17 C :   -0.105212
  18 N :    0.288230
  19 O :   -0.256687
  20 O :   -0.238052
  21 C :    0.028344
  22 C :    0.009997
  23 C :    0.041226
  24 C :   -0.017600
  25 C :   -0.041623
  26 C :    0.054017
  27 O :   -0.079574
  28 C :    0.086253
  29 C :   -0.026364
  30 C :   -0.002237
  31 C :    0.055540
  32 C :   -0.116290
  33 C :    0.124087
  34 O :   -0.016752
  35 C :    0.086869
  36 C :   -0.046036
  37 C :    0.021606
  38 C :    0.005542
  39 C :    0.000750
  40 C :   -0.015716
  41 C :   -0.028391
  42 C :    0.033225
  43 C :   -0.069354
  44 C :    0.048180
  45 C :   -0.032157
  46 N :   -0.053839
  47 C :    0.031971
  48 C :   -0.016988
  49 C :   -0.018430
  50 C :    0.054669
  51 C :   -0.086686
  52 C :   -0.023264
  53 N :   -0.080836
  54 C :    0.028080
  55 C :   -0.030179
  56 C :    0.006712
  57 N :   -0.063392
  58 C :    0.034302
  59 C :   -0.026705
  60 N :   -0.010446
  61 N :   -0.055905
  62 H :    0.022846
  63 H :    0.023896
  64 H :    0.028812
  65 H :    0.022984
  66 H :    0.025346
  67 H :    0.040056
  68 H :    0.034392
  69 H :    0.043624
  70 H :    0.034973
  71 H :    0.033996
  72 H :    0.023988
  73 H :    0.022773
  74 H :    0.031449
  75 H :    0.040151
  76 H :    0.027778
  77 H :    0.030038
  78 H :    0.036401
  79 H :    0.037112
  80 H :    0.038552
  81 H :    0.043979
  82 H :    0.033647
  83 H :    0.036732
  84 H :    0.036985
  85 H :    0.036285
  86 H :    0.044429
  87 H :    0.033636
  88 H :    0.030559
  89 H :    0.032523

  Mayer bond orders larger than 0.100000
B(  0-C ,  1-N ) :   1.4515 B(  0-C ,  5-N ) :   1.5367 B(  0-C , 62-H ) :   0.9808
B(  1-N ,  2-C ) :   1.6333 B(  2-C ,  3-C ) :   1.2520 B(  2-C , 63-H ) :   0.9769
B(  3-C ,  4-N ) :   1.5601 B(  3-C ,  6-C ) :   0.9800 B(  4-N ,  5-N ) :   1.3172
B(  6-C ,  7-C ) :   1.4251 B(  6-C , 13-C ) :   1.2184 B(  7-C ,  8-N ) :   0.9656
B(  7-C , 11-C ) :   1.2132 B(  8-N ,  9-O ) :   1.5064 B(  8-N , 10-O ) :   1.4688
B(  9-O , 10-O ) :   0.2411 B( 11-C , 12-C ) :   1.4654 B( 11-C , 64-H ) :   1.0154
B( 12-C , 13-C ) :   1.1824 B( 12-C , 65-H ) :   1.0124 B( 13-C , 14-C ) :   1.2375
B( 14-C , 15-C ) :   1.3556 B( 14-C , 21-C ) :   1.0024 B( 15-C , 16-C ) :   1.3475
B( 15-C , 66-H ) :   1.0066 B( 16-C , 17-C ) :   1.2663 B( 16-C , 67-H ) :   1.0086
B( 17-C , 18-N ) :   0.9955 B( 17-C , 21-C ) :   1.2506 B( 18-N , 19-O ) :   1.4638
B( 18-N , 20-O ) :   1.5192 B( 19-O , 20-O ) :   0.2301 B( 21-C , 22-C ) :   1.4276
B( 22-C , 23-C ) :   1.2776 B( 22-C , 68-H ) :   0.9505 B( 23-C , 24-C ) :   1.3560
B( 23-C , 69-H ) :   0.9571 B( 24-C , 25-C ) :   1.2016 B( 24-C , 30-C ) :   1.1167
B( 25-C , 26-C ) :   1.3425 B( 25-C , 70-H ) :   1.0181 B( 26-C , 27-O ) :   1.2198
B( 26-C , 29-C ) :   1.2094 B( 27-O , 28-C ) :   0.9360 B( 28-C , 71-H ) :   0.9798
B( 28-C , 72-H ) :   0.9717 B( 28-C , 73-H ) :   0.9708 B( 29-C , 30-C ) :   1.1513
B( 29-C , 38-C ) :   1.2742 B( 30-C , 31-C ) :   1.3570 B( 31-C , 32-C ) :   1.2657
B( 31-C , 37-C ) :   1.0092 B( 32-C , 33-C ) :   1.3951 B( 32-C , 74-H ) :   1.0050
B( 33-C , 34-O ) :   1.3017 B( 33-C , 36-C ) :   1.0200 B( 34-O , 35-C ) :   0.8984
B( 35-C , 75-H ) :   0.9708 B( 35-C , 76-H ) :   0.9736 B( 35-C , 77-H ) :   0.9711
B( 36-C , 37-C ) :   1.7079 B( 36-C , 78-H ) :   1.0114 B( 37-C , 79-H ) :   0.9931
B( 38-C , 39-C ) :   1.4393 B( 38-C , 80-H ) :   0.9640 B( 39-C , 40-C ) :   1.2132
B( 39-C , 81-H ) :   0.9522 B( 40-C , 41-C ) :   1.4232 B( 40-C , 44-C ) :   1.0416
B( 41-C , 42-C ) :   1.1761 B( 41-C , 82-H ) :   1.0098 B( 42-C , 43-C ) :   1.1012
B( 42-C , 47-C ) :   1.3404 B( 43-C , 44-C ) :   1.6889 B( 43-C , 45-C ) :   1.0892
B( 44-C , 83-H ) :   1.0159 B( 45-C , 46-N ) :   2.9741 B( 47-C , 48-C ) :   1.1407
B( 47-C , 51-C ) :   1.1210 B( 48-C , 49-C ) :   1.4922 B( 48-C , 84-H ) :   1.0120
B( 49-C , 50-C ) :   1.0588 B( 49-C , 54-C ) :   1.0838 B( 50-C , 51-C ) :   1.6484
B( 50-C , 85-H ) :   1.0164 B( 51-C , 52-C ) :   1.0939 B( 52-C , 53-N ) :   2.9691
B( 54-C , 55-C ) :   1.6469 B( 54-C , 86-H ) :   0.9809 B( 55-C , 56-C ) :   1.0712
B( 55-C , 87-H ) :   0.9669 B( 56-C , 57-N ) :   1.4964 B( 56-C , 61-N ) :   1.5291
B( 57-N , 58-C ) :   1.5858 B( 58-C , 59-C ) :   1.2989 B( 58-C , 88-H ) :   0.9730
B( 59-C , 60-N ) :   1.5474 B( 59-C , 89-H ) :   0.9838 B( 60-N , 61-N ) :   1.3489

-----------------------------------------------------------------------------
         ABSORPTION SPECTRUM VIA TRANSITION ELECTRIC DIPOLE MOMENTS
-----------------------------------------------------------------------------
State   Energy  Wavelength   fosc         T2         TX        TY        TZ
        (cm-1)    (nm)                  (au**2)     (au)      (au)      (au)
-----------------------------------------------------------------------------
   0    1587.1   6300.9   0.036905737   7.65549  -0.59788  -2.48404  -1.06186
   1    8061.0   1240.5   0.024559333   1.00300   0.84264  -0.00628  -0.54122
   2    9972.4   1002.8   0.235958510   7.78952   0.04082  -2.32887  -1.53761
   3   10703.4    934.3   0.209821527   6.45365  -0.80152   2.10326   1.17792
   4   11486.2    870.6   0.022613117   0.64813   0.23305  -0.75372  -0.16039
   5   12380.4    807.7   0.071672272   1.90586  -0.33812  -1.33765  -0.04733
   6   13442.3    743.9   0.183830088   4.50213   1.28642  -1.08718  -1.29046
   7   15321.4    652.7   0.024838366   0.53370   0.56276  -0.09832  -0.45535
   8   17208.0    581.1   0.023505853   0.44970   0.24021   0.35102   0.51845
   9   17819.4    561.2   0.000099292   0.00183  -0.02052  -0.03145   0.02059
  10   18540.1    539.4   0.041978987   0.74541   0.62150   0.59917   0.01180
  11   18857.3    530.3   0.069209700   1.20827   0.71003   0.83392   0.09328
  12   19306.6    518.0   0.130466930   2.22469   0.32570   1.25493   0.73740
  13   19691.0    507.8   0.101715155   1.70057   1.00695   0.80424  -0.19957
  14   20762.0    481.6   0.041591413   0.65949  -0.42698   0.48263   0.49422
  15   21102.3    473.9   0.010463632   0.16324   0.33712   0.19792   0.10207
  16   22180.2    450.9   0.312885855   4.64405   0.19376   2.04783   0.64258
  17   22296.8    448.5   0.035846220   0.52927  -0.00382   0.65312   0.32045
  18   23149.2    432.0   0.398176688   5.66260   1.30391  -1.14939  -1.62522
  19   23418.3    427.0   0.314930405   4.42726   0.80339  -1.37161  -1.37859
  20   23997.1    416.7   0.025204173   0.34577  -0.17578   0.47833   0.29338
  21   24118.8    414.6   0.001124347   0.01535   0.02516  -0.07087  -0.09844
  22   24307.4    411.4   0.080459431   1.08972  -0.87061   0.26486   0.51147
  23   24612.3    406.3   0.013020711   0.17416   0.02270   0.41596   0.02504
  24   24967.2    400.5   0.184311712   2.43030  -0.97610   0.85770   0.86132
  25   25555.1    391.3   0.012913508   0.16636  -0.11698   0.16543  -0.35398
  26   25593.4    390.7   0.023376582   0.30070  -0.03057   0.48926   0.24574
  27   26864.1    372.2   0.104279205   1.27791   0.46286  -0.52767  -0.88613
  28   27323.4    366.0   0.000068258   0.00082   0.00390   0.02649   0.01027
  29   27665.5    361.5   0.044375912   0.52806   0.25147  -0.63137  -0.25728
  30   27776.9    360.0   0.207167053   2.45534  -0.48868   1.25516   0.80070
  31   28092.8    356.0   0.034222318   0.40104  -0.50632  -0.36414   0.10992
  32   28385.8    352.3   0.004265675   0.04947  -0.19649   0.03445   0.09836
  33   28887.6    346.2   0.064657871   0.73686  -0.44156   0.72286   0.13916
  34   29108.8    343.5   0.013235656   0.14969   0.02625  -0.29534  -0.24855
  35   29543.7    338.5   0.013301935   0.14823   0.31937   0.20835  -0.05311
  36   29775.5    335.8   0.012714494   0.14058   0.07983  -0.23278  -0.28288
  37   30287.0    330.2   0.092906557   1.00987  -0.76031  -0.40984   0.51365
  38   30576.1    327.1   0.157026099   1.69070   0.59770  -0.83307  -0.79965
  39   30662.8    326.1   0.275364614   2.95646   0.32872  -1.46493  -0.83808
  40   30744.8    325.3   0.005662078   0.06063  -0.06598   0.20294   0.12284
  41   30958.8    323.0   0.029692295   0.31574   0.34257  -0.40476  -0.18590
  42   31014.4    322.4   0.025771946   0.27356   0.16903  -0.34531   0.35462
  43   31371.2    318.8   0.232006895   2.43470   1.03088  -0.91800  -0.72749
  44   31429.3    318.2   0.005961318   0.06244  -0.16681   0.07519   0.17018
  45   31468.8    317.8   0.007930756   0.08297   0.17594   0.08446  -0.21185
  46   31894.1    313.5   0.010014106   0.10337   0.00245   0.15500   0.28166
  47   32112.4    311.4   0.015098051   0.15478  -0.02161   0.39283  -0.00132
  48   32251.2    310.1   0.014401847   0.14701  -0.11470  -0.36099   0.05951
  49   32816.4    304.7   0.026011067   0.26094   0.45823   0.11761  -0.19271
  50   33193.5    301.3   0.026331504   0.26116   0.16513   0.25222  -0.41264
  51   33330.4    300.0   0.003193605   0.03154   0.17427   0.00777  -0.03338
  52   33798.0    295.9   0.105952559   1.03204   0.75713  -0.39164  -0.55264
  53   33917.5    294.8   0.029049780   0.28196  -0.09865  -0.45078  -0.26273
  54   34207.8    292.3   0.109755120   1.05627   0.81159  -0.35886  -0.51846
  55   34219.4    292.2   0.001839786   0.01770   0.10766  -0.04041  -0.06690
  56   34518.3    289.7   0.032813307   0.31295  -0.44249   0.30166   0.16171
  57   35252.4    283.7   0.022299284   0.20825   0.36502  -0.17802  -0.20813
  58   35382.4    282.6   0.000620010   0.00577  -0.04104  -0.06379  -0.00398
  59   35484.3    281.8   0.007478930   0.06939   0.16819  -0.08097  -0.18586
  60   35756.0    279.7   0.019933055   0.18353   0.39587   0.03170  -0.16066
  61   35818.1    279.2   0.005041930   0.04634  -0.20127   0.00222   0.07635
  62   35855.5    278.9   0.007395218   0.06790   0.11732  -0.19996  -0.11897
  63   36091.1    277.1   0.161896017   1.47677   0.25963   1.14330   0.31973
  64   36564.5    273.5   0.123886843   1.11543  -0.30849   0.60858   0.80616
  65   36616.0    273.1   0.113333780   1.01898   0.25574  -0.72031  -0.65934
  66   36651.6    272.8   0.254445772   2.28548  -0.47720   1.34975   0.48573
  67   36789.1    271.8   0.059532230   0.53273   0.04070   0.68864   0.23844
  68   36968.1    270.5   0.040080237   0.35693   0.10347   0.55700   0.18967
  69   37595.5    266.0   0.000552254   0.00484   0.04088  -0.03509  -0.04396
  70   37786.1    264.6   0.001583435   0.01380   0.00539  -0.06664  -0.09657
  71   38045.9    262.8   0.022275865   0.19275   0.39966  -0.14462  -0.11006
  72   38178.4    261.9   0.031030744   0.26758   0.41700  -0.06075  -0.30000
  73   38462.0    260.0   0.057853081   0.49519  -0.37798  -0.58801   0.08099
  74   38641.6    258.8   0.182941501   1.55859  -1.06539  -0.49116   0.42696
  75   38743.6    258.1   0.002189150   0.01860   0.09334   0.09922   0.00661
  76   38966.8    256.6   0.020265831   0.17122  -0.17137  -0.30778  -0.21707
  77   39315.8    254.4   0.023062102   0.19311  -0.26764   0.20555  -0.28148
  78   39491.9    253.2   0.039943030   0.33297  -0.23183   0.48062  -0.21961
  79   39788.0    251.3   0.008540519   0.07067   0.16101  -0.08897  -0.19190
  80   39840.6    251.0   0.017821896   0.14727  -0.08830  -0.15137   0.34140
  81   40282.6    248.2   0.014432005   0.11795   0.27872   0.18384   0.08039

FINAL SINGLE POINT ENERGY     -2764.572091883794

DIPOLE MOMENT
-------------
                                X             Y             Z
Electronic contribution:      3.98150       4.84240      -1.16206
Nuclear contribution   :     -4.13003      -8.26440       0.00037
                        -----------------------------------------
Total Dipole Moment    :     -0.14853      -3.42200      -1.16169
                        -----------------------------------------
Magnitude (a.u.)       :      3.61686
Magnitude (Debye)      :      9.19332

Rotational constants in cm-1:     0.002350     0.000459     0.000397
Rotational constants in MHz :    70.444569    13.765423    11.902384

                             ****ORCA TERMINATED NORMALLY****
TOTAL RUN TIME: 0 days 0 hours 9 minutes 17 seconds 257 msec
