                         Program Version 4.2.0 -  RELEASE  -
|  1> # ORCA input file
|  2> # SCF done       -176.028492317120          0.000981125451
|  3> ! CAM-B3LYP def2-SVP def2/J RIJCOSX Grid4 TightSCF
|  4> %maxcore 5000
|  5> %tddft
|  6>     Mode sTDDFT
|  7>     Ethresh 5.0
|  8>     maxcore 5000
|  9> end
| 10>
| 11> %pal
| 12>   nprocs 6
| 13>   end
| 14> * xyz 0 1
| 15>    C       -0.18094         1.67493        -5.85538
| 16>    C        0.98123         1.09001        -6.18938
| 17>    C        2.21323         1.81064        -6.00810
| 18>    C        3.44665         1.25055        -6.29068
| 19>    C        4.65021         1.93856        -6.06175
| 20>    N        5.63983         2.48140        -5.85160
| 21>    C        3.56567        -0.05158        -6.80358
| 22>    N        3.65769        -1.12097        -7.21314
| 23>    C        2.07945         3.13587        -5.49780
| 24>    C        0.85276         3.64046        -5.19337
| 25>    O       -0.28355         2.91666        -5.35994
| 26>    C        0.62974         4.94882        -4.61289
| 27>    C        1.10202         6.18089        -5.02853
| 28>    N        1.88767         6.48162        -6.16138
| 29>    O        2.10497         7.65706        -6.38715
| 30>    O        2.27996         5.56271        -6.85891
| 31>    C        0.53985         7.21149        -4.19251
| 32>    C       -0.30902         6.63310        -3.31178
| 33>    C       -0.29657         5.20585        -3.52098
| 34>    C       -0.91576         4.24926        -2.72935
| 35>    C       -0.41091         2.95809        -2.41550
| 36>    C       -1.14652         2.42762        -1.39015
| 37>    C       -2.20089         3.32666        -1.06219
| 38>    N       -3.17380         3.04347        -0.09392
| 39>    O       -4.05485         3.86868         0.11268
| 40>    O       -3.08208         1.98527         0.50349
| 41>    C       -2.11821         4.45143        -1.89806
| 42>    C       -3.07774         5.46229        -2.03272
| 43>    C       -3.19421         6.26333        -3.14360
| 44>    C       -4.00128         7.38740        -3.36000
| 45>    N       -4.86163         8.06678        -2.52858
| 46>    C       -5.29177         7.70331        -1.19714
| 47>    C       -6.35148         6.60593        -1.21888
| 48>    C       -5.38792         9.21281        -3.14667
| 49>    O       -6.16885         9.97115        -2.60790
| 50>    C       -4.78133         9.23653        -4.46562
| 51>    C       -3.95396         8.11174        -4.56486
| 52>    C       -3.29894         8.13015        -5.85691
| 53>    O       -2.49929         7.38182        -6.37140
| 54>    N       -3.79581         9.30109        -6.47038
| 55>    C       -3.40708         9.65882        -7.81418
| 56>    C       -4.47971         9.28379        -8.83343
| 57>    C       -4.67564         9.97252        -5.66152
| 58>    C       -5.30754        11.18552        -6.00588
| 59>    C       -6.16227        11.81608        -5.15028
| 60>    C       -6.82218        13.03854        -5.40927
| 61>    S       -7.84382        13.72622        -4.17635
| 62>    C       -8.23819        15.09174        -5.16521
| 63>    C       -7.59343        14.99651        -6.40652
| 64>    C       -6.80430        13.84774        -6.53304
| 65>    C       -7.69905        15.93434        -7.44963
| 66>    N       -7.75398        16.66769        -8.32942
| 67>    C       -9.10647        16.08638        -4.64668
| 68>    C       -9.51559        17.20775        -5.28643
| 69>    C      -10.39999        18.16379        -4.68577
| 70>    C      -10.82521        19.28583        -5.33775
| 71>    C      -11.71189        20.21008        -4.70950
| 72>    C      -12.16767        21.34990        -5.34273
| 73>    C      -13.04557        22.24565        -4.70834
| 74>    N      -13.76366        22.97177        -4.18326
| 75>    C      -11.78445        21.67852        -6.65456
| 76>    N      -11.47018        21.94474        -7.72625
| 77>    C      -12.10156        19.86822        -3.36407
| 78>    C      -11.62997        18.74457        -2.80412
| 79>    O      -10.79782        17.88319        -3.41516
| 80>    H       -1.14570         1.19978        -5.95136
| 81>    H        1.00141         0.08674        -6.58171
| 82>    H        2.96310         3.73313        -5.34457
| 83>    H        0.78315         8.25107        -4.29446
| 84>    H       -0.83711         7.12150        -2.51665
| 85>    H        0.48660         2.53316        -2.82254
| 86>    H       -0.98243         1.49215        -0.88885
| 87>    H       -3.79450         5.52418        -1.22646
| 88>    H       -2.58675         6.02396        -4.00807
| 89>    H       -5.71796         8.61195        -0.76197
| 90>    H       -4.42477         7.40565        -0.60344
| 91>    H       -7.24603         6.96190        -1.72430
| 92>    H       -6.61015         6.33002        -0.20115
| 93>    H       -5.99240         5.71788        -1.73279
| 94>    H       -2.49118         9.09932        -8.02286
| 95>    H       -3.18209        10.72782        -7.85731
| 96>    H       -4.65453         8.21110        -8.81171
| 97>    H       -4.14922         9.56001        -9.83051
| 98>    H       -5.41845         9.79133        -8.62159
| 99>    H       -5.08828        11.61593        -6.97153
|100>    H       -6.36137        11.36538        -4.18596
|101>    H       -6.24422        13.62417        -7.42331
|102>    H       -9.46191        15.90681        -3.64032
|103>    H       -9.19170        17.43204        -6.29036
|104>    H      -10.48804        19.47556        -6.34480
|105>    H      -12.76762        20.51746        -2.82067
|106>    H      -11.87464        18.42111        -1.80348
|107> *
|108>
|109>                          ****END OF INPUT****

CARTESIAN COORDINATES (ANGSTROEM)
---------------------------------
  C     -0.180940    1.674930   -5.855380
  C      0.981230    1.090010   -6.189380
  C      2.213230    1.810640   -6.008100
  C      3.446650    1.250550   -6.290680
  C      4.650210    1.938560   -6.061750
  N      5.639830    2.481400   -5.851600
  C      3.565670   -0.051580   -6.803580
  N      3.657690   -1.120970   -7.213140
  C      2.079450    3.135870   -5.497800
  C      0.852760    3.640460   -5.193370
  O     -0.283550    2.916660   -5.359940
  C      0.629740    4.948820   -4.612890
  C      1.102020    6.180890   -5.028530
  N      1.887670    6.481620   -6.161380
  O      2.104970    7.657060   -6.387150
  O      2.279960    5.562710   -6.858910
  C      0.539850    7.211490   -4.192510
  C     -0.309020    6.633100   -3.311780
  C     -0.296570    5.205850   -3.520980
  C     -0.915760    4.249260   -2.729350
  C     -0.410910    2.958090   -2.415500
  C     -1.146520    2.427620   -1.390150
  C     -2.200890    3.326660   -1.062190
  N     -3.173800    3.043470   -0.093920
  O     -4.054850    3.868680    0.112680
  O     -3.082080    1.985270    0.503490
  C     -2.118210    4.451430   -1.898060
  C     -3.077740    5.462290   -2.032720
  C     -3.194210    6.263330   -3.143600
  C     -4.001280    7.387400   -3.360000
  N     -4.861630    8.066780   -2.528580
  C     -5.291770    7.703310   -1.197140
  C     -6.351480    6.605930   -1.218880
  C     -5.387920    9.212810   -3.146670
  O     -6.168850    9.971150   -2.607900
  C     -4.781330    9.236530   -4.465620
  C     -3.953960    8.111740   -4.564860
  C     -3.298940    8.130150   -5.856910
  O     -2.499290    7.381820   -6.371400
  N     -3.795810    9.301090   -6.470380
  C     -3.407080    9.658820   -7.814180
  C     -4.479710    9.283790   -8.833430
  C     -4.675640    9.972520   -5.661520
  C     -5.307540   11.185520   -6.005880
  C     -6.162270   11.816080   -5.150280
  C     -6.822180   13.038540   -5.409270
  S     -7.843820   13.726220   -4.176350
  C     -8.238190   15.091740   -5.165210
  C     -7.593430   14.996510   -6.406520
  C     -6.804300   13.847740   -6.533040
  C     -7.699050   15.934340   -7.449630
  N     -7.753980   16.667690   -8.329420
  C     -9.106470   16.086380   -4.646680
  C     -9.515590   17.207750   -5.286430
  C    -10.399990   18.163790   -4.685770
  C    -10.825210   19.285830   -5.337750
  C    -11.711890   20.210080   -4.709500
  C    -12.167670   21.349900   -5.342730
  C    -13.045570   22.245650   -4.708340
  N    -13.763660   22.971770   -4.183260
  C    -11.784450   21.678520   -6.654560
  N    -11.470180   21.944740   -7.726250
  C    -12.101560   19.868220   -3.364070
  C    -11.629970   18.744570   -2.804120
  O    -10.797820   17.883190   -3.415160
  H     -1.145700    1.199780   -5.951360
  H      1.001410    0.086740   -6.581710
  H      2.963100    3.733130   -5.344570
  H      0.783150    8.251070   -4.294460
  H     -0.837110    7.121500   -2.516650
  H      0.486600    2.533160   -2.822540
  H     -0.982430    1.492150   -0.888850
  H     -3.794500    5.524180   -1.226460
  H     -2.586750    6.023960   -4.008070
  H     -5.717960    8.611950   -0.761970
  H     -4.424770    7.405650   -0.603440
  H     -7.246030    6.961900   -1.724300
  H     -6.610150    6.330020   -0.201150
  H     -5.992400    5.717880   -1.732790
  H     -2.491180    9.099320   -8.022860
  H     -3.182090   10.727820   -7.857310
  H     -4.654530    8.211100   -8.811710
  H     -4.149220    9.560010   -9.830510
  H     -5.418450    9.791330   -8.621590
  H     -5.088280   11.615930   -6.971530
  H     -6.361370   11.365380   -4.185960
  H     -6.244220   13.624170   -7.423310
  H     -9.461910   15.906810   -3.640320
  H     -9.191700   17.432040   -6.290360
  H    -10.488040   19.475560   -6.344800
  H    -12.767620   20.517460   -2.820670
  H    -11.874640   18.421110   -1.803480

 Total Charge           Charge          ....    0
 Multiplicity           Mult            ....    1
 Number of Electrons    NEL             ....  452
 Basis Dimension        Dim             .... 1049

ORBITAL ENERGIES
----------------

  NO   OCC          E(Eh)            E(eV)
   0   2.0000     -89.010441     -2422.0972
   1   2.0000     -19.336925      -526.1845
   2   2.0000     -19.328158      -525.9459
   3   2.0000     -19.252794      -523.8952
   4   2.0000     -19.249676      -523.8103
   5   2.0000     -19.243178      -523.6335
   6   2.0000     -19.242492      -523.6148
   7   2.0000     -19.231571      -523.3177
   8   2.0000     -19.217355      -522.9308
   9   2.0000     -14.660347      -398.9283
  10   2.0000     -14.652851      -398.7243
  11   2.0000     -14.489176      -394.2705
  12   2.0000     -14.479698      -394.0126
  13   2.0000     -14.439304      -392.9134
  14   2.0000     -14.407527      -392.0488
  15   2.0000     -14.407039      -392.0355
  16   2.0000     -14.396814      -391.7572
  17   2.0000     -14.395140      -391.7117
  18   2.0000     -10.411802      -283.3195
  19   2.0000     -10.402060      -283.0544
  20   2.0000     -10.397351      -282.9263
  21   2.0000     -10.389088      -282.7014
  22   2.0000     -10.388615      -282.6886
  23   2.0000     -10.382480      -282.5217
  24   2.0000     -10.378809      -282.4217
  25   2.0000     -10.366594      -282.0894
  26   2.0000     -10.362818      -281.9866
  27   2.0000     -10.353302      -281.7277
  28   2.0000     -10.353077      -281.7215
  29   2.0000     -10.351892      -281.6893
  30   2.0000     -10.349245      -281.6173
  31   2.0000     -10.345472      -281.5146
  32   2.0000     -10.339555      -281.3536
  33   2.0000     -10.339118      -281.3417
  34   2.0000     -10.338501      -281.3249
  35   2.0000     -10.338288      -281.3191
  36   2.0000     -10.336817      -281.2791
  37   2.0000     -10.336691      -281.2757
  38   2.0000     -10.336205      -281.2624
  39   2.0000     -10.335924      -281.2548
  40   2.0000     -10.334447      -281.2146
  41   2.0000     -10.332133      -281.1516
  42   2.0000     -10.331569      -281.1363
  43   2.0000     -10.329402      -281.0773
  44   2.0000     -10.327931      -281.0373
  45   2.0000     -10.327801      -281.0338
  46   2.0000     -10.325002      -280.9576
  47   2.0000     -10.322607      -280.8924
  48   2.0000     -10.319192      -280.7995
  49   2.0000     -10.319092      -280.7968
  50   2.0000     -10.318050      -280.7684
  51   2.0000     -10.317104      -280.7427
  52   2.0000     -10.310504      -280.5631
  53   2.0000     -10.309812      -280.5443
  54   2.0000     -10.309200      -280.5276
  55   2.0000     -10.309135      -280.5258
  56   2.0000     -10.303119      -280.3621
  57   2.0000     -10.303056      -280.3604
  58   2.0000     -10.301992      -280.3314
  59   2.0000     -10.300358      -280.2870
  60   2.0000     -10.298571      -280.2384
  61   2.0000     -10.297894      -280.2199
  62   2.0000     -10.295279      -280.1488
  63   2.0000     -10.289010      -279.9782
  64   2.0000     -10.275482      -279.6101
  65   2.0000      -8.106027      -220.5762
  66   2.0000      -6.075056      -165.3107
  67   2.0000      -6.070967      -165.1994
  68   2.0000      -6.068503      -165.1324
  69   2.0000      -1.331541       -36.2331
  70   2.0000      -1.321557       -35.9614
  71   2.0000      -1.247099       -33.9353
  72   2.0000      -1.240037       -33.7431
  73   2.0000      -1.169201       -31.8156
  74   2.0000      -1.156694       -31.4752
  75   2.0000      -1.148977       -31.2652
  76   2.0000      -1.138628       -30.9836
  77   2.0000      -1.099072       -29.9073
  78   2.0000      -1.083688       -29.4886
  79   2.0000      -1.047252       -28.4972
  80   2.0000      -1.032288       -28.0900
  81   2.0000      -1.018973       -27.7277
  82   2.0000      -1.011826       -27.5332
  83   2.0000      -1.008294       -27.4371
  84   2.0000      -0.997060       -27.1314
  85   2.0000      -0.986162       -26.8348
  86   2.0000      -0.975012       -26.5314
  87   2.0000      -0.972003       -26.4495
  88   2.0000      -0.967509       -26.3272
  89   2.0000      -0.959973       -26.1222
  90   2.0000      -0.959439       -26.1077
  91   2.0000      -0.948957       -25.8224
  92   2.0000      -0.936933       -25.4952
  93   2.0000      -0.929468       -25.2921
  94   2.0000      -0.922078       -25.0910
  95   2.0000      -0.913218       -24.8499
  96   2.0000      -0.904840       -24.6220
  97   2.0000      -0.897103       -24.4114
  98   2.0000      -0.892874       -24.2963
  99   2.0000      -0.887915       -24.1614
 100   2.0000      -0.876169       -23.8418
 101   2.0000      -0.867874       -23.6161
 102   2.0000      -0.861169       -23.4336
 103   2.0000      -0.845505       -23.0073
 104   2.0000      -0.844126       -22.9698
 105   2.0000      -0.822025       -22.3684
 106   2.0000      -0.814358       -22.1598
 107   2.0000      -0.796206       -21.6659
 108   2.0000      -0.787339       -21.4246
 109   2.0000      -0.787250       -21.4222
 110   2.0000      -0.784758       -21.3543
 111   2.0000      -0.784300       -21.3419
 112   2.0000      -0.756431       -20.5835
 113   2.0000      -0.753825       -20.5126
 114   2.0000      -0.743524       -20.2323
 115   2.0000      -0.739592       -20.1253
 116   2.0000      -0.734805       -19.9951
 117   2.0000      -0.720957       -19.6182
 118   2.0000      -0.718431       -19.5495
 119   2.0000      -0.711815       -19.3695
 120   2.0000      -0.691050       -18.8044
 121   2.0000      -0.690233       -18.7822
 122   2.0000      -0.683217       -18.5913
 123   2.0000      -0.679469       -18.4893
 124   2.0000      -0.677064       -18.4239
 125   2.0000      -0.673077       -18.3154
 126   2.0000      -0.662886       -18.0380
 127   2.0000      -0.659667       -17.9504
 128   2.0000      -0.648631       -17.6502
 129   2.0000      -0.646219       -17.5845
 130   2.0000      -0.642140       -17.4735
 131   2.0000      -0.640918       -17.4403
 132   2.0000      -0.634168       -17.2566
 133   2.0000      -0.632010       -17.1979
 134   2.0000      -0.625654       -17.0249
 135   2.0000      -0.623974       -16.9792
 136   2.0000      -0.613963       -16.7068
 137   2.0000      -0.610847       -16.6220
 138   2.0000      -0.608274       -16.5520
 139   2.0000      -0.606860       -16.5135
 140   2.0000      -0.603033       -16.4093
 141   2.0000      -0.600144       -16.3307
 142   2.0000      -0.596643       -16.2355
 143   2.0000      -0.593822       -16.1587
 144   2.0000      -0.591267       -16.0892
 145   2.0000      -0.587246       -15.9798
 146   2.0000      -0.586151       -15.9500
 147   2.0000      -0.582157       -15.8413
 148   2.0000      -0.579192       -15.7606
 149   2.0000      -0.577060       -15.7026
 150   2.0000      -0.574108       -15.6223
 151   2.0000      -0.571202       -15.5432
 152   2.0000      -0.568367       -15.4660
 153   2.0000      -0.561894       -15.2899
 154   2.0000      -0.558476       -15.1969
 155   2.0000      -0.556050       -15.1309
 156   2.0000      -0.549002       -14.9391
 157   2.0000      -0.546734       -14.8774
 158   2.0000      -0.545526       -14.8445
 159   2.0000      -0.543202       -14.7813
 160   2.0000      -0.538147       -14.6437
 161   2.0000      -0.535319       -14.5668
 162   2.0000      -0.532314       -14.4850
 163   2.0000      -0.527822       -14.3628
 164   2.0000      -0.519680       -14.1412
 165   2.0000      -0.515857       -14.0372
 166   2.0000      -0.511383       -13.9155
 167   2.0000      -0.505019       -13.7423
 168   2.0000      -0.504515       -13.7286
 169   2.0000      -0.502229       -13.6664
 170   2.0000      -0.500071       -13.6076
 171   2.0000      -0.499181       -13.5834
 172   2.0000      -0.493810       -13.4372
 173   2.0000      -0.493607       -13.4317
 174   2.0000      -0.492517       -13.4021
 175   2.0000      -0.490243       -13.3402
 176   2.0000      -0.486758       -13.2454
 177   2.0000      -0.485070       -13.1994
 178   2.0000      -0.480451       -13.0737
 179   2.0000      -0.479440       -13.0462
 180   2.0000      -0.478992       -13.0340
 181   2.0000      -0.478188       -13.0122
 182   2.0000      -0.472927       -12.8690
 183   2.0000      -0.471278       -12.8241
 184   2.0000      -0.466951       -12.7064
 185   2.0000      -0.464659       -12.6440
 186   2.0000      -0.464415       -12.6374
 187   2.0000      -0.460355       -12.5269
 188   2.0000      -0.457782       -12.4569
 189   2.0000      -0.455087       -12.3836
 190   2.0000      -0.450025       -12.2458
 191   2.0000      -0.441130       -12.0038
 192   2.0000      -0.439789       -11.9673
 193   2.0000      -0.436990       -11.8911
 194   2.0000      -0.436776       -11.8853
 195   2.0000      -0.430929       -11.7262
 196   2.0000      -0.426765       -11.6129
 197   2.0000      -0.426389       -11.6026
 198   2.0000      -0.424244       -11.5443
 199   2.0000      -0.421329       -11.4650
 200   2.0000      -0.417427       -11.3588
 201   2.0000      -0.414883       -11.2895
 202   2.0000      -0.413420       -11.2497
 203   2.0000      -0.410438       -11.1686
 204   2.0000      -0.408309       -11.1107
 205   2.0000      -0.403992       -10.9932
 206   2.0000      -0.397912       -10.8277
 207   2.0000      -0.397351       -10.8125
 208   2.0000      -0.391670       -10.6579
 209   2.0000      -0.389811       -10.6073
 210   2.0000      -0.387723       -10.5505
 211   2.0000      -0.382124       -10.3981
 212   2.0000      -0.381922       -10.3926
 213   2.0000      -0.374354       -10.1867
 214   2.0000      -0.371759       -10.1161
 215   2.0000      -0.370377       -10.0785
 216   2.0000      -0.368269       -10.0211
 217   2.0000      -0.363480        -9.8908
 218   2.0000      -0.350532        -9.5385
 219   2.0000      -0.348342        -9.4789
 220   2.0000      -0.330508        -8.9936
 221   2.0000      -0.323042        -8.7904
 222   2.0000      -0.313778        -8.5383
 223   2.0000      -0.290522        -7.9055
 224   2.0000      -0.280104        -7.6220
 225   2.0000      -0.258280        -7.0281
 226   0.0000      -0.157016        -4.2726
 227   0.0000      -0.120255        -3.2723
 228   0.0000      -0.094009        -2.5581
 229   0.0000      -0.067273        -1.8306
 230   0.0000      -0.054236        -1.4758

MULLIKEN ATOMIC CHARGES
-----------------------
   0 C :    0.188006
   1 C :   -0.063401
   2 C :    0.213775
   3 C :   -0.326472
   4 C :   -0.176135
   5 N :    0.135115
   6 C :   -0.185780
   7 N :    0.131705
   8 C :   -0.014922
   9 C :    0.048939
  10 O :   -0.200381
  11 C :    0.069247
  12 C :    0.107520
  13 N :    0.263134
  14 O :   -0.231625
  15 O :   -0.235854
  16 C :    0.010709
  17 C :    0.012897
  18 C :    0.006019
  19 C :    0.043456
  20 C :   -0.006277
  21 C :    0.028565
  22 C :    0.073929
  23 N :    0.278670
  24 O :   -0.268213
  25 O :   -0.248732
  26 C :    0.046506
  27 C :   -0.044666
  28 C :   -0.050210
  29 C :    0.114387
  30 N :   -0.258550
  31 C :    0.095477
  32 C :    0.010869
  33 C :    0.171092
  34 O :   -0.215887
  35 C :   -0.077143
  36 C :   -0.026546
  37 C :    0.160567
  38 O :   -0.168578
  39 N :   -0.262714
  40 C :    0.092875
  41 C :    0.002756
  42 C :    0.162554
  43 C :   -0.035394
  44 C :    0.101260
  45 C :   -0.086947
  46 S :    0.204514
  47 C :   -0.058937
  48 C :   -0.064213
  49 C :    0.027616
  50 C :   -0.174505
  51 N :    0.133603
  52 C :    0.076446
  53 C :   -0.045166
  54 C :    0.215036
  55 C :   -0.114597
  56 C :    0.241268
  57 C :   -0.321097
  58 C :   -0.181230
  59 N :    0.134478
  60 C :   -0.176520
  61 N :    0.142465
  62 C :   -0.069008
  63 C :    0.190622
  64 O :   -0.216268
  65 H :    0.039175
  66 H :    0.037887
  67 H :    0.028584
  68 H :    0.002144
  69 H :    0.003449
  70 H :   -0.002917
  71 H :    0.012204
  72 H :    0.024167
  73 H :    0.042127
  74 H :    0.043490
  75 H :    0.030832
  76 H :    0.022664
  77 H :    0.036163
  78 H :    0.025025
  79 H :    0.053989
  80 H :    0.030268
  81 H :    0.034420
  82 H :    0.034328
  83 H :    0.014337
  84 H :   -0.020983
  85 H :    0.013273
  86 H :    0.005822
  87 H :    0.009889
  88 H :    0.028142
  89 H :    0.039189
  90 H :    0.041497
  91 H :    0.040728
Sum of atomic charges:   -0.0000000

LOEWDIN ATOMIC CHARGES
----------------------
   0 C :    0.097937
   1 C :   -0.049337
   2 C :    0.052396
   3 C :   -0.173097
   4 C :   -0.029848
   5 N :   -0.064377
   6 C :   -0.030050
   7 N :   -0.068000
   8 C :   -0.017210
   9 C :    0.072191
  10 O :    0.012379
  11 C :   -0.026895
  12 C :   -0.006048
  13 N :    0.283332
  14 O :   -0.196307
  15 O :   -0.197356
  16 C :   -0.008272
  17 C :   -0.022944
  18 C :    0.025380
  19 C :    0.055799
  20 C :   -0.056483
  21 C :    0.043543
  22 C :   -0.070895
  23 N :    0.286809
  24 O :   -0.234045
  25 O :   -0.214037
  26 C :    0.017113
  27 C :   -0.010769
  28 C :    0.006081
  29 C :    0.048148
  30 N :    0.003273
  31 C :    0.036773
  32 C :   -0.058629
  33 C :    0.079819
  34 O :   -0.202817
  35 C :   -0.126419
  36 C :   -0.076364
  37 C :    0.087133
  38 O :   -0.166145
  39 N :    0.001188
  40 C :    0.037505
  41 C :   -0.059230
  42 C :    0.100513
  43 C :   -0.049890
  44 C :    0.032738
  45 C :   -0.174682
  46 S :    0.504576
  47 C :   -0.135564
  48 C :   -0.096891
  49 C :   -0.000960
  50 C :   -0.030838
  51 N :   -0.038941
  52 C :   -0.022493
  53 C :   -0.012695
  54 C :    0.081516
  55 C :   -0.030490
  56 C :    0.051445
  57 C :   -0.165290
  58 C :   -0.029847
  59 N :   -0.060633
  60 C :   -0.031052
  61 N :   -0.057668
  62 C :   -0.050885
  63 C :    0.102205
  64 O :   -0.001088
  65 H :    0.040236
  66 H :    0.053157
  67 H :    0.048486
  68 H :    0.037701
  69 H :    0.031942
  70 H :    0.030075
  71 H :    0.042603
  72 H :    0.037997
  73 H :    0.050077
  74 H :    0.037826
  75 H :    0.025932
  76 H :    0.030391
  77 H :    0.037953
  78 H :    0.024369
  79 H :    0.042294
  80 H :    0.025853
  81 H :    0.034284
  82 H :    0.035617
  83 H :    0.021476
  84 H :    0.031062
  85 H :    0.039530
  86 H :    0.042280
  87 H :    0.036776
  88 H :    0.048737
  89 H :    0.054106
  90 H :    0.054133
  91 H :    0.040796

  Mayer bond orders larger than 0.100000
B(  0-C ,  1-C ) :   1.6706 B(  0-C , 10-O ) :   1.1143 B(  0-C , 65-H ) :   0.9769
B(  1-C ,  2-C ) :   1.1336 B(  1-C , 66-H ) :   0.9621 B(  2-C ,  3-C ) :   1.5668
B(  2-C ,  8-C ) :   1.1390 B(  3-C ,  4-C ) :   1.1384 B(  3-C ,  6-C ) :   1.1305
B(  4-C ,  5-N ) :   3.0119 B(  6-C ,  7-N ) :   3.0152 B(  8-C ,  9-C ) :   1.6068
B(  8-C , 67-H ) :   0.9582 B(  9-C , 10-O ) :   1.1329 B(  9-C , 11-C ) :   0.9510
B( 11-C , 12-C ) :   1.6022 B( 11-C , 18-C ) :   1.0973 B( 12-C , 13-N ) :   0.9272
B( 12-C , 16-C ) :   1.1377 B( 13-N , 14-O ) :   1.5420 B( 13-N , 15-O ) :   1.5142
B( 14-O , 15-O ) :   0.2744 B( 16-C , 17-C ) :   1.5910 B( 16-C , 68-H ) :   1.0097
B( 17-C , 18-C ) :   1.1170 B( 17-C , 69-H ) :   0.9938 B( 18-C , 19-C ) :   1.4312
B( 19-C , 20-C ) :   1.1974 B( 19-C , 26-C ) :   1.0009 B( 20-C , 21-C ) :   1.4975
B( 20-C , 70-H ) :   1.0018 B( 21-C , 22-C ) :   1.1703 B( 21-C , 71-H ) :   1.0109
B( 22-C , 23-N ) :   0.9704 B( 22-C , 26-C ) :   1.4118 B( 23-N , 24-O ) :   1.4765
B( 23-N , 25-O ) :   1.5319 B( 24-O , 25-O ) :   0.2487 B( 26-C , 27-C ) :   1.2767
B( 27-C , 28-C ) :   1.3934 B( 27-C , 72-H ) :   0.9489 B( 28-C , 29-C ) :   1.2726
B( 28-C , 73-H ) :   0.9290 B( 29-C , 30-N ) :   1.1574 B( 29-C , 36-C ) :   1.2898
B( 30-N , 31-C ) :   0.9315 B( 30-N , 33-C ) :   1.0816 B( 31-C , 32-C ) :   1.1216
B( 31-C , 74-H ) :   0.9250 B( 31-C , 75-H ) :   0.9497 B( 32-C , 76-H ) :   0.9609
B( 32-C , 77-H ) :   0.9679 B( 32-C , 78-H ) :   0.9664 B( 33-C , 34-O ) :   2.0052
B( 33-C , 35-C ) :   0.9865 B( 34-O , 85-H ) :   0.1275 B( 35-C , 36-C ) :   1.3128
B( 35-C , 42-C ) :   1.2542 B( 36-C , 37-C ) :   0.9607 B( 37-C , 38-O ) :   2.1352
B( 37-C , 39-N ) :   1.0269 B( 39-N , 40-C ) :   0.9340 B( 39-N , 42-C ) :   1.1900
B( 40-C , 41-C ) :   1.1199 B( 40-C , 79-H ) :   0.9283 B( 40-C , 80-H ) :   0.9503
B( 41-C , 81-H ) :   0.9637 B( 41-C , 82-H ) :   0.9684 B( 41-C , 83-H ) :   0.9686
B( 42-C , 43-C ) :   1.1991 B( 43-C , 44-C ) :   1.5834 B( 43-C , 84-H ) :   0.9641
B( 44-C , 45-C ) :   1.1414 B( 44-C , 85-H ) :   0.9278 B( 45-C , 46-S ) :   1.1302
B( 45-C , 49-C ) :   1.4330 B( 46-S , 47-C ) :   1.1648 B( 47-C , 48-C ) :   1.4216
B( 47-C , 52-C ) :   1.1315 B( 48-C , 49-C ) :   1.3390 B( 48-C , 50-C ) :   1.1082
B( 49-C , 86-H ) :   0.9986 B( 50-C , 51-N ) :   2.9705 B( 52-C , 53-C ) :   1.6577
B( 52-C , 87-H ) :   0.9487 B( 53-C , 54-C ) :   1.1265 B( 53-C , 88-H ) :   0.9628
B( 54-C , 55-C ) :   1.5429 B( 54-C , 64-O ) :   1.1168 B( 55-C , 56-C ) :   1.1076
B( 55-C , 89-H ) :   0.9760 B( 56-C , 57-C ) :   1.5835 B( 56-C , 62-C ) :   1.1252
B( 57-C , 58-C ) :   1.1276 B( 57-C , 60-C ) :   1.1335 B( 58-C , 59-N ) :   3.0145
B( 60-C , 61-N ) :   3.0136 B( 62-C , 63-C ) :   1.6864 B( 62-C , 90-H ) :   0.9616
B( 63-C , 64-O ) :   1.1131 B( 63-C , 91-H ) :   0.9749

-----------------------------------------------------------------------------
         ABSORPTION SPECTRUM VIA TRANSITION ELECTRIC DIPOLE MOMENTS
-----------------------------------------------------------------------------
State   Energy  Wavelength   fosc         T2         TX        TY        TZ
        (cm-1)    (nm)                  (au**2)     (au)      (au)      (au)
-----------------------------------------------------------------------------
   0    6089.9   1642.1   0.297622605  16.08903   2.53849  -2.98342   0.86275
   1   10816.4    924.5   0.009219813   0.28062  -0.24227   0.17217   0.43850
   2   15150.4    660.1   0.634482883  13.78709   1.15214  -3.13372   1.62465
   3   16109.3    620.8   0.054252285   1.10871   0.19597  -0.91623   0.48045
   4   18395.0    543.6   0.011795532   0.21110  -0.04317  -0.43259   0.14866
   5   20036.4    499.1   0.462309419   7.59607   1.50023  -2.31187  -0.02557
   6   21946.8    455.6   0.151428020   2.27149   0.80851  -0.96854  -0.82446
   7   22992.1    434.9   0.030249082   0.43312  -0.37617   0.52756   0.11533
   8   23219.3    430.7   0.019566716   0.27742   0.24341  -0.44935  -0.12753
   9   24401.2    409.8   0.062777491   0.84697   0.04540  -0.89057   0.22759
  10   24664.2    405.4   0.120755395   1.61182   0.89537  -0.11458  -0.89275
  11   25241.0    396.2   0.202826603   2.64542   0.06554   1.44878  -0.73631
  12   25390.5    393.8   0.112980397   1.46490  -0.90613   0.72569   0.34235
  13   25504.6    392.1   0.578006063   7.46088  -2.04569   1.58434   0.87516
  14   26082.3    383.4   0.002221452   0.02804  -0.14149  -0.03286   0.08331
  15   26938.3    371.2   0.002882982   0.03523  -0.08562  -0.12121   0.11493
  16   27768.5    360.1   0.264804360   3.13942   0.43860   1.03217  -1.37174
  17   28558.4    350.2   0.000211282   0.00244   0.04426   0.01247  -0.01792
  18   29392.6    340.2   0.052059404   0.58309  -0.26863   0.69730   0.15717
  19   29554.6    338.4   0.140663038   1.56686   0.87541  -0.67076  -0.59212
  20   29770.5    335.9   0.040750447   0.45063  -0.53035   0.40695   0.06121
  21   29962.0    333.8   0.110825155   1.21771  -0.51185  -0.66809   0.71371
  22   30381.5    329.1   0.045292522   0.49079   0.38072   0.14459  -0.57003
  23   30783.9    324.8   0.290989131   3.11192   0.00854   1.48874  -0.94631
  24   31099.5    321.5   0.031876331   0.33743  -0.37438   0.43462  -0.09156
  25   31225.4    320.3   0.032343740   0.34100  -0.12690   0.56548  -0.07166
  26   31837.3    314.1   0.141598175   1.46419   0.70171  -0.98499  -0.03986
  27   32537.3    307.3   0.043489571   0.44003   0.22982  -0.56072   0.26981
  28   32914.2    303.8   0.123153341   1.23180  -0.56130   0.95746   0.00401
  29   33079.3    302.3   0.019305093   0.19213  -0.43672   0.02017  -0.03158
  30   33272.6    300.5   0.001380393   0.01366  -0.02050   0.08552  -0.07697
  31   33597.7    297.6   0.051997921   0.50951   0.00226  -0.67332   0.23695
  32   33751.4    296.3   0.143619059   1.40087   0.59396  -1.00661  -0.18658
  33   33990.2    294.2   0.013363856   0.12944  -0.25659  -0.06359   0.24403
  34   34009.9    294.0   0.029397485   0.28456  -0.02449  -0.35467   0.39771
  35   35015.8    285.6   0.055388649   0.52075   0.45026  -0.47885  -0.29786
  36   35311.5    283.2   0.044859304   0.41823  -0.48363   0.27717   0.32788
  37   35476.6    281.9   0.057826074   0.53661   0.39552   0.30901  -0.53356
  38   35697.4    280.1   0.336597386   3.10420   1.20041  -1.25968  -0.27648
  39   36182.4    276.4   0.024174126   0.21995  -0.34738   0.21849  -0.22702
  40   36375.0    274.9   0.046122300   0.41743   0.55805  -0.27015   0.18173
  41   36884.8    271.1   0.086005168   0.76763  -0.16924  -0.44146   0.73763
  42   37213.6    268.7   0.006711080   0.05937   0.24309   0.01662   0.00090
  43   37294.2    268.1   0.013109090   0.11572   0.25805   0.13919  -0.17251
  44   37559.5    266.2   0.107851719   0.94533  -0.70891  -0.51297   0.42384
  45   38119.9    262.3   0.273200943   2.35943   1.16465   0.63722  -0.77263
  46   38477.8    259.9   0.188803531   1.61538   0.56386  -0.95072   0.62735
  47   39166.6    255.3   0.038083016   0.32010   0.14076  -0.46065   0.29680
  48   39597.0    252.5   0.000765065   0.00636  -0.03388  -0.07032   0.01638
  49   39654.0    252.2   0.030300507   0.25156  -0.08493   0.47649  -0.13155
  50   39834.7    251.0   0.004243172   0.03507  -0.11914   0.05900   0.13188
  51   40245.6    248.5   0.031071496   0.25417   0.31886  -0.05666  -0.38638

FINAL SINGLE POINT ENERGY     -3295.883161320680

DIPOLE MOMENT
-------------
                                X             Y             Z
Electronic contribution:      9.85469       7.79165      -1.14662
Nuclear contribution   :    -13.11731      -7.39747       3.21335
                        -----------------------------------------
Total Dipole Moment    :     -3.26263       0.39418       2.06673
                        -----------------------------------------
Magnitude (a.u.)       :      3.88220
Magnitude (Debye)      :      9.86777

Rotational constants in cm-1:     0.002719     0.000298     0.000276
Rotational constants in MHz :    81.519317     8.933958     8.270511

                             ****ORCA TERMINATED NORMALLY****
TOTAL RUN TIME: 0 days 0 hours 9 minutes 7 seconds 427 msec
