                         Program Version 4.2.0 -  RELEASE  -
|  1> # ORCA input file
|  2> # SCF done       -177.109919611175          0.000919936296
|  3> ! CAM-B3LYP def2-SVP def2/J RIJCOSX Grid4 TightSCF
|  4> %maxcore 5000
|  5> %tddft
|  6>     Mode sTDDFT
|  7>     Ethresh 5.0
|  8>     maxcore 5000
|  9> end
| 10>
| 11> %pal
| 12>   nprocs 6
| 13>   end
| 14> * xyz 0 1
| 15>    C       -0.11555         1.18942         3.45069
| 16>    C        0.90202         0.35541         3.08963
| 17>    C        0.94787        -0.16552         1.69658
| 18>    O        0.48773         0.43964         0.77021
| 19>    O        1.46885        -1.39295         1.53471
| 20>    C        1.74806         0.02835         4.20463
| 21>    C        1.29450         0.62242         5.35663
| 22>    S       -0.09602         1.58630         5.11459
| 23>    C        2.97124        -0.73679         4.17631
| 24>    C        3.89258        -0.83644         3.16493
| 25>    C        4.96361        -1.68032         3.59393
| 26>    C        4.63522        -2.09514         4.96997
| 27>    C        3.45857        -1.50767         5.31151
| 28>    C        5.42713        -2.85771         5.83782
| 29>    N        6.05861        -3.43610         6.60272
| 30>    C        6.09038        -2.03557         2.89144
| 31>    C        7.06931        -2.99442         3.27031
| 32>    C        8.07506        -3.02048         2.32205
| 33>    C        7.73557        -2.04817         1.29154
| 34>    C        6.54309        -1.47770         1.60584
| 35>    C        5.90824        -0.48229         0.85265
| 36>    N        5.42309         0.34545         0.22251
| 37>    C        9.19617        -3.88502         2.41325
| 38>    N       10.41316        -3.76008         1.79031
| 39>    C       10.88706        -2.68218         0.95253
| 40>    C       11.00833        -1.36783         1.71624
| 41>    C       11.30092        -4.78179         2.17676
| 42>    O       12.44930        -4.85556         1.78511
| 43>    C       10.53321        -5.61569         3.07267
| 44>    C        9.25577        -5.03915         3.20601
| 45>    C        8.46036        -5.90672         4.05970
| 46>    O        7.30595        -5.86138         4.41740
| 47>    N        9.34768        -6.94176         4.41619
| 48>    C        8.93375        -8.00632         5.30103
| 49>    C        9.33328        -7.71971         6.74592
| 50>    C       10.58260        -6.78433         3.85013
| 51>    C       11.65857        -7.67362         4.07079
| 52>    C       12.86901        -7.51980         3.46453
| 53>    C       13.98698        -8.38781         3.55916
| 54>    C       14.03496        -9.77848         3.62263
| 55>    N       12.99876       -10.73133         3.68514
| 56>    O       13.26123       -11.84953         3.27982
| 57>    O       11.91040       -10.41688         4.14130
| 58>    C       15.38924       -10.22002         3.40787
| 59>    C       16.19303        -9.13737         3.30372
| 60>    C       15.39756        -7.94445         3.44500
| 61>    C       15.88760        -6.67050         3.61617
| 62>    C       15.17810        -5.41644         3.61614
| 63>    C       16.07435        -4.40652         3.57005
| 64>    C       17.41280        -4.95737         3.60531
| 65>    N       18.52952        -4.11571         3.78555
| 66>    O       18.29671        -2.92932         3.94246
| 67>    O       19.64890        -4.59778         3.81581
| 68>    C       17.33372        -6.33300         3.68627
| 69>    C       18.38116        -7.26588         3.95446
| 70>    C       19.60297        -7.25564         3.37443
| 71>    C       20.65393        -8.14141         3.72876
| 72>    C       21.89992        -8.24449         3.12335
| 73>    C       22.26764        -7.49228         1.89824
| 74>    O       21.47111        -7.12684         1.07832
| 75>    O       23.58041        -7.25551         1.73844
| 76>    C       22.73974        -9.18100         3.76988
| 77>    C       22.14214        -9.77739         4.83645
| 78>    S       20.54895        -9.20957         5.10030
| 79>    H       -0.88503         1.56579         2.80628
| 80>    H        1.83039        -1.75994         2.35413
| 81>    H        1.74681         0.57967         6.32770
| 82>    H        3.84578        -0.35953         2.20508
| 83>    H        2.94771        -1.60424         6.25109
| 84>    H        7.01547        -3.60942         4.14617
| 85>    H        8.30196        -1.83838         0.40497
| 86>    H       10.23845        -2.57609         0.07980
| 87>    H       11.87549        -2.99847         0.60561
| 88>    H       10.04298        -1.03918         2.09510
| 89>    H       11.40216        -0.59923         1.05743
| 90>    H       11.68838        -1.48559         2.55650
| 91>    H        9.36055        -8.95073         4.95563
| 92>    H        7.84410        -8.05693         5.22802
| 93>    H       10.41269        -7.62432         6.84078
| 94>    H        8.99797        -8.53207         7.38386
| 95>    H        8.86877        -6.79682         7.08490
| 96>    H       11.49647        -8.48560         4.75998
| 97>    H       13.00700        -6.66715         2.81327
| 98>    H       15.66359       -11.25548         3.33951
| 99>    H       17.24496        -9.15212         3.10415
|100>    H       14.11719        -5.29070         3.60283
|101>    H       15.87571        -3.35257         3.53252
|102>    H       18.15720        -8.02191         4.69972
|103>    H       19.82388        -6.58137         2.56012
|104>    H       24.10883        -7.53781         2.49630
|105>    H       23.73229        -9.44109         3.44257
|106>    H       22.55137       -10.52602         5.48552
|107> *
|108>
|109>                          ****END OF INPUT****

CARTESIAN COORDINATES (ANGSTROEM)
---------------------------------
  C     -0.115550    1.189420    3.450690
  C      0.902020    0.355410    3.089630
  C      0.947870   -0.165520    1.696580
  O      0.487730    0.439640    0.770210
  O      1.468850   -1.392950    1.534710
  C      1.748060    0.028350    4.204630
  C      1.294500    0.622420    5.356630
  S     -0.096020    1.586300    5.114590
  C      2.971240   -0.736790    4.176310
  C      3.892580   -0.836440    3.164930
  C      4.963610   -1.680320    3.593930
  C      4.635220   -2.095140    4.969970
  C      3.458570   -1.507670    5.311510
  C      5.427130   -2.857710    5.837820
  N      6.058610   -3.436100    6.602720
  C      6.090380   -2.035570    2.891440
  C      7.069310   -2.994420    3.270310
  C      8.075060   -3.020480    2.322050
  C      7.735570   -2.048170    1.291540
  C      6.543090   -1.477700    1.605840
  C      5.908240   -0.482290    0.852650
  N      5.423090    0.345450    0.222510
  C      9.196170   -3.885020    2.413250
  N     10.413160   -3.760080    1.790310
  C     10.887060   -2.682180    0.952530
  C     11.008330   -1.367830    1.716240
  C     11.300920   -4.781790    2.176760
  O     12.449300   -4.855560    1.785110
  C     10.533210   -5.615690    3.072670
  C      9.255770   -5.039150    3.206010
  C      8.460360   -5.906720    4.059700
  O      7.305950   -5.861380    4.417400
  N      9.347680   -6.941760    4.416190
  C      8.933750   -8.006320    5.301030
  C      9.333280   -7.719710    6.745920
  C     10.582600   -6.784330    3.850130
  C     11.658570   -7.673620    4.070790
  C     12.869010   -7.519800    3.464530
  C     13.986980   -8.387810    3.559160
  C     14.034960   -9.778480    3.622630
  N     12.998760  -10.731330    3.685140
  O     13.261230  -11.849530    3.279820
  O     11.910400  -10.416880    4.141300
  C     15.389240  -10.220020    3.407870
  C     16.193030   -9.137370    3.303720
  C     15.397560   -7.944450    3.445000
  C     15.887600   -6.670500    3.616170
  C     15.178100   -5.416440    3.616140
  C     16.074350   -4.406520    3.570050
  C     17.412800   -4.957370    3.605310
  N     18.529520   -4.115710    3.785550
  O     18.296710   -2.929320    3.942460
  O     19.648900   -4.597780    3.815810
  C     17.333720   -6.333000    3.686270
  C     18.381160   -7.265880    3.954460
  C     19.602970   -7.255640    3.374430
  C     20.653930   -8.141410    3.728760
  C     21.899920   -8.244490    3.123350
  C     22.267640   -7.492280    1.898240
  O     21.471110   -7.126840    1.078320
  O     23.580410   -7.255510    1.738440
  C     22.739740   -9.181000    3.769880
  C     22.142140   -9.777390    4.836450
  S     20.548950   -9.209570    5.100300
  H     -0.885030    1.565790    2.806280
  H      1.830390   -1.759940    2.354130
  H      1.746810    0.579670    6.327700
  H      3.845780   -0.359530    2.205080
  H      2.947710   -1.604240    6.251090
  H      7.015470   -3.609420    4.146170
  H      8.301960   -1.838380    0.404970
  H     10.238450   -2.576090    0.079800
  H     11.875490   -2.998470    0.605610
  H     10.042980   -1.039180    2.095100
  H     11.402160   -0.599230    1.057430
  H     11.688380   -1.485590    2.556500
  H      9.360550   -8.950730    4.955630
  H      7.844100   -8.056930    5.228020
  H     10.412690   -7.624320    6.840780
  H      8.997970   -8.532070    7.383860
  H      8.868770   -6.796820    7.084900
  H     11.496470   -8.485600    4.759980
  H     13.007000   -6.667150    2.813270
  H     15.663590  -11.255480    3.339510
  H     17.244960   -9.152120    3.104150
  H     14.117190   -5.290700    3.602830
  H     15.875710   -3.352570    3.532520
  H     18.157200   -8.021910    4.699720
  H     19.823880   -6.581370    2.560120
  H     24.108830   -7.537810    2.496300
  H     23.732290   -9.441090    3.442570
  H     22.551370  -10.526020    5.485520

 Total Charge           Charge          ....    0
 Multiplicity           Mult            ....    1
 Number of Electrons    NEL             ....  458
 Basis Dimension        Dim             .... 1044

ORBITAL ENERGIES
----------------

  NO   OCC          E(Eh)            E(eV)
   0   2.0000     -88.981121     -2421.2994
   1   2.0000     -88.980994     -2421.2959
   2   2.0000     -19.265206      -524.2329
   3   2.0000     -19.255380      -523.9655
   4   2.0000     -19.247168      -523.7421
   5   2.0000     -19.245163      -523.6875
   6   2.0000     -19.234863      -523.4072
   7   2.0000     -19.234197      -523.3891
   8   2.0000     -19.207497      -522.6626
   9   2.0000     -19.203951      -522.5661
  10   2.0000     -19.202740      -522.5331
  11   2.0000     -19.193550      -522.2830
  12   2.0000     -14.654549      -398.7705
  13   2.0000     -14.644116      -398.4867
  14   2.0000     -14.469753      -393.7420
  15   2.0000     -14.464956      -393.6115
  16   2.0000     -14.413250      -392.2045
  17   2.0000     -14.411637      -392.1606
  18   2.0000     -10.409813      -283.2654
  19   2.0000     -10.401985      -283.0524
  20   2.0000     -10.389054      -282.7005
  21   2.0000     -10.386461      -282.6300
  22   2.0000     -10.354729      -281.7665
  23   2.0000     -10.354125      -281.7501
  24   2.0000     -10.339226      -281.3446
  25   2.0000     -10.333340      -281.1845
  26   2.0000     -10.331039      -281.1218
  27   2.0000     -10.330287      -281.1014
  28   2.0000     -10.329194      -281.0716
  29   2.0000     -10.329142      -281.0702
  30   2.0000     -10.328649      -281.0568
  31   2.0000     -10.326967      -281.0111
  32   2.0000     -10.324536      -280.9449
  33   2.0000     -10.324507      -280.9441
  34   2.0000     -10.323371      -280.9132
  35   2.0000     -10.320525      -280.8358
  36   2.0000     -10.320258      -280.8285
  37   2.0000     -10.319804      -280.8161
  38   2.0000     -10.318751      -280.7875
  39   2.0000     -10.318454      -280.7794
  40   2.0000     -10.317255      -280.7468
  41   2.0000     -10.316525      -280.7269
  42   2.0000     -10.315769      -280.7063
  43   2.0000     -10.314359      -280.6680
  44   2.0000     -10.312705      -280.6230
  45   2.0000     -10.311323      -280.5854
  46   2.0000     -10.311196      -280.5819
  47   2.0000     -10.307088      -280.4701
  48   2.0000     -10.304716      -280.4056
  49   2.0000     -10.303323      -280.3677
  50   2.0000     -10.302732      -280.3516
  51   2.0000     -10.300637      -280.2946
  52   2.0000     -10.299893      -280.2743
  53   2.0000     -10.299651      -280.2677
  54   2.0000     -10.296248      -280.1751
  55   2.0000     -10.295618      -280.1580
  56   2.0000     -10.294909      -280.1387
  57   2.0000     -10.293264      -280.0940
  58   2.0000     -10.288383      -279.9611
  59   2.0000     -10.280540      -279.7477
  60   2.0000     -10.278932      -279.7040
  61   2.0000     -10.276678      -279.6426
  62   2.0000     -10.274708      -279.5890
  63   2.0000     -10.264696      -279.3166
  64   2.0000      -8.077495      -219.7998
  65   2.0000      -8.076772      -219.7801
  66   2.0000      -6.046580      -164.5358
  67   2.0000      -6.045858      -164.5162
  68   2.0000      -6.042119      -164.4144
  69   2.0000      -6.041628      -164.4010
  70   2.0000      -6.040195      -164.3621
  71   2.0000      -6.039368      -164.3396
  72   2.0000      -1.325423       -36.0666
  73   2.0000      -1.314595       -35.7719
  74   2.0000      -1.187925       -32.3251
  75   2.0000      -1.178955       -32.0810
  76   2.0000      -1.148990       -31.2656
  77   2.0000      -1.142015       -31.0758
  78   2.0000      -1.141775       -31.0693
  79   2.0000      -1.131381       -30.7864
  80   2.0000      -1.102332       -29.9960
  81   2.0000      -1.093500       -29.7557
  82   2.0000      -1.078775       -29.3549
  83   2.0000      -1.069973       -29.1154
  84   2.0000      -1.025405       -27.9027
  85   2.0000      -1.018657       -27.7191
  86   2.0000      -1.010660       -27.5015
  87   2.0000      -1.007406       -27.4129
  88   2.0000      -1.002061       -27.2675
  89   2.0000      -0.997986       -27.1566
  90   2.0000      -0.989906       -26.9367
  91   2.0000      -0.985298       -26.8113
  92   2.0000      -0.940864       -25.6022
  93   2.0000      -0.921135       -25.0654
  94   2.0000      -0.913963       -24.8702
  95   2.0000      -0.912843       -24.8397
  96   2.0000      -0.899811       -24.4851
  97   2.0000      -0.887354       -24.1461
  98   2.0000      -0.881931       -23.9986
  99   2.0000      -0.877250       -23.8712
 100   2.0000      -0.866059       -23.5667
 101   2.0000      -0.862974       -23.4827
 102   2.0000      -0.853609       -23.2279
 103   2.0000      -0.852950       -23.2100
 104   2.0000      -0.850474       -23.1426
 105   2.0000      -0.839967       -22.8567
 106   2.0000      -0.830263       -22.5926
 107   2.0000      -0.818726       -22.2787
 108   2.0000      -0.809239       -22.0205
 109   2.0000      -0.787981       -21.4421
 110   2.0000      -0.777514       -21.1572
 111   2.0000      -0.770261       -20.9599
 112   2.0000      -0.765964       -20.8429
 113   2.0000      -0.734881       -19.9971
 114   2.0000      -0.730836       -19.8871
 115   2.0000      -0.728299       -19.8180
 116   2.0000      -0.724280       -19.7087
 117   2.0000      -0.718855       -19.5610
 118   2.0000      -0.716952       -19.5093
 119   2.0000      -0.711621       -19.3642
 120   2.0000      -0.709244       -19.2995
 121   2.0000      -0.691273       -18.8105
 122   2.0000      -0.688340       -18.7307
 123   2.0000      -0.686829       -18.6896
 124   2.0000      -0.676822       -18.4173
 125   2.0000      -0.675259       -18.3747
 126   2.0000      -0.673393       -18.3240
 127   2.0000      -0.669213       -18.2102
 128   2.0000      -0.666745       -18.1431
 129   2.0000      -0.660897       -17.9839
 130   2.0000      -0.657836       -17.9006
 131   2.0000      -0.647345       -17.6151
 132   2.0000      -0.642458       -17.4822
 133   2.0000      -0.635089       -17.2816
 134   2.0000      -0.627611       -17.0782
 135   2.0000      -0.623498       -16.9662
 136   2.0000      -0.617959       -16.8155
 137   2.0000      -0.612508       -16.6672
 138   2.0000      -0.609243       -16.5784
 139   2.0000      -0.603353       -16.4181
 140   2.0000      -0.600159       -16.3312
 141   2.0000      -0.597034       -16.2461
 142   2.0000      -0.590956       -16.0807
 143   2.0000      -0.586657       -15.9638
 144   2.0000      -0.580156       -15.7869
 145   2.0000      -0.574696       -15.6383
 146   2.0000      -0.570643       -15.5280
 147   2.0000      -0.562198       -15.2982
 148   2.0000      -0.558702       -15.2031
 149   2.0000      -0.553773       -15.0689
 150   2.0000      -0.553616       -15.0647
 151   2.0000      -0.550268       -14.9736
 152   2.0000      -0.544875       -14.8268
 153   2.0000      -0.542720       -14.7682
 154   2.0000      -0.539457       -14.6794
 155   2.0000      -0.538575       -14.6554
 156   2.0000      -0.536324       -14.5941
 157   2.0000      -0.533834       -14.5264
 158   2.0000      -0.532058       -14.4780
 159   2.0000      -0.530622       -14.4390
 160   2.0000      -0.528619       -14.3845
 161   2.0000      -0.526791       -14.3347
 162   2.0000      -0.525829       -14.3085
 163   2.0000      -0.519369       -14.1327
 164   2.0000      -0.516698       -14.0601
 165   2.0000      -0.515348       -14.0233
 166   2.0000      -0.512836       -13.9550
 167   2.0000      -0.511775       -13.9261
 168   2.0000      -0.508745       -13.8437
 169   2.0000      -0.502107       -13.6630
 170   2.0000      -0.498760       -13.5719
 171   2.0000      -0.497580       -13.5398
 172   2.0000      -0.496598       -13.5131
 173   2.0000      -0.494525       -13.4567
 174   2.0000      -0.492942       -13.4136
 175   2.0000      -0.488367       -13.2891
 176   2.0000      -0.486071       -13.2267
 177   2.0000      -0.484592       -13.1864
 178   2.0000      -0.484319       -13.1790
 179   2.0000      -0.482195       -13.1212
 180   2.0000      -0.476518       -12.9667
 181   2.0000      -0.474079       -12.9003
 182   2.0000      -0.473025       -12.8717
 183   2.0000      -0.472088       -12.8462
 184   2.0000      -0.469085       -12.7645
 185   2.0000      -0.465600       -12.6696
 186   2.0000      -0.463596       -12.6151
 187   2.0000      -0.461305       -12.5528
 188   2.0000      -0.460939       -12.5428
 189   2.0000      -0.453941       -12.3524
 190   2.0000      -0.449429       -12.2296
 191   2.0000      -0.447620       -12.1804
 192   2.0000      -0.443283       -12.0623
 193   2.0000      -0.441609       -12.0168
 194   2.0000      -0.440440       -11.9850
 195   2.0000      -0.439012       -11.9461
 196   2.0000      -0.435707       -11.8562
 197   2.0000      -0.435339       -11.8462
 198   2.0000      -0.433530       -11.7969
 199   2.0000      -0.428475       -11.6594
 200   2.0000      -0.420284       -11.4365
 201   2.0000      -0.415124       -11.2961
 202   2.0000      -0.404259       -11.0005
 203   2.0000      -0.403118       -10.9694
 204   2.0000      -0.397699       -10.8219
 205   2.0000      -0.394416       -10.7326
 206   2.0000      -0.389303       -10.5935
 207   2.0000      -0.388961       -10.5842
 208   2.0000      -0.380967       -10.3666
 209   2.0000      -0.374701       -10.1961
 210   2.0000      -0.374032       -10.1779
 211   2.0000      -0.370725       -10.0879
 212   2.0000      -0.366542        -9.9741
 213   2.0000      -0.362626        -9.8676
 214   2.0000      -0.359650        -9.7866
 215   2.0000      -0.356606        -9.7038
 216   2.0000      -0.352836        -9.6012
 217   2.0000      -0.346491        -9.4285
 218   2.0000      -0.345150        -9.3920
 219   2.0000      -0.343459        -9.3460
 220   2.0000      -0.336372        -9.1531
 221   2.0000      -0.330332        -8.9888
 222   2.0000      -0.329570        -8.9680
 223   2.0000      -0.328599        -8.9416
 224   2.0000      -0.319957        -8.7065
 225   2.0000      -0.309037        -8.4093
 226   2.0000      -0.301222        -8.1967
 227   2.0000      -0.279728        -7.6118
 228   2.0000      -0.248399        -6.7593
 229   0.0000      -0.140516        -3.8236
 230   0.0000      -0.125984        -3.4282
 231   0.0000      -0.078754        -2.1430
 232   0.0000      -0.051468        -1.4005
 233   0.0000      -0.031757        -0.8641

MULLIKEN ATOMIC CHARGES
-----------------------
   0 C :   -0.097884
   1 C :   -0.016447
   2 C :    0.148045
   3 O :   -0.166560
   4 O :   -0.157198
   5 C :    0.096838
   6 C :   -0.134752
   7 S :    0.160750
   8 C :    0.023428
   9 C :   -0.147858
  10 C :    0.096178
  11 C :   -0.080271
  12 C :   -0.009102
  13 C :   -0.179962
  14 N :    0.150627
  15 C :    0.127860
  16 C :   -0.103921
  17 C :    0.032972
  18 C :   -0.022749
  19 C :   -0.092872
  20 C :   -0.185146
  21 N :    0.156743
  22 C :    0.151773
  23 N :   -0.254661
  24 C :    0.094467
  25 C :   -0.007516
  26 C :    0.164786
  27 O :   -0.211700
  28 C :   -0.070403
  29 C :   -0.051679
  30 C :    0.152580
  31 O :   -0.176050
  32 N :   -0.255665
  33 C :    0.088618
  34 C :    0.003097
  35 C :    0.140904
  36 C :    0.006601
  37 C :   -0.085577
  38 C :    0.065370
  39 C :    0.065127
  40 N :    0.274771
  41 O :   -0.240513
  42 O :   -0.254869
  43 C :    0.018261
  44 C :   -0.007183
  45 C :    0.035736
  46 C :    0.057777
  47 C :    0.015903
  48 C :    0.019689
  49 C :    0.075439
  50 N :    0.263783
  51 O :   -0.248249
  52 O :   -0.246632
  53 C :    0.043897
  54 C :   -0.121198
  55 C :    0.114100
  56 C :   -0.140395
  57 C :   -0.009283
  58 C :    0.177246
  59 O :   -0.180183
  60 O :   -0.153243
  61 C :   -0.007251
  62 C :   -0.050467
  63 S :    0.138343
  64 H :    0.050315
  65 H :    0.185540
  66 H :    0.031438
  67 H :    0.023981
  68 H :   -0.000689
  69 H :    0.027921
  70 H :   -0.008912
  71 H :    0.028798
  72 H :    0.050806
  73 H :    0.030968
  74 H :    0.032080
  75 H :    0.028040
  76 H :    0.044650
  77 H :    0.046069
  78 H :    0.013345
  79 H :    0.027876
  80 H :    0.038648
  81 H :    0.011719
  82 H :    0.055860
  83 H :    0.007080
  84 H :    0.008098
  85 H :   -0.016334
  86 H :    0.008442
  87 H :    0.025332
  88 H :    0.035414
  89 H :    0.181756
  90 H :   -0.003891
  91 H :    0.041381
Sum of atomic charges:   -0.0000000

LOEWDIN ATOMIC CHARGES
----------------------
   0 C :   -0.137732
   1 C :   -0.112408
   2 C :    0.077408
   3 O :   -0.150391
   4 O :   -0.025113
   5 C :   -0.067732
   6 C :   -0.175056
   7 S :    0.483942
   8 C :   -0.021991
   9 C :   -0.036204
  10 C :    0.043256
  11 C :   -0.073682
  12 C :    0.046807
  13 C :   -0.033675
  14 N :   -0.048875
  15 C :    0.034636
  16 C :    0.015046
  17 C :   -0.035316
  18 C :    0.047120
  19 C :   -0.076197
  20 C :   -0.035156
  21 N :   -0.048718
  22 C :    0.071551
  23 N :    0.001813
  24 C :    0.035664
  25 C :   -0.060754
  26 C :    0.081092
  27 O :   -0.196987
  28 C :   -0.119734
  29 C :   -0.100318
  30 C :    0.083806
  31 O :   -0.169655
  32 N :    0.008487
  33 C :    0.038069
  34 C :   -0.059686
  35 C :    0.083291
  36 C :   -0.011989
  37 C :    0.012134
  38 C :    0.010923
  39 C :   -0.036092
  40 N :    0.286299
  41 O :   -0.204359
  42 O :   -0.212393
  43 C :    0.009021
  44 C :   -0.034384
  45 C :    0.030614
  46 C :    0.049317
  47 C :   -0.038156
  48 C :    0.024787
  49 C :   -0.043290
  50 N :    0.284208
  51 O :   -0.212473
  52 O :   -0.204577
  53 C :    0.020481
  54 C :   -0.051682
  55 C :    0.021741
  56 C :   -0.145816
  57 C :   -0.106370
  58 C :    0.084991
  59 O :   -0.151090
  60 O :   -0.025534
  61 C :   -0.069655
  62 C :   -0.165774
  63 S :    0.465751
  64 H :    0.037698
  65 H :    0.082886
  66 H :    0.026124
  67 H :    0.037836
  68 H :    0.037018
  69 H :    0.039055
  70 H :    0.036052
  71 H :    0.021344
  72 H :    0.040222
  73 H :    0.024595
  74 H :    0.035403
  75 H :    0.032552
  76 H :    0.031800
  77 H :    0.039128
  78 H :    0.021451
  79 H :    0.033124
  80 H :    0.035140
  81 H :    0.031134
  82 H :    0.041562
  83 H :    0.038193
  84 H :    0.034250
  85 H :    0.028175
  86 H :    0.038570
  87 H :    0.026443
  88 H :    0.043152
  89 H :    0.093665
  90 H :    0.030000
  91 H :    0.030187

  Mayer bond orders larger than 0.100000
B(  0-C ,  1-C ) :   1.5782 B(  0-C ,  7-S ) :   1.2004 B(  0-C , 64-H ) :   0.9629
B(  1-C ,  2-C ) :   0.9009 B(  1-C ,  5-C ) :   1.2119 B(  2-C ,  3-O ) :   2.2072
B(  2-C ,  4-O ) :   1.2308 B(  4-O , 65-H ) :   0.9443 B(  5-C ,  6-C ) :   1.5469
B(  5-C ,  8-C ) :   0.9921 B(  6-C ,  7-S ) :   1.1852 B(  6-C , 66-H ) :   0.9655
B(  8-C ,  9-C ) :   1.5758 B(  8-C , 12-C ) :   1.0600 B(  9-C , 10-C ) :   1.1049
B(  9-C , 67-H ) :   1.0044 B( 10-C , 11-C ) :   1.1139 B( 10-C , 15-C ) :   1.4037
B( 11-C , 12-C ) :   1.6616 B( 11-C , 13-C ) :   1.0836 B( 12-C , 68-H ) :   1.0215
B( 13-C , 14-N ) :   2.9853 B( 15-C , 16-C ) :   1.1120 B( 15-C , 19-C ) :   1.1047
B( 16-C , 17-C ) :   1.5502 B( 16-C , 69-H ) :   0.9902 B( 17-C , 18-C ) :   1.0207
B( 17-C , 22-C ) :   1.0425 B( 18-C , 19-C ) :   1.6692 B( 18-C , 70-H ) :   1.0284
B( 19-C , 20-C ) :   1.0840 B( 20-C , 21-N ) :   2.9765 B( 22-C , 23-N ) :   1.1946
B( 22-C , 29-C ) :   1.3732 B( 23-N , 24-C ) :   0.9392 B( 23-N , 26-C ) :   1.0595
B( 24-C , 25-C ) :   1.1165 B( 24-C , 71-H ) :   0.9515 B( 24-C , 72-H ) :   0.9227
B( 25-C , 73-H ) :   0.9667 B( 25-C , 74-H ) :   0.9664 B( 25-C , 75-H ) :   0.9615
B( 26-C , 27-O ) :   1.9960 B( 26-C , 28-C ) :   0.9976 B( 27-O , 82-H ) :   0.1024
B( 28-C , 29-C ) :   1.2642 B( 28-C , 35-C ) :   1.2843 B( 29-C , 30-C ) :   0.9611
B( 30-C , 31-O ) :   2.1034 B( 30-C , 32-N ) :   1.0417 B( 32-N , 33-C ) :   0.9318
B( 32-N , 35-C ) :   1.1880 B( 33-C , 34-C ) :   1.1238 B( 33-C , 76-H ) :   0.9492
B( 33-C , 77-H ) :   0.9284 B( 34-C , 78-H ) :   0.9679 B( 34-C , 79-H ) :   0.9679
B( 34-C , 80-H ) :   0.9635 B( 35-C , 36-C ) :   1.1598 B( 36-C , 37-C ) :   1.6089
B( 36-C , 81-H ) :   0.9464 B( 37-C , 38-C ) :   1.1221 B( 37-C , 82-H ) :   0.9216
B( 38-C , 39-C ) :   1.5428 B( 38-C , 45-C ) :   1.0242 B( 39-C , 40-N ) :   0.9486
B( 39-C , 43-C ) :   1.1182 B( 40-N , 41-O ) :   1.5437 B( 40-N , 42-O ) :   1.4779
B( 41-O , 42-O ) :   0.2568 B( 43-C , 44-C ) :   1.5888 B( 43-C , 83-H ) :   1.0119
B( 44-C , 45-C ) :   1.0983 B( 44-C , 84-H ) :   0.9990 B( 45-C , 46-C ) :   1.5660
B( 46-C , 47-C ) :   1.0772 B( 46-C , 53-C ) :   1.0241 B( 47-C , 48-C ) :   1.6247
B( 47-C , 85-H ) :   1.0031 B( 48-C , 49-C ) :   1.0912 B( 48-C , 86-H ) :   1.0076
B( 49-C , 50-N ) :   0.9472 B( 49-C , 53-C ) :   1.6012 B( 50-N , 51-O ) :   1.5358
B( 50-N , 52-O ) :   1.5115 B( 51-O , 52-O ) :   0.2606 B( 53-C , 54-C ) :   1.0955
B( 54-C , 55-C ) :   1.6683 B( 54-C , 87-H ) :   0.9411 B( 55-C , 56-C ) :   1.1868
B( 55-C , 88-H ) :   0.9455 B( 56-C , 57-C ) :   1.4857 B( 56-C , 63-S ) :   1.1470
B( 57-C , 58-C ) :   0.9192 B( 57-C , 61-C ) :   1.2307 B( 58-C , 59-O ) :   2.1311
B( 58-C , 60-O ) :   1.2433 B( 60-O , 89-H ) :   0.9531 B( 61-C , 62-C ) :   1.5834
B( 61-C , 90-H ) :   0.9889 B( 62-C , 63-S ) :   1.1770 B( 62-C , 91-H ) :   0.9704

-----------------------------------------------------------------------------
         ABSORPTION SPECTRUM VIA TRANSITION ELECTRIC DIPOLE MOMENTS
-----------------------------------------------------------------------------
State   Energy  Wavelength   fosc         T2         TX        TY        TZ
        (cm-1)    (nm)                  (au**2)     (au)      (au)      (au)
-----------------------------------------------------------------------------
   0    8094.8   1235.4   0.448222004  18.22897  -3.52818   2.40434  -0.00836
   1   11220.6    891.2   0.011180756   0.32804  -0.22433  -0.27666  -0.44853
   2   13356.2    748.7   0.071455862   1.76129   1.31545  -0.17562   0.00575
   3   17325.1    577.2   0.065481110   1.24427   0.86970  -0.33743  -0.61159
   4   19142.7    522.4   0.035091516   0.60350   0.69873   0.20977  -0.26698
   5   20100.7    497.5   0.106227491   1.73981   0.44322  -1.11176   0.55439
   6   20940.5    477.5   0.105632014   1.66067   0.35337  -1.10928   0.55254
   7   22473.0    445.0   0.055500772   0.81304   0.50495  -0.73757   0.11853
   8   23319.0    428.8   0.001142495   0.01613  -0.11560  -0.00564   0.05228
   9   23498.1    425.6   0.070279427   0.98462  -0.54456   0.82744  -0.05856
  10   24759.1    403.9   0.011790813   0.15678   0.16294  -0.34764  -0.09682
  11   25516.2    391.9   0.242096569   3.12354   1.52647  -0.57626  -0.67924
  12   25887.0    386.3   0.171388510   2.17959  -1.41767   0.40207   0.09028
  13   26507.9    377.2   0.036245669   0.45015   0.51602   0.42866  -0.01115
  14   26805.8    373.1   0.309001991   3.79496   1.87792  -0.30427  -0.41928
  15   26874.7    372.1   0.099526704   1.21919   0.43002  -0.92458  -0.42359
  16   27794.4    359.8   0.021866845   0.25900  -0.34952  -0.21406   0.30169
  17   27850.6    359.1   0.011347360   0.13413   0.09472   0.06655   0.34747
  18   28081.7    356.1   0.002563267   0.03005  -0.15782   0.07159  -0.00432
  19   28435.6    351.7   0.093131732   1.07823   0.80635  -0.65179   0.05660
  20   28855.8    346.6   0.035271348   0.40241   0.42901   0.21132  -0.41677
  21   29250.4    341.9   0.067189707   0.75622  -0.81566   0.09876   0.28489
  22   29920.6    334.2   0.038117845   0.41941  -0.30620  -0.54221   0.17791
  23   30090.1    332.3   0.120050928   1.31346   0.68537   0.91701   0.05317
  24   30693.1    325.8   0.003558835   0.03817  -0.18259   0.02700   0.06405
  25   31775.2    314.7   0.048550680   0.50302  -0.64915   0.28567  -0.00227
  26   31905.4    313.4   0.033422402   0.34486   0.57386  -0.12357   0.01685
  27   32255.8    310.0   0.000721613   0.00736   0.00093  -0.04048  -0.07567
  28   32432.7    308.3   0.009459764   0.09602  -0.24831   0.10506   0.15274
  29   32473.2    307.9   0.009482915   0.09614  -0.23562  -0.19742   0.04053
  30   32699.7    305.8   0.036040238   0.36284   0.48945   0.34856   0.04235
  31   32805.4    304.8   0.036119658   0.36247  -0.39013   0.44136   0.12438
  32   33550.8    298.1   0.370302991   3.63354  -0.37940   1.83135   0.36844
  33   33649.4    297.2   0.260279166   2.54647  -0.58213  -1.42101   0.43396
  34   33814.5    295.7   0.036863163   0.35889  -0.52197  -0.26144   0.13448
  35   34134.1    293.0   0.131487142   1.26815   0.47581  -0.99432  -0.23041
  36   34266.2    291.8   0.050425335   0.48446  -0.42825  -0.51259  -0.19574
  37   34532.4    289.6   0.021726423   0.20713   0.12569   0.43738   0.00524
  38   35016.5    285.6   0.125065119   1.17581  -0.80607   0.02628   0.72482
  39   35635.4    280.6   0.022756808   0.21023  -0.29559   0.24206  -0.25351
  40   35757.4    279.7   0.242751473   2.23497  -1.47904   0.21139   0.05225
  41   35936.7    278.3   0.176957280   1.62108  -0.17642  -1.25589  -0.11269
  42   36207.1    276.2   0.030169666   0.27432  -0.44715   0.11054   0.24930
  43   36362.0    275.0   0.055215920   0.49991   0.68045  -0.19087   0.02177
  44   36388.3    274.8   0.000737462   0.00667  -0.01943  -0.07325   0.03049
  45   36548.9    273.6   0.010161174   0.09153  -0.21757   0.03826   0.20671
  46   36894.2    271.0   0.012558827   0.11206  -0.31639   0.00512  -0.10926
  47   36976.8    270.4   0.008675428   0.07724  -0.02806  -0.04344   0.27307
  48   37389.3    267.5   0.008370397   0.07370   0.02381   0.26872   0.03039
  49   37632.4    265.7   0.046141831   0.40365  -0.54999  -0.02200   0.31730
  50   38039.7    262.9   0.027792175   0.24053   0.47268   0.12145  -0.04843
  51   38182.9    261.9   0.094878696   0.81804   0.90307   0.03909  -0.03121
  52   38678.2    258.5   0.010963623   0.09332  -0.18654  -0.16194  -0.17971
  53   38743.0    258.1   0.000595946   0.00506  -0.04965   0.01589   0.04844
  54   38946.4    256.8   0.089747104   0.75863   0.37620   0.78415   0.04693
  55   39708.1    251.8   0.024771442   0.20538  -0.24536  -0.36017   0.12431
  56   39982.4    250.1   0.028508190   0.23473  -0.46985   0.10168  -0.06028
  57   40311.9    248.1   0.001737990   0.01419  -0.02519  -0.07896   0.08558

FINAL SINGLE POINT ENERGY     -3642.810242976678

DIPOLE MOMENT
-------------
                                X             Y             Z
Electronic contribution:     -6.55404       5.24039      -2.80725
Nuclear contribution   :      7.87356      -6.52961       5.78010
                        -----------------------------------------
Total Dipole Moment    :      1.31951      -1.28922       2.97285
                        -----------------------------------------
Magnitude (a.u.)       :      3.49872
Magnitude (Debye)      :      8.89304

Rotational constants in cm-1:     0.002832     0.000331     0.000313
Rotational constants in MHz :    84.907604     9.917084     9.373957

                             ****ORCA TERMINATED NORMALLY****
TOTAL RUN TIME: 0 days 0 hours 14 minutes 13 seconds 838 msec
