                         Program Version 4.2.0 -  RELEASE  -
|  1> # ORCA input file
|  2> # SCF done       -143.681742314059          0.000753980434
|  3> ! CAM-B3LYP def2-SVP def2/J RIJCOSX Grid4 TightSCF
|  4> %maxcore 5000
|  5> %tddft
|  6>     Mode sTDDFT
|  7>     Ethresh 5.0
|  8>     maxcore 5000
|  9> end
| 10>
| 11> %pal
| 12>   nprocs 6
| 13>   end
| 14> * xyz 0 1
| 15>    C        3.69858        -1.66802        -5.34415
| 16>    C        2.84364        -1.36148        -6.34648
| 17>    S        1.38982        -0.63849        -5.76533
| 18>    C        1.93206        -0.74723        -4.15585
| 19>    C        3.17791        -1.31481        -4.06714
| 20>    C        3.85253        -1.50671        -2.78488
| 21>    O        3.41528        -1.19803        -1.70739
| 22>    O        5.06975        -2.09321        -2.97460
| 23>    C        5.91672        -2.36327        -1.95245
| 24>    S        7.42771        -3.08130        -2.41884
| 25>    C        7.96142        -3.12359        -0.76060
| 26>    C        6.97802        -2.60046         0.07689
| 27>    C        5.81603        -2.17005        -0.60678
| 28>    C        7.08326        -2.48345         1.47150
| 29>    N        7.13743        -2.36876         2.61264
| 30>    C        9.25510        -3.62917        -0.47936
| 31>    C        9.82376        -3.69571         0.75327
| 32>    C       11.14306        -4.17081         0.94973
| 33>    N       11.76258        -4.20266         2.17774
| 34>    C       11.20943        -3.75955         3.43617
| 35>    C       11.25315        -2.24064         3.57794
| 36>    C       13.07900        -4.68100         2.09005
| 37>    O       13.82367        -4.78878         3.04469
| 38>    C       13.25952        -4.98118         0.68603
| 39>    C       12.05375        -4.66224         0.01383
| 40>    C       12.22866        -4.97882        -1.38557
| 41>    O       11.48448        -4.87895        -2.34302
| 42>    N       13.53608        -5.48323        -1.46819
| 43>    C       14.11044        -5.87478        -2.73320
| 44>    C       15.02140        -4.79218        -3.30605
| 45>    C       14.16852        -5.47811        -0.24524
| 46>    C       15.50313        -5.90943        -0.05070
| 47>    C       16.12953        -5.82131         1.15115
| 48>    C       17.47132        -6.21507         1.37769
| 49>    O       18.00528        -6.00943         2.60304
| 50>    C       19.28121        -6.44089         2.60225
| 51>    C       19.60102        -6.95298         1.34758
| 52>    C       18.43119        -6.80347         0.54938
| 53>    C       18.29850        -7.17530        -0.79261
| 54>    N       18.20381        -7.48248        -1.89442
| 55>    C       20.83359        -7.49525         0.96342
| 56>    N       21.85031        -7.93343         0.66546
| 57>    C       20.10974        -6.32737         3.75500
| 58>    C       19.69831        -5.74634         4.90075
| 59>    C       20.51706        -5.56365         6.07198
| 60>    C       21.88720        -5.66491         6.08948
| 61>    S       22.57279        -5.27730         7.60591
| 62>    C       21.02453        -4.95797         8.26133
| 63>    C       20.02164        -5.15676         7.35996
| 64>    C       18.60486        -4.96859         7.76953
| 65>    O       18.26323        -4.13358         8.55838
| 66>    O       17.71476        -5.82110         7.23144
| 67>    H        4.66056        -2.12432        -5.48541
| 68>    H        2.97135        -1.51285        -7.39958
| 69>    H        1.32748        -0.39553        -3.34378
| 70>    H        4.96035        -1.73936        -0.12011
| 71>    H        9.82002        -3.97107        -1.33756
| 72>    H        9.27470        -3.36658         1.62143
| 73>    H       11.82668        -4.21740         4.21419
| 74>    H       10.18466        -4.12679         3.53484
| 75>    H       12.27999        -1.88926         3.51132
| 76>    H       10.84824        -1.95409         4.54404
| 77>    H       10.66664        -1.75813         2.79954
| 78>    H       13.26608        -6.03849        -3.40861
| 79>    H       14.65587        -6.81476        -2.61404
| 80>    H       14.45966        -3.87310        -3.45479
| 81>    H       15.41867        -5.11800        -4.26291
| 82>    H       15.85370        -4.58767        -2.63641
| 83>    H       16.03156        -6.30858        -0.90378
| 84>    H       15.61032        -5.41921         2.01157
| 85>    H       21.10233        -6.73890         3.64809
| 86>    H       18.69160        -5.34938         4.93704
| 87>    H       22.53337        -5.91654         5.27259
| 88>    H       20.91434        -4.65627         9.28381
| 89>    H       18.12174        -6.47690         6.64921
| 90> *
| 91>
| 92>                          ****END OF INPUT****

CARTESIAN COORDINATES (ANGSTROEM)
---------------------------------
  C      3.698580   -1.668020   -5.344150
  C      2.843640   -1.361480   -6.346480
  S      1.389820   -0.638490   -5.765330
  C      1.932060   -0.747230   -4.155850
  C      3.177910   -1.314810   -4.067140
  C      3.852530   -1.506710   -2.784880
  O      3.415280   -1.198030   -1.707390
  O      5.069750   -2.093210   -2.974600
  C      5.916720   -2.363270   -1.952450
  S      7.427710   -3.081300   -2.418840
  C      7.961420   -3.123590   -0.760600
  C      6.978020   -2.600460    0.076890
  C      5.816030   -2.170050   -0.606780
  C      7.083260   -2.483450    1.471500
  N      7.137430   -2.368760    2.612640
  C      9.255100   -3.629170   -0.479360
  C      9.823760   -3.695710    0.753270
  C     11.143060   -4.170810    0.949730
  N     11.762580   -4.202660    2.177740
  C     11.209430   -3.759550    3.436170
  C     11.253150   -2.240640    3.577940
  C     13.079000   -4.681000    2.090050
  O     13.823670   -4.788780    3.044690
  C     13.259520   -4.981180    0.686030
  C     12.053750   -4.662240    0.013830
  C     12.228660   -4.978820   -1.385570
  O     11.484480   -4.878950   -2.343020
  N     13.536080   -5.483230   -1.468190
  C     14.110440   -5.874780   -2.733200
  C     15.021400   -4.792180   -3.306050
  C     14.168520   -5.478110   -0.245240
  C     15.503130   -5.909430   -0.050700
  C     16.129530   -5.821310    1.151150
  C     17.471320   -6.215070    1.377690
  O     18.005280   -6.009430    2.603040
  C     19.281210   -6.440890    2.602250
  C     19.601020   -6.952980    1.347580
  C     18.431190   -6.803470    0.549380
  C     18.298500   -7.175300   -0.792610
  N     18.203810   -7.482480   -1.894420
  C     20.833590   -7.495250    0.963420
  N     21.850310   -7.933430    0.665460
  C     20.109740   -6.327370    3.755000
  C     19.698310   -5.746340    4.900750
  C     20.517060   -5.563650    6.071980
  C     21.887200   -5.664910    6.089480
  S     22.572790   -5.277300    7.605910
  C     21.024530   -4.957970    8.261330
  C     20.021640   -5.156760    7.359960
  C     18.604860   -4.968590    7.769530
  O     18.263230   -4.133580    8.558380
  O     17.714760   -5.821100    7.231440
  H      4.660560   -2.124320   -5.485410
  H      2.971350   -1.512850   -7.399580
  H      1.327480   -0.395530   -3.343780
  H      4.960350   -1.739360   -0.120110
  H      9.820020   -3.971070   -1.337560
  H      9.274700   -3.366580    1.621430
  H     11.826680   -4.217400    4.214190
  H     10.184660   -4.126790    3.534840
  H     12.279990   -1.889260    3.511320
  H     10.848240   -1.954090    4.544040
  H     10.666640   -1.758130    2.799540
  H     13.266080   -6.038490   -3.408610
  H     14.655870   -6.814760   -2.614040
  H     14.459660   -3.873100   -3.454790
  H     15.418670   -5.118000   -4.262910
  H     15.853700   -4.587670   -2.636410
  H     16.031560   -6.308580   -0.903780
  H     15.610320   -5.419210    2.011570
  H     21.102330   -6.738900    3.648090
  H     18.691600   -5.349380    4.937040
  H     22.533370   -5.916540    5.272590
  H     20.914340   -4.656270    9.283810
  H     18.121740   -6.476900    6.649210

 Total Charge           Charge          ....    0
 Multiplicity           Mult            ....    1
 Number of Electrons    NEL             ....  384
 Basis Dimension        Dim             ....  855

ORBITAL ENERGIES
----------------

  NO   OCC          E(Eh)            E(eV)
   0   2.0000     -88.982341     -2421.3326
   1   2.0000     -88.980676     -2421.2873
   2   2.0000     -88.975954     -2421.1588
   3   2.0000     -19.331055      -526.0247
   4   2.0000     -19.305986      -525.3426
   5   2.0000     -19.263475      -524.1858
   6   2.0000     -19.228020      -523.2210
   7   2.0000     -19.197980      -522.4036
   8   2.0000     -19.197591      -522.3930
   9   2.0000     -19.192090      -522.2433
  10   2.0000     -14.456541      -393.3825
  11   2.0000     -14.455168      -393.3451
  12   2.0000     -14.424597      -392.5132
  13   2.0000     -14.420761      -392.4089
  14   2.0000     -14.415657      -392.2700
  15   2.0000     -10.429068      -283.7894
  16   2.0000     -10.405841      -283.1573
  17   2.0000     -10.382787      -282.5300
  18   2.0000     -10.378888      -282.4239
  19   2.0000     -10.377610      -282.3891
  20   2.0000     -10.377315      -282.3811
  21   2.0000     -10.375278      -282.3257
  22   2.0000     -10.344099      -281.4773
  23   2.0000     -10.340517      -281.3798
  24   2.0000     -10.336115      -281.2600
  25   2.0000     -10.335845      -281.2526
  26   2.0000     -10.332407      -281.1591
  27   2.0000     -10.325880      -280.9815
  28   2.0000     -10.324130      -280.9339
  29   2.0000     -10.321581      -280.8645
  30   2.0000     -10.316822      -280.7350
  31   2.0000     -10.316581      -280.7285
  32   2.0000     -10.315302      -280.6936
  33   2.0000     -10.314807      -280.6802
  34   2.0000     -10.312474      -280.6167
  35   2.0000     -10.310499      -280.5629
  36   2.0000     -10.307593      -280.4839
  37   2.0000     -10.307252      -280.4746
  38   2.0000     -10.307106      -280.4706
  39   2.0000     -10.305677      -280.4317
  40   2.0000     -10.305405      -280.4243
  41   2.0000     -10.303905      -280.3835
  42   2.0000     -10.303130      -280.3624
  43   2.0000     -10.299185      -280.2551
  44   2.0000     -10.297682      -280.2142
  45   2.0000     -10.295708      -280.1604
  46   2.0000     -10.294670      -280.1322
  47   2.0000     -10.290564      -280.0205
  48   2.0000     -10.267337      -279.3884
  49   2.0000     -10.263822      -279.2928
  50   2.0000     -10.261595      -279.2322
  51   2.0000     -10.258176      -279.1392
  52   2.0000      -8.078500      -219.8271
  53   2.0000      -8.076837      -219.7819
  54   2.0000      -8.072291      -219.6582
  55   2.0000      -6.047777      -164.5684
  56   2.0000      -6.045946      -164.5185
  57   2.0000      -6.043665      -164.4565
  58   2.0000      -6.041414      -164.3952
  59   2.0000      -6.041385      -164.3945
  60   2.0000      -6.040362      -164.3666
  61   2.0000      -6.039643      -164.3471
  62   2.0000      -6.036904      -164.2725
  63   2.0000      -6.035033      -164.2216
  64   2.0000      -1.251305       -34.0498
  65   2.0000      -1.230424       -33.4815
  66   2.0000      -1.184527       -32.2326
  67   2.0000      -1.137315       -30.9479
  68   2.0000      -1.132875       -30.8271
  69   2.0000      -1.129659       -30.7396
  70   2.0000      -1.098328       -29.8870
  71   2.0000      -1.067043       -29.0357
  72   2.0000      -1.058257       -28.7966
  73   2.0000      -1.015999       -27.6467
  74   2.0000      -1.012970       -27.5643
  75   2.0000      -1.005898       -27.3719
  76   2.0000      -1.003911       -27.3178
  77   2.0000      -0.999409       -27.1953
  78   2.0000      -0.992089       -26.9961
  79   2.0000      -0.951984       -25.9048
  80   2.0000      -0.950337       -25.8600
  81   2.0000      -0.930921       -25.3316
  82   2.0000      -0.920182       -25.0394
  83   2.0000      -0.915753       -24.9189
  84   2.0000      -0.886779       -24.1305
  85   2.0000      -0.882990       -24.0274
  86   2.0000      -0.871839       -23.7240
  87   2.0000      -0.868291       -23.6274
  88   2.0000      -0.856850       -23.3161
  89   2.0000      -0.846140       -23.0246
  90   2.0000      -0.833702       -22.6862
  91   2.0000      -0.831263       -22.6198
  92   2.0000      -0.819518       -22.3002
  93   2.0000      -0.807037       -21.9606
  94   2.0000      -0.794470       -21.6186
  95   2.0000      -0.777112       -21.1463
  96   2.0000      -0.771636       -20.9973
  97   2.0000      -0.759622       -20.6704
  98   2.0000      -0.750413       -20.4198
  99   2.0000      -0.738586       -20.0979
 100   2.0000      -0.727004       -19.7828
 101   2.0000      -0.719239       -19.5715
 102   2.0000      -0.708968       -19.2920
 103   2.0000      -0.705328       -19.1929
 104   2.0000      -0.688191       -18.7266
 105   2.0000      -0.683062       -18.5871
 106   2.0000      -0.680595       -18.5199
 107   2.0000      -0.675060       -18.3693
 108   2.0000      -0.664530       -18.0828
 109   2.0000      -0.662659       -18.0319
 110   2.0000      -0.650371       -17.6975
 111   2.0000      -0.640226       -17.4214
 112   2.0000      -0.634754       -17.2725
 113   2.0000      -0.634108       -17.2549
 114   2.0000      -0.623591       -16.9688
 115   2.0000      -0.609038       -16.5728
 116   2.0000      -0.607166       -16.5218
 117   2.0000      -0.599665       -16.3177
 118   2.0000      -0.598504       -16.2861
 119   2.0000      -0.590502       -16.0684
 120   2.0000      -0.585905       -15.9433
 121   2.0000      -0.583751       -15.8847
 122   2.0000      -0.578489       -15.7415
 123   2.0000      -0.570793       -15.5321
 124   2.0000      -0.566247       -15.4084
 125   2.0000      -0.557461       -15.1693
 126   2.0000      -0.551455       -15.0059
 127   2.0000      -0.550170       -14.9709
 128   2.0000      -0.545734       -14.8502
 129   2.0000      -0.539505       -14.6807
 130   2.0000      -0.537400       -14.6234
 131   2.0000      -0.532016       -14.4769
 132   2.0000      -0.530891       -14.4463
 133   2.0000      -0.528728       -14.3874
 134   2.0000      -0.522558       -14.2195
 135   2.0000      -0.516933       -14.0665
 136   2.0000      -0.515116       -14.0170
 137   2.0000      -0.513902       -13.9840
 138   2.0000      -0.512523       -13.9464
 139   2.0000      -0.505113       -13.7448
 140   2.0000      -0.501809       -13.6549
 141   2.0000      -0.499629       -13.5956
 142   2.0000      -0.496792       -13.5184
 143   2.0000      -0.495685       -13.4883
 144   2.0000      -0.492150       -13.3921
 145   2.0000      -0.485447       -13.2097
 146   2.0000      -0.484863       -13.1938
 147   2.0000      -0.484396       -13.1811
 148   2.0000      -0.483560       -13.1583
 149   2.0000      -0.481546       -13.1035
 150   2.0000      -0.477400       -12.9907
 151   2.0000      -0.474371       -12.9083
 152   2.0000      -0.472870       -12.8674
 153   2.0000      -0.467452       -12.7200
 154   2.0000      -0.462598       -12.5879
 155   2.0000      -0.462511       -12.5856
 156   2.0000      -0.459507       -12.5038
 157   2.0000      -0.457270       -12.4430
 158   2.0000      -0.452986       -12.3264
 159   2.0000      -0.452723       -12.3192
 160   2.0000      -0.451846       -12.2954
 161   2.0000      -0.448553       -12.2057
 162   2.0000      -0.447471       -12.1763
 163   2.0000      -0.442450       -12.0397
 164   2.0000      -0.442433       -12.0392
 165   2.0000      -0.439670       -11.9640
 166   2.0000      -0.438395       -11.9293
 167   2.0000      -0.437219       -11.8973
 168   2.0000      -0.430181       -11.7058
 169   2.0000      -0.428450       -11.6587
 170   2.0000      -0.427369       -11.6293
 171   2.0000      -0.421506       -11.4698
 172   2.0000      -0.418424       -11.3859
 173   2.0000      -0.414683       -11.2841
 174   2.0000      -0.410118       -11.1599
 175   2.0000      -0.394379       -10.7316
 176   2.0000      -0.388090       -10.5605
 177   2.0000      -0.376714       -10.2509
 178   2.0000      -0.373934       -10.1753
 179   2.0000      -0.368071       -10.0157
 180   2.0000      -0.357177        -9.7193
 181   2.0000      -0.352049        -9.5797
 182   2.0000      -0.341924        -9.3042
 183   2.0000      -0.339857        -9.2480
 184   2.0000      -0.337683        -9.1888
 185   2.0000      -0.335622        -9.1327
 186   2.0000      -0.328151        -8.9294
 187   2.0000      -0.327174        -8.9029
 188   2.0000      -0.317906        -8.6507
 189   2.0000      -0.300313        -8.1719
 190   2.0000      -0.285670        -7.7735
 191   2.0000      -0.238121        -6.4796
 192   0.0000      -0.100538        -2.7358
 193   0.0000      -0.063348        -1.7238
 194   0.0000      -0.047737        -1.2990
 195   0.0000      -0.023834        -0.6486
 196   0.0000      -0.006192        -0.1685

MULLIKEN ATOMIC CHARGES
-----------------------
   0 C :    0.074514
   1 C :   -0.086209
   2 S :    0.142867
   3 C :   -0.082317
   4 C :   -0.055372
   5 C :    0.244682
   6 O :   -0.178880
   7 O :   -0.242620
   8 C :    0.101298
   9 S :    0.175164
  10 C :   -0.060264
  11 C :   -0.082618
  12 C :    0.001548
  13 C :   -0.162586
  14 N :    0.109330
  15 C :    0.063011
  16 C :   -0.042322
  17 C :    0.140639
  18 N :   -0.255844
  19 C :    0.095150
  20 C :    0.009701
  21 C :    0.165504
  22 O :   -0.203169
  23 C :   -0.055407
  24 C :   -0.069477
  25 C :    0.166475
  26 O :   -0.218136
  27 N :   -0.255066
  28 C :    0.095390
  29 C :    0.009555
  30 C :    0.121654
  31 C :   -0.032525
  32 C :   -0.011732
  33 C :    0.156208
  34 O :   -0.172775
  35 C :    0.123995
  36 C :   -0.004555
  37 C :   -0.050045
  38 C :   -0.270056
  39 N :    0.213165
  40 C :   -0.300644
  41 N :    0.229869
  42 C :   -0.038773
  43 C :   -0.052364
  44 C :    0.099443
  45 C :   -0.134721
  46 S :    0.160898
  47 C :   -0.092104
  48 C :   -0.036531
  49 C :    0.156129
  50 O :   -0.168318
  51 O :   -0.157013
  52 H :    0.001682
  53 H :    0.037850
  54 H :    0.046014
  55 H :    0.025600
  56 H :    0.004210
  57 H :   -0.014481
  58 H :    0.043162
  59 H :    0.036932
  60 H :    0.024023
  61 H :    0.029814
  62 H :    0.018685
  63 H :    0.042132
  64 H :    0.034898
  65 H :    0.024821
  66 H :    0.028577
  67 H :    0.015141
  68 H :   -0.007605
  69 H :    0.020055
  70 H :    0.015119
  71 H :    0.024864
  72 H :    0.036126
  73 H :    0.045780
  74 H :    0.182858
Sum of atomic charges:   -0.0000000

LOEWDIN ATOMIC CHARGES
----------------------
   0 C :   -0.043353
   1 C :   -0.180401
   2 S :    0.472999
   3 C :   -0.142060
   4 C :   -0.123008
   5 C :    0.115270
   6 O :   -0.149959
   7 O :   -0.054325
   8 C :   -0.092047
   9 S :    0.472156
  10 C :   -0.149661
  11 C :   -0.095196
  12 C :   -0.062379
  13 C :   -0.022568
  14 N :   -0.058889
  15 C :    0.007298
  16 C :   -0.039808
  17 C :    0.084117
  18 N :    0.003589
  19 C :    0.037280
  20 C :   -0.058402
  21 C :    0.082294
  22 O :   -0.192495
  23 C :   -0.109418
  24 C :   -0.124255
  25 C :    0.078279
  26 O :   -0.207993
  27 N :    0.002787
  28 C :    0.036524
  29 C :   -0.059116
  30 C :    0.063580
  31 C :   -0.015592
  32 C :   -0.008614
  33 C :    0.071384
  34 O :    0.040409
  35 C :    0.070126
  36 C :   -0.088617
  37 C :   -0.090760
  38 C :   -0.029396
  39 N :   -0.041663
  40 C :   -0.035929
  41 N :   -0.034573
  42 C :   -0.036890
  43 C :   -0.009574
  44 C :   -0.075004
  45 C :   -0.172968
  46 S :    0.487085
  47 C :   -0.145733
  48 C :   -0.115078
  49 C :    0.077398
  50 O :   -0.149657
  51 O :   -0.025000
  52 H :    0.035006
  53 H :    0.027499
  54 H :    0.035259
  55 H :    0.046546
  56 H :    0.036791
  57 H :    0.035548
  58 H :    0.038244
  59 H :    0.028510
  60 H :    0.029749
  61 H :    0.034535
  62 H :    0.023397
  63 H :    0.037759
  64 H :    0.027251
  65 H :    0.030175
  66 H :    0.033585
  67 H :    0.022279
  68 H :    0.036726
  69 H :    0.046444
  70 H :    0.043722
  71 H :    0.035676
  72 H :    0.026430
  73 H :    0.036130
  74 H :    0.090539

  Mayer bond orders larger than 0.100000
B(  0-C ,  1-C ) :   1.5954 B(  0-C ,  4-C ) :   1.2376 B(  0-C , 52-H ) :   0.9975
B(  1-C ,  2-S ) :   1.1673 B(  1-C , 53-H ) :   0.9693 B(  2-S ,  3-C ) :   1.2255
B(  3-C ,  4-C ) :   1.5344 B(  3-C , 54-H ) :   0.9705 B(  4-C ,  5-C ) :   0.9753
B(  5-C ,  6-O ) :   2.1508 B(  5-C ,  7-O ) :   1.0948 B(  7-O ,  8-C ) :   1.0554
B(  8-C ,  9-S ) :   1.1367 B(  8-C , 12-C ) :   1.4989 B(  9-S , 10-C ) :   1.1242
B( 10-C , 11-C ) :   1.4587 B( 10-C , 15-C ) :   1.1631 B( 11-C , 12-C ) :   1.2184
B( 11-C , 13-C ) :   1.1496 B( 12-C , 55-H ) :   1.0082 B( 13-C , 14-N ) :   2.9598
B( 15-C , 16-C ) :   1.6148 B( 15-C , 56-H ) :   0.9188 B( 16-C , 17-C ) :   1.1748
B( 16-C , 57-H ) :   0.9488 B( 17-C , 18-N ) :   1.1686 B( 17-C , 24-C ) :   1.3172
B( 18-N , 19-C ) :   0.9379 B( 18-N , 21-C ) :   1.0625 B( 19-C , 20-C ) :   1.1229
B( 19-C , 58-H ) :   0.9278 B( 19-C , 59-H ) :   0.9483 B( 20-C , 60-H ) :   0.9632
B( 20-C , 61-H ) :   0.9679 B( 20-C , 62-H ) :   0.9677 B( 21-C , 22-O ) :   2.0385
B( 21-C , 23-C ) :   0.9742 B( 22-O , 69-H ) :   0.1050 B( 23-C , 24-C ) :   1.2592
B( 23-C , 30-C ) :   1.3441 B( 24-C , 25-C ) :   0.9901 B( 25-C , 26-O ) :   2.0124
B( 25-C , 27-N ) :   1.0681 B( 26-O , 56-H ) :   0.1199 B( 27-N , 28-C ) :   0.9424
B( 27-N , 30-C ) :   1.1582 B( 28-C , 29-C ) :   1.1216 B( 28-C , 63-H ) :   0.9270
B( 28-C , 64-H ) :   0.9486 B( 29-C , 65-H ) :   0.9637 B( 29-C , 66-H ) :   0.9676
B( 29-C , 67-H ) :   0.9680 B( 30-C , 31-C ) :   1.1738 B( 31-C , 32-C ) :   1.5796
B( 31-C , 68-H ) :   0.9485 B( 32-C , 33-C ) :   1.1836 B( 32-C , 69-H ) :   0.9251
B( 33-C , 34-O ) :   1.1472 B( 33-C , 37-C ) :   1.3815 B( 34-O , 35-C ) :   1.1647
B( 35-C , 36-C ) :   1.3844 B( 35-C , 42-C ) :   1.1804 B( 36-C , 37-C ) :   1.3255
B( 36-C , 40-C ) :   1.1422 B( 37-C , 38-C ) :   1.1714 B( 38-C , 39-N ) :   2.9598
B( 40-C , 41-N ) :   3.0188 B( 42-C , 43-C ) :   1.6831 B( 42-C , 70-H ) :   0.9548
B( 43-C , 44-C ) :   1.0439 B( 43-C , 71-H ) :   0.9750 B( 44-C , 45-C ) :   1.5356
B( 44-C , 48-C ) :   1.2091 B( 45-C , 46-S ) :   1.1976 B( 45-C , 72-H ) :   0.9583
B( 46-S , 47-C ) :   1.1988 B( 47-C , 48-C ) :   1.5835 B( 47-C , 73-H ) :   0.9668
B( 48-C , 49-C ) :   0.9028 B( 49-C , 50-O ) :   2.2095 B( 49-C , 51-O ) :   1.2130
B( 51-O , 74-H ) :   0.9509

-----------------------------------------------------------------------------
         ABSORPTION SPECTRUM VIA TRANSITION ELECTRIC DIPOLE MOMENTS
-----------------------------------------------------------------------------
State   Energy  Wavelength   fosc         T2         TX        TY        TZ
        (cm-1)    (nm)                  (au**2)     (au)      (au)      (au)
-----------------------------------------------------------------------------
   0   14262.8    701.1   0.880902333  20.33288  -4.27061   1.41291  -0.31379
   1   23043.9    434.0   0.036288588   0.51843   0.10222  -0.33591  -0.62861
   2   25512.3    392.0   0.540071614   6.96910   1.84298  -0.00224   1.89011
   3   25994.1    384.7   0.024691856   0.31272  -0.33307   0.27266   0.35699
   4   26769.2    373.6   0.118574327   1.45824   0.42096  -0.57284  -0.97616
   5   27665.5    361.5   0.444670519   5.29146  -1.88947   0.59599  -1.16884
   6   28232.9    354.2   0.000992531   0.01157  -0.09469  -0.04150   0.02976
   7   31570.7    316.7   0.001615962   0.01685   0.08316   0.00258   0.09964
   8   33711.3    296.6   0.733368496   7.16181  -1.14871  -0.31195  -2.39687
   9   34309.2    291.5   0.161719713   1.55177  -0.80193   0.78246   0.54445
  10   35758.8    279.7   0.013613431   0.12533   0.27512  -0.10432   0.19687
  11   36140.2    276.7   0.099563221   0.90695   0.84536  -0.27555   0.34115
  12   37189.0    268.9   0.041872410   0.37067  -0.53687   0.27049   0.09631
  13   38152.4    262.1   0.084002304   0.72484  -0.66447   0.45891   0.26968
  14   38422.3    260.3   0.117187363   1.00409  -0.36514   0.04027  -0.93228
  15   38932.1    256.9   0.046573093   0.39382  -0.48432   0.27302   0.29106
  16   38938.5    256.8   0.023444073   0.19821   0.31999  -0.13387  -0.27910
  17   39098.7    255.8   0.015000324   0.12630   0.25919  -0.15447  -0.18779
  18   39378.3    253.9   0.094183918   0.78740   0.17241   0.10016   0.86466

FINAL SINGLE POINT ENERGY     -3415.553657557391

DIPOLE MOMENT
-------------
                                X             Y             Z
Electronic contribution:     -2.77852      -3.29131       0.36899
Nuclear contribution   :      1.74735       3.78148      -1.78059
                        -----------------------------------------
Total Dipole Moment    :     -1.03117       0.49017      -1.41160
                        -----------------------------------------
Magnitude (a.u.)       :      1.81555
Magnitude (Debye)      :      4.61475

Rotational constants in cm-1:     0.003497     0.000415     0.000374
Rotational constants in MHz :   104.826644    12.443081    11.225681

                             ****ORCA TERMINATED NORMALLY****
TOTAL RUN TIME: 0 days 0 hours 5 minutes 27 seconds 483 msec
