                         Program Version 4.2.0 -  RELEASE  -
|  1> # ORCA input file
|  2> # SCF done       -157.471456450008          0.000770412563
|  3> ! CAM-B3LYP def2-SVP def2/J RIJCOSX Grid4 TightSCF
|  4> %maxcore 5000
|  5> %tddft
|  6>     Mode sTDDFT
|  7>     Ethresh 5.0
|  8>     maxcore 5000
|  9> end
| 10>
| 11> %pal
| 12>   nprocs 6
| 13>   end
| 14> * xyz 0 1
| 15>    C       -0.74498         1.05953        -3.28418
| 16>    C       -0.02836         2.17196        -3.65060
| 17>    C       -0.53690         3.43487        -3.96507
| 18>    N       -0.95513         4.47113        -4.22430
| 19>    S        1.67899         1.85990        -3.70126
| 20>    C        1.43403         0.21072        -3.21406
| 21>    C        0.07573        -0.05624        -3.03622
| 22>    C       -0.46513        -1.30941        -2.69497
| 23>    N       -0.95882        -2.31304        -2.44364
| 24>    C        2.54534        -0.65796        -3.05071
| 25>    C        2.56930        -1.93613        -2.53610
| 26>    C        3.90290        -2.43113        -2.60375
| 27>    C        4.72229        -1.35015        -3.17819
| 28>    C        3.90469        -0.29447        -3.42536
| 29>    C        6.11429        -1.33886        -3.33863
| 30>    N        7.25460        -1.26174        -3.44785
| 31>    C        4.36023        -3.67530        -2.22522
| 32>    C        5.63490        -4.23487        -2.49241
| 33>    C        5.71171        -5.49698        -1.92466
| 34>    C        4.44041        -5.75491        -1.25882
| 35>    C        3.62132        -4.68888        -1.45370
| 36>    C        2.33055        -4.56577        -0.92326
| 37>    N        1.28737        -4.49464        -0.44956
| 38>    C        6.85688        -6.32262        -2.03334
| 39>    N        7.17757        -7.43003        -1.28950
| 40>    C        6.47938        -7.98546        -0.15264
| 41>    C        6.51114        -7.05297         1.05390
| 42>    C        8.42995        -7.96321        -1.65684
| 43>    O        8.92831        -8.92836        -1.11763
| 44>    C        8.87985        -7.11966        -2.74278
| 45>    C        7.90536        -6.12767        -2.94897
| 46>    C        8.32026        -5.32225        -4.08503
| 47>    O        7.79845        -4.39967        -4.66834
| 48>    N        9.55755        -5.87760        -4.46577
| 49>    C       10.33190        -5.28714        -5.53168
| 50>    C       11.42006        -4.36264        -4.99198
| 51>    C        9.91359        -6.94274        -3.67902
| 52>    C       11.10486        -7.67713        -3.83669
| 53>    C       11.42763        -8.74375        -3.04540
| 54>    C       12.61383        -9.49924        -3.16296
| 55>    C       12.94906       -10.58636        -2.37670
| 56>    C       14.22843       -11.07345        -2.76510
| 57>    C       14.66919       -10.21243        -3.88176
| 58>    C       13.70384        -9.28739        -4.11023
| 59>    C       15.84163       -10.34217        -4.63776
| 60>    N       16.77340       -10.42811        -5.30324
| 61>    C       14.93603       -12.11747        -2.21845
| 62>    C       16.26709       -12.52783        -2.54805
| 63>    C       16.59689       -13.61871        -1.78773
| 64>    C       15.46144       -13.94730        -0.93981
| 65>    C       14.47217       -13.04412        -1.17298
| 66>    C       13.22971       -13.03142        -0.52885
| 67>    N       12.22177       -13.04308         0.02148
| 68>    C       17.84968       -14.32496        -1.79398
| 69>    C       19.06551       -13.74405        -2.11824
| 70>    C       19.31546       -12.39779        -2.39626
| 71>    N       19.54710       -11.29129        -2.59353
| 72>    S       20.38658       -14.86874        -2.04025
| 73>    C       19.32384       -16.12282        -1.58145
| 74>    C       18.02135       -15.70994        -1.47804
| 75>    C       16.98074       -16.59811        -1.14349
| 76>    N       16.14862       -17.33950        -0.87600
| 77>    H       -1.81727         1.04417        -3.19900
| 78>    H        1.72939        -2.49222        -2.16911
| 79>    H        4.19308         0.65847        -3.83031
| 80>    H        6.40140        -3.75873        -3.07045
| 81>    H        4.16748        -6.64614        -0.72861
| 82>    H        7.00867        -8.91272         0.08726
| 83>    H        5.45533        -8.24169        -0.43390
| 84>    H        7.54019        -6.86017         1.34767
| 85>    H        5.99463        -7.51895         1.88828
| 86>    H        6.03011        -6.10227         0.83385
| 87>    H        9.62596        -4.70690        -6.13218
| 88>    H       10.75807        -6.07764        -6.15518
| 89>    H       10.96828        -3.55405        -4.42295
| 90>    H       11.98009        -3.93363        -5.81799
| 91>    H       12.10776        -4.90172        -4.34365
| 92>    H       11.77871        -7.36815        -4.62231
| 93>    H       10.74267        -9.04976        -2.26518
| 94>    H       12.34950       -10.98957        -1.58406
| 95>    H       13.73619        -8.52679        -4.86779
| 96>    H       16.88728       -12.05207        -3.28149
| 97>    H       15.42957       -14.75595        -0.23411
| 98>    H       19.69946       -17.11304        -1.40945
| 99> *
|100>
|101>                          ****END OF INPUT****

CARTESIAN COORDINATES (ANGSTROEM)
---------------------------------
  C     -0.744980    1.059530   -3.284180
  C     -0.028360    2.171960   -3.650600
  C     -0.536900    3.434870   -3.965070
  N     -0.955130    4.471130   -4.224300
  S      1.678990    1.859900   -3.701260
  C      1.434030    0.210720   -3.214060
  C      0.075730   -0.056240   -3.036220
  C     -0.465130   -1.309410   -2.694970
  N     -0.958820   -2.313040   -2.443640
  C      2.545340   -0.657960   -3.050710
  C      2.569300   -1.936130   -2.536100
  C      3.902900   -2.431130   -2.603750
  C      4.722290   -1.350150   -3.178190
  C      3.904690   -0.294470   -3.425360
  C      6.114290   -1.338860   -3.338630
  N      7.254600   -1.261740   -3.447850
  C      4.360230   -3.675300   -2.225220
  C      5.634900   -4.234870   -2.492410
  C      5.711710   -5.496980   -1.924660
  C      4.440410   -5.754910   -1.258820
  C      3.621320   -4.688880   -1.453700
  C      2.330550   -4.565770   -0.923260
  N      1.287370   -4.494640   -0.449560
  C      6.856880   -6.322620   -2.033340
  N      7.177570   -7.430030   -1.289500
  C      6.479380   -7.985460   -0.152640
  C      6.511140   -7.052970    1.053900
  C      8.429950   -7.963210   -1.656840
  O      8.928310   -8.928360   -1.117630
  C      8.879850   -7.119660   -2.742780
  C      7.905360   -6.127670   -2.948970
  C      8.320260   -5.322250   -4.085030
  O      7.798450   -4.399670   -4.668340
  N      9.557550   -5.877600   -4.465770
  C     10.331900   -5.287140   -5.531680
  C     11.420060   -4.362640   -4.991980
  C      9.913590   -6.942740   -3.679020
  C     11.104860   -7.677130   -3.836690
  C     11.427630   -8.743750   -3.045400
  C     12.613830   -9.499240   -3.162960
  C     12.949060  -10.586360   -2.376700
  C     14.228430  -11.073450   -2.765100
  C     14.669190  -10.212430   -3.881760
  C     13.703840   -9.287390   -4.110230
  C     15.841630  -10.342170   -4.637760
  N     16.773400  -10.428110   -5.303240
  C     14.936030  -12.117470   -2.218450
  C     16.267090  -12.527830   -2.548050
  C     16.596890  -13.618710   -1.787730
  C     15.461440  -13.947300   -0.939810
  C     14.472170  -13.044120   -1.172980
  C     13.229710  -13.031420   -0.528850
  N     12.221770  -13.043080    0.021480
  C     17.849680  -14.324960   -1.793980
  C     19.065510  -13.744050   -2.118240
  C     19.315460  -12.397790   -2.396260
  N     19.547100  -11.291290   -2.593530
  S     20.386580  -14.868740   -2.040250
  C     19.323840  -16.122820   -1.581450
  C     18.021350  -15.709940   -1.478040
  C     16.980740  -16.598110   -1.143490
  N     16.148620  -17.339500   -0.876000
  H     -1.817270    1.044170   -3.199000
  H      1.729390   -2.492220   -2.169110
  H      4.193080    0.658470   -3.830310
  H      6.401400   -3.758730   -3.070450
  H      4.167480   -6.646140   -0.728610
  H      7.008670   -8.912720    0.087260
  H      5.455330   -8.241690   -0.433900
  H      7.540190   -6.860170    1.347670
  H      5.994630   -7.518950    1.888280
  H      6.030110   -6.102270    0.833850
  H      9.625960   -4.706900   -6.132180
  H     10.758070   -6.077640   -6.155180
  H     10.968280   -3.554050   -4.422950
  H     11.980090   -3.933630   -5.817990
  H     12.107760   -4.901720   -4.343650
  H     11.778710   -7.368150   -4.622310
  H     10.742670   -9.049760   -2.265180
  H     12.349500  -10.989570   -1.584060
  H     13.736190   -8.526790   -4.867790
  H     16.887280  -12.052070   -3.281490
  H     15.429570  -14.755950   -0.234110
  H     19.699460  -17.113040   -1.409450

 Total Charge           Charge          ....    0
 Multiplicity           Mult            ....    1
 Number of Electrons    NEL             ....  428
 Basis Dimension        Dim             ....  986

ORBITAL ENERGIES
----------------

  NO   OCC          E(Eh)            E(eV)
   0   2.0000     -89.011346     -2422.1219
   1   2.0000     -89.006213     -2421.9822
   2   2.0000     -19.209707      -522.7227
   3   2.0000     -19.208260      -522.6833
   4   2.0000     -14.471517      -393.7900
   5   2.0000     -14.470649      -393.7664
   6   2.0000     -14.429592      -392.6492
   7   2.0000     -14.428119      -392.6091
   8   2.0000     -14.425238      -392.5307
   9   2.0000     -14.421579      -392.4311
  10   2.0000     -14.417812      -392.3286
  11   2.0000     -14.414269      -392.2322
  12   2.0000     -14.413057      -392.1992
  13   2.0000     -14.412738      -392.1905
  14   2.0000     -10.391830      -282.7761
  15   2.0000     -10.390374      -282.7364
  16   2.0000     -10.360708      -281.9292
  17   2.0000     -10.360344      -281.9193
  18   2.0000     -10.358746      -281.8758
  19   2.0000     -10.358060      -281.8572
  20   2.0000     -10.357819      -281.8506
  21   2.0000     -10.352711      -281.7116
  22   2.0000     -10.346969      -281.5553
  23   2.0000     -10.342589      -281.4362
  24   2.0000     -10.340209      -281.3714
  25   2.0000     -10.337641      -281.3015
  26   2.0000     -10.334521      -281.2166
  27   2.0000     -10.334485      -281.2156
  28   2.0000     -10.333884      -281.1993
  29   2.0000     -10.330129      -281.0971
  30   2.0000     -10.329798      -281.0881
  31   2.0000     -10.329241      -281.0729
  32   2.0000     -10.328751      -281.0596
  33   2.0000     -10.327179      -281.0168
  34   2.0000     -10.326834      -281.0074
  35   2.0000     -10.326790      -281.0062
  36   2.0000     -10.324529      -280.9447
  37   2.0000     -10.322969      -280.9023
  38   2.0000     -10.322887      -280.9000
  39   2.0000     -10.322727      -280.8957
  40   2.0000     -10.321170      -280.8533
  41   2.0000     -10.321005      -280.8488
  42   2.0000     -10.320829      -280.8440
  43   2.0000     -10.320829      -280.8440
  44   2.0000     -10.320345      -280.8309
  45   2.0000     -10.320276      -280.8290
  46   2.0000     -10.318783      -280.7884
  47   2.0000     -10.317516      -280.7539
  48   2.0000     -10.315598      -280.7017
  49   2.0000     -10.314710      -280.6775
  50   2.0000     -10.314395      -280.6690
  51   2.0000     -10.313970      -280.6574
  52   2.0000     -10.313871      -280.6547
  53   2.0000     -10.311914      -280.6014
  54   2.0000     -10.302062      -280.3334
  55   2.0000     -10.301263      -280.3116
  56   2.0000     -10.299679      -280.2685
  57   2.0000     -10.294165      -280.1185
  58   2.0000     -10.284907      -279.8665
  59   2.0000     -10.282029      -279.7882
  60   2.0000     -10.275137      -279.6007
  61   2.0000     -10.273501      -279.5562
  62   2.0000      -8.106835      -220.5982
  63   2.0000      -8.101317      -220.4480
  64   2.0000      -6.076135      -165.3400
  65   2.0000      -6.071552      -165.2153
  66   2.0000      -6.070604      -165.1895
  67   2.0000      -6.069262      -165.1530
  68   2.0000      -6.066323      -165.0731
  69   2.0000      -6.063532      -164.9971
  70   2.0000      -1.152473       -31.3604
  71   2.0000      -1.145858       -31.1804
  72   2.0000      -1.082349       -29.4522
  73   2.0000      -1.073613       -29.2145
  74   2.0000      -1.047322       -28.4991
  75   2.0000      -1.042248       -28.3610
  76   2.0000      -1.026507       -27.9327
  77   2.0000      -1.025153       -27.8958
  78   2.0000      -1.013811       -27.5872
  79   2.0000      -1.009576       -27.4720
  80   2.0000      -1.008929       -27.4543
  81   2.0000      -1.006628       -27.3917
  82   2.0000      -1.003353       -27.3026
  83   2.0000      -0.998260       -27.1640
  84   2.0000      -0.994174       -27.0528
  85   2.0000      -0.991035       -26.9674
  86   2.0000      -0.989330       -26.9210
  87   2.0000      -0.987738       -26.8777
  88   2.0000      -0.945721       -25.7344
  89   2.0000      -0.930305       -25.3149
  90   2.0000      -0.912177       -24.8216
  91   2.0000      -0.910741       -24.7825
  92   2.0000      -0.899587       -24.4790
  93   2.0000      -0.896829       -24.4039
  94   2.0000      -0.892572       -24.2881
  95   2.0000      -0.881378       -23.9835
  96   2.0000      -0.874183       -23.7877
  97   2.0000      -0.865223       -23.5439
  98   2.0000      -0.864367       -23.5206
  99   2.0000      -0.852479       -23.1971
 100   2.0000      -0.847636       -23.0653
 101   2.0000      -0.834876       -22.7181
 102   2.0000      -0.822899       -22.3922
 103   2.0000      -0.812643       -22.1132
 104   2.0000      -0.787281       -21.4230
 105   2.0000      -0.778753       -21.1909
 106   2.0000      -0.773950       -21.0603
 107   2.0000      -0.762260       -20.7421
 108   2.0000      -0.760714       -20.7001
 109   2.0000      -0.744289       -20.2531
 110   2.0000      -0.739822       -20.1316
 111   2.0000      -0.735977       -20.0270
 112   2.0000      -0.729407       -19.8482
 113   2.0000      -0.722766       -19.6675
 114   2.0000      -0.718492       -19.5512
 115   2.0000      -0.712780       -19.3957
 116   2.0000      -0.701093       -19.0777
 117   2.0000      -0.695375       -18.9221
 118   2.0000      -0.686558       -18.6822
 119   2.0000      -0.683751       -18.6058
 120   2.0000      -0.679769       -18.4975
 121   2.0000      -0.663914       -18.0660
 122   2.0000      -0.653760       -17.7897
 123   2.0000      -0.652147       -17.7458
 124   2.0000      -0.638327       -17.3698
 125   2.0000      -0.629289       -17.1238
 126   2.0000      -0.624249       -16.9867
 127   2.0000      -0.612468       -16.6661
 128   2.0000      -0.605495       -16.4764
 129   2.0000      -0.598080       -16.2746
 130   2.0000      -0.595272       -16.1982
 131   2.0000      -0.587890       -15.9973
 132   2.0000      -0.581816       -15.8320
 133   2.0000      -0.577518       -15.7151
 134   2.0000      -0.571457       -15.5501
 135   2.0000      -0.565817       -15.3967
 136   2.0000      -0.562725       -15.3125
 137   2.0000      -0.554844       -15.0981
 138   2.0000      -0.554318       -15.0838
 139   2.0000      -0.551114       -14.9966
 140   2.0000      -0.549257       -14.9460
 141   2.0000      -0.546692       -14.8763
 142   2.0000      -0.544077       -14.8051
 143   2.0000      -0.540612       -14.7108
 144   2.0000      -0.539626       -14.6840
 145   2.0000      -0.535780       -14.5793
 146   2.0000      -0.535090       -14.5606
 147   2.0000      -0.530440       -14.4340
 148   2.0000      -0.528935       -14.3931
 149   2.0000      -0.528771       -14.3886
 150   2.0000      -0.525902       -14.3105
 151   2.0000      -0.520588       -14.1659
 152   2.0000      -0.515510       -14.0277
 153   2.0000      -0.513888       -13.9836
 154   2.0000      -0.510573       -13.8934
 155   2.0000      -0.509758       -13.8712
 156   2.0000      -0.503954       -13.7133
 157   2.0000      -0.499758       -13.5991
 158   2.0000      -0.497875       -13.5479
 159   2.0000      -0.496211       -13.5026
 160   2.0000      -0.493907       -13.4399
 161   2.0000      -0.490227       -13.3398
 162   2.0000      -0.488558       -13.2943
 163   2.0000      -0.485049       -13.1988
 164   2.0000      -0.480926       -13.0867
 165   2.0000      -0.477912       -13.0047
 166   2.0000      -0.476529       -12.9670
 167   2.0000      -0.474727       -12.9180
 168   2.0000      -0.472412       -12.8550
 169   2.0000      -0.469679       -12.7806
 170   2.0000      -0.467874       -12.7315
 171   2.0000      -0.466189       -12.6856
 172   2.0000      -0.460209       -12.5229
 173   2.0000      -0.457660       -12.4536
 174   2.0000      -0.456678       -12.4268
 175   2.0000      -0.454111       -12.3570
 176   2.0000      -0.452512       -12.3135
 177   2.0000      -0.450153       -12.2493
 178   2.0000      -0.447517       -12.1775
 179   2.0000      -0.445501       -12.1227
 180   2.0000      -0.445183       -12.1141
 181   2.0000      -0.442990       -12.0544
 182   2.0000      -0.441915       -12.0251
 183   2.0000      -0.441476       -12.0132
 184   2.0000      -0.440852       -11.9962
 185   2.0000      -0.439609       -11.9624
 186   2.0000      -0.438298       -11.9267
 187   2.0000      -0.437036       -11.8924
 188   2.0000      -0.434523       -11.8240
 189   2.0000      -0.433391       -11.7932
 190   2.0000      -0.430354       -11.7105
 191   2.0000      -0.429468       -11.6864
 192   2.0000      -0.425412       -11.5760
 193   2.0000      -0.422997       -11.5103
 194   2.0000      -0.421702       -11.4751
 195   2.0000      -0.419483       -11.4147
 196   2.0000      -0.415195       -11.2980
 197   2.0000      -0.404914       -11.0183
 198   2.0000      -0.404336       -11.0025
 199   2.0000      -0.395270       -10.7558
 200   2.0000      -0.371957       -10.1215
 201   2.0000      -0.368850       -10.0369
 202   2.0000      -0.364630        -9.9221
 203   2.0000      -0.357445        -9.7266
 204   2.0000      -0.349943        -9.5224
 205   2.0000      -0.346037        -9.4162
 206   2.0000      -0.338146        -9.2014
 207   2.0000      -0.336707        -9.1623
 208   2.0000      -0.334811        -9.1107
 209   2.0000      -0.322357        -8.7718
 210   2.0000      -0.315995        -8.5987
 211   2.0000      -0.305225        -8.3056
 212   2.0000      -0.299668        -8.1544
 213   2.0000      -0.248694        -6.7673
 214   0.0000      -0.149442        -4.0665
 215   0.0000      -0.131266        -3.5719
 216   0.0000      -0.073799        -2.0082
 217   0.0000      -0.055466        -1.5093
 218   0.0000      -0.053667        -1.4604

MULLIKEN ATOMIC CHARGES
-----------------------
   0 C :    0.083396
   1 C :   -0.249530
   2 C :   -0.127217
   3 N :    0.150755
   4 S :    0.218010
   5 C :   -0.045279
   6 C :   -0.047283
   7 C :   -0.199793
   8 N :    0.169371
   9 C :    0.087750
  10 C :   -0.132574
  11 C :    0.100714
  12 C :   -0.072877
  13 C :   -0.026265
  14 C :   -0.183574
  15 N :    0.151194
  16 C :    0.133502
  17 C :   -0.117386
  18 C :    0.039709
  19 C :   -0.026757
  20 C :   -0.090031
  21 C :   -0.192526
  22 N :    0.168541
  23 C :    0.155487
  24 N :   -0.254613
  25 C :    0.094604
  26 C :   -0.007159
  27 C :    0.163829
  28 O :   -0.195937
  29 C :   -0.066759
  30 C :   -0.051504
  31 C :    0.155804
  32 O :   -0.177794
  33 N :   -0.255348
  34 C :    0.095637
  35 C :    0.000304
  36 C :    0.157760
  37 C :   -0.029656
  38 C :    0.015993
  39 C :    0.108529
  40 C :   -0.094150
  41 C :    0.120041
  42 C :   -0.083251
  43 C :   -0.006766
  44 C :   -0.181122
  45 N :    0.149264
  46 C :    0.103297
  47 C :   -0.109925
  48 C :    0.008279
  49 C :   -0.000115
  50 C :   -0.094365
  51 C :   -0.183352
  52 N :    0.150118
  53 C :    0.348100
  54 C :   -0.357951
  55 C :   -0.201469
  56 N :    0.167094
  57 S :    0.246014
  58 C :   -0.050759
  59 C :   -0.123970
  60 C :   -0.197152
  61 N :    0.161268
  62 H :    0.021242
  63 H :    0.028342
  64 H :    0.010265
  65 H :    0.028282
  66 H :   -0.007778
  67 H :    0.054185
  68 H :    0.028232
  69 H :    0.030939
  70 H :    0.032181
  71 H :    0.027813
  72 H :    0.050777
  73 H :    0.024659
  74 H :    0.043234
  75 H :    0.028552
  76 H :    0.013889
  77 H :   -0.026685
  78 H :    0.021160
  79 H :    0.021672
  80 H :    0.003498
  81 H :    0.025755
  82 H :    0.017188
  83 H :    0.052441
Sum of atomic charges:   -0.0000000

LOEWDIN ATOMIC CHARGES
----------------------
   0 C :    0.019104
   1 C :   -0.214795
   2 C :   -0.055900
   3 N :   -0.032037
   4 S :    0.505325
   5 C :   -0.123244
   6 C :   -0.095778
   7 C :   -0.033608
   8 N :   -0.027187
   9 C :   -0.042160
  10 C :   -0.004717
  11 C :    0.038279
  12 C :   -0.070677
  13 C :    0.036249
  14 C :   -0.033740
  15 N :   -0.047010
  16 C :    0.041562
  17 C :    0.008200
  18 C :   -0.030265
  19 C :    0.047523
  20 C :   -0.073894
  21 C :   -0.039502
  22 N :   -0.040836
  23 C :    0.071517
  24 N :    0.001905
  25 C :    0.035665
  26 C :   -0.060580
  27 C :    0.081325
  28 O :   -0.185059
  29 C :   -0.113589
  30 C :   -0.096115
  31 C :    0.084496
  32 O :   -0.167483
  33 N :    0.003496
  34 C :    0.036955
  35 C :   -0.060056
  36 C :    0.083314
  37 C :   -0.038976
  38 C :    0.042386
  39 C :   -0.017410
  40 C :   -0.000667
  41 C :    0.044123
  42 C :   -0.071878
  43 C :    0.054197
  44 C :   -0.034202
  45 N :   -0.047390
  46 C :    0.038519
  47 C :   -0.000117
  48 C :   -0.023849
  49 C :    0.055591
  50 C :   -0.081598
  51 C :   -0.032132
  52 N :   -0.053617
  53 C :   -0.001365
  54 C :   -0.213186
  55 C :   -0.058189
  56 N :   -0.025848
  57 S :    0.525808
  58 C :   -0.125278
  59 C :   -0.101029
  60 C :   -0.033614
  61 N :   -0.037435
  62 H :    0.053052
  63 H :    0.041150
  64 H :    0.032945
  65 H :    0.037985
  66 H :    0.036526
  67 H :    0.041777
  68 H :    0.021045
  69 H :    0.033889
  70 H :    0.035489
  71 H :    0.023628
  72 H :    0.040938
  73 H :    0.023166
  74 H :    0.037517
  75 H :    0.033126
  76 H :    0.020966
  77 H :    0.029261
  78 H :    0.044357
  79 H :    0.042728
  80 H :    0.036258
  81 H :    0.039828
  82 H :    0.042367
  83 H :    0.042476

  Mayer bond orders larger than 0.100000
B(  0-C ,  1-C ) :   1.5298 B(  0-C ,  6-C ) :   1.2802 B(  0-C , 62-H ) :   1.0076
B(  1-C ,  2-C ) :   1.1562 B(  1-C ,  4-S ) :   1.1253 B(  1-C ,  5-C ) :   0.1102
B(  2-C ,  3-N ) :   3.0231 B(  4-S ,  5-C ) :   1.1633 B(  5-C ,  6-C ) :   1.4682
B(  5-C ,  9-C ) :   1.0888 B(  6-C ,  7-C ) :   1.1086 B(  7-C ,  8-N ) :   2.9882
B(  9-C , 10-C ) :   1.5601 B(  9-C , 13-C ) :   1.0398 B( 10-C , 11-C ) :   1.1211
B( 10-C , 63-H ) :   0.9956 B( 11-C , 12-C ) :   1.1178 B( 11-C , 16-C ) :   1.3728
B( 12-C , 13-C ) :   1.6833 B( 12-C , 14-C ) :   1.0777 B( 13-C , 64-H ) :   1.0084
B( 14-C , 15-N ) :   2.9898 B( 16-C , 17-C ) :   1.1270 B( 16-C , 20-C ) :   1.0987
B( 17-C , 18-C ) :   1.5336 B( 17-C , 65-H ) :   0.9867 B( 18-C , 19-C ) :   1.0124
B( 18-C , 23-C ) :   1.0653 B( 19-C , 20-C ) :   1.6781 B( 19-C , 66-H ) :   1.0270
B( 20-C , 21-C ) :   1.0827 B( 21-C , 22-N ) :   2.9881 B( 23-C , 24-N ) :   1.2030
B( 23-C , 30-C ) :   1.3459 B( 24-N , 25-C ) :   0.9372 B( 24-N , 27-C ) :   1.0481
B( 25-C , 26-C ) :   1.1172 B( 25-C , 67-H ) :   0.9214 B( 25-C , 68-H ) :   0.9513
B( 26-C , 69-H ) :   0.9611 B( 26-C , 70-H ) :   0.9667 B( 26-C , 71-H ) :   0.9671
B( 27-C , 28-O ) :   2.0302 B( 27-C , 29-C ) :   0.9897 B( 28-O , 78-H ) :   0.1102
B( 29-C , 30-C ) :   1.2806 B( 29-C , 36-C ) :   1.2860 B( 30-C , 31-C ) :   0.9643
B( 31-C , 32-O ) :   2.0857 B( 31-C , 33-N ) :   1.0429 B( 33-N , 34-C ) :   0.9394
B( 33-N , 36-C ) :   1.1788 B( 34-C , 35-C ) :   1.1189 B( 34-C , 72-H ) :   0.9269
B( 34-C , 73-H ) :   0.9500 B( 35-C , 74-H ) :   0.9636 B( 35-C , 75-H ) :   0.9684
B( 35-C , 76-H ) :   0.9686 B( 36-C , 37-C ) :   1.1763 B( 37-C , 38-C ) :   1.5326
B( 37-C , 77-H ) :   0.9641 B( 38-C , 39-C ) :   1.1357 B( 38-C , 78-H ) :   0.9584
B( 39-C , 40-C ) :   1.5008 B( 39-C , 43-C ) :   1.0257 B( 40-C , 41-C ) :   1.1081
B( 40-C , 79-H ) :   1.0126 B( 41-C , 42-C ) :   1.0939 B( 41-C , 46-C ) :   1.4140
B( 42-C , 43-C ) :   1.7010 B( 42-C , 44-C ) :   1.0901 B( 43-C , 80-H ) :   1.0149
B( 44-C , 45-N ) :   2.9708 B( 46-C , 47-C ) :   1.0956 B( 46-C , 50-C ) :   1.1176
B( 47-C , 48-C ) :   1.5990 B( 47-C , 81-H ) :   0.9954 B( 48-C , 49-C ) :   1.0666
B( 48-C , 53-C ) :   0.9518 B( 49-C , 50-C ) :   1.6609 B( 49-C , 82-H ) :   1.0117
B( 50-C , 51-C ) :   1.0841 B( 51-C , 52-N ) :   2.9717 B( 53-C , 54-C ) :   1.4724
B( 53-C , 59-C ) :   1.2583 B( 54-C , 55-C ) :   1.2378 B( 54-C , 57-S ) :   1.1599
B( 55-C , 56-N ) :   2.9874 B( 57-S , 58-C ) :   1.2050 B( 58-C , 59-C ) :   1.5416
B( 58-C , 83-H ) :   0.9732 B( 59-C , 60-C ) :   1.1027 B( 60-C , 61-N ) :   3.0171

-----------------------------------------------------------------------------
         ABSORPTION SPECTRUM VIA TRANSITION ELECTRIC DIPOLE MOMENTS
-----------------------------------------------------------------------------
State   Energy  Wavelength   fosc         T2         TX        TY        TZ
        (cm-1)    (nm)                  (au**2)     (au)      (au)      (au)
-----------------------------------------------------------------------------
   0    7274.6   1374.6   0.597994458  27.06229  -3.90656   3.43506   0.03773
   1   11676.9    856.4   0.111383755   3.14029   1.47081  -0.97207   0.17908
   2   16124.0    620.2   0.054691022   1.11666   0.40105  -0.92862   0.30573
   3   17249.7    579.7   0.061498359   1.17370   0.50161  -0.78898   0.54734
   4   19020.4    525.8   0.057195692   0.98996   0.86988  -0.22492  -0.42742
   5   19102.4    523.5   0.026373338   0.45452  -0.10267  -0.42341   0.51449
   6   21969.9    455.2   0.273262596   4.09474  -1.78098   0.65593   0.70186
   7   23034.7    434.1   0.000577078   0.00825   0.02175  -0.08335   0.02876
   8   24394.5    409.9   0.058791377   0.79341  -0.56324   0.68662  -0.06877
   9   24772.1    403.7   0.715779325   9.51245   1.91295  -2.24925   0.89103
  10   25200.1    396.8   0.269867111   3.52551  -0.82988   1.58715  -0.56370
  11   26560.8    376.5   0.233466259   2.89374   1.03206  -1.15363   0.70551
  12   27208.3    367.5   0.003894673   0.04712  -0.16098  -0.10025   0.10564
  13   27545.9    363.0   0.000744676   0.00890  -0.08255  -0.01716   0.04232
  14   28541.0    350.4   0.221747997   2.55780   0.77908  -1.31423   0.47288
  15   28716.5    348.2   0.002608834   0.02991  -0.00110   0.15290  -0.08080
  16   28805.8    347.2   0.001459557   0.01668   0.09447  -0.07969  -0.03748
  17   29161.2    342.9   0.053446094   0.60337   0.62335  -0.45635  -0.08099
  18   29791.7    335.7   0.178606866   1.97369  -1.04702   0.92099  -0.17096
  19   30421.5    328.7   0.092427518   1.00022   0.18414   0.93250  -0.31106
  20   31870.8    313.8   0.004251480   0.04392  -0.13390   0.16106  -0.00690
  21   32120.9    311.3   0.035411519   0.36294   0.23886  -0.46647   0.29714
  22   32661.8    306.2   0.086174630   0.86859  -0.89563   0.25749   0.01147
  23   33104.4    302.1   0.099695249   0.99144  -0.29501   0.89435  -0.32334
  24   33303.2    300.3   0.038513562   0.38072  -0.36942   0.46522  -0.16680
  25   34050.7    293.7   0.028937017   0.27977   0.35197   0.06194  -0.38994
  26   34539.9    289.5   0.045153714   0.43038  -0.16608   0.58036  -0.25686
  27   34781.2    287.5   0.391209728   3.70289  -1.16303   1.43591  -0.53703
  28   34826.5    287.1   0.016698313   0.15785   0.20184  -0.32583   0.10461
  29   35190.8    284.2   0.005868865   0.05490   0.20007  -0.09992  -0.06995
  30   35645.5    280.5   0.044241986   0.40861  -0.54045   0.31477  -0.13205
  31   35813.3    279.2   0.121666063   1.11841  -0.93908   0.48009  -0.07776
  32   36129.6    276.8   0.002927926   0.02668   0.15797  -0.02817  -0.03053
  33   36401.6    274.7   0.134276109   1.21438  -0.76454   0.78306  -0.12914
  34   36971.5    270.5   0.129327332   1.15159  -1.01832   0.33731  -0.02891
  35   37089.1    269.6   0.025717172   0.22827  -0.10580  -0.46218   0.05893
  36   37943.0    263.6   0.014136081   0.12265   0.04121   0.29405  -0.18572
  37   38077.8    262.6   0.026443260   0.22862   0.46136   0.06180  -0.10932
  38   38223.9    261.6   0.012672185   0.10914   0.08669  -0.29667   0.11667
  39   38610.8    259.0   0.022908546   0.19533   0.16426  -0.40616   0.05812
  40   38834.1    257.5   0.031441338   0.26654   0.48697  -0.08244  -0.15036
  41   39472.7    253.3   0.085103825   0.70979  -0.59937  -0.29209   0.51500
  42   40304.8    248.1   0.090654082   0.74047   0.65921  -0.54612   0.08751

FINAL SINGLE POINT ENERGY     -3333.010799689204

DIPOLE MOMENT
-------------
                                X             Y             Z
Electronic contribution:      3.57744      -2.79678      -2.57058
Nuclear contribution   :     -1.02280       1.73603       2.22994
                        -----------------------------------------
Total Dipole Moment    :      2.55464      -1.06074      -0.34064
                        -----------------------------------------
Magnitude (a.u.)       :      2.78700
Magnitude (Debye)      :      7.08399

Rotational constants in cm-1:     0.004258     0.000288     0.000273
Rotational constants in MHz :   127.656762     8.648741     8.199138

                             ****ORCA TERMINATED NORMALLY****
TOTAL RUN TIME: 0 days 0 hours 8 minutes 24 seconds 780 msec
