                         Program Version 4.2.0 -  RELEASE  -
|  1> # ORCA input file
|  2> # SCF done       -177.559148544106          0.000971926921
|  3> ! CAM-B3LYP def2-SVP def2/J RIJCOSX Grid4 TightSCF
|  4> %maxcore 5000
|  5> %tddft
|  6>     Mode sTDDFT
|  7>     Ethresh 5.0
|  8>     maxcore 5000
|  9> end
| 10>
| 11> %pal
| 12>   nprocs 6
| 13>   end
| 14> * xyz 0 1
| 15>    C       -8.30349         5.02636        -8.33572
| 16>    C       -8.64226         4.20487        -7.29412
| 17>    C       -9.94298         3.67797        -7.17498
| 18>    N      -11.01601         3.28026        -7.12898
| 19>    C       -7.54204         3.98353        -6.41147
| 20>    C       -6.41539         4.66731        -6.85214
| 21>    S       -6.66894         5.56231        -8.30149
| 22>    S       -5.00244         4.48159        -5.86237
| 23>    C       -5.93970         3.45913        -4.82374
| 24>    C       -7.26027         3.26826        -5.21070
| 25>    C       -7.94941         2.41932        -4.29864
| 26>    C       -9.30024         2.05826        -4.42212
| 27>    N      -10.40484         1.76486        -4.51910
| 28>    C       -7.14144         1.99473        -3.25412
| 29>    S       -5.51291         2.63314        -3.37593
| 30>    C       -7.46421         1.15425        -2.15208
| 31>    S       -9.01356         0.38081        -1.96587
| 32>    C       -8.52880        -0.35488        -0.46827
| 33>    C       -7.21273        -0.00080        -0.14975
| 34>    C       -6.62459         0.84329        -1.10414
| 35>    C       -6.50770        -0.41386         0.99176
| 36>    N       -5.89092        -0.72449         1.90926
| 37>    C       -9.46296        -1.16303         0.22297
| 38>    C       -9.24413        -1.75378         1.42783
| 39>    C      -10.23021        -2.52874         2.08534
| 40>    N      -10.05035        -3.09349         3.32659
| 41>    C       -8.88476        -2.97187         4.16837
| 42>    C       -8.83968        -1.62705         4.88948
| 43>    C      -11.19793        -3.78555         3.76775
| 44>    O      -11.27254        -4.34465         4.83994
| 45>    C      -12.13261        -3.64099         2.67360
| 46>    C      -11.51440        -2.86414         1.66112
| 47>    C      -12.45680        -2.73445         0.57763
| 48>    O      -12.38741        -2.19087        -0.50792
| 49>    N      -13.60344        -3.42850         1.01754
| 50>    C      -14.73166        -3.56064         0.12800
| 51>    C      -15.67718        -2.36443         0.22809
| 52>    C      -13.42231        -3.96656         2.27245
| 53>    C      -14.33327        -4.71967         3.06868
| 54>    C      -15.67532        -4.75342         2.96085
| 55>    N      -16.51291        -5.48406         3.77864
| 56>    C      -17.88030        -5.28363         3.84304
| 57>    C      -18.60259        -4.27612         3.03569
| 58>    C      -18.39831        -6.15059         4.76232
| 59>    C      -17.32791        -6.94834         5.30237
| 60>    C      -16.09981        -6.54126         4.66426
| 61>    O      -14.97007        -6.94794         4.76477
| 62>    C      -17.83863        -7.82080         6.21690
| 63>    C      -17.14588        -8.84067         7.02996
| 64>    N      -19.20608        -7.61831         6.27268
| 65>    C      -19.62734        -6.55640         5.38854
| 66>    O      -20.76633        -6.17262         5.31684
| 67>    C      -20.10783        -8.26674         7.08784
| 68>    C      -21.32181        -8.77607         6.68460
| 69>    C      -21.66903        -8.86244         5.32325
| 70>    N      -21.88425        -8.96897         4.20328
| 71>    C      -22.08356        -9.27462         7.78170
| 72>    C      -21.40270        -9.11934         8.98100
| 73>    S      -19.86288        -8.36507         8.82158
| 74>    S      -22.22514        -9.72428        10.38330
| 75>    C      -23.52977       -10.19270         9.34104
| 76>    C      -23.34232        -9.90560         7.99443
| 77>    C      -24.47015       -10.32412         7.22614
| 78>    C      -24.63091       -10.18718         5.83369
| 79>    N      -24.80765       -10.09797         4.70563
| 80>    C      -25.43564       -10.89735         8.00889
| 81>    S      -25.03558       -10.95630         9.68202
| 82>    H       -8.94629         5.34626        -9.13236
| 83>    H       -5.61799         1.21616        -1.02171
| 84>    H      -10.42122        -1.29444        -0.26352
| 85>    H       -8.29353        -1.63094         1.92340
| 86>    H       -7.98125        -3.11938         3.57080
| 87>    H       -8.96014        -3.77855         4.90306
| 88>    H       -8.79630        -0.80476         4.17875
| 89>    H       -7.96029        -1.58237         5.52534
| 90>    H       -9.72586        -1.50778         5.50822
| 91>    H      -15.24121        -4.50427         0.33420
| 92>    H      -14.32426        -3.59580        -0.88755
| 93>    H      -16.00804        -2.20238         1.25217
| 94>    H      -16.54509        -2.52152        -0.40679
| 95>    H      -15.16058        -1.46893        -0.10706
| 96>    H      -13.85069        -5.26321         3.86905
| 97>    H      -16.20518        -4.15540         2.23616
| 98>    H      -18.49255        -4.47747         1.96967
| 99>    H      -18.22700        -3.27248         3.23650
|100>    H      -19.65785        -4.31847         3.29144
|101>    H      -16.12890        -8.95343         6.66438
|102>    H      -17.66657        -9.79647         6.97692
|103>    H      -17.10759        -8.53553         8.07650
|104>    H      -26.37643       -11.29249         7.67894
|105> *
|106>
|107>                          ****END OF INPUT****

CARTESIAN COORDINATES (ANGSTROEM)
---------------------------------
  C     -8.303490    5.026360   -8.335720
  C     -8.642260    4.204870   -7.294120
  C     -9.942980    3.677970   -7.174980
  N    -11.016010    3.280260   -7.128980
  C     -7.542040    3.983530   -6.411470
  C     -6.415390    4.667310   -6.852140
  S     -6.668940    5.562310   -8.301490
  S     -5.002440    4.481590   -5.862370
  C     -5.939700    3.459130   -4.823740
  C     -7.260270    3.268260   -5.210700
  C     -7.949410    2.419320   -4.298640
  C     -9.300240    2.058260   -4.422120
  N    -10.404840    1.764860   -4.519100
  C     -7.141440    1.994730   -3.254120
  S     -5.512910    2.633140   -3.375930
  C     -7.464210    1.154250   -2.152080
  S     -9.013560    0.380810   -1.965870
  C     -8.528800   -0.354880   -0.468270
  C     -7.212730   -0.000800   -0.149750
  C     -6.624590    0.843290   -1.104140
  C     -6.507700   -0.413860    0.991760
  N     -5.890920   -0.724490    1.909260
  C     -9.462960   -1.163030    0.222970
  C     -9.244130   -1.753780    1.427830
  C    -10.230210   -2.528740    2.085340
  N    -10.050350   -3.093490    3.326590
  C     -8.884760   -2.971870    4.168370
  C     -8.839680   -1.627050    4.889480
  C    -11.197930   -3.785550    3.767750
  O    -11.272540   -4.344650    4.839940
  C    -12.132610   -3.640990    2.673600
  C    -11.514400   -2.864140    1.661120
  C    -12.456800   -2.734450    0.577630
  O    -12.387410   -2.190870   -0.507920
  N    -13.603440   -3.428500    1.017540
  C    -14.731660   -3.560640    0.128000
  C    -15.677180   -2.364430    0.228090
  C    -13.422310   -3.966560    2.272450
  C    -14.333270   -4.719670    3.068680
  C    -15.675320   -4.753420    2.960850
  N    -16.512910   -5.484060    3.778640
  C    -17.880300   -5.283630    3.843040
  C    -18.602590   -4.276120    3.035690
  C    -18.398310   -6.150590    4.762320
  C    -17.327910   -6.948340    5.302370
  C    -16.099810   -6.541260    4.664260
  O    -14.970070   -6.947940    4.764770
  C    -17.838630   -7.820800    6.216900
  C    -17.145880   -8.840670    7.029960
  N    -19.206080   -7.618310    6.272680
  C    -19.627340   -6.556400    5.388540
  O    -20.766330   -6.172620    5.316840
  C    -20.107830   -8.266740    7.087840
  C    -21.321810   -8.776070    6.684600
  C    -21.669030   -8.862440    5.323250
  N    -21.884250   -8.968970    4.203280
  C    -22.083560   -9.274620    7.781700
  C    -21.402700   -9.119340    8.981000
  S    -19.862880   -8.365070    8.821580
  S    -22.225140   -9.724280   10.383300
  C    -23.529770  -10.192700    9.341040
  C    -23.342320   -9.905600    7.994430
  C    -24.470150  -10.324120    7.226140
  C    -24.630910  -10.187180    5.833690
  N    -24.807650  -10.097970    4.705630
  C    -25.435640  -10.897350    8.008890
  S    -25.035580  -10.956300    9.682020
  H     -8.946290    5.346260   -9.132360
  H     -5.617990    1.216160   -1.021710
  H    -10.421220   -1.294440   -0.263520
  H     -8.293530   -1.630940    1.923400
  H     -7.981250   -3.119380    3.570800
  H     -8.960140   -3.778550    4.903060
  H     -8.796300   -0.804760    4.178750
  H     -7.960290   -1.582370    5.525340
  H     -9.725860   -1.507780    5.508220
  H    -15.241210   -4.504270    0.334200
  H    -14.324260   -3.595800   -0.887550
  H    -16.008040   -2.202380    1.252170
  H    -16.545090   -2.521520   -0.406790
  H    -15.160580   -1.468930   -0.107060
  H    -13.850690   -5.263210    3.869050
  H    -16.205180   -4.155400    2.236160
  H    -18.492550   -4.477470    1.969670
  H    -18.227000   -3.272480    3.236500
  H    -19.657850   -4.318470    3.291440
  H    -16.128900   -8.953430    6.664380
  H    -17.666570   -9.796470    6.976920
  H    -17.107590   -8.535530    8.076500
  H    -26.376430  -11.292490    7.678940

 Total Charge           Charge          ....    0
 Multiplicity           Mult            ....    1
 Number of Electrons    NEL             ....  512
 Basis Dimension        Dim             .... 1081

ORBITAL ENERGIES
----------------

  NO   OCC          E(Eh)            E(eV)
   0   2.0000     -88.993606     -2421.6391
   1   2.0000     -88.993575     -2421.6383
   2   2.0000     -88.993539     -2421.6373
   3   2.0000     -88.992041     -2421.5965
   4   2.0000     -88.991597     -2421.5845
   5   2.0000     -88.990232     -2421.5473
   6   2.0000     -88.981040     -2421.2972
   7   2.0000     -19.210933      -522.7561
   8   2.0000     -19.209399      -522.7143
   9   2.0000     -19.189131      -522.1628
  10   2.0000     -19.177243      -521.8393
  11   2.0000     -14.485096      -394.1595
  12   2.0000     -14.484587      -394.1457
  13   2.0000     -14.450409      -393.2156
  14   2.0000     -14.443601      -393.0304
  15   2.0000     -14.415145      -392.2560
  16   2.0000     -14.412180      -392.1754
  17   2.0000     -14.403637      -391.9429
  18   2.0000     -14.401731      -391.8910
  19   2.0000     -14.400052      -391.8453
  20   2.0000     -10.395908      -282.8870
  21   2.0000     -10.394786      -282.8565
  22   2.0000     -10.369833      -282.1775
  23   2.0000     -10.368884      -282.1517
  24   2.0000     -10.362738      -281.9844
  25   2.0000     -10.357949      -281.8541
  26   2.0000     -10.355794      -281.7955
  27   2.0000     -10.348717      -281.6029
  28   2.0000     -10.344968      -281.5009
  29   2.0000     -10.343454      -281.4597
  30   2.0000     -10.343106      -281.4502
  31   2.0000     -10.341214      -281.3987
  32   2.0000     -10.334605      -281.2189
  33   2.0000     -10.334444      -281.2145
  34   2.0000     -10.333129      -281.1787
  35   2.0000     -10.332989      -281.1749
  36   2.0000     -10.332566      -281.1634
  37   2.0000     -10.331298      -281.1289
  38   2.0000     -10.329801      -281.0882
  39   2.0000     -10.328759      -281.0598
  40   2.0000     -10.328079      -281.0413
  41   2.0000     -10.327997      -281.0391
  42   2.0000     -10.326705      -281.0039
  43   2.0000     -10.321913      -280.8735
  44   2.0000     -10.316993      -280.7396
  45   2.0000     -10.316472      -280.7255
  46   2.0000     -10.315502      -280.6991
  47   2.0000     -10.314997      -280.6853
  48   2.0000     -10.313259      -280.6380
  49   2.0000     -10.310096      -280.5520
  50   2.0000     -10.307795      -280.4894
  51   2.0000     -10.307674      -280.4861
  52   2.0000     -10.303636      -280.3762
  53   2.0000     -10.301593      -280.3206
  54   2.0000     -10.300109      -280.2802
  55   2.0000     -10.297639      -280.2130
  56   2.0000     -10.296208      -280.1741
  57   2.0000     -10.296168      -280.1730
  58   2.0000     -10.294938      -280.1395
  59   2.0000     -10.292621      -280.0765
  60   2.0000     -10.282275      -279.7949
  61   2.0000     -10.276608      -279.6407
  62   2.0000     -10.276229      -279.6304
  63   2.0000     -10.264095      -279.3002
  64   2.0000     -10.255399      -279.0636
  65   2.0000     -10.253272      -279.0057
  66   2.0000     -10.252011      -278.9714
  67   2.0000      -8.089066      -220.1147
  68   2.0000      -8.088738      -220.1058
  69   2.0000      -8.088662      -220.1037
  70   2.0000      -8.087761      -220.0792
  71   2.0000      -8.086754      -220.0518
  72   2.0000      -8.085960      -220.0301
  73   2.0000      -8.075745      -219.7522
  74   2.0000      -6.058661      -164.8646
  75   2.0000      -6.058646      -164.8641
  76   2.0000      -6.058383      -164.8570
  77   2.0000      -6.057313      -164.8279
  78   2.0000      -6.056718      -164.8117
  79   2.0000      -6.055511      -164.7788
  80   2.0000      -6.054530      -164.7521
  81   2.0000      -6.054426      -164.7493
  82   2.0000      -6.054170      -164.7424
  83   2.0000      -6.052860      -164.7067
  84   2.0000      -6.052558      -164.6985
  85   2.0000      -6.051078      -164.6582
  86   2.0000      -6.050460      -164.6414
  87   2.0000      -6.050159      -164.6332
  88   2.0000      -6.049572      -164.6172
  89   2.0000      -6.049472      -164.6145
  90   2.0000      -6.047752      -164.5677
  91   2.0000      -6.047504      -164.5609
  92   2.0000      -6.045038      -164.4938
  93   2.0000      -6.040668      -164.3749
  94   2.0000      -6.037962      -164.3013
  95   2.0000      -1.155008       -31.4294
  96   2.0000      -1.148658       -31.2566
  97   2.0000      -1.128461       -30.7070
  98   2.0000      -1.117469       -30.4079
  99   2.0000      -1.090346       -29.6698
 100   2.0000      -1.083744       -29.4902
 101   2.0000      -1.056814       -28.7574
 102   2.0000      -1.048545       -28.5323
 103   2.0000      -1.047384       -28.5008
 104   2.0000      -1.043795       -28.4031
 105   2.0000      -1.023469       -27.8500
 106   2.0000      -1.009485       -27.4695
 107   2.0000      -1.008649       -27.4467
 108   2.0000      -0.995566       -27.0907
 109   2.0000      -0.992454       -27.0060
 110   2.0000      -0.987460       -26.8702
 111   2.0000      -0.983440       -26.7608
 112   2.0000      -0.978646       -26.6303
 113   2.0000      -0.957784       -26.0626
 114   2.0000      -0.951767       -25.8989
 115   2.0000      -0.934865       -25.4390
 116   2.0000      -0.923479       -25.1291
 117   2.0000      -0.914379       -24.8815
 118   2.0000      -0.901001       -24.5175
 119   2.0000      -0.899549       -24.4780
 120   2.0000      -0.896549       -24.3964
 121   2.0000      -0.883840       -24.0505
 122   2.0000      -0.878819       -23.9139
 123   2.0000      -0.873326       -23.7644
 124   2.0000      -0.869785       -23.6681
 125   2.0000      -0.868317       -23.6281
 126   2.0000      -0.867206       -23.5979
 127   2.0000      -0.858948       -23.3732
 128   2.0000      -0.835455       -22.7339
 129   2.0000      -0.828124       -22.5344
 130   2.0000      -0.823315       -22.4035
 131   2.0000      -0.815247       -22.1840
 132   2.0000      -0.813230       -22.1291
 133   2.0000      -0.793011       -21.5789
 134   2.0000      -0.779575       -21.2133
 135   2.0000      -0.777467       -21.1560
 136   2.0000      -0.756639       -20.5892
 137   2.0000      -0.754892       -20.5417
 138   2.0000      -0.741079       -20.1658
 139   2.0000      -0.738967       -20.1083
 140   2.0000      -0.721077       -19.6215
 141   2.0000      -0.714899       -19.4534
 142   2.0000      -0.712162       -19.3789
 143   2.0000      -0.709159       -19.2972
 144   2.0000      -0.704399       -19.1677
 145   2.0000      -0.699682       -19.0393
 146   2.0000      -0.692386       -18.8408
 147   2.0000      -0.687230       -18.7005
 148   2.0000      -0.683826       -18.6079
 149   2.0000      -0.675407       -18.3788
 150   2.0000      -0.670541       -18.2463
 151   2.0000      -0.668147       -18.1812
 152   2.0000      -0.649254       -17.6671
 153   2.0000      -0.646952       -17.6045
 154   2.0000      -0.645530       -17.5658
 155   2.0000      -0.643437       -17.5088
 156   2.0000      -0.631690       -17.1892
 157   2.0000      -0.614747       -16.7281
 158   2.0000      -0.612829       -16.6759
 159   2.0000      -0.605037       -16.4639
 160   2.0000      -0.595943       -16.2164
 161   2.0000      -0.594409       -16.1747
 162   2.0000      -0.584486       -15.9047
 163   2.0000      -0.580690       -15.8014
 164   2.0000      -0.573678       -15.6106
 165   2.0000      -0.569869       -15.5069
 166   2.0000      -0.566484       -15.4148
 167   2.0000      -0.561709       -15.2849
 168   2.0000      -0.560216       -15.2443
 169   2.0000      -0.549511       -14.9529
 170   2.0000      -0.548075       -14.9139
 171   2.0000      -0.547698       -14.9036
 172   2.0000      -0.544426       -14.8146
 173   2.0000      -0.541256       -14.7283
 174   2.0000      -0.540976       -14.7207
 175   2.0000      -0.538665       -14.6578
 176   2.0000      -0.530844       -14.4450
 177   2.0000      -0.528952       -14.3935
 178   2.0000      -0.527952       -14.3663
 179   2.0000      -0.525870       -14.3096
 180   2.0000      -0.525268       -14.2933
 181   2.0000      -0.523279       -14.2391
 182   2.0000      -0.521854       -14.2004
 183   2.0000      -0.516804       -14.0629
 184   2.0000      -0.515282       -14.0215
 185   2.0000      -0.513956       -13.9855
 186   2.0000      -0.512251       -13.9391
 187   2.0000      -0.511628       -13.9221
 188   2.0000      -0.510710       -13.8971
 189   2.0000      -0.507904       -13.8208
 190   2.0000      -0.507522       -13.8104
 191   2.0000      -0.500348       -13.6152
 192   2.0000      -0.498951       -13.5772
 193   2.0000      -0.497852       -13.5473
 194   2.0000      -0.495782       -13.4909
 195   2.0000      -0.494568       -13.4579
 196   2.0000      -0.492245       -13.3947
 197   2.0000      -0.479447       -13.0464
 198   2.0000      -0.475062       -12.9271
 199   2.0000      -0.473818       -12.8932
 200   2.0000      -0.472576       -12.8594
 201   2.0000      -0.471572       -12.8321
 202   2.0000      -0.470695       -12.8083
 203   2.0000      -0.464091       -12.6285
 204   2.0000      -0.463628       -12.6160
 205   2.0000      -0.463151       -12.6030
 206   2.0000      -0.458832       -12.4855
 207   2.0000      -0.457016       -12.4360
 208   2.0000      -0.456284       -12.4161
 209   2.0000      -0.456015       -12.4088
 210   2.0000      -0.454156       -12.3582
 211   2.0000      -0.453221       -12.3328
 212   2.0000      -0.452465       -12.3122
 213   2.0000      -0.451548       -12.2872
 214   2.0000      -0.443695       -12.0736
 215   2.0000      -0.443119       -12.0579
 216   2.0000      -0.442609       -12.0440
 217   2.0000      -0.441241       -12.0068
 218   2.0000      -0.439889       -11.9700
 219   2.0000      -0.437075       -11.8934
 220   2.0000      -0.433406       -11.7936
 221   2.0000      -0.431962       -11.7543
 222   2.0000      -0.430833       -11.7236
 223   2.0000      -0.429602       -11.6901
 224   2.0000      -0.428390       -11.6571
 225   2.0000      -0.428228       -11.6527
 226   2.0000      -0.424102       -11.5404
 227   2.0000      -0.419417       -11.4129
 228   2.0000      -0.418401       -11.3853
 229   2.0000      -0.415748       -11.3131
 230   2.0000      -0.414266       -11.2727
 231   2.0000      -0.409131       -11.1330
 232   2.0000      -0.408049       -11.1036
 233   2.0000      -0.405636       -11.0379
 234   2.0000      -0.388514       -10.5720
 235   2.0000      -0.387997       -10.5579
 236   2.0000      -0.383977       -10.4486
 237   2.0000      -0.380102       -10.3431
 238   2.0000      -0.377638       -10.2761
 239   2.0000      -0.376076       -10.2335
 240   2.0000      -0.363486        -9.8910
 241   2.0000      -0.345410        -9.3991
 242   2.0000      -0.342362        -9.3162
 243   2.0000      -0.341758        -9.2997
 244   2.0000      -0.339727        -9.2444
 245   2.0000      -0.336873        -9.1668
 246   2.0000      -0.323565        -8.8046
 247   2.0000      -0.321256        -8.7418
 248   2.0000      -0.319367        -8.6904
 249   2.0000      -0.308655        -8.3989
 250   2.0000      -0.304323        -8.2810
 251   2.0000      -0.303092        -8.2476
 252   2.0000      -0.295112        -8.0304
 253   2.0000      -0.279086        -7.5943
 254   2.0000      -0.272826        -7.4240
 255   2.0000      -0.229752        -6.2519
 256   0.0000      -0.089808        -2.4438
 257   0.0000      -0.056511        -1.5377
 258   0.0000      -0.045534        -1.2390
 259   0.0000      -0.028610        -0.7785
 260   0.0000      -0.018241        -0.4964

MULLIKEN ATOMIC CHARGES
-----------------------
   0 C :   -0.082413
   1 C :   -0.085095
   2 C :   -0.252077
   3 N :    0.201058
   4 C :    0.183672
   5 C :   -0.266618
   6 S :    0.172385
   7 S :    0.192404
   8 C :   -0.224179
   9 C :    0.134080
  10 C :    0.002364
  11 C :   -0.364983
  12 N :    0.236637
  13 C :   -0.048576
  14 S :    0.167489
  15 C :   -0.099541
  16 S :    0.212019
  17 C :   -0.059351
  18 C :   -0.059064
  19 C :   -0.011435
  20 C :   -0.169333
  21 N :    0.119151
  22 C :    0.055116
  23 C :   -0.036609
  24 C :    0.138393
  25 N :   -0.265637
  26 C :    0.093744
  27 C :    0.008038
  28 C :    0.144819
  29 O :   -0.190152
  30 C :   -0.036237
  31 C :   -0.058488
  32 C :    0.162544
  33 O :   -0.212532
  34 N :   -0.267303
  35 C :    0.105122
  36 C :    0.003710
  37 C :    0.097083
  38 C :   -0.019787
  39 C :    0.061821
  40 N :   -0.202181
  41 C :   -0.086795
  42 C :    0.122322
  43 C :   -0.029364
  44 C :   -0.027071
  45 C :    0.181550
  46 O :   -0.155713
  47 C :   -0.076482
  48 C :    0.124736
  49 N :   -0.230555
  50 C :    0.182178
  51 O :   -0.146035
  52 C :   -0.089065
  53 C :    0.035536
  54 C :   -0.316385
  55 N :    0.230045
  56 C :    0.142117
  57 C :   -0.245075
  58 S :    0.162009
  59 S :    0.188831
  60 C :   -0.264187
  61 C :    0.176695
  62 C :   -0.079540
  63 C :   -0.247012
  64 N :    0.196980
  65 C :   -0.083591
  66 S :    0.169715
  67 H :    0.040221
  68 H :    0.005099
  69 H :    0.007559
  70 H :   -0.014709
  71 H :    0.033956
  72 H :    0.041336
  73 H :    0.014578
  74 H :    0.026432
  75 H :    0.024972
  76 H :    0.021407
  77 H :    0.039399
  78 H :    0.011969
  79 H :    0.021690
  80 H :    0.039326
  81 H :    0.046999
  82 H :   -0.016568
  83 H :    0.052138
  84 H :    0.047073
  85 H :    0.054115
  86 H :    0.052169
  87 H :    0.047969
  88 H :    0.047839
  89 H :    0.039132
Sum of atomic charges:   -0.0000000

LOEWDIN ATOMIC CHARGES
----------------------
   0 C :   -0.138199
   1 C :   -0.095760
   2 C :   -0.041423
   3 N :   -0.029024
   4 C :   -0.064115
   5 C :   -0.335092
   6 S :    0.461003
   7 S :    0.425904
   8 C :   -0.331900
   9 C :   -0.060700
  10 C :   -0.101823
  11 C :   -0.059619
  12 N :   -0.018092
  13 C :   -0.139195
  14 S :    0.453721
  15 C :   -0.192571
  16 S :    0.522895
  17 C :   -0.136040
  18 C :   -0.106507
  19 C :   -0.026618
  20 C :   -0.026270
  21 N :   -0.061034
  22 C :   -0.007598
  23 C :   -0.025904
  24 C :    0.072848
  25 N :   -0.003307
  26 C :    0.035675
  27 C :   -0.060066
  28 C :    0.077358
  29 O :   -0.196170
  30 C :   -0.121045
  31 C :   -0.120660
  32 C :    0.081597
  33 O :   -0.200678
  34 N :   -0.004009
  35 C :    0.035381
  36 C :   -0.064078
  37 C :    0.076607
  38 C :   -0.051414
  39 C :    0.034099
  40 N :    0.015475
  41 C :    0.088554
  42 C :   -0.048394
  43 C :   -0.126294
  44 C :   -0.125480
  45 C :    0.101378
  46 O :   -0.150189
  47 C :    0.087999
  48 C :   -0.052529
  49 N :   -0.015994
  50 C :    0.099823
  51 O :   -0.150159
  52 C :   -0.106487
  53 C :   -0.091041
  54 C :   -0.040322
  55 N :   -0.025046
  56 C :   -0.060234
  57 C :   -0.333698
  58 S :    0.440202
  59 S :    0.422815
  60 C :   -0.335471
  61 C :   -0.063185
  62 C :   -0.095106
  63 C :   -0.040427
  64 N :   -0.028180
  65 C :   -0.138706
  66 S :    0.459473
  67 H :    0.037615
  68 H :    0.034374
  69 H :    0.038116
  70 H :    0.035482
  71 H :    0.026583
  72 H :    0.037437
  73 H :    0.021901
  74 H :    0.032268
  75 H :    0.029929
  76 H :    0.022211
  77 H :    0.037675
  78 H :    0.016440
  79 H :    0.029616
  80 H :    0.037090
  81 H :    0.053116
  82 H :    0.026818
  83 H :    0.048486
  84 H :    0.047834
  85 H :    0.057265
  86 H :    0.055321
  87 H :    0.047207
  88 H :    0.043079
  89 H :    0.037186

  Mayer bond orders larger than 0.100000
B(  0-C ,  1-C ) :   1.5741 B(  0-C ,  6-S ) :   1.1717 B(  0-C , 67-H ) :   0.9690
B(  1-C ,  2-C ) :   1.1552 B(  1-C ,  4-C ) :   1.2434 B(  2-C ,  3-N ) :   3.0352
B(  4-C ,  5-C ) :   1.3970 B(  4-C ,  9-C ) :   1.0662 B(  5-C ,  6-S ) :   1.1167
B(  5-C ,  7-S ) :   1.0825 B(  7-S ,  8-C ) :   1.0869 B(  8-C ,  9-C ) :   1.4293
B(  8-C , 14-S ) :   1.0827 B(  9-C , 10-C ) :   1.2532 B( 10-C , 11-C ) :   1.1571
B( 10-C , 13-C ) :   1.5032 B( 11-C , 12-N ) :   2.9698 B( 13-C , 14-S ) :   1.1414
B( 13-C , 15-C ) :   1.1703 B( 15-C , 16-S ) :   1.1289 B( 15-C , 19-C ) :   1.4607
B( 16-S , 17-C ) :   1.1470 B( 17-C , 18-C ) :   1.4226 B( 17-C , 22-C ) :   1.1599
B( 18-C , 19-C ) :   1.3113 B( 18-C , 20-C ) :   1.1087 B( 19-C , 68-H ) :   0.9962
B( 20-C , 21-N ) :   2.9706 B( 22-C , 23-C ) :   1.6102 B( 22-C , 69-H ) :   0.9223
B( 23-C , 24-C ) :   1.1684 B( 23-C , 70-H ) :   0.9482 B( 24-C , 25-N ) :   1.1665
B( 24-C , 31-C ) :   1.3367 B( 25-N , 26-C ) :   0.9437 B( 25-N , 28-C ) :   1.0298
B( 26-C , 27-C ) :   1.1229 B( 26-C , 71-H ) :   0.9485 B( 26-C , 72-H ) :   0.9270
B( 27-C , 73-H ) :   0.9676 B( 27-C , 74-H ) :   0.9676 B( 27-C , 75-H ) :   0.9637
B( 28-C , 29-O ) :   2.1432 B( 28-C , 30-C ) :   0.9756 B( 30-C , 31-C ) :   1.2335
B( 30-C , 37-C ) :   1.3653 B( 31-C , 32-C ) :   0.9931 B( 32-C , 33-O ) :   2.0133
B( 32-C , 34-N ) :   1.0564 B( 33-O , 69-H ) :   0.1123 B( 34-N , 35-C ) :   0.9453
B( 34-N , 37-C ) :   1.1669 B( 35-C , 36-C ) :   1.1159 B( 35-C , 76-H ) :   0.9498
B( 35-C , 77-H ) :   0.9291 B( 36-C , 78-H ) :   0.9625 B( 36-C , 79-H ) :   0.9683
B( 36-C , 80-H ) :   0.9583 B( 37-C , 38-C ) :   1.1563 B( 38-C , 39-C ) :   1.6512
B( 38-C , 81-H ) :   0.9334 B( 39-C , 40-N ) :   1.0613 B( 39-C , 82-H ) :   0.9670
B( 40-N , 41-C ) :   1.1361 B( 40-N , 45-C ) :   0.9598 B( 41-C , 42-C ) :   1.1267
B( 41-C , 43-C ) :   1.5087 B( 42-C , 83-H ) :   0.9239 B( 42-C , 84-H ) :   0.9303
B( 42-C , 85-H ) :   0.9289 B( 43-C , 44-C ) :   1.1697 B( 43-C , 50-C ) :   0.9741
B( 44-C , 45-C ) :   0.9690 B( 44-C , 47-C ) :   1.5225 B( 45-C , 46-O ) :   2.1656
B( 47-C , 48-C ) :   1.1289 B( 47-C , 49-N ) :   1.1104 B( 48-C , 86-H ) :   0.9284
B( 48-C , 87-H ) :   0.9299 B( 48-C , 88-H ) :   0.9275 B( 49-N , 50-C ) :   0.9355
B( 49-N , 52-C ) :   1.0626 B( 50-C , 51-O ) :   2.2044 B( 52-C , 53-C ) :   1.5132
B( 52-C , 58-S ) :   1.1284 B( 53-C , 54-C ) :   1.1477 B( 53-C , 56-C ) :   1.2670
B( 54-C , 55-N ) :   3.0129 B( 56-C , 57-C ) :   1.4170 B( 56-C , 61-C ) :   1.0697
B( 57-C , 58-S ) :   1.0914 B( 57-C , 59-S ) :   1.0850 B( 59-S , 60-C ) :   1.0838
B( 60-C , 61-C ) :   1.3976 B( 60-C , 66-S ) :   1.1162 B( 61-C , 62-C ) :   1.2451
B( 62-C , 63-C ) :   1.1534 B( 62-C , 65-C ) :   1.5740 B( 63-C , 64-N ) :   3.0324
B( 65-C , 66-S ) :   1.1696 B( 65-C , 89-H ) :   0.9691

-----------------------------------------------------------------------------
         ABSORPTION SPECTRUM VIA TRANSITION ELECTRIC DIPOLE MOMENTS
-----------------------------------------------------------------------------
State   Energy  Wavelength   fosc         T2         TX        TY        TZ
        (cm-1)    (nm)                  (au**2)     (au)      (au)      (au)
-----------------------------------------------------------------------------
   0   14973.2    667.9   0.912039079  20.05272  -3.46221  -2.30616   1.65755
   1   22826.9    438.1   0.062312436   0.89868  -0.91299  -0.12736   0.22116
   2   25147.9    397.6   0.314551252   4.11780   1.43720   1.10011  -0.91761
   3   25993.2    384.7   0.630754588   7.98871  -0.34443   1.43452  -2.41085
   4   26825.7    372.8   0.030846896   0.37856   0.44551   0.27006  -0.32733
   5   27220.1    367.4   0.191848222   2.32029   0.82585   0.71273  -1.06314
   6   28816.2    347.0   0.005626872   0.06428   0.13635   0.16413  -0.13694
   7   29518.9    338.8   0.154446073   1.72247   1.08475   0.43458  -0.59743
   8   30081.4    332.4   0.051499737   0.56361   0.62906   0.25880  -0.31768
   9   31957.5    312.9   0.112824301   1.16227  -0.85065  -0.53519   0.39018
  10   32254.3    310.0   0.002372459   0.02422   0.11318   0.09137  -0.05529
  11   33150.1    301.7   0.055178695   0.54798   0.67079   0.25771  -0.17779
  12   33210.3    301.1   0.232921206   2.30894  -0.96449  -0.64110   0.98371
  13   33960.6    294.5   0.188596526   1.82824   1.14054   0.51104  -0.51600
  14   34643.9    288.7   0.177297642   1.68481  -0.45286  -0.69062   1.00139
  15   35047.0    285.3   0.016746865   0.15731   0.35889   0.11912  -0.11968
  16   35290.8    283.4   0.003988136   0.03720   0.12206   0.00710  -0.14918
  17   36018.1    277.6   0.036802963   0.33639  -0.15134  -0.37555   0.41526
  18   36323.8    275.3   0.013548637   0.12279   0.13446   0.21141  -0.24499
  19   37317.9    268.0   0.144689219   1.27642   0.40991   0.59194  -0.87064
  20   37628.8    265.8   0.056480502   0.49414  -0.33617  -0.40745   0.46381
  21   38473.7    259.9   0.119289402   1.02074   0.29068  -0.36039   0.89797
  22   38634.2    258.8   0.051213308   0.43640  -0.38365   0.20625  -0.49666
  23   39131.4    255.5   0.049108481   0.41315  -0.57083  -0.14032   0.26002
  24   39257.1    254.7   0.001671084   0.01401  -0.07113  -0.04377   0.08390
  25   39389.6    253.9   0.012061106   0.10080  -0.20406   0.04041  -0.23985
  26   39638.6    252.3   0.018127399   0.15055   0.10267   0.27276  -0.25616
  27   39923.1    250.5   0.024782618   0.20436   0.35678   0.21088  -0.18056
  28   39954.8    250.3   0.051766451   0.42654  -0.62127  -0.03398  -0.19850
  29   40124.9    249.2   0.011887141   0.09753  -0.27032  -0.02860  -0.15376
  30   40298.3    248.1   0.019602358   0.16014  -0.39170  -0.07276  -0.03760

FINAL SINGLE POINT ENERGY     -5381.700389616505

DIPOLE MOMENT
-------------
                                X             Y             Z
Electronic contribution:     -1.40616       7.91065     -15.96485
Nuclear contribution   :      2.72355      -6.85429      17.42870
                        -----------------------------------------
Total Dipole Moment    :      1.31739       1.05636       1.46385
                        -----------------------------------------
Magnitude (a.u.)       :      2.23479
Magnitude (Debye)      :      5.68037

Rotational constants in cm-1:     0.002717     0.000188     0.000178
Rotational constants in MHz :    81.456487     5.650668     5.324021

                             ****ORCA TERMINATED NORMALLY****
TOTAL RUN TIME: 0 days 0 hours 7 minutes 29 seconds 281 msec
