                         Program Version 4.2.0 -  RELEASE  -
|  1> # ORCA input file
|  2> # SCF done       -166.483403430755          0.000809619674
|  3> ! CAM-B3LYP def2-SVP def2/J RIJCOSX Grid4 TightSCF
|  4> %maxcore 5000
|  5> %tddft
|  6>     Mode sTDDFT
|  7>     Ethresh 5.0
|  8>     maxcore 5000
|  9> end
| 10>
| 11> %pal
| 12>   nprocs 6
| 13>   end
| 14> * xyz 0 1
| 15>    C       -6.96838         0.33516         2.59330
| 16>    C       -7.42612        -0.87181         2.07964
| 17>    N       -6.62179        -1.90408         1.91633
| 18>    C       -5.33842        -1.75233         2.27250
| 19>    C       -4.88777        -0.53027         2.80503
| 20>    N       -5.69894         0.49539         2.95382
| 21>    C       -4.48167        -2.87362         2.05940
| 22>    C       -3.13528        -3.05422         2.36081
| 23>    C       -2.65251        -4.34392         1.96716
| 24>    N       -1.38039        -4.71769         2.18640
| 25>    C       -0.61368        -3.82393         2.74624
| 26>    C       -1.07119        -2.53021         3.12592
| 27>    C       -0.13560        -1.55801         3.76313
| 28>    N       -2.31377        -2.15730         2.94769
| 29>    C       -3.62516        -5.12050         1.32414
| 30>    S       -5.13497        -4.27959         1.28033
| 31>    C       -3.38415        -6.36338         0.70143
| 32>    C       -4.26471        -6.94312        -0.14990
| 33>    N       -4.01521        -8.06590        -0.86254
| 34>    N       -3.09424        -9.08308        -0.55955
| 35>    C       -3.83995       -10.34290        -0.69166
| 36>    C       -4.23901       -10.95926         0.66186
| 37>    C       -4.71172        -9.95146         1.71334
| 38>    C       -5.21751       -12.12737         0.41320
| 39>    C       -6.40615       -11.77789        -0.55964
| 40>    N       -7.65756       -12.04870         0.12666
| 41>    S       -7.34978       -11.91399         1.80524
| 42>    N       -5.76575       -12.58339         1.67943
| 43>    C       -6.40305       -10.31474        -1.02053
| 44>    C       -7.52426       -10.09899        -2.03210
| 45>    C       -5.03134        -9.98271        -1.61805
| 46>    N       -4.85219        -8.54932        -1.81888
| 47>    C       -5.07929        -7.90785        -2.97616
| 48>    N       -5.84635        -8.46015        -3.91393
| 49>    C       -5.96715        -7.53241        -4.87281
| 50>    C       -5.22845        -6.30911        -4.52190
| 51>    C       -5.33427        -5.29854        -5.59984
| 52>    O       -4.79782        -4.21591        -5.66095
| 53>    C       -6.20569        -5.97521        -6.56739
| 54>    C       -6.55133        -7.33260        -6.10514
| 55>    N       -7.32848        -7.96418        -7.01018
| 56>    C       -7.49468        -7.09299        -7.98608
| 57>    C       -6.82327        -5.84002        -7.77627
| 58>    C       -4.63507        -6.54447        -3.31881
| 59>    C       -3.78895        -5.62380        -2.59341
| 60>    N       -2.46254        -5.83824        -2.30634
| 61>    C       -1.64729        -6.91690        -2.80815
| 62>    C       -1.34728        -6.74622        -4.29558
| 63>    C       -1.89095        -4.72181        -1.65345
| 64>    O       -0.72566        -4.68605        -1.30883
| 65>    C       -2.97650        -3.78146        -1.53551
| 66>    C       -4.13203        -4.37748        -2.13222
| 67>    C       -5.23240        -3.44840        -2.01943
| 68>    O       -6.40051        -3.52370        -2.32649
| 69>    N       -4.65597        -2.32299        -1.38804
| 70>    C       -5.41773        -1.11174        -1.21483
| 71>    C       -5.14478        -0.11763        -2.34065
| 72>    C       -3.32679        -2.51497        -1.09812
| 73>    C       -2.51508        -1.53482        -0.43119
| 74>    C       -1.22462        -1.73084        -0.15692
| 75>    H       -7.61617         1.19035         2.72184
| 76>    H       -8.45670        -1.01922         1.78693
| 77>    H       -3.85675        -0.40307         3.09977
| 78>    H        0.41239        -4.11435         2.92626
| 79>    H        0.72437        -1.38692         3.11770
| 80>    H        0.22962        -1.95599         4.70897
| 81>    H       -0.64862        -0.61808         3.94514
| 82>    H       -2.40121        -6.77732         0.87230
| 83>    H       -5.20922        -6.47029        -0.38022
| 84>    H       -2.71420        -8.94590         0.37257
| 85>    H       -3.17843       -11.04928        -1.20638
| 86>    H       -3.33501       -11.41921         1.07978
| 87>    H       -5.49236        -9.28530         1.36259
| 88>    H       -3.87846        -9.34367         2.06299
| 89>    H       -5.09422       -10.49965         2.56884
| 90>    H       -4.63476       -12.94238        -0.03086
| 91>    H       -6.34694       -12.41285        -1.45004
| 92>    H       -8.04486       -12.95744        -0.10549
| 93>    H       -5.79618       -13.59550         1.74610
| 94>    H       -6.60806        -9.68309        -0.15535
| 95>    H       -7.33364       -10.65200        -2.94751
| 96>    H       -7.61369        -9.04981        -2.29170
| 97>    H       -8.46239       -10.43636        -1.60031
| 98>    H       -4.95229       -10.47051        -2.59407
| 99>    H       -8.09102        -7.35266        -8.84354
|100>    H       -6.83043        -5.00399        -8.44730
|101>    H       -2.14026        -7.87518        -2.62745
|102>    H       -0.71787        -6.88185        -2.23342
|103>    H       -2.26678        -6.74805        -4.87725
|104>    H       -0.71285        -7.55789        -4.64112
|105>    H       -0.83404        -5.80329        -4.46654
|106>    H       -5.19423        -0.66653        -0.24193
|107>    H       -6.46908        -1.41288        -1.22923
|108>    H       -4.09520         0.16913        -2.35655
|109>    H       -5.75087         0.77359        -2.20256
|110>    H       -5.39526        -0.56796        -3.29798
|111>    H       -2.99899        -0.61234        -0.14183
|112>    H       -0.72157        -2.64363        -0.43059
|113>    H       -0.64527        -0.97832         0.34974
|114> *
|115>
|116>                          ****END OF INPUT****

CARTESIAN COORDINATES (ANGSTROEM)
---------------------------------
  C     -6.968380    0.335160    2.593300
  C     -7.426120   -0.871810    2.079640
  N     -6.621790   -1.904080    1.916330
  C     -5.338420   -1.752330    2.272500
  C     -4.887770   -0.530270    2.805030
  N     -5.698940    0.495390    2.953820
  C     -4.481670   -2.873620    2.059400
  C     -3.135280   -3.054220    2.360810
  C     -2.652510   -4.343920    1.967160
  N     -1.380390   -4.717690    2.186400
  C     -0.613680   -3.823930    2.746240
  C     -1.071190   -2.530210    3.125920
  C     -0.135600   -1.558010    3.763130
  N     -2.313770   -2.157300    2.947690
  C     -3.625160   -5.120500    1.324140
  S     -5.134970   -4.279590    1.280330
  C     -3.384150   -6.363380    0.701430
  C     -4.264710   -6.943120   -0.149900
  N     -4.015210   -8.065900   -0.862540
  N     -3.094240   -9.083080   -0.559550
  C     -3.839950  -10.342900   -0.691660
  C     -4.239010  -10.959260    0.661860
  C     -4.711720   -9.951460    1.713340
  C     -5.217510  -12.127370    0.413200
  C     -6.406150  -11.777890   -0.559640
  N     -7.657560  -12.048700    0.126660
  S     -7.349780  -11.913990    1.805240
  N     -5.765750  -12.583390    1.679430
  C     -6.403050  -10.314740   -1.020530
  C     -7.524260  -10.098990   -2.032100
  C     -5.031340   -9.982710   -1.618050
  N     -4.852190   -8.549320   -1.818880
  C     -5.079290   -7.907850   -2.976160
  N     -5.846350   -8.460150   -3.913930
  C     -5.967150   -7.532410   -4.872810
  C     -5.228450   -6.309110   -4.521900
  C     -5.334270   -5.298540   -5.599840
  O     -4.797820   -4.215910   -5.660950
  C     -6.205690   -5.975210   -6.567390
  C     -6.551330   -7.332600   -6.105140
  N     -7.328480   -7.964180   -7.010180
  C     -7.494680   -7.092990   -7.986080
  C     -6.823270   -5.840020   -7.776270
  C     -4.635070   -6.544470   -3.318810
  C     -3.788950   -5.623800   -2.593410
  N     -2.462540   -5.838240   -2.306340
  C     -1.647290   -6.916900   -2.808150
  C     -1.347280   -6.746220   -4.295580
  C     -1.890950   -4.721810   -1.653450
  O     -0.725660   -4.686050   -1.308830
  C     -2.976500   -3.781460   -1.535510
  C     -4.132030   -4.377480   -2.132220
  C     -5.232400   -3.448400   -2.019430
  O     -6.400510   -3.523700   -2.326490
  N     -4.655970   -2.322990   -1.388040
  C     -5.417730   -1.111740   -1.214830
  C     -5.144780   -0.117630   -2.340650
  C     -3.326790   -2.514970   -1.098120
  C     -2.515080   -1.534820   -0.431190
  C     -1.224620   -1.730840   -0.156920
  H     -7.616170    1.190350    2.721840
  H     -8.456700   -1.019220    1.786930
  H     -3.856750   -0.403070    3.099770
  H      0.412390   -4.114350    2.926260
  H      0.724370   -1.386920    3.117700
  H      0.229620   -1.955990    4.708970
  H     -0.648620   -0.618080    3.945140
  H     -2.401210   -6.777320    0.872300
  H     -5.209220   -6.470290   -0.380220
  H     -2.714200   -8.945900    0.372570
  H     -3.178430  -11.049280   -1.206380
  H     -3.335010  -11.419210    1.079780
  H     -5.492360   -9.285300    1.362590
  H     -3.878460   -9.343670    2.062990
  H     -5.094220  -10.499650    2.568840
  H     -4.634760  -12.942380   -0.030860
  H     -6.346940  -12.412850   -1.450040
  H     -8.044860  -12.957440   -0.105490
  H     -5.796180  -13.595500    1.746100
  H     -6.608060   -9.683090   -0.155350
  H     -7.333640  -10.652000   -2.947510
  H     -7.613690   -9.049810   -2.291700
  H     -8.462390  -10.436360   -1.600310
  H     -4.952290  -10.470510   -2.594070
  H     -8.091020   -7.352660   -8.843540
  H     -6.830430   -5.003990   -8.447300
  H     -2.140260   -7.875180   -2.627450
  H     -0.717870   -6.881850   -2.233420
  H     -2.266780   -6.748050   -4.877250
  H     -0.712850   -7.557890   -4.641120
  H     -0.834040   -5.803290   -4.466540
  H     -5.194230   -0.666530   -0.241930
  H     -6.469080   -1.412880   -1.229230
  H     -4.095200    0.169130   -2.356550
  H     -5.750870    0.773590   -2.202560
  H     -5.395260   -0.567960   -3.297980
  H     -2.998990   -0.612340   -0.141830
  H     -0.721570   -2.643630   -0.430590
  H     -0.645270   -0.978320    0.349740

 Total Charge           Charge          ....    0
 Multiplicity           Mult            ....    1
 Number of Electrons    NEL             ....  438
 Basis Dimension        Dim             .... 1043

ORBITAL ENERGIES
----------------

  NO   OCC          E(Eh)            E(eV)
   0   2.0000     -88.963159     -2420.8106
   1   2.0000     -88.958471     -2420.6831
   2   2.0000     -19.198995      -522.4312
   3   2.0000     -19.179329      -521.8961
   4   2.0000     -19.177045      -521.8339
   5   2.0000     -14.520771      -395.1303
   6   2.0000     -14.517111      -395.0307
   7   2.0000     -14.462307      -393.5394
   8   2.0000     -14.441070      -392.9615
   9   2.0000     -14.440027      -392.9331
  10   2.0000     -14.427267      -392.5859
  11   2.0000     -14.425540      -392.5389
  12   2.0000     -14.415936      -392.2776
  13   2.0000     -14.407775      -392.0555
  14   2.0000     -14.405111      -391.9830
  15   2.0000     -14.404052      -391.9542
  16   2.0000     -14.401151      -391.8752
  17   2.0000     -14.390038      -391.5729
  18   2.0000     -10.384230      -282.5693
  19   2.0000     -10.363007      -281.9918
  20   2.0000     -10.361062      -281.9388
  21   2.0000     -10.360419      -281.9213
  22   2.0000     -10.334571      -281.2180
  23   2.0000     -10.331398      -281.1316
  24   2.0000     -10.331087      -281.1232
  25   2.0000     -10.330249      -281.1004
  26   2.0000     -10.329378      -281.0767
  27   2.0000     -10.328082      -281.0414
  28   2.0000     -10.318865      -280.7906
  29   2.0000     -10.316115      -280.7158
  30   2.0000     -10.315489      -280.6987
  31   2.0000     -10.311617      -280.5934
  32   2.0000     -10.310724      -280.5691
  33   2.0000     -10.306322      -280.4493
  34   2.0000     -10.305952      -280.4392
  35   2.0000     -10.305136      -280.4170
  36   2.0000     -10.300995      -280.3043
  37   2.0000     -10.300495      -280.2907
  38   2.0000     -10.298868      -280.2464
  39   2.0000     -10.297587      -280.2116
  40   2.0000     -10.295101      -280.1439
  41   2.0000     -10.292959      -280.0857
  42   2.0000     -10.292480      -280.0726
  43   2.0000     -10.291935      -280.0578
  44   2.0000     -10.289665      -279.9960
  45   2.0000     -10.289156      -279.9822
  46   2.0000     -10.282644      -279.8050
  47   2.0000     -10.279669      -279.7240
  48   2.0000     -10.277472      -279.6642
  49   2.0000     -10.274015      -279.5702
  50   2.0000     -10.272093      -279.5179
  51   2.0000     -10.270411      -279.4721
  52   2.0000     -10.270026      -279.4616
  53   2.0000     -10.264511      -279.3115
  54   2.0000     -10.261165      -279.2205
  55   2.0000     -10.252373      -278.9812
  56   2.0000     -10.252063      -278.9728
  57   2.0000     -10.249174      -278.8942
  58   2.0000     -10.246311      -278.8163
  59   2.0000     -10.242918      -278.7240
  60   2.0000      -8.054840      -219.1833
  61   2.0000      -8.051906      -219.1035
  62   2.0000      -6.027904      -164.0276
  63   2.0000      -6.021736      -163.8598
  64   2.0000      -6.020984      -163.8393
  65   2.0000      -6.016921      -163.7288
  66   2.0000      -6.014698      -163.6683
  67   2.0000      -6.011786      -163.5890
  68   2.0000      -1.206766       -32.8378
  69   2.0000      -1.120943       -30.5024
  70   2.0000      -1.113953       -30.3122
  71   2.0000      -1.113718       -30.3058
  72   2.0000      -1.087550       -29.5938
  73   2.0000      -1.068207       -29.0674
  74   2.0000      -1.066471       -29.0202
  75   2.0000      -1.059901       -28.8414
  76   2.0000      -1.051922       -28.6243
  77   2.0000      -1.049021       -28.5453
  78   2.0000      -1.043328       -28.3904
  79   2.0000      -1.025360       -27.9015
  80   2.0000      -0.992616       -27.0104
  81   2.0000      -0.985678       -26.8217
  82   2.0000      -0.982020       -26.7221
  83   2.0000      -0.967661       -26.3314
  84   2.0000      -0.963996       -26.2317
  85   2.0000      -0.926581       -25.2135
  86   2.0000      -0.916552       -24.9406
  87   2.0000      -0.915911       -24.9232
  88   2.0000      -0.894269       -24.3343
  89   2.0000      -0.881858       -23.9966
  90   2.0000      -0.879504       -23.9325
  91   2.0000      -0.868742       -23.6397
  92   2.0000      -0.862891       -23.4805
  93   2.0000      -0.857101       -23.3229
  94   2.0000      -0.851450       -23.1691
  95   2.0000      -0.846455       -23.0332
  96   2.0000      -0.828221       -22.5370
  97   2.0000      -0.815113       -22.1804
  98   2.0000      -0.807639       -21.9770
  99   2.0000      -0.805967       -21.9315
 100   2.0000      -0.795327       -21.6419
 101   2.0000      -0.789128       -21.4733
 102   2.0000      -0.770315       -20.9613
 103   2.0000      -0.765056       -20.8182
 104   2.0000      -0.754714       -20.5368
 105   2.0000      -0.748590       -20.3702
 106   2.0000      -0.742854       -20.2141
 107   2.0000      -0.741188       -20.1688
 108   2.0000      -0.735083       -20.0026
 109   2.0000      -0.725698       -19.7472
 110   2.0000      -0.723641       -19.6913
 111   2.0000      -0.721631       -19.6366
 112   2.0000      -0.710208       -19.3257
 113   2.0000      -0.697138       -18.9701
 114   2.0000      -0.689032       -18.7495
 115   2.0000      -0.678767       -18.4702
 116   2.0000      -0.678566       -18.4647
 117   2.0000      -0.665322       -18.1043
 118   2.0000      -0.656859       -17.8740
 119   2.0000      -0.649137       -17.6639
 120   2.0000      -0.646551       -17.5936
 121   2.0000      -0.645063       -17.5531
 122   2.0000      -0.637548       -17.3486
 123   2.0000      -0.631841       -17.1933
 124   2.0000      -0.629791       -17.1375
 125   2.0000      -0.621652       -16.9160
 126   2.0000      -0.617103       -16.7922
 127   2.0000      -0.613729       -16.7004
 128   2.0000      -0.605570       -16.4784
 129   2.0000      -0.595316       -16.1994
 130   2.0000      -0.592395       -16.1199
 131   2.0000      -0.589807       -16.0495
 132   2.0000      -0.586957       -15.9719
 133   2.0000      -0.578445       -15.7403
 134   2.0000      -0.574547       -15.6342
 135   2.0000      -0.574149       -15.6234
 136   2.0000      -0.571124       -15.5411
 137   2.0000      -0.562580       -15.3086
 138   2.0000      -0.556571       -15.1451
 139   2.0000      -0.553665       -15.0660
 140   2.0000      -0.548019       -14.9124
 141   2.0000      -0.546179       -14.8623
 142   2.0000      -0.545093       -14.8327
 143   2.0000      -0.542240       -14.7551
 144   2.0000      -0.540676       -14.7125
 145   2.0000      -0.535059       -14.5597
 146   2.0000      -0.528923       -14.3927
 147   2.0000      -0.521485       -14.1903
 148   2.0000      -0.520318       -14.1586
 149   2.0000      -0.517885       -14.0924
 150   2.0000      -0.514463       -13.9992
 151   2.0000      -0.511326       -13.9139
 152   2.0000      -0.510211       -13.8836
 153   2.0000      -0.508854       -13.8466
 154   2.0000      -0.508389       -13.8340
 155   2.0000      -0.504814       -13.7367
 156   2.0000      -0.501803       -13.6547
 157   2.0000      -0.499587       -13.5944
 158   2.0000      -0.498634       -13.5685
 159   2.0000      -0.495505       -13.4834
 160   2.0000      -0.494903       -13.4670
 161   2.0000      -0.489266       -13.3136
 162   2.0000      -0.488127       -13.2826
 163   2.0000      -0.485434       -13.2093
 164   2.0000      -0.485283       -13.2052
 165   2.0000      -0.479580       -13.0500
 166   2.0000      -0.477464       -12.9925
 167   2.0000      -0.472261       -12.8509
 168   2.0000      -0.469412       -12.7733
 169   2.0000      -0.467143       -12.7116
 170   2.0000      -0.465088       -12.6557
 171   2.0000      -0.460823       -12.5396
 172   2.0000      -0.455684       -12.3998
 173   2.0000      -0.454800       -12.3757
 174   2.0000      -0.453675       -12.3451
 175   2.0000      -0.452413       -12.3108
 176   2.0000      -0.450962       -12.2713
 177   2.0000      -0.448345       -12.2001
 178   2.0000      -0.446783       -12.1576
 179   2.0000      -0.442817       -12.0497
 180   2.0000      -0.441674       -12.0186
 181   2.0000      -0.437840       -11.9142
 182   2.0000      -0.433645       -11.8001
 183   2.0000      -0.431999       -11.7553
 184   2.0000      -0.429819       -11.6960
 185   2.0000      -0.429286       -11.6815
 186   2.0000      -0.424334       -11.5467
 187   2.0000      -0.418685       -11.3930
 188   2.0000      -0.415369       -11.3028
 189   2.0000      -0.413701       -11.2574
 190   2.0000      -0.408195       -11.1076
 191   2.0000      -0.405430       -11.0323
 192   2.0000      -0.403233       -10.9725
 193   2.0000      -0.398931       -10.8555
 194   2.0000      -0.388451       -10.5703
 195   2.0000      -0.383542       -10.4367
 196   2.0000      -0.378200       -10.2913
 197   2.0000      -0.369520       -10.0551
 198   2.0000      -0.366004        -9.9595
 199   2.0000      -0.362426        -9.8621
 200   2.0000      -0.356534        -9.7018
 201   2.0000      -0.341243        -9.2857
 202   2.0000      -0.340410        -9.2630
 203   2.0000      -0.338777        -9.2186
 204   2.0000      -0.335909        -9.1406
 205   2.0000      -0.332506        -9.0480
 206   2.0000      -0.327984        -8.9249
 207   2.0000      -0.319421        -8.6919
 208   2.0000      -0.317699        -8.6450
 209   2.0000      -0.315107        -8.5745
 210   2.0000      -0.311664        -8.4808
 211   2.0000      -0.309141        -8.4122
 212   2.0000      -0.306952        -8.3526
 213   2.0000      -0.302955        -8.2438
 214   2.0000      -0.301648        -8.2083
 215   2.0000      -0.293895        -7.9973
 216   2.0000      -0.279101        -7.5947
 217   2.0000      -0.240212        -6.5365
 218   2.0000      -0.223380        -6.0785
 219   0.0000      -0.091790        -2.4977
 220   0.0000      -0.054574        -1.4850
 221   0.0000      -0.049920        -1.3584
 222   0.0000      -0.028386        -0.7724
 223   0.0000       0.002017         0.0549

MULLIKEN ATOMIC CHARGES
-----------------------
   0 C :    0.001090
   1 C :    0.037183
   2 N :   -0.081184
   3 C :   -0.083812
   4 C :   -0.000628
   5 N :   -0.039915
   6 C :   -0.166519
   7 C :    0.100889
   8 C :   -0.014883
   9 N :    0.022667
  10 C :    0.003671
  11 C :   -0.146972
  12 C :    0.104367
  13 N :   -0.011983
  14 C :   -0.138953
  15 S :    0.194641
  16 C :   -0.045678
  17 C :    0.152659
  18 N :   -0.125011
  19 N :   -0.065946
  20 C :    0.053580
  21 C :    0.015635
  22 C :    0.032068
  23 C :    0.055781
  24 C :   -0.035313
  25 N :   -0.300122
  26 S :    0.217618
  27 N :   -0.313575
  28 C :    0.096081
  29 C :    0.122075
  30 C :    0.067419
  31 N :   -0.096363
  32 C :    0.072409
  33 N :   -0.084252
  34 C :    0.094658
  35 C :   -0.107895
  36 C :    0.207962
  37 O :   -0.121733
  38 C :   -0.050044
  39 C :   -0.065142
  40 N :   -0.065271
  41 C :    0.082186
  42 C :   -0.090160
  43 C :   -0.045647
  44 C :   -0.010416
  45 N :   -0.261912
  46 C :    0.117947
  47 C :    0.002260
  48 C :    0.169728
  49 O :   -0.206461
  50 C :   -0.048379
  51 C :    0.012183
  52 C :    0.131799
  53 O :   -0.175266
  54 N :   -0.278009
  55 C :    0.089256
  56 C :    0.015690
  57 C :    0.088583
  58 C :   -0.011649
  59 C :    0.016784
  60 H :    0.004259
  61 H :    0.006682
  62 H :   -0.002503
  63 H :   -0.008741
  64 H :    0.029199
  65 H :    0.032441
  66 H :    0.028307
  67 H :   -0.000515
  68 H :    0.034587
  69 H :    0.128013
  70 H :    0.010448
  71 H :    0.000347
  72 H :    0.026009
  73 H :   -0.001071
  74 H :    0.039606
  75 H :    0.000200
  76 H :   -0.003276
  77 H :    0.130574
  78 H :    0.129171
  79 H :   -0.033061
  80 H :    0.002093
  81 H :    0.019715
  82 H :    0.012116
  83 H :    0.026181
  84 H :   -0.001172
  85 H :   -0.012637
  86 H :    0.008896
  87 H :    0.036851
  88 H :    0.021035
  89 H :    0.015648
  90 H :    0.028250
  91 H :    0.035036
  92 H :    0.042663
  93 H :    0.012068
  94 H :    0.017791
  95 H :    0.033265
  96 H :   -0.017866
  97 H :    0.057151
  98 H :    0.022466
Sum of atomic charges:    0.0000000

LOEWDIN ATOMIC CHARGES
----------------------
   0 C :   -0.024340
   1 C :   -0.000598
   2 N :   -0.076688
   3 C :   -0.026393
   4 C :   -0.002287
   5 N :   -0.044778
   6 C :   -0.229166
   7 C :   -0.031662
   8 C :   -0.071304
   9 N :   -0.020254
  10 C :   -0.012678
  11 C :    0.001646
  12 C :   -0.053515
  13 N :   -0.058020
  14 C :   -0.145125
  15 S :    0.518246
  16 C :   -0.121126
  17 C :    0.021837
  18 N :    0.073845
  19 N :   -0.019627
  20 C :    0.018172
  21 C :   -0.042884
  22 C :   -0.062099
  23 C :   -0.005964
  24 C :   -0.005147
  25 N :   -0.217738
  26 S :    0.366491
  27 N :   -0.223683
  28 C :   -0.036330
  29 C :   -0.044204
  30 C :    0.046839
  31 N :    0.071946
  32 C :    0.085698
  33 N :   -0.150035
  34 C :    0.049728
  35 C :    0.004691
  36 C :    0.064841
  37 O :   -0.133710
  38 C :   -0.046190
  39 C :   -0.002192
  40 N :   -0.104649
  41 C :    0.058445
  42 C :   -0.047306
  43 C :   -0.063705
  44 C :    0.052880
  45 N :    0.004957
  46 C :    0.032560
  47 C :   -0.061693
  48 C :    0.080177
  49 O :   -0.203340
  50 C :   -0.131356
  51 C :   -0.107220
  52 C :    0.078194
  53 O :   -0.184500
  54 N :    0.000400
  55 C :    0.034490
  56 C :   -0.060192
  57 C :    0.089183
  58 C :   -0.046427
  59 C :    0.018905
  60 H :    0.021549
  61 H :    0.024760
  62 H :    0.018881
  63 H :    0.021224
  64 H :    0.037458
  65 H :    0.040589
  66 H :    0.037505
  67 H :    0.034034
  68 H :    0.032987
  69 H :    0.065215
  70 H :    0.026783
  71 H :    0.030061
  72 H :    0.019086
  73 H :    0.017463
  74 H :    0.030379
  75 H :    0.022436
  76 H :    0.021712
  77 H :    0.048797
  78 H :    0.048121
  79 H :    0.024615
  80 H :    0.022242
  81 H :    0.024264
  82 H :    0.022895
  83 H :    0.036223
  84 H :    0.019775
  85 H :    0.031796
  86 H :    0.013923
  87 H :    0.035043
  88 H :    0.022891
  89 H :    0.027538
  90 H :    0.031432
  91 H :    0.021752
  92 H :    0.036619
  93 H :    0.021744
  94 H :    0.028491
  95 H :    0.033436
  96 H :    0.031288
  97 H :    0.031697
  98 H :    0.027251

  Mayer bond orders larger than 0.100000
B(  0-C ,  1-C ) :   1.3594 B(  0-C ,  5-N ) :   1.5186 B(  0-C , 60-H ) :   0.9796
B(  1-C ,  2-N ) :   1.5398 B(  1-C , 61-H ) :   0.9763 B(  2-N ,  3-C ) :   1.5416
B(  3-C ,  4-C ) :   1.3296 B(  3-C ,  6-C ) :   1.0895 B(  4-C ,  5-N ) :   1.5831
B(  4-C , 62-H ) :   0.9565 B(  6-C ,  7-C ) :   1.3875 B(  6-C , 14-C ) :   0.1356
B(  6-C , 15-S ) :   1.1275 B(  7-C ,  8-C ) :   1.2097 B(  7-C , 13-N ) :   1.3713
B(  8-C ,  9-N ) :   1.4224 B(  8-C , 14-C ) :   1.3236 B(  9-N , 10-C ) :   1.7108
B( 10-C , 11-C ) :   1.1526 B( 10-C , 63-H ) :   0.9802 B( 11-C , 12-C ) :   1.0505
B( 11-C , 13-N ) :   1.6998 B( 12-C , 64-H ) :   0.9522 B( 12-C , 65-H ) :   0.9513
B( 12-C , 66-H ) :   0.9533 B( 14-C , 15-S ) :   1.1676 B( 14-C , 16-C ) :   1.2566
B( 16-C , 17-C ) :   1.5778 B( 16-C , 67-H ) :   0.9440 B( 17-C , 18-N ) :   1.1309
B( 17-C , 68-H ) :   0.9411 B( 18-N , 19-N ) :   0.9588 B( 18-N , 31-N ) :   0.9907
B( 19-N , 20-C ) :   1.0560 B( 19-N , 69-H ) :   0.9387 B( 20-C , 21-C ) :   1.0296
B( 20-C , 30-C ) :   0.9840 B( 20-C , 70-H ) :   0.9111 B( 21-C , 22-C ) :   1.0514
B( 21-C , 23-C ) :   1.0274 B( 21-C , 71-H ) :   0.9074 B( 22-C , 72-H ) :   0.9666
B( 22-C , 73-H ) :   0.9500 B( 22-C , 74-H ) :   0.9398 B( 23-C , 24-C ) :   0.9669
B( 23-C , 27-N ) :   1.0554 B( 23-C , 75-H ) :   0.9178 B( 24-C , 25-N ) :   1.0665
B( 24-C , 28-C ) :   1.0268 B( 24-C , 76-H ) :   0.9140 B( 25-N , 26-S ) :   0.9858
B( 25-N , 77-H ) :   0.9416 B( 26-S , 27-N ) :   0.9689 B( 27-N , 78-H ) :   0.9434
B( 28-C , 29-C ) :   1.0836 B( 28-C , 30-C ) :   1.0625 B( 28-C , 79-H ) :   0.8286
B( 29-C , 80-H ) :   0.9560 B( 29-C , 81-H ) :   0.9521 B( 29-C , 82-H ) :   0.9497
B( 30-C , 31-N ) :   0.8947 B( 30-C , 83-H ) :   0.9078 B( 31-N , 32-C ) :   1.2419
B( 32-C , 33-N ) :   1.4561 B( 32-C , 34-C ) :   0.1246 B( 32-C , 43-C ) :   1.0308
B( 33-N , 34-C ) :   1.3952 B( 34-C , 35-C ) :   1.0408 B( 34-C , 39-C ) :   1.3605
B( 35-C , 36-C ) :   0.8687 B( 35-C , 43-C ) :   1.7082 B( 36-C , 37-O ) :   2.3021
B( 36-C , 38-C ) :   0.9069 B( 38-C , 39-C ) :   1.0734 B( 38-C , 42-C ) :   1.5603
B( 39-C , 40-N ) :   1.3525 B( 40-N , 41-C ) :   1.6114 B( 41-C , 42-C ) :   1.1226
B( 41-C , 84-H ) :   0.9901 B( 42-C , 85-H ) :   1.0103 B( 43-C , 44-C ) :   0.8988
B( 44-C , 45-N ) :   1.2034 B( 44-C , 51-C ) :   1.5089 B( 45-N , 46-C ) :   0.9543
B( 45-N , 48-C ) :   1.0272 B( 46-C , 47-C ) :   1.1162 B( 46-C , 86-H ) :   0.9402
B( 46-C , 87-H ) :   0.9288 B( 47-C , 88-H ) :   0.9701 B( 47-C , 89-H ) :   0.9665
B( 47-C , 90-H ) :   0.9640 B( 48-C , 49-O ) :   2.0451 B( 48-C , 50-C ) :   1.0005
B( 50-C , 51-C ) :   1.1855 B( 50-C , 57-C ) :   1.3762 B( 51-C , 52-C ) :   0.9378
B( 52-C , 53-O ) :   2.1836 B( 52-C , 54-N ) :   1.0171 B( 54-N , 55-C ) :   0.9445
B( 54-N , 57-C ) :   1.1675 B( 55-C , 56-C ) :   1.1216 B( 55-C , 91-H ) :   0.9431
B( 55-C , 92-H ) :   0.9263 B( 56-C , 93-H ) :   0.9661 B( 56-C , 94-H ) :   0.9676
B( 56-C , 95-H ) :   0.9629 B( 57-C , 58-C ) :   1.1376 B( 58-C , 59-C ) :   1.8958
B( 58-C , 96-H ) :   0.9513 B( 59-C , 97-H ) :   0.9208 B( 59-C , 98-H ) :   0.9338

-----------------------------------------------------------------------------
         ABSORPTION SPECTRUM VIA TRANSITION ELECTRIC DIPOLE MOMENTS
-----------------------------------------------------------------------------
State   Energy  Wavelength   fosc         T2         TX        TY        TZ
        (cm-1)    (nm)                  (au**2)     (au)      (au)      (au)
-----------------------------------------------------------------------------
   0   13139.8    761.0   0.115511680   2.89408   0.45946   0.43750   1.57847
   1   14091.2    709.7   0.114781456   2.68162  -0.44588  -0.79399  -1.36103
   2   17978.8    556.2   0.163067424   2.98595   0.06282   0.71049   1.57391
   3   19483.2    513.3   0.130904982   2.21193   0.33629  -1.25366  -0.72607
   4   21146.9    472.9   0.110002864   1.71251  -0.07478   1.29094   0.20097
   5   23522.4    425.1   0.267251850   3.74037  -0.31608   1.53389   1.13475
   6   23776.4    420.6   0.000265809   0.00368   0.00124  -0.03325   0.05073
   7   24317.6    411.2   0.171997563   2.32850   0.64342  -0.49544   1.29192
   8   26083.3    383.4   0.000896911   0.01132   0.10328  -0.01822   0.01793
   9   26855.8    372.4   0.048157849   0.59034   0.06807  -0.21797  -0.73362
  10   27226.5    367.3   0.027780010   0.33590  -0.03026   0.35719   0.45541
  11   27865.3    358.9   0.126162245   1.49053  -0.59362   0.61964  -0.86844
  12   28286.0    353.5   0.053241676   0.61966  -0.44210   0.29730  -0.57951
  13   28747.2    347.9   0.006728017   0.07705  -0.04939  -0.23464   0.13984
  14   29484.0    339.2   0.023269632   0.25982   0.18311   0.05883   0.47205
  15   29614.2    337.7   0.002490832   0.02769   0.03347  -0.10226   0.12694
  16   30015.8    333.2   0.008633454   0.09469   0.24943  -0.17914   0.01960
  17   30222.2    330.9   0.322537886   3.51342  -1.02590   1.52227   0.37901
  18   30993.2    322.7   0.004960494   0.05269   0.22211  -0.04981  -0.02960
  19   31208.3    320.4   0.006025770   0.06357  -0.16972  -0.06662  -0.17414
  20   31783.0    314.6   0.004729059   0.04898  -0.05792  -0.02069  -0.21261
  21   32198.4    310.6   0.029079459   0.29732   0.49213  -0.18276   0.14741
  22   32273.9    309.8   0.037478971   0.38231   0.05889  -0.12131  -0.60343
  23   32295.0    309.6   0.190848418   1.94549  -0.89251  -0.03617  -1.07126
  24   32804.3    304.8   0.039787819   0.39930   0.24166  -0.54040   0.22106
  25   33065.4    302.4   0.023831251   0.23727  -0.28159  -0.00468  -0.39744
  26   33261.1    300.7   0.118720668   1.17508   0.63265  -0.47567   0.74066
  27   33771.9    296.1   0.029497019   0.28754  -0.13765   0.45664   0.24510
  28   34386.9    290.8   0.004177440   0.03999  -0.14508   0.06346  -0.12214
  29   34804.0    287.3   0.009900998   0.09365  -0.22141   0.19927   0.07016
  30   34879.9    286.7   0.040859060   0.38565   0.14366  -0.59330  -0.11405
  31   35184.5    284.2   0.124307822   1.16312  -0.40416   0.98916   0.14607
  32   35598.1    280.9   0.026648569   0.24645   0.41807   0.25692   0.07523
  33   35734.2    279.8   0.098582594   0.90822   0.94921   0.06635  -0.05308
  34   36157.4    276.6   0.098800418   0.89958  -0.27849  -0.79073   0.44357
  35   36571.6    273.4   0.065760059   0.59196  -0.08357  -0.21770   0.73320
  36   36937.5    270.7   0.026395066   0.23525   0.36324  -0.05130   0.31729
  37   37153.2    269.2   0.050629010   0.44862  -0.49833   0.14497  -0.42341
  38   37523.1    266.5   0.018341599   0.16092  -0.32420   0.19370  -0.13525
  39   37684.5    265.4   0.062236184   0.54370   0.27651  -0.59705   0.33282
  40   37696.0    265.3   0.009240447   0.08070  -0.08482  -0.16641  -0.21404
  41   37914.9    263.7   0.020232140   0.17567  -0.22066   0.33956  -0.10808
  42   38193.7    261.8   0.005003115   0.04312   0.15816  -0.12011   0.06069
  43   38478.2    259.9   0.016470451   0.14092  -0.31817  -0.12999  -0.15096
  44   38704.8    258.4   0.024616213   0.20938  -0.21726   0.07983  -0.39472
  45   39463.9    253.4   0.049155667   0.41006  -0.48765  -0.12144  -0.39687
  46   39667.4    252.1   0.065718980   0.54542   0.61537   0.13425   0.38564
  47   39724.3    251.7   0.044132216   0.36574  -0.45570  -0.01131  -0.39743
  48   39912.2    250.5   0.297455131   2.45353   1.05102   0.90777   0.72445
  49   40011.6    249.9   0.002283515   0.01879   0.11075   0.07349  -0.03349
  50   40210.2    248.7   0.032653298   0.26734  -0.37481  -0.27306  -0.22868

FINAL SINGLE POINT ENERGY     -3354.170614847964

DIPOLE MOMENT
-------------
                                X             Y             Z
Electronic contribution:    -13.04896       7.85718      -6.36728
Nuclear contribution   :     13.88571     -10.65169       7.25195
                        -----------------------------------------
Total Dipole Moment    :      0.83675      -2.79451       0.88467
                        -----------------------------------------
Magnitude (a.u.)       :      3.04829
Magnitude (Debye)      :      7.74814

Rotational constants in cm-1:     0.001799     0.001129     0.000899
Rotational constants in MHz :    53.930617    33.839912    26.945225

                             ****ORCA TERMINATED NORMALLY****
TOTAL RUN TIME: 0 days 0 hours 11 minutes 52 seconds 31 msec
