                         Program Version 4.2.0 -  RELEASE  -
|  1> # ORCA input file
|  2> # SCF done       -122.644721474559          0.000559071714
|  3> ! CAM-B3LYP def2-SVP def2/J RIJCOSX Grid4 TightSCF
|  4> %maxcore 5000
|  5> %tddft
|  6>     Mode sTDDFT
|  7>     Ethresh 5.0
|  8>     maxcore 5000
|  9> end
| 10>
| 11> %pal
| 12>   nprocs 6
| 13>   end
| 14> * xyz 0 1
| 15>    C       -1.72397         0.29680        -2.55150
| 16>    S       -0.96318         1.73995        -3.10874
| 17>    C       -1.84438         2.75757        -2.00440
| 18>    C       -2.70043         1.98044        -1.23365
| 19>    C       -2.61770         0.58811        -1.55809
| 20>    N       -3.49950        -0.03887        -0.73346
| 21>    N       -4.11990         0.84270         0.07147
| 22>    C       -3.66946         2.03908        -0.20060
| 23>    C       -1.66025         4.15811        -1.94822
| 24>    O       -2.37272         4.87964        -1.05985
| 25>    C       -2.01461         6.18668        -1.19156
| 26>    C       -1.05919         6.30889        -2.18004
| 27>    C       -0.82327         5.00847        -2.67557
| 28>    C        0.06825         4.64514        -3.69094
| 29>    N        0.80417         4.36809        -4.52689
| 30>    C       -2.60631         7.18279        -0.36936
| 31>    C       -3.55513         6.91908         0.56385
| 32>    C       -4.16662         7.87002         1.41888
| 33>    C       -3.92528         9.22131         1.51010
| 34>    C       -4.76386         9.75083         2.51276
| 35>    N       -5.05302        10.91915         3.12150
| 36>    C       -6.02383        10.69129         4.07701
| 37>    C       -6.34932         9.31881         4.05401
| 38>    C       -5.56236         8.73881         3.08069
| 39>    C       -5.23402         7.45209         2.41246
| 40>    C       -6.51368        11.73507         4.88312
| 41>    C       -7.46542        11.60711         5.85279
| 42>    C       -7.90247        12.68428         6.64075
| 43>    C       -8.83303        12.73971         7.65775
| 44>    C       -8.88144        14.08823         8.13369
| 45>    C       -7.93174        14.83082         7.35802
| 46>    O       -7.58439        15.99902         7.38275
| 47>    O       -7.37425        13.94645         6.46738
| 48>    C       -9.81413        14.12214         9.16195
| 49>    O      -10.33087        12.87696         9.34352
| 50>    C       -9.76640        11.96755         8.43895
| 51>    O      -10.08473        10.81072         8.42595
| 52>    C      -10.25588        15.17101         9.97461
| 53>    S      -11.39980        14.91982        11.29976
| 54>    C       -9.90954        16.51015         9.92630
| 55>    N       -9.16457        17.33150         9.16976
| 56>    C       -9.23647        18.65890         9.74117
| 57>    O      -10.14695        18.59492        10.83202
| 58>    C      -10.54014        17.29276        10.93602
| 59>    C      -11.36334        16.59951        11.74993
| 60>    H       -1.46260        -0.64490        -2.98731
| 61>    H       -3.71955        -1.01733        -0.66659
| 62>    H       -4.03299         2.89543         0.32862
| 63>    H       -0.58603         7.21083        -2.51051
| 64>    H       -2.24789         8.18737        -0.53257
| 65>    H       -3.88128         5.89337         0.67683
| 66>    H       -3.21910         9.78071         0.92471
| 67>    H       -4.64267        11.81924         2.93343
| 68>    H       -7.07339         8.84657         4.68695
| 69>    H       -6.09398         7.01347         1.90250
| 70>    H       -4.85049         6.70492         3.10990
| 71>    H       -6.09212        12.71914         4.72003
| 72>    H       -7.93050        10.65784         6.06691
| 73>    H       -8.48952        17.02701         8.46269
| 74>    H       -9.61001        19.38798         9.00558
| 75>    H       -8.25423        18.99873        10.10915
| 76>    H      -11.94944        16.94183        12.57696
| 77> *
| 78>
| 79>                          ****END OF INPUT****

CARTESIAN COORDINATES (ANGSTROEM)
---------------------------------
  C     -1.723970    0.296800   -2.551500
  S     -0.963180    1.739950   -3.108740
  C     -1.844380    2.757570   -2.004400
  C     -2.700430    1.980440   -1.233650
  C     -2.617700    0.588110   -1.558090
  N     -3.499500   -0.038870   -0.733460
  N     -4.119900    0.842700    0.071470
  C     -3.669460    2.039080   -0.200600
  C     -1.660250    4.158110   -1.948220
  O     -2.372720    4.879640   -1.059850
  C     -2.014610    6.186680   -1.191560
  C     -1.059190    6.308890   -2.180040
  C     -0.823270    5.008470   -2.675570
  C      0.068250    4.645140   -3.690940
  N      0.804170    4.368090   -4.526890
  C     -2.606310    7.182790   -0.369360
  C     -3.555130    6.919080    0.563850
  C     -4.166620    7.870020    1.418880
  C     -3.925280    9.221310    1.510100
  C     -4.763860    9.750830    2.512760
  N     -5.053020   10.919150    3.121500
  C     -6.023830   10.691290    4.077010
  C     -6.349320    9.318810    4.054010
  C     -5.562360    8.738810    3.080690
  C     -5.234020    7.452090    2.412460
  C     -6.513680   11.735070    4.883120
  C     -7.465420   11.607110    5.852790
  C     -7.902470   12.684280    6.640750
  C     -8.833030   12.739710    7.657750
  C     -8.881440   14.088230    8.133690
  C     -7.931740   14.830820    7.358020
  O     -7.584390   15.999020    7.382750
  O     -7.374250   13.946450    6.467380
  C     -9.814130   14.122140    9.161950
  O    -10.330870   12.876960    9.343520
  C     -9.766400   11.967550    8.438950
  O    -10.084730   10.810720    8.425950
  C    -10.255880   15.171010    9.974610
  S    -11.399800   14.919820   11.299760
  C     -9.909540   16.510150    9.926300
  N     -9.164570   17.331500    9.169760
  C     -9.236470   18.658900    9.741170
  O    -10.146950   18.594920   10.832020
  C    -10.540140   17.292760   10.936020
  C    -11.363340   16.599510   11.749930
  H     -1.462600   -0.644900   -2.987310
  H     -3.719550   -1.017330   -0.666590
  H     -4.032990    2.895430    0.328620
  H     -0.586030    7.210830   -2.510510
  H     -2.247890    8.187370   -0.532570
  H     -3.881280    5.893370    0.676830
  H     -3.219100    9.780710    0.924710
  H     -4.642670   11.819240    2.933430
  H     -7.073390    8.846570    4.686950
  H     -6.093980    7.013470    1.902500
  H     -4.850490    6.704920    3.109900
  H     -6.092120   12.719140    4.720030
  H     -7.930500   10.657840    6.066910
  H     -8.489520   17.027010    8.462690
  H     -9.610010   19.387980    9.005580
  H     -8.254230   18.998730   10.109150
  H    -11.949440   16.941830   12.576960

 Total Charge           Charge          ....    0
 Multiplicity           Mult            ....    1
 Number of Electrons    NEL             ....  324
 Basis Dimension        Dim             ....  723

ORBITAL ENERGIES
----------------

  NO   OCC          E(Eh)            E(eV)
   0   2.0000     -88.972539     -2421.0659
   1   2.0000     -88.946364     -2420.3536
   2   2.0000     -19.307322      -525.3789
   3   2.0000     -19.280080      -524.6376
   4   2.0000     -19.277256      -524.5608
   5   2.0000     -19.260640      -524.1087
   6   2.0000     -19.205028      -522.5954
   7   2.0000     -19.201113      -522.4889
   8   2.0000     -14.479620      -394.0105
   9   2.0000     -14.472379      -393.8135
  10   2.0000     -14.439895      -392.9295
  11   2.0000     -14.437871      -392.8744
  12   2.0000     -14.404275      -391.9602
  13   2.0000     -10.408185      -283.2211
  14   2.0000     -10.401058      -283.0272
  15   2.0000     -10.371903      -282.2338
  16   2.0000     -10.370953      -282.2080
  17   2.0000     -10.363126      -281.9950
  18   2.0000     -10.352079      -281.6944
  19   2.0000     -10.342001      -281.4202
  20   2.0000     -10.334098      -281.2051
  21   2.0000     -10.333684      -281.1938
  22   2.0000     -10.318028      -280.7678
  23   2.0000     -10.317629      -280.7569
  24   2.0000     -10.309044      -280.5234
  25   2.0000     -10.307200      -280.4732
  26   2.0000     -10.306142      -280.4444
  27   2.0000     -10.305535      -280.4279
  28   2.0000     -10.303214      -280.3647
  29   2.0000     -10.301089      -280.3069
  30   2.0000     -10.298633      -280.2400
  31   2.0000     -10.295848      -280.1643
  32   2.0000     -10.293630      -280.1039
  33   2.0000     -10.289721      -279.9976
  34   2.0000     -10.288106      -279.9536
  35   2.0000     -10.286473      -279.9092
  36   2.0000     -10.285745      -279.8893
  37   2.0000     -10.284540      -279.8566
  38   2.0000     -10.283409      -279.8258
  39   2.0000     -10.282735      -279.8074
  40   2.0000     -10.278521      -279.6928
  41   2.0000     -10.271832      -279.5108
  42   2.0000     -10.269951      -279.4596
  43   2.0000     -10.269851      -279.4569
  44   2.0000     -10.264961      -279.3238
  45   2.0000      -8.066612      -219.5037
  46   2.0000      -8.041248      -218.8135
  47   2.0000      -6.036162      -164.2523
  48   2.0000      -6.031372      -164.1220
  49   2.0000      -6.029083      -164.0597
  50   2.0000      -6.011417      -163.5790
  51   2.0000      -6.006996      -163.4587
  52   2.0000      -6.001869      -163.3192
  53   2.0000      -1.225292       -33.3419
  54   2.0000      -1.211197       -32.9583
  55   2.0000      -1.203300       -32.7434
  56   2.0000      -1.186197       -32.2781
  57   2.0000      -1.141653       -31.0660
  58   2.0000      -1.111225       -30.2380
  59   2.0000      -1.109967       -30.2037
  60   2.0000      -1.086635       -29.5688
  61   2.0000      -1.030719       -28.0473
  62   2.0000      -0.992936       -27.0192
  63   2.0000      -0.985643       -26.8207
  64   2.0000      -0.971522       -26.4365
  65   2.0000      -0.960381       -26.1333
  66   2.0000      -0.922777       -25.1100
  67   2.0000      -0.921464       -25.0743
  68   2.0000      -0.920929       -25.0598
  69   2.0000      -0.911391       -24.8002
  70   2.0000      -0.907714       -24.7001
  71   2.0000      -0.876451       -23.8494
  72   2.0000      -0.870966       -23.7002
  73   2.0000      -0.859734       -23.3945
  74   2.0000      -0.850852       -23.1529
  75   2.0000      -0.837721       -22.7955
  76   2.0000      -0.830776       -22.6066
  77   2.0000      -0.807655       -21.9774
  78   2.0000      -0.799363       -21.7518
  79   2.0000      -0.782084       -21.2816
  80   2.0000      -0.762997       -20.7622
  81   2.0000      -0.749349       -20.3908
  82   2.0000      -0.747480       -20.3400
  83   2.0000      -0.743282       -20.2257
  84   2.0000      -0.733681       -19.9645
  85   2.0000      -0.709745       -19.3131
  86   2.0000      -0.707187       -19.2435
  87   2.0000      -0.700375       -19.0582
  88   2.0000      -0.700188       -19.0531
  89   2.0000      -0.695667       -18.9301
  90   2.0000      -0.687548       -18.7091
  91   2.0000      -0.676690       -18.4137
  92   2.0000      -0.666182       -18.1277
  93   2.0000      -0.660092       -17.9620
  94   2.0000      -0.651591       -17.7307
  95   2.0000      -0.641011       -17.4428
  96   2.0000      -0.634465       -17.2647
  97   2.0000      -0.625463       -17.0197
  98   2.0000      -0.613903       -16.7052
  99   2.0000      -0.594278       -16.1711
 100   2.0000      -0.593004       -16.1365
 101   2.0000      -0.587739       -15.9932
 102   2.0000      -0.578038       -15.7292
 103   2.0000      -0.575173       -15.6512
 104   2.0000      -0.571639       -15.5551
 105   2.0000      -0.567826       -15.4513
 106   2.0000      -0.565209       -15.3801
 107   2.0000      -0.557415       -15.1680
 108   2.0000      -0.550178       -14.9711
 109   2.0000      -0.546300       -14.8656
 110   2.0000      -0.544865       -14.8265
 111   2.0000      -0.542154       -14.7528
 112   2.0000      -0.538066       -14.6415
 113   2.0000      -0.537872       -14.6362
 114   2.0000      -0.532201       -14.4819
 115   2.0000      -0.528540       -14.3823
 116   2.0000      -0.522525       -14.2186
 117   2.0000      -0.513849       -13.9825
 118   2.0000      -0.510799       -13.8996
 119   2.0000      -0.504450       -13.7268
 120   2.0000      -0.504260       -13.7216
 121   2.0000      -0.502133       -13.6637
 122   2.0000      -0.498652       -13.5690
 123   2.0000      -0.490884       -13.3576
 124   2.0000      -0.488489       -13.2925
 125   2.0000      -0.488146       -13.2831
 126   2.0000      -0.481997       -13.1158
 127   2.0000      -0.466388       -12.6911
 128   2.0000      -0.464844       -12.6490
 129   2.0000      -0.462214       -12.5775
 130   2.0000      -0.460396       -12.5280
 131   2.0000      -0.457178       -12.4405
 132   2.0000      -0.451875       -12.2962
 133   2.0000      -0.449573       -12.2335
 134   2.0000      -0.449143       -12.2218
 135   2.0000      -0.448312       -12.1992
 136   2.0000      -0.445480       -12.1221
 137   2.0000      -0.441580       -12.0160
 138   2.0000      -0.437816       -11.9136
 139   2.0000      -0.434042       -11.8109
 140   2.0000      -0.431445       -11.7402
 141   2.0000      -0.429327       -11.6826
 142   2.0000      -0.418878       -11.3982
 143   2.0000      -0.414820       -11.2878
 144   2.0000      -0.401864       -10.9353
 145   2.0000      -0.396691       -10.7945
 146   2.0000      -0.382364       -10.4047
 147   2.0000      -0.380985       -10.3671
 148   2.0000      -0.374327       -10.1860
 149   2.0000      -0.368126       -10.0172
 150   2.0000      -0.365092        -9.9347
 151   2.0000      -0.363571        -9.8933
 152   2.0000      -0.349005        -9.4969
 153   2.0000      -0.347211        -9.4481
 154   2.0000      -0.331012        -9.0073
 155   2.0000      -0.325317        -8.8523
 156   2.0000      -0.318013        -8.6536
 157   2.0000      -0.311096        -8.4653
 158   2.0000      -0.276882        -7.5343
 159   2.0000      -0.260580        -7.0907
 160   2.0000      -0.244857        -6.6629
 161   2.0000      -0.212878        -5.7927
 162   0.0000      -0.077375        -2.1055
 163   0.0000      -0.053594        -1.4584
 164   0.0000      -0.028966        -0.7882
 165   0.0000      -0.006292        -0.1712
 166   0.0000       0.046868         1.2753

MULLIKEN ATOMIC CHARGES
-----------------------
   0 C :   -0.207035
   1 S :    0.182410
   2 C :   -0.234295
   3 C :    0.044674
   4 C :    0.203455
   5 N :   -0.051033
   6 N :   -0.056261
   7 C :   -0.007949
   8 C :    0.211406
   9 O :   -0.204726
  10 C :    0.198419
  11 C :   -0.042533
  12 C :   -0.103360
  13 C :   -0.230715
  14 N :    0.160212
  15 C :   -0.019400
  16 C :    0.021388
  17 C :   -0.107749
  18 C :   -0.075703
  19 C :    0.086558
  20 N :   -0.008879
  21 C :    0.095342
  22 C :   -0.093914
  23 C :   -0.114680
  24 C :    0.289667
  25 C :    0.014320
  26 C :   -0.060686
  27 C :    0.098925
  28 C :   -0.035922
  29 C :   -0.139477
  30 C :    0.244031
  31 O :   -0.236046
  32 O :   -0.250830
  33 C :    0.175534
  34 O :   -0.249666
  35 C :    0.213707
  36 O :   -0.136208
  37 C :   -0.243987
  38 S :    0.137160
  39 C :    0.119273
  40 N :   -0.173221
  41 C :    0.356783
  42 O :   -0.304973
  43 C :    0.232007
  44 C :   -0.190054
  45 H :    0.018101
  46 H :    0.136187
  47 H :   -0.008231
  48 H :   -0.010712
  49 H :   -0.012352
  50 H :   -0.015354
  51 H :   -0.030488
  52 H :    0.123999
  53 H :   -0.021510
  54 H :    0.035615
  55 H :    0.034845
  56 H :   -0.007702
  57 H :    0.005592
  58 H :    0.149797
  59 H :    0.032310
  60 H :    0.032388
  61 H :    0.031545
Sum of atomic charges:    0.0000000

LOEWDIN ATOMIC CHARGES
----------------------
   0 C :   -0.225627
   1 S :    0.501054
   2 C :   -0.205890
   3 C :   -0.080226
   4 C :   -0.026433
   5 N :    0.077095
   6 N :   -0.046971
   7 C :   -0.041235
   8 C :    0.057054
   9 O :    0.018718
  10 C :    0.034723
  11 C :   -0.033818
  12 C :   -0.122008
  13 C :   -0.046350
  14 N :   -0.054254
  15 C :   -0.037024
  16 C :   -0.024174
  17 C :   -0.019783
  18 C :   -0.032324
  19 C :   -0.006126
  20 N :    0.092086
  21 C :   -0.022034
  22 C :   -0.042883
  23 C :   -0.051625
  24 C :   -0.009517
  25 C :    0.000067
  26 C :   -0.061826
  27 C :    0.090709
  28 C :   -0.131079
  29 C :   -0.169838
  30 C :    0.109284
  31 O :   -0.194429
  32 O :   -0.042244
  33 C :    0.105909
  34 O :   -0.053359
  35 C :    0.103458
  36 O :   -0.143124
  37 C :   -0.257447
  38 S :    0.406605
  39 C :    0.025626
  40 N :   -0.006166
  41 C :    0.171944
  42 O :   -0.106766
  43 C :   -0.002198
  44 C :   -0.192644
  45 H :    0.026026
  46 H :    0.086271
  47 H :    0.021471
  48 H :    0.038089
  49 H :    0.034676
  50 H :    0.030443
  51 H :    0.023923
  52 H :    0.093075
  53 H :    0.028630
  54 H :    0.052359
  55 H :    0.052078
  56 H :    0.033845
  57 H :    0.042760
  58 H :    0.066365
  59 H :    0.017506
  60 H :    0.015764
  61 H :    0.031812

  Mayer bond orders larger than 0.100000
B(  0-C ,  1-S ) :   1.1446 B(  0-C ,  2-C ) :   0.1319 B(  0-C ,  4-C ) :   1.4227
B(  0-C , 45-H ) :   0.9948 B(  1-S ,  2-C ) :   1.1831 B(  2-C ,  3-C ) :   1.3239
B(  2-C ,  8-C ) :   1.2035 B(  3-C ,  4-C ) :   1.2198 B(  3-C ,  7-C ) :   1.1609
B(  4-C ,  5-N ) :   1.1127 B(  5-N ,  6-N ) :   1.1369 B(  5-N , 46-H ) :   0.9529
B(  6-N ,  7-C ) :   1.7372 B(  7-C , 47-H ) :   1.0048 B(  8-C ,  9-O ) :   1.1975
B(  8-C , 12-C ) :   1.4248 B(  9-O , 10-C ) :   1.1018 B( 10-C , 11-C ) :   1.4352
B( 10-C , 15-C ) :   1.1496 B( 11-C , 12-C ) :   1.2250 B( 11-C , 48-H ) :   1.0245
B( 12-C , 13-C ) :   1.1149 B( 13-C , 14-N ) :   3.0208 B( 15-C , 16-C ) :   1.6268
B( 15-C , 49-H ) :   0.9640 B( 16-C , 17-C ) :   1.1324 B( 16-C , 50-H ) :   0.9812
B( 17-C , 18-C ) :   1.5858 B( 17-C , 24-C ) :   1.0292 B( 18-C , 19-C ) :   1.0976
B( 18-C , 51-H ) :   1.0194 B( 19-C , 20-N ) :   1.2259 B( 19-C , 23-C ) :   1.4075
B( 20-N , 21-C ) :   1.1635 B( 20-N , 52-H ) :   0.9333 B( 21-C , 22-C ) :   1.3524
B( 21-C , 25-C ) :   1.1218 B( 22-C , 23-C ) :   1.3843 B( 22-C , 53-H ) :   1.0179
B( 23-C , 24-C ) :   1.0159 B( 24-C , 54-H ) :   0.8766 B( 24-C , 55-H ) :   0.8775
B( 25-C , 26-C ) :   1.5531 B( 25-C , 56-H ) :   0.9761 B( 26-C , 27-C ) :   1.2491
B( 26-C , 57-H ) :   0.9630 B( 27-C , 28-C ) :   1.3564 B( 27-C , 32-O ) :   1.0993
B( 28-C , 29-C ) :   1.1335 B( 28-C , 35-C ) :   0.9735 B( 29-C , 30-C ) :   1.0257
B( 29-C , 33-C ) :   1.3378 B( 30-C , 31-O ) :   1.9822 B( 30-C , 32-O ) :   1.0773
B( 31-O , 58-H ) :   0.1538 B( 33-C , 34-O ) :   1.2022 B( 33-C , 37-C ) :   1.2777
B( 34-O , 35-C ) :   0.9799 B( 35-C , 36-O ) :   2.2572 B( 37-C , 38-S ) :   1.0333
B( 37-C , 39-C ) :   1.4265 B( 38-S , 44-C ) :   1.0816 B( 39-C , 40-N ) :   1.2989
B( 39-C , 43-C ) :   1.1907 B( 40-N , 41-C ) :   0.9821 B( 40-N , 58-H ) :   0.8495
B( 41-C , 42-O ) :   0.9798 B( 41-C , 59-H ) :   0.9544 B( 41-C , 60-H ) :   0.9540
B( 42-O , 43-C ) :   1.0996 B( 43-C , 44-C ) :   1.5935 B( 44-C , 61-H ) :   0.9848

-----------------------------------------------------------------------------
         ABSORPTION SPECTRUM VIA TRANSITION ELECTRIC DIPOLE MOMENTS
-----------------------------------------------------------------------------
State   Energy  Wavelength   fosc         T2         TX        TY        TZ
        (cm-1)    (nm)                  (au**2)     (au)      (au)      (au)
-----------------------------------------------------------------------------
   0   15537.7    643.6   2.307040510  48.88147   3.27197  -4.22732  -4.50615
   1   21478.8    465.6   0.135228573   2.07269   0.09718   1.43347   0.09175
   2   23194.1    431.1   0.034918087   0.49562   0.47431   0.06018  -0.51674
   3   25377.3    394.1   0.259715249   3.36921   0.95303   1.31578  -0.85421
   4   26470.9    377.8   0.095570862   1.18859  -0.74334  -0.16123   0.78105
   5   28538.4    350.4   0.063319066   0.73043  -0.21280  -0.82508   0.06631
   6   29697.9    336.7   0.027479116   0.30462  -0.39009  -0.13984   0.36455
   7   31382.7    318.6   0.043839460   0.45989  -0.09625   0.63769   0.20968
   8   33277.1    300.5   0.062720730   0.62050  -0.54813  -0.20885   0.52577
   9   35278.1    283.5   0.085964053   0.80221  -0.59443  -0.22670   0.63045
  10   35552.1    281.3   0.013009938   0.12047   0.21106   0.21182  -0.17623
  11   36108.6    276.9   0.000599729   0.00547  -0.02801   0.02124  -0.06506
  12   37420.8    267.2   0.032754174   0.28816  -0.15183   0.45256   0.24554
  13   37729.5    265.0   0.099809195   0.87089   0.09790  -0.85328  -0.36499
  14   38130.6    262.3   0.042681219   0.36850  -0.27426  -0.51452   0.16898
  15   38768.6    257.9   0.036167087   0.30712  -0.35627  -0.29876   0.30156
  16   40271.5    248.3   0.147412324   1.20507  -0.72890   0.07451   0.81745

FINAL SINGLE POINT ENERGY     -2748.389739312636

DIPOLE MOMENT
-------------
                                X             Y             Z
Electronic contribution:     -4.25828      -1.04221       4.94694
Nuclear contribution   :      4.93036       1.35991      -5.50474
                        -----------------------------------------
Total Dipole Moment    :      0.67208       0.31771      -0.55779
                        -----------------------------------------
Magnitude (a.u.)       :      0.92939
Magnitude (Debye)      :      2.36232

Rotational constants in cm-1:     0.007813     0.000398     0.000379
Rotational constants in MHz :   234.216434    11.931762    11.358949

                             ****ORCA TERMINATED NORMALLY****
TOTAL RUN TIME: 0 days 0 hours 3 minutes 23 seconds 416 msec
