                         Program Version 4.2.0 -  RELEASE  -
|  1> # ORCA input file
|  2> # SCF done       -118.975993925063          0.000346530511
|  3> ! CAM-B3LYP def2-SVP def2/J RIJCOSX Grid4 TightSCF
|  4> %maxcore 5000
|  5> %tddft
|  6>     Mode sTDDFT
|  7>     Ethresh 5.0
|  8>     maxcore 5000
|  9> end
| 10>
| 11> %pal
| 12>   nprocs 6
| 13>   end
| 14> * xyz 0 1
| 15>    C       -0.11795         1.53911        -2.27026
| 16>    S        0.75366         2.05190        -0.87396
| 17>    C       -0.52138         3.10842        -0.33528
| 18>    C       -1.58481         3.05213        -1.22720
| 19>    C       -1.33728         2.15626        -2.31723
| 20>    N       -2.45225         2.20018        -3.09524
| 21>    N       -3.36645         3.04381        -2.58252
| 22>    C       -2.88438         3.56011        -1.48349
| 23>    C       -0.42140         3.87382         0.84999
| 24>    O       -1.44264         4.67976         1.20050
| 25>    C       -1.11666         5.29204         2.37117
| 26>    C        0.13212         4.87598         2.78108
| 27>    C        0.59231         3.96185         1.80726
| 28>    C        1.81443         3.28134         1.80811
| 29>    N        2.82199         2.73173         1.83017
| 30>    C       -2.02081         6.20125         2.98921
| 31>    C       -3.20950         6.54479         2.44284
| 32>    C       -4.18268         7.40451         3.01979
| 33>    S       -5.57144         7.83747         2.06961
| 34>    C       -6.23472         8.76581         3.36834
| 35>    C       -5.39565         8.76954         4.48077
| 36>    C       -4.22852         7.99484         4.28057
| 37>    O       -3.17639         7.83053         5.13560
| 38>    C       -3.44194         7.65338         6.51137
| 39>    C       -4.03120         8.88489         7.19453
| 40>    C       -5.50596         9.07369         6.84938
| 41>    O       -5.73224         9.55315         5.54248
| 42>    C       -7.48695         9.42496         3.24912
| 43>    O       -8.03081        10.03573         4.31675
| 44>    C       -9.22992        10.55399         3.94633
| 45>    C       -9.46566        10.27865         2.61675
| 46>    C       -8.34634         9.54812         2.15585
| 47>    C       -8.15171         9.06083         0.85850
| 48>    N       -8.02665         8.68020        -0.21700
| 49>    C      -10.03290        11.23863         4.90315
| 50>    C       -9.64577        11.41275         6.18816
| 51>    C      -10.39499        12.05464         7.20358
| 52>    S       -9.72915        12.19367         8.82034
| 53>    C      -11.10092        13.00265         9.45259
| 54>    C      -12.05227        13.17384         8.47869
| 55>    C      -11.65058        12.63829         7.21038
| 56>    N      -12.68511        12.87868         6.36428
| 57>    N      -13.69388        13.51437         6.99077
| 58>    C      -13.35270        13.70271         8.23467
| 59>    H        0.32233         0.83310        -2.94317
| 60>    H       -2.64843         1.70784        -3.94923
| 61>    H       -3.45495         4.26314        -0.91254
| 62>    H        0.65610         5.18335         3.66274
| 63>    H       -1.70526         6.61266         3.93362
| 64>    H       -3.47427         6.13891         1.47559
| 65>    H       -4.10801         6.79001         6.65824
| 66>    H       -2.46407         7.41879         6.93950
| 67>    H       -3.47118         9.77031         6.88723
| 68>    H       -3.93600         8.76752         8.27425
| 69>    H       -6.04817         8.12838         7.00363
| 70>    H       -5.94782         9.84024         7.49084
| 71>    H      -10.32291        10.55800         2.03918
| 72>    H      -10.97992        11.60506         4.53893
| 73>    H       -8.67899        11.02898         6.48421
| 74>    H      -11.12191        13.29663        10.48193
| 75>    H      -12.77697        12.64944         5.39015
| 76>    H      -14.01511        14.19501         8.91678
| 77> *
| 78>
| 79>                          ****END OF INPUT****

CARTESIAN COORDINATES (ANGSTROEM)
---------------------------------
  C     -0.117950    1.539110   -2.270260
  S      0.753660    2.051900   -0.873960
  C     -0.521380    3.108420   -0.335280
  C     -1.584810    3.052130   -1.227200
  C     -1.337280    2.156260   -2.317230
  N     -2.452250    2.200180   -3.095240
  N     -3.366450    3.043810   -2.582520
  C     -2.884380    3.560110   -1.483490
  C     -0.421400    3.873820    0.849990
  O     -1.442640    4.679760    1.200500
  C     -1.116660    5.292040    2.371170
  C      0.132120    4.875980    2.781080
  C      0.592310    3.961850    1.807260
  C      1.814430    3.281340    1.808110
  N      2.821990    2.731730    1.830170
  C     -2.020810    6.201250    2.989210
  C     -3.209500    6.544790    2.442840
  C     -4.182680    7.404510    3.019790
  S     -5.571440    7.837470    2.069610
  C     -6.234720    8.765810    3.368340
  C     -5.395650    8.769540    4.480770
  C     -4.228520    7.994840    4.280570
  O     -3.176390    7.830530    5.135600
  C     -3.441940    7.653380    6.511370
  C     -4.031200    8.884890    7.194530
  C     -5.505960    9.073690    6.849380
  O     -5.732240    9.553150    5.542480
  C     -7.486950    9.424960    3.249120
  O     -8.030810   10.035730    4.316750
  C     -9.229920   10.553990    3.946330
  C     -9.465660   10.278650    2.616750
  C     -8.346340    9.548120    2.155850
  C     -8.151710    9.060830    0.858500
  N     -8.026650    8.680200   -0.217000
  C    -10.032900   11.238630    4.903150
  C     -9.645770   11.412750    6.188160
  C    -10.394990   12.054640    7.203580
  S     -9.729150   12.193670    8.820340
  C    -11.100920   13.002650    9.452590
  C    -12.052270   13.173840    8.478690
  C    -11.650580   12.638290    7.210380
  N    -12.685110   12.878680    6.364280
  N    -13.693880   13.514370    6.990770
  C    -13.352700   13.702710    8.234670
  H      0.322330    0.833100   -2.943170
  H     -2.648430    1.707840   -3.949230
  H     -3.454950    4.263140   -0.912540
  H      0.656100    5.183350    3.662740
  H     -1.705260    6.612660    3.933620
  H     -3.474270    6.138910    1.475590
  H     -4.108010    6.790010    6.658240
  H     -2.464070    7.418790    6.939500
  H     -3.471180    9.770310    6.887230
  H     -3.936000    8.767520    8.274250
  H     -6.048170    8.128380    7.003630
  H     -5.947820    9.840240    7.490840
  H    -10.322910   10.558000    2.039180
  H    -10.979920   11.605060    4.538930
  H     -8.678990   11.028980    6.484210
  H    -11.121910   13.296630   10.481930
  H    -12.776970   12.649440    5.390150
  H    -14.015110   14.195010    8.916780

 Total Charge           Charge          ....    0
 Multiplicity           Mult            ....    1
 Number of Electrons    NEL             ....  326
 Basis Dimension        Dim             ....  718

ORBITAL ENERGIES
----------------

  NO   OCC          E(Eh)            E(eV)
   0   2.0000     -88.967603     -2420.9316
   1   2.0000     -88.966388     -2420.8985
   2   2.0000     -88.961613     -2420.7686
   3   2.0000     -19.302471      -525.2469
   4   2.0000     -19.297023      -525.0987
   5   2.0000     -19.256719      -524.0020
   6   2.0000     -19.252592      -523.8897
   7   2.0000     -14.480223      -394.0269
   8   2.0000     -14.474209      -393.8633
   9   2.0000     -14.437500      -392.8643
  10   2.0000     -14.434203      -392.7746
  11   2.0000     -14.400217      -391.8498
  12   2.0000     -14.397828      -391.7848
  13   2.0000     -10.358593      -281.8716
  14   2.0000     -10.356016      -281.8015
  15   2.0000     -10.345203      -281.5073
  16   2.0000     -10.340247      -281.3724
  17   2.0000     -10.337915      -281.3090
  18   2.0000     -10.336350      -281.2664
  19   2.0000     -10.336121      -281.2601
  20   2.0000     -10.335318      -281.2383
  21   2.0000     -10.314696      -280.6772
  22   2.0000     -10.313250      -280.6378
  23   2.0000     -10.312771      -280.6248
  24   2.0000     -10.308824      -280.5174
  25   2.0000     -10.305694      -280.4322
  26   2.0000     -10.305021      -280.4139
  27   2.0000     -10.304269      -280.3934
  28   2.0000     -10.303627      -280.3759
  29   2.0000     -10.302230      -280.3379
  30   2.0000     -10.301791      -280.3260
  31   2.0000     -10.300085      -280.2796
  32   2.0000     -10.298569      -280.2383
  33   2.0000     -10.295524      -280.1554
  34   2.0000     -10.290408      -280.0162
  35   2.0000     -10.290099      -280.0078
  36   2.0000     -10.285682      -279.8876
  37   2.0000     -10.285222      -279.8751
  38   2.0000     -10.284748      -279.8622
  39   2.0000     -10.284466      -279.8545
  40   2.0000     -10.281590      -279.7763
  41   2.0000     -10.280139      -279.7368
  42   2.0000     -10.279893      -279.7301
  43   2.0000     -10.279757      -279.7264
  44   2.0000      -8.061794      -219.3726
  45   2.0000      -8.061433      -219.3627
  46   2.0000      -8.056557      -219.2301
  47   2.0000      -6.031352      -164.1214
  48   2.0000      -6.030729      -164.1045
  49   2.0000      -6.026563      -163.9911
  50   2.0000      -6.026341      -163.9851
  51   2.0000      -6.025980      -163.9753
  52   2.0000      -6.024210      -163.9271
  53   2.0000      -6.023976      -163.9207
  54   2.0000      -6.021994      -163.8668
  55   2.0000      -6.018217      -163.7640
  56   2.0000      -1.220823       -33.2203
  57   2.0000      -1.218722       -33.1631
  58   2.0000      -1.169083       -31.8124
  59   2.0000      -1.148988       -31.2656
  60   2.0000      -1.140550       -31.0359
  61   2.0000      -1.136244       -30.9188
  62   2.0000      -0.991645       -26.9840
  63   2.0000      -0.988522       -26.8991
  64   2.0000      -0.983394       -26.7595
  65   2.0000      -0.982390       -26.7322
  66   2.0000      -0.981076       -26.6964
  67   2.0000      -0.923581       -25.1319
  68   2.0000      -0.919407       -25.0183
  69   2.0000      -0.917056       -24.9544
  70   2.0000      -0.914550       -24.8862
  71   2.0000      -0.911606       -24.8061
  72   2.0000      -0.905638       -24.6437
  73   2.0000      -0.894099       -24.3297
  74   2.0000      -0.879345       -23.9282
  75   2.0000      -0.857744       -23.3404
  76   2.0000      -0.847259       -23.0551
  77   2.0000      -0.845546       -23.0085
  78   2.0000      -0.831779       -22.6339
  79   2.0000      -0.823926       -22.4202
  80   2.0000      -0.802924       -21.8487
  81   2.0000      -0.798677       -21.7331
  82   2.0000      -0.769010       -20.9258
  83   2.0000      -0.748146       -20.3581
  84   2.0000      -0.742861       -20.2143
  85   2.0000      -0.730123       -19.8677
  86   2.0000      -0.710473       -19.3330
  87   2.0000      -0.704119       -19.1600
  88   2.0000      -0.702073       -19.1044
  89   2.0000      -0.701088       -19.0776
  90   2.0000      -0.694686       -18.9034
  91   2.0000      -0.688803       -18.7433
  92   2.0000      -0.683450       -18.5976
  93   2.0000      -0.677921       -18.4472
  94   2.0000      -0.670969       -18.2580
  95   2.0000      -0.661484       -17.9999
  96   2.0000      -0.657992       -17.9049
  97   2.0000      -0.641092       -17.4450
  98   2.0000      -0.632044       -17.1988
  99   2.0000      -0.628218       -17.0947
 100   2.0000      -0.609989       -16.5986
 101   2.0000      -0.601622       -16.3710
 102   2.0000      -0.583244       -15.8709
 103   2.0000      -0.578851       -15.7513
 104   2.0000      -0.570437       -15.5224
 105   2.0000      -0.569124       -15.4866
 106   2.0000      -0.564636       -15.3645
 107   2.0000      -0.560473       -15.2513
 108   2.0000      -0.556905       -15.1541
 109   2.0000      -0.552454       -15.0330
 110   2.0000      -0.546845       -14.8804
 111   2.0000      -0.542509       -14.7624
 112   2.0000      -0.536963       -14.6115
 113   2.0000      -0.535757       -14.5787
 114   2.0000      -0.533884       -14.5277
 115   2.0000      -0.532617       -14.4933
 116   2.0000      -0.532109       -14.4794
 117   2.0000      -0.528286       -14.3754
 118   2.0000      -0.519255       -14.1296
 119   2.0000      -0.509426       -13.8622
 120   2.0000      -0.507183       -13.8012
 121   2.0000      -0.498631       -13.5684
 122   2.0000      -0.491858       -13.3841
 123   2.0000      -0.490851       -13.3567
 124   2.0000      -0.487529       -13.2663
 125   2.0000      -0.479652       -13.0520
 126   2.0000      -0.470748       -12.8097
 127   2.0000      -0.469843       -12.7851
 128   2.0000      -0.465073       -12.6553
 129   2.0000      -0.460279       -12.5248
 130   2.0000      -0.458589       -12.4788
 131   2.0000      -0.457602       -12.4520
 132   2.0000      -0.456019       -12.4089
 133   2.0000      -0.447167       -12.1680
 134   2.0000      -0.445260       -12.1161
 135   2.0000      -0.444628       -12.0989
 136   2.0000      -0.440467       -11.9857
 137   2.0000      -0.439313       -11.9543
 138   2.0000      -0.437888       -11.9155
 139   2.0000      -0.430141       -11.7047
 140   2.0000      -0.428966       -11.6727
 141   2.0000      -0.427934       -11.6447
 142   2.0000      -0.421333       -11.4651
 143   2.0000      -0.410424       -11.1682
 144   2.0000      -0.402140       -10.9428
 145   2.0000      -0.397804       -10.8248
 146   2.0000      -0.396433       -10.7875
 147   2.0000      -0.390690       -10.6312
 148   2.0000      -0.376429       -10.2431
 149   2.0000      -0.374763       -10.1978
 150   2.0000      -0.367913       -10.0114
 151   2.0000      -0.363713        -9.8971
 152   2.0000      -0.359206        -9.7745
 153   2.0000      -0.357257        -9.7215
 154   2.0000      -0.348899        -9.4940
 155   2.0000      -0.334829        -9.1112
 156   2.0000      -0.315590        -8.5876
 157   2.0000      -0.313252        -8.5240
 158   2.0000      -0.308849        -8.4042
 159   2.0000      -0.296804        -8.0764
 160   2.0000      -0.276181        -7.5153
 161   2.0000      -0.245661        -6.6848
 162   2.0000      -0.222291        -6.0488
 163   0.0000      -0.061652        -1.6776
 164   0.0000      -0.041300        -1.1238
 165   0.0000      -0.025433        -0.6921
 166   0.0000       0.015031         0.4090
 167   0.0000       0.029168         0.7937

MULLIKEN ATOMIC CHARGES
-----------------------
   0 C :   -0.212126
   1 S :    0.179405
   2 C :   -0.234919
   3 C :    0.050086
   4 C :    0.204910
   5 N :   -0.050466
   6 N :   -0.053424
   7 C :   -0.013123
   8 C :    0.214979
   9 O :   -0.204564
  10 C :    0.200765
  11 C :   -0.043636
  12 C :   -0.114654
  13 C :   -0.227228
  14 N :    0.160870
  15 C :   -0.028034
  16 C :    0.032913
  17 C :   -0.100738
  18 S :    0.176011
  19 C :   -0.266202
  20 C :    0.187141
  21 C :    0.132172
  22 O :   -0.322201
  23 C :    0.208318
  24 C :   -0.034807
  25 C :    0.209492
  26 O :   -0.305755
  27 C :    0.227578
  28 O :   -0.184127
  29 C :    0.186169
  30 C :   -0.051957
  31 C :   -0.109624
  32 C :   -0.229790
  33 N :    0.156171
  34 C :   -0.037192
  35 C :    0.069928
  36 C :   -0.197153
  37 S :    0.133201
  38 C :   -0.131553
  39 C :    0.034773
  40 C :    0.151585
  41 N :   -0.059393
  42 N :   -0.057175
  43 C :    0.010815
  44 H :    0.017405
  45 H :    0.135468
  46 H :   -0.001889
  47 H :   -0.011792
  48 H :    0.006273
  49 H :   -0.010432
  50 H :    0.007656
  51 H :    0.023741
  52 H :    0.034144
  53 H :    0.024588
  54 H :    0.004210
  55 H :    0.025464
  56 H :   -0.014665
  57 H :   -0.047562
  58 H :   -0.011723
  59 H :    0.026504
  60 H :    0.137652
  61 H :   -0.002482
Sum of atomic charges:    0.0000000

LOEWDIN ATOMIC CHARGES
----------------------
   0 C :   -0.226904
   1 S :    0.498655
   2 C :   -0.205911
   3 C :   -0.079471
   4 C :   -0.026399
   5 N :    0.076474
   6 N :   -0.044836
   7 C :   -0.039791
   8 C :    0.057365
   9 O :    0.019941
  10 C :    0.034115
  11 C :   -0.033115
  12 C :   -0.123537
  13 C :   -0.046233
  14 N :   -0.056427
  15 C :   -0.037481
  16 C :   -0.037506
  17 C :   -0.185899
  18 S :    0.481147
  19 C :   -0.222897
  20 C :    0.002062
  21 C :   -0.009908
  22 O :   -0.101148
  23 C :    0.082809
  24 C :   -0.066649
  25 C :    0.082534
  26 O :   -0.098807
  27 C :    0.053438
  28 O :    0.029795
  29 C :    0.035286
  30 C :   -0.042974
  31 C :   -0.123574
  32 C :   -0.048212
  33 N :   -0.057543
  34 C :   -0.065485
  35 C :   -0.026421
  36 C :   -0.222532
  37 S :    0.461141
  38 C :   -0.185393
  39 C :   -0.097764
  40 C :   -0.016604
  41 N :    0.080003
  42 N :   -0.050681
  43 C :   -0.035995
  44 H :    0.025669
  45 H :    0.085993
  46 H :    0.023438
  47 H :    0.037868
  48 H :    0.037204
  49 H :    0.030546
  50 H :    0.013181
  51 H :    0.027335
  52 H :    0.035627
  53 H :    0.039383
  54 H :    0.012153
  55 H :    0.026733
  56 H :    0.035909
  57 H :    0.025277
  58 H :    0.032689
  59 H :    0.026846
  60 H :    0.081868
  61 H :    0.023609

  Mayer bond orders larger than 0.100000
B(  0-C ,  1-S ) :   1.1434 B(  0-C ,  2-C ) :   0.1326 B(  0-C ,  4-C ) :   1.4230
B(  0-C , 44-H ) :   0.9952 B(  1-S ,  2-C ) :   1.1831 B(  2-C ,  3-C ) :   1.3256
B(  2-C ,  8-C ) :   1.2010 B(  3-C ,  4-C ) :   1.2172 B(  3-C ,  7-C ) :   1.1569
B(  4-C ,  5-N ) :   1.1137 B(  5-N ,  6-N ) :   1.1349 B(  5-N , 45-H ) :   0.9530
B(  6-N ,  7-C ) :   1.7389 B(  7-C , 46-H ) :   1.0064 B(  8-C ,  9-O ) :   1.1990
B(  8-C , 12-C ) :   1.4265 B(  9-O , 10-C ) :   1.1013 B( 10-C , 11-C ) :   1.4459
B( 10-C , 15-C ) :   1.1340 B( 11-C , 12-C ) :   1.2193 B( 11-C , 47-H ) :   1.0249
B( 12-C , 13-C ) :   1.1181 B( 13-C , 14-N ) :   3.0212 B( 15-C , 16-C ) :   1.6675
B( 15-C , 48-H ) :   0.9611 B( 16-C , 17-C ) :   1.1309 B( 16-C , 49-H ) :   0.9565
B( 17-C , 18-S ) :   1.1010 B( 17-C , 19-C ) :   0.1431 B( 17-C , 21-C ) :   1.4684
B( 18-S , 19-C ) :   1.1383 B( 19-C , 20-C ) :   1.4398 B( 19-C , 27-C ) :   1.1546
B( 20-C , 21-C ) :   1.1945 B( 20-C , 26-O ) :   1.1706 B( 21-C , 22-O ) :   1.1172
B( 22-O , 23-C ) :   0.9528 B( 23-C , 24-C ) :   1.0696 B( 23-C , 50-H ) :   0.9444
B( 23-C , 51-H ) :   0.9539 B( 24-C , 25-C ) :   1.0723 B( 24-C , 52-H ) :   0.9313
B( 24-C , 53-H ) :   0.9322 B( 25-C , 26-O ) :   0.9582 B( 25-C , 54-H ) :   0.9431
B( 25-C , 55-H ) :   0.9535 B( 27-C , 28-O ) :   1.2083 B( 27-C , 31-C ) :   1.4266
B( 28-O , 29-C ) :   1.1189 B( 29-C , 30-C ) :   1.4448 B( 29-C , 34-C ) :   1.1655
B( 30-C , 31-C ) :   1.2244 B( 30-C , 56-H ) :   1.0228 B( 31-C , 32-C ) :   1.1145
B( 32-C , 33-N ) :   3.0235 B( 34-C , 35-C ) :   1.6547 B( 34-C , 57-H ) :   0.9538
B( 35-C , 36-C ) :   1.1439 B( 35-C , 58-H ) :   0.9537 B( 36-C , 37-S ) :   1.1070
B( 36-C , 38-C ) :   0.1159 B( 36-C , 40-C ) :   1.3924 B( 37-S , 38-C ) :   1.2081
B( 38-C , 39-C ) :   1.4041 B( 38-C , 59-H ) :   0.9766 B( 39-C , 40-C ) :   1.2517
B( 39-C , 43-C ) :   1.1124 B( 40-C , 41-N ) :   1.1483 B( 41-N , 42-N ) :   1.1187
B( 41-N , 60-H ) :   0.9514 B( 42-N , 43-C ) :   1.7645 B( 43-C , 61-H ) :   1.0015

-----------------------------------------------------------------------------
         ABSORPTION SPECTRUM VIA TRANSITION ELECTRIC DIPOLE MOMENTS
-----------------------------------------------------------------------------
State   Energy  Wavelength   fosc         T2         TX        TY        TZ
        (cm-1)    (nm)                  (au**2)     (au)      (au)      (au)
-----------------------------------------------------------------------------
   0   19935.8    501.6   1.725204542  28.48933   3.45627  -3.19819  -2.51299
   1   25213.4    396.6   0.166511195   2.17414   1.45863   0.01747   0.21501
   2   26700.1    374.5   0.038559337   0.47544  -0.31767   0.42522   0.44013
   3   28795.5    347.3   0.355285229   4.06189   0.70733   0.28098   1.86618
   4   31351.9    319.0   0.417139380   4.38020   0.89162   0.35629   1.85964
   5   33319.2    300.1   0.089876105   0.88803   0.16493   0.23480   0.89760
   6   34051.5    293.7   0.102702140   0.99293   0.54253  -0.11010   0.82854
   7   35102.2    284.9   0.164219081   1.54016  -0.90984   0.55505   0.63582
   8   36065.6    277.3   0.029303081   0.26748  -0.00669  -0.22814  -0.46410
   9   37969.8    263.4   0.020652959   0.17907   0.07709   0.11636   0.39948
  10   38800.2    257.7   0.105190392   0.89252  -0.25463   0.38005   0.82659
  11   40200.6    248.8   0.108779247   0.89082  -0.74952   0.06486  -0.56994

FINAL SINGLE POINT ENERGY     -3013.350350793861

DIPOLE MOMENT
-------------
                                X             Y             Z
Electronic contribution:      7.46970      -9.39982     -19.51901
Nuclear contribution   :     -8.19380       9.72307      21.76170
                        -----------------------------------------
Total Dipole Moment    :     -0.72410       0.32325       2.24269
                        -----------------------------------------
Magnitude (a.u.)       :      2.37876
Magnitude (Debye)      :      6.04632

Rotational constants in cm-1:     0.005576     0.000656     0.000592
Rotational constants in MHz :   167.173687    19.655977    17.739233

                             ****ORCA TERMINATED NORMALLY****
TOTAL RUN TIME: 0 days 0 hours 3 minutes 26 seconds 141 msec
