                         Program Version 4.2.0 -  RELEASE  -
|  1> # ORCA input file
|  2> # SCF done       -125.335447779003          0.000946350796
|  3> ! CAM-B3LYP def2-SVP def2/J RIJCOSX Grid4 TightSCF
|  4> %maxcore 5000
|  5> %tddft
|  6>     Mode sTDDFT
|  7>     Ethresh 5.0
|  8>     maxcore 5000
|  9> end
| 10>
| 11> %pal
| 12>   nprocs 6
| 13>   end
| 14> * xyz 0 1
| 15>    C       -4.19429        -0.83458        -3.12422
| 16>    S       -3.01539         0.42096        -3.22503
| 17>    C       -3.89785         1.48132        -2.16197
| 18>    C       -5.07177         0.86144        -1.75281
| 19>    C       -5.22203        -0.44985        -2.30876
| 20>    N       -6.40120        -0.92594        -1.82468
| 21>    N       -6.99336        -0.02410        -1.01905
| 22>    C       -6.23324         1.03732        -0.95854
| 23>    C       -3.42478         2.76612        -1.80943
| 24>    O       -4.14260         3.52489        -0.95641
| 25>    C       -3.48303         4.70313        -0.77419
| 26>    C       -2.32283         4.70306        -1.52231
| 27>    C       -2.27526         3.46160        -2.19233
| 28>    C       -1.27642         3.02464        -3.06904
| 29>    N       -0.44575         2.69090        -3.78734
| 30>    C       -4.06054         5.66703         0.09591
| 31>    C       -3.51288         6.87883         0.36314
| 32>    C       -4.06854         7.85388         1.22535
| 33>    C       -3.51272         9.08453         1.48679
| 34>    C       -4.35518         9.76906         2.38674
| 35>    N       -4.44748        10.94330         3.04947
| 36>    C       -5.59949        10.93495         3.80767
| 37>    C       -6.24812         9.70329         3.60371
| 38>    C       -5.46936         8.98087         2.71796
| 39>    C       -5.36663         7.68434         1.99262
| 40>    C       -5.94248        12.04489         4.61420
| 41>    C       -7.04742        12.14046         5.40142
| 42>    C       -7.37233        13.24941         6.21982
| 43>    C       -6.67849        14.42634         6.38971
| 44>    C       -7.38012        15.22196         7.31882
| 45>    N       -7.29700        16.41592         7.94228
| 46>    C       -8.38423        16.55293         8.78399
| 47>    C       -9.17118        15.39055         8.67286
| 48>    C       -8.54261        14.56575         7.76079
| 49>    C       -8.62474        13.24698         7.07797
| 50>    C       -8.54914        17.71062         9.57476
| 51>    C       -9.61836        17.95741        10.37945
| 52>    C       -9.79822        19.10848        11.18462
| 53>    S      -11.41922        19.52752        11.66211
| 54>    C      -10.83294        20.95964        12.43837
| 55>    N      -11.74212        21.80254        13.07379
| 56>    O      -11.30563        22.81323        13.60348
| 57>    O      -12.91891        21.47179        13.05705
| 58>    C       -9.46756        21.09403        12.34986
| 59>    C       -8.86079        20.04212        11.65274
| 60>    C       -7.41970        19.88820        11.54308
| 61>    C       -6.55733        20.89676        11.50771
| 62>    H       -4.04740        -1.74687        -3.66380
| 63>    H       -6.84190        -1.81334        -1.99332
| 64>    H       -6.51819         1.88400        -0.36859
| 65>    H       -1.59280         5.48272        -1.59049
| 66>    H       -4.99472         5.37267         0.55184
| 67>    H       -2.57598         7.14289        -0.10857
| 68>    H       -2.59286         9.45527         1.07142
| 69>    H       -3.79440        11.70850         3.01402
| 70>    H       -7.17055         9.40581         4.06113
| 71>    H       -6.20671         7.52034         1.31590
| 72>    H       -5.31483         6.83312         2.67358
| 73>    H       -5.24746        12.87459         4.58856
| 74>    H       -7.74087        11.31118         5.42271
| 75>    H       -5.75983        14.70020         5.90484
| 76>    H       -6.57689        17.11004         7.82835
| 77>    H      -10.08003        15.20510         9.20948
| 78>    H       -9.51986        13.15185         6.45991
| 79>    H       -8.61893        12.41026         7.77908
| 80>    H       -7.77117        18.45779         9.49042
| 81>    H      -10.44305        17.25885        10.37358
| 82>    H       -8.94070        21.91147        12.80750
| 83>    H       -7.06323        18.86614        11.52435
| 84>    H       -6.88014        21.92363        11.50260
| 85>    H       -5.49497        20.72869        11.46739
| 86> *
| 87>
| 88>                          ****END OF INPUT****

CARTESIAN COORDINATES (ANGSTROEM)
---------------------------------
  C     -4.194290   -0.834580   -3.124220
  S     -3.015390    0.420960   -3.225030
  C     -3.897850    1.481320   -2.161970
  C     -5.071770    0.861440   -1.752810
  C     -5.222030   -0.449850   -2.308760
  N     -6.401200   -0.925940   -1.824680
  N     -6.993360   -0.024100   -1.019050
  C     -6.233240    1.037320   -0.958540
  C     -3.424780    2.766120   -1.809430
  O     -4.142600    3.524890   -0.956410
  C     -3.483030    4.703130   -0.774190
  C     -2.322830    4.703060   -1.522310
  C     -2.275260    3.461600   -2.192330
  C     -1.276420    3.024640   -3.069040
  N     -0.445750    2.690900   -3.787340
  C     -4.060540    5.667030    0.095910
  C     -3.512880    6.878830    0.363140
  C     -4.068540    7.853880    1.225350
  C     -3.512720    9.084530    1.486790
  C     -4.355180    9.769060    2.386740
  N     -4.447480   10.943300    3.049470
  C     -5.599490   10.934950    3.807670
  C     -6.248120    9.703290    3.603710
  C     -5.469360    8.980870    2.717960
  C     -5.366630    7.684340    1.992620
  C     -5.942480   12.044890    4.614200
  C     -7.047420   12.140460    5.401420
  C     -7.372330   13.249410    6.219820
  C     -6.678490   14.426340    6.389710
  C     -7.380120   15.221960    7.318820
  N     -7.297000   16.415920    7.942280
  C     -8.384230   16.552930    8.783990
  C     -9.171180   15.390550    8.672860
  C     -8.542610   14.565750    7.760790
  C     -8.624740   13.246980    7.077970
  C     -8.549140   17.710620    9.574760
  C     -9.618360   17.957410   10.379450
  C     -9.798220   19.108480   11.184620
  S    -11.419220   19.527520   11.662110
  C    -10.832940   20.959640   12.438370
  N    -11.742120   21.802540   13.073790
  O    -11.305630   22.813230   13.603480
  O    -12.918910   21.471790   13.057050
  C     -9.467560   21.094030   12.349860
  C     -8.860790   20.042120   11.652740
  C     -7.419700   19.888200   11.543080
  C     -6.557330   20.896760   11.507710
  H     -4.047400   -1.746870   -3.663800
  H     -6.841900   -1.813340   -1.993320
  H     -6.518190    1.884000   -0.368590
  H     -1.592800    5.482720   -1.590490
  H     -4.994720    5.372670    0.551840
  H     -2.575980    7.142890   -0.108570
  H     -2.592860    9.455270    1.071420
  H     -3.794400   11.708500    3.014020
  H     -7.170550    9.405810    4.061130
  H     -6.206710    7.520340    1.315900
  H     -5.314830    6.833120    2.673580
  H     -5.247460   12.874590    4.588560
  H     -7.740870   11.311180    5.422710
  H     -5.759830   14.700200    5.904840
  H     -6.576890   17.110040    7.828350
  H    -10.080030   15.205100    9.209480
  H     -9.519860   13.151850    6.459910
  H     -8.618930   12.410260    7.779080
  H     -7.771170   18.457790    9.490420
  H    -10.443050   17.258850   10.373580
  H     -8.940700   21.911470   12.807500
  H     -7.063230   18.866140   11.524350
  H     -6.880140   21.923630   11.502600
  H     -5.494970   20.728690   11.467390

 Total Charge           Charge          ....    0
 Multiplicity           Mult            ....    1
 Number of Electrons    NEL             ....  338
 Basis Dimension        Dim             ....  786

ORBITAL ENERGIES
----------------

  NO   OCC          E(Eh)            E(eV)
   0   2.0000     -88.967745     -2420.9354
   1   2.0000     -88.962774     -2420.8001
   2   2.0000     -19.302204      -525.2397
   3   2.0000     -19.220783      -523.0241
   4   2.0000     -19.219871      -522.9993
   5   2.0000     -14.631721      -398.1494
   6   2.0000     -14.474858      -393.8809
   7   2.0000     -14.467959      -393.6932
   8   2.0000     -14.467500      -393.6807
   9   2.0000     -14.435304      -392.8046
  10   2.0000     -14.400860      -391.8673
  11   2.0000     -10.355995      -281.8009
  12   2.0000     -10.337368      -281.2941
  13   2.0000     -10.325777      -280.9787
  14   2.0000     -10.313978      -280.6576
  15   2.0000     -10.313696      -280.6499
  16   2.0000     -10.313033      -280.6319
  17   2.0000     -10.304748      -280.4065
  18   2.0000     -10.303852      -280.3821
  19   2.0000     -10.302758      -280.3523
  20   2.0000     -10.301752      -280.3249
  21   2.0000     -10.299586      -280.2660
  22   2.0000     -10.297859      -280.2190
  23   2.0000     -10.296172      -280.1731
  24   2.0000     -10.291302      -280.0406
  25   2.0000     -10.290907      -280.0298
  26   2.0000     -10.290198      -280.0105
  27   2.0000     -10.283917      -279.8396
  28   2.0000     -10.283066      -279.8165
  29   2.0000     -10.282937      -279.8130
  30   2.0000     -10.282009      -279.7877
  31   2.0000     -10.281912      -279.7851
  32   2.0000     -10.281220      -279.7662
  33   2.0000     -10.280197      -279.7384
  34   2.0000     -10.279899      -279.7303
  35   2.0000     -10.279822      -279.7282
  36   2.0000     -10.279512      -279.7197
  37   2.0000     -10.279358      -279.7156
  38   2.0000     -10.279262      -279.7129
  39   2.0000     -10.278789      -279.7001
  40   2.0000     -10.276637      -279.6415
  41   2.0000     -10.271934      -279.5135
  42   2.0000     -10.266865      -279.3756
  43   2.0000     -10.265478      -279.3378
  44   2.0000     -10.262679      -279.2617
  45   2.0000     -10.260704      -279.2079
  46   2.0000     -10.258699      -279.1534
  47   2.0000      -8.061756      -219.3715
  48   2.0000      -8.058324      -219.2782
  49   2.0000      -6.031308      -164.1202
  50   2.0000      -6.027747      -164.0233
  51   2.0000      -6.026561      -163.9911
  52   2.0000      -6.024222      -163.9274
  53   2.0000      -6.023448      -163.9064
  54   2.0000      -6.020221      -163.8185
  55   2.0000      -1.299205       -35.3532
  56   2.0000      -1.219335       -33.1798
  57   2.0000      -1.136628       -30.9292
  58   2.0000      -1.117512       -30.4091
  59   2.0000      -1.081768       -29.4364
  60   2.0000      -1.081347       -29.4249
  61   2.0000      -0.996588       -27.1185
  62   2.0000      -0.988865       -26.9084
  63   2.0000      -0.981229       -26.7006
  64   2.0000      -0.956786       -26.0355
  65   2.0000      -0.953486       -25.9457
  66   2.0000      -0.917358       -24.9626
  67   2.0000      -0.916719       -24.9452
  68   2.0000      -0.913455       -24.8564
  69   2.0000      -0.905204       -24.6318
  70   2.0000      -0.892874       -24.2963
  71   2.0000      -0.890392       -24.2288
  72   2.0000      -0.871742       -23.7213
  73   2.0000      -0.869634       -23.6640
  74   2.0000      -0.858200       -23.3528
  75   2.0000      -0.847438       -23.0600
  76   2.0000      -0.844980       -22.9931
  77   2.0000      -0.822446       -22.3799
  78   2.0000      -0.814926       -22.1753
  79   2.0000      -0.803116       -21.8539
  80   2.0000      -0.794189       -21.6110
  81   2.0000      -0.789667       -21.4879
  82   2.0000      -0.778347       -21.1799
  83   2.0000      -0.753039       -20.4912
  84   2.0000      -0.743059       -20.2197
  85   2.0000      -0.733422       -19.9574
  86   2.0000      -0.709408       -19.3040
  87   2.0000      -0.702401       -19.1133
  88   2.0000      -0.695535       -18.9265
  89   2.0000      -0.695436       -18.9238
  90   2.0000      -0.684413       -18.6238
  91   2.0000      -0.681559       -18.5462
  92   2.0000      -0.671967       -18.2851
  93   2.0000      -0.662259       -18.0210
  94   2.0000      -0.655047       -17.8247
  95   2.0000      -0.650054       -17.6889
  96   2.0000      -0.646528       -17.5929
  97   2.0000      -0.633090       -17.2272
  98   2.0000      -0.629941       -17.1416
  99   2.0000      -0.618963       -16.8428
 100   2.0000      -0.614778       -16.7290
 101   2.0000      -0.612933       -16.6788
 102   2.0000      -0.611747       -16.6465
 103   2.0000      -0.608108       -16.5475
 104   2.0000      -0.600112       -16.3299
 105   2.0000      -0.594213       -16.1694
 106   2.0000      -0.584955       -15.9174
 107   2.0000      -0.569573       -15.4989
 108   2.0000      -0.566333       -15.4107
 109   2.0000      -0.563829       -15.3426
 110   2.0000      -0.557648       -15.1744
 111   2.0000      -0.545226       -14.8364
 112   2.0000      -0.542311       -14.7570
 113   2.0000      -0.540895       -14.7185
 114   2.0000      -0.537434       -14.6243
 115   2.0000      -0.536541       -14.6000
 116   2.0000      -0.535282       -14.5658
 117   2.0000      -0.532760       -14.4971
 118   2.0000      -0.531876       -14.4731
 119   2.0000      -0.522038       -14.2054
 120   2.0000      -0.520655       -14.1677
 121   2.0000      -0.511325       -13.9139
 122   2.0000      -0.507654       -13.8140
 123   2.0000      -0.500559       -13.6209
 124   2.0000      -0.499451       -13.5907
 125   2.0000      -0.496870       -13.5205
 126   2.0000      -0.493733       -13.4352
 127   2.0000      -0.492100       -13.3907
 128   2.0000      -0.484243       -13.1769
 129   2.0000      -0.483526       -13.1574
 130   2.0000      -0.475218       -12.9314
 131   2.0000      -0.474145       -12.9021
 132   2.0000      -0.468060       -12.7366
 133   2.0000      -0.466112       -12.6836
 134   2.0000      -0.460286       -12.5250
 135   2.0000      -0.457508       -12.4494
 136   2.0000      -0.452866       -12.3231
 137   2.0000      -0.447960       -12.1896
 138   2.0000      -0.445022       -12.1097
 139   2.0000      -0.442405       -12.0385
 140   2.0000      -0.440547       -11.9879
 141   2.0000      -0.433607       -11.7990
 142   2.0000      -0.431035       -11.7291
 143   2.0000      -0.428366       -11.6564
 144   2.0000      -0.426145       -11.5960
 145   2.0000      -0.424927       -11.5629
 146   2.0000      -0.423450       -11.5226
 147   2.0000      -0.415970       -11.3191
 148   2.0000      -0.409216       -11.1353
 149   2.0000      -0.398217       -10.8360
 150   2.0000      -0.396111       -10.7787
 151   2.0000      -0.380259       -10.3474
 152   2.0000      -0.374159       -10.1814
 153   2.0000      -0.369019       -10.0415
 154   2.0000      -0.366979        -9.9860
 155   2.0000      -0.360693        -9.8150
 156   2.0000      -0.360165        -9.8006
 157   2.0000      -0.353416        -9.6169
 158   2.0000      -0.347782        -9.4636
 159   2.0000      -0.341246        -9.2858
 160   2.0000      -0.327111        -8.9011
 161   2.0000      -0.326167        -8.8755
 162   2.0000      -0.318706        -8.6724
 163   2.0000      -0.313396        -8.5279
 164   2.0000      -0.307438        -8.3658
 165   2.0000      -0.290709        -7.9106
 166   2.0000      -0.259883        -7.0718
 167   2.0000      -0.234089        -6.3699
 168   2.0000      -0.202839        -5.5195
 169   0.0000      -0.067907        -1.8479
 170   0.0000      -0.052261        -1.4221
 171   0.0000      -0.033839        -0.9208
 172   0.0000      -0.013986        -0.3806
 173   0.0000       0.002370         0.0645

MULLIKEN ATOMIC CHARGES
-----------------------
   0 C :   -0.209351
   1 S :    0.177060
   2 C :   -0.234308
   3 C :    0.041226
   4 C :    0.201719
   5 N :   -0.053386
   6 N :   -0.057672
   7 C :   -0.009262
   8 C :    0.207952
   9 O :   -0.199534
  10 C :    0.208863
  11 C :   -0.068456
  12 C :   -0.103570
  13 C :   -0.228961
  14 N :    0.158624
  15 C :   -0.024176
  16 C :    0.025098
  17 C :   -0.128898
  18 C :   -0.084663
  19 C :    0.088997
  20 N :   -0.015698
  21 C :    0.103707
  22 C :   -0.111405
  23 C :   -0.118652
  24 C :    0.316161
  25 C :    0.007337
  26 C :    0.000785
  27 C :   -0.100820
  28 C :   -0.093286
  29 C :    0.090013
  30 N :   -0.014670
  31 C :    0.075418
  32 C :   -0.102863
  33 C :   -0.120297
  34 C :    0.292424
  35 C :    0.002179
  36 C :   -0.002684
  37 C :   -0.099794
  38 S :    0.176775
  39 C :   -0.019368
  40 N :    0.278684
  41 O :   -0.261033
  42 O :   -0.270759
  43 C :    0.002259
  44 C :    0.073143
  45 C :   -0.033989
  46 C :   -0.030918
  47 H :    0.015852
  48 H :    0.134700
  49 H :   -0.005619
  50 H :   -0.010102
  51 H :   -0.009327
  52 H :   -0.030442
  53 H :   -0.034064
  54 H :    0.119272
  55 H :   -0.035533
  56 H :    0.030627
  57 H :    0.031337
  58 H :   -0.041037
  59 H :   -0.030242
  60 H :   -0.041904
  61 H :    0.120281
  62 H :   -0.031335
  63 H :    0.030795
  64 H :    0.030190
  65 H :   -0.017289
  66 H :   -0.013307
  67 H :    0.002961
  68 H :    0.009023
  69 H :    0.022145
  70 H :    0.023070
Sum of atomic charges:   -0.0000000

LOEWDIN ATOMIC CHARGES
----------------------
   0 C :   -0.230431
   1 S :    0.496598
   2 C :   -0.203664
   3 C :   -0.082508
   4 C :   -0.026395
   5 N :    0.074846
   6 N :   -0.049690
   7 C :   -0.040020
   8 C :    0.049502
   9 O :    0.018852
  10 C :    0.035732
  11 C :   -0.039938
  12 C :   -0.119175
  13 C :   -0.045798
  14 N :   -0.056574
  15 C :   -0.057859
  16 C :   -0.011631
  17 C :   -0.028944
  18 C :   -0.026594
  19 C :   -0.024131
  20 N :    0.088289
  21 C :   -0.012899
  22 C :   -0.062177
  23 C :   -0.047196
  24 C :   -0.012174
  25 C :   -0.028169
  26 C :   -0.043170
  27 C :   -0.014616
  28 C :   -0.050144
  29 C :   -0.006976
  30 N :    0.088271
  31 C :   -0.028579
  32 C :   -0.050099
  33 C :   -0.058247
  34 C :   -0.009996
  35 C :   -0.011683
  36 C :   -0.073829
  37 C :   -0.136224
  38 S :    0.467366
  39 C :   -0.211917
  40 N :    0.274240
  41 O :   -0.227531
  42 O :   -0.236686
  43 C :   -0.004168
  44 C :   -0.077559
  45 C :   -0.024278
  46 C :   -0.049671
  47 H :    0.024957
  48 H :    0.085309
  49 H :    0.022004
  50 H :    0.035375
  51 H :    0.032951
  52 H :    0.028582
  53 H :    0.024801
  54 H :    0.089349
  55 H :    0.022917
  56 H :    0.050077
  57 H :    0.050310
  58 H :    0.022201
  59 H :    0.026521
  60 H :    0.019230
  61 H :    0.090093
  62 H :    0.024407
  63 H :    0.050325
  64 H :    0.049488
  65 H :    0.030851
  66 H :    0.027473
  67 H :    0.041804
  68 H :    0.030945
  69 H :    0.023075
  70 H :    0.024597

  Mayer bond orders larger than 0.100000
B(  0-C ,  1-S ) :   1.1388 B(  0-C ,  2-C ) :   0.1331 B(  0-C ,  4-C ) :   1.4269
B(  0-C , 47-H ) :   0.9937 B(  1-S ,  2-C ) :   1.1860 B(  2-C ,  3-C ) :   1.3273
B(  2-C ,  8-C ) :   1.1987 B(  3-C ,  4-C ) :   1.2193 B(  3-C ,  7-C ) :   1.1596
B(  4-C ,  5-N ) :   1.1122 B(  5-N ,  6-N ) :   1.1323 B(  5-N , 48-H ) :   0.9533
B(  6-N ,  7-C ) :   1.7394 B(  7-C , 49-H ) :   1.0018 B(  8-C ,  9-O ) :   1.1990
B(  8-C , 12-C ) :   1.4241 B(  9-O , 10-C ) :   1.0897 B( 10-C , 11-C ) :   1.4751
B( 10-C , 15-C ) :   1.1053 B( 11-C , 12-C ) :   1.2357 B( 11-C , 50-H ) :   1.0153
B( 12-C , 13-C ) :   1.1123 B( 13-C , 14-N ) :   3.0210 B( 15-C , 16-C ) :   1.6176
B( 15-C , 51-H ) :   0.9626 B( 16-C , 17-C ) :   1.1704 B( 16-C , 52-H ) :   0.9758
B( 17-C , 18-C ) :   1.5405 B( 17-C , 24-C ) :   1.0367 B( 18-C , 19-C ) :   1.0799
B( 18-C , 53-H ) :   1.0343 B( 19-C , 20-N ) :   1.2035 B( 19-C , 23-C ) :   1.4293
B( 20-N , 21-C ) :   1.1790 B( 20-N , 54-H ) :   0.9343 B( 21-C , 22-C ) :   1.3696
B( 21-C , 25-C ) :   1.1131 B( 22-C , 23-C ) :   1.3700 B( 22-C , 55-H ) :   1.0183
B( 23-C , 24-C ) :   1.0062 B( 24-C , 56-H ) :   0.8676 B( 24-C , 57-H ) :   0.8684
B( 25-C , 26-C ) :   1.6392 B( 25-C , 58-H ) :   0.9604 B( 26-C , 27-C ) :   1.1527
B( 26-C , 59-H ) :   0.9758 B( 27-C , 28-C ) :   1.5765 B( 27-C , 34-C ) :   1.0288
B( 28-C , 29-C ) :   1.0951 B( 28-C , 60-H ) :   1.0200 B( 29-C , 30-N ) :   1.2242
B( 29-C , 33-C ) :   1.4184 B( 30-N , 31-C ) :   1.1573 B( 30-N , 61-H ) :   0.9337
B( 31-C , 32-C ) :   1.3637 B( 31-C , 35-C ) :   1.1494 B( 32-C , 33-C ) :   1.3765
B( 32-C , 62-H ) :   1.0163 B( 33-C , 34-C ) :   1.0147 B( 34-C , 63-H ) :   0.8750
B( 34-C , 64-H ) :   0.8782 B( 35-C , 36-C ) :   1.6435 B( 35-C , 65-H ) :   0.9552
B( 36-C , 37-C ) :   1.1589 B( 36-C , 66-H ) :   0.9539 B( 37-C , 38-S ) :   1.1376
B( 37-C , 44-C ) :   1.4065 B( 38-S , 39-C ) :   1.1032 B( 39-C , 40-N ) :   0.9766
B( 39-C , 43-C ) :   1.4581 B( 40-N , 41-O ) :   1.5244 B( 40-N , 42-O ) :   1.5067
B( 41-O , 42-O ) :   0.2562 B( 43-C , 44-C ) :   1.2642 B( 43-C , 67-H ) :   1.0015
B( 44-C , 45-C ) :   1.0568 B( 45-C , 46-C ) :   1.9520 B( 45-C , 68-H ) :   0.9565
B( 46-C , 69-H ) :   0.9593 B( 46-C , 70-H ) :   0.9528

-----------------------------------------------------------------------------
         ABSORPTION SPECTRUM VIA TRANSITION ELECTRIC DIPOLE MOMENTS
-----------------------------------------------------------------------------
State   Energy  Wavelength   fosc         T2         TX        TY        TZ
        (cm-1)    (nm)                  (au**2)     (au)      (au)      (au)
-----------------------------------------------------------------------------
   0   15887.5    629.4   3.262528342  67.60421  -2.26009   6.28058   4.80110
   1   20729.7    482.4   0.089023968   1.41380   0.68534   0.96891   0.07292
   2   24447.9    409.0   0.066173472   0.89108   0.64674   0.67831  -0.11271
   3   24791.1    403.4   0.088215232   1.17145   0.86615   0.37794  -0.52764
   4   27838.5    359.2   0.133583113   1.57972  -0.03602   1.16792   0.46302
   5   28416.0    351.9   0.211841643   2.45428  -0.86023  -1.28111  -0.27028
   6   30780.3    324.9   0.056060524   0.59960  -0.36995  -0.59119  -0.33649
   7   31113.5    321.4   0.079486409   0.84105  -0.82268   0.13667   0.38154
   8   31872.7    313.7   0.037428883   0.38660   0.49169   0.02272  -0.37991
   9   34105.7    293.2   0.025969631   0.25068  -0.14192  -0.40218  -0.26228
  10   35166.8    284.4   0.022007885   0.20603   0.34252   0.27508  -0.11417
  11   36521.0    273.8   0.016022603   0.14443   0.20175   0.25269   0.19970
  12   37955.4    263.5   0.000801793   0.00695  -0.06159  -0.05613  -0.00326
  13   38706.4    258.4   0.036648576   0.31171   0.06449  -0.48933  -0.26097
  14   39848.7    250.9   0.051918357   0.42893   0.64010  -0.00336  -0.13851

FINAL SINGLE POINT ENERGY     -2733.925521191403

DIPOLE MOMENT
-------------
                                X             Y             Z
Electronic contribution:     -1.75106     -20.93914     -14.89948
Nuclear contribution   :      3.53106      19.35558      13.49245
                        -----------------------------------------
Total Dipole Moment    :      1.78000      -1.58356      -1.40703
                        -----------------------------------------
Magnitude (a.u.)       :      2.76691
Magnitude (Debye)      :      7.03294

Rotational constants in cm-1:     0.008264     0.000264     0.000257
Rotational constants in MHz :   247.747065     7.929282     7.700220

                             ****ORCA TERMINATED NORMALLY****
TOTAL RUN TIME: 0 days 0 hours 4 minutes 21 seconds 806 msec
