                         Program Version 4.2.0 -  RELEASE  -
|  1> # ORCA input file
|  2> # SCF done       -143.258720842290          0.000569192762
|  3> ! CAM-B3LYP def2-SVP def2/J RIJCOSX Grid4 TightSCF
|  4> %maxcore 5000
|  5> %tddft
|  6>     Mode sTDDFT
|  7>     Ethresh 5.0
|  8>     maxcore 5000
|  9> end
| 10>
| 11> %pal
| 12>   nprocs 6
| 13>   end
| 14> * xyz 0 1
| 15>    O        2.33247         2.82534         2.11266
| 16>    N        2.64846         1.68527         1.81029
| 17>    O        3.42574         1.00578         2.46639
| 18>    C        2.07483         1.14697         0.64173
| 19>    C        1.18696         1.91512        -0.13594
| 20>    C        0.71127         1.25250        -1.23557
| 21>    C       -0.19210         1.71708        -2.22157
| 22>    S       -0.87446         3.32090        -2.14219
| 23>    C       -1.80059         3.12201        -3.58382
| 24>    C       -1.59141         1.87491        -4.10028
| 25>    N       -1.98247         1.10911        -5.15499
| 26>    N       -1.39578        -0.10306        -5.11758
| 27>    C       -0.62693        -0.15713        -4.06330
| 28>    C       -0.68299         1.06534        -3.34203
| 29>    S        1.37160        -0.36731        -1.32220
| 30>    C        2.29794        -0.14480         0.14149
| 31>    C        3.11103        -1.16467         0.66307
| 32>    C        3.23615        -2.40508         0.10430
| 33>    C        4.04148        -3.43350         0.62141
| 34>    C        4.16627        -4.69996         0.08057
| 35>    C        5.05278        -5.43570         0.88188
| 36>    N        5.61673        -6.66305         0.97263
| 37>    C        6.43572        -6.69346         2.07944
| 38>    C        7.15486        -7.86251         2.41980
| 39>    C        7.98911        -7.98926         3.48660
| 40>    C        8.70839        -9.15998         3.82808
| 41>    C        8.71676       -10.37968         3.19121
| 42>    C        9.58593       -11.23955         3.89565
| 43>    N       10.06198       -12.50216         3.85776
| 44>    C       10.92404       -12.68023         4.91929
| 45>    C       11.57012       -13.92608         5.11912
| 46>    C       12.38152       -14.22119         6.16219
| 47>    C       13.04062       -15.46735         6.38002
| 48>    S       13.53795       -15.85830         8.00493
| 49>    C       14.16851       -17.37152         7.51372
| 50>    C       14.02661       -17.57290         6.17318
| 51>    C       13.39649       -16.48486         5.51436
| 52>    C       13.20709       -16.46795         4.02991
| 53>    F       11.89802       -16.76504         3.69027
| 54>    C       14.15120       -17.48645         3.38490
| 55>    F       13.94192       -17.54363         2.03049
| 56>    C       14.02107       -18.87133         4.02070
| 57>    F       12.72596       -19.31385         4.03623
| 58>    C       14.53041       -18.79378         5.46441
| 59>    F       15.91700       -18.76775         5.41393
| 60>    C       10.98667       -11.47730         5.64223
| 61>    C       10.15061       -10.58108         5.00034
| 62>    C        9.62477        -9.19049         5.03828
| 63>    C        6.37893        -5.43188         2.70352
| 64>    C        5.51802        -4.65270         1.95649
| 65>    C        4.89867        -3.30379         1.86560
| 66>    H        0.91578         2.92394         0.11879
| 67>    H       -2.41827         3.92154        -3.93606
| 68>    H       -2.61482         1.33635        -5.90212
| 69>    H       -0.06257        -1.04019        -3.84297
| 70>    H        3.65189        -0.92190         1.56518
| 71>    H        2.67649        -2.62699        -0.79723
| 72>    H        3.66350        -5.05054        -0.80293
| 73>    H        5.47583        -7.43980         0.34823
| 74>    H        7.01280        -8.71083         1.76297
| 75>    H        8.12760        -7.13715         4.13762
| 76>    H        8.16074       -10.64286         2.31042
| 77>    H        9.83411       -13.21850         3.18773
| 78>    H       11.34021       -14.68379         4.38558
| 79>    H       12.52188       -13.48657         6.94239
| 80>    H       14.61736       -18.02741         8.23205
| 81>    H       13.39609       -15.46915         3.61123
| 82>    H       15.18791       -17.14977         3.52597
| 83>    H       14.60224       -19.60376         3.44585
| 84>    H       14.26283       -19.70979         6.00601
| 85>    H       11.57882       -11.31085         6.51991
| 86>    H       10.41404        -8.44134         4.95012
| 87>    H        9.07022        -8.97763         5.95435
| 88>    H        6.91247        -5.15458         3.59034
| 89>    H        5.64055        -2.51163         1.75383
| 90>    H        4.29358        -3.06444         2.74137
| 91> *
| 92>
| 93>                          ****END OF INPUT****

CARTESIAN COORDINATES (ANGSTROEM)
---------------------------------
  O      2.332470    2.825340    2.112660
  N      2.648460    1.685270    1.810290
  O      3.425740    1.005780    2.466390
  C      2.074830    1.146970    0.641730
  C      1.186960    1.915120   -0.135940
  C      0.711270    1.252500   -1.235570
  C     -0.192100    1.717080   -2.221570
  S     -0.874460    3.320900   -2.142190
  C     -1.800590    3.122010   -3.583820
  C     -1.591410    1.874910   -4.100280
  N     -1.982470    1.109110   -5.154990
  N     -1.395780   -0.103060   -5.117580
  C     -0.626930   -0.157130   -4.063300
  C     -0.682990    1.065340   -3.342030
  S      1.371600   -0.367310   -1.322200
  C      2.297940   -0.144800    0.141490
  C      3.111030   -1.164670    0.663070
  C      3.236150   -2.405080    0.104300
  C      4.041480   -3.433500    0.621410
  C      4.166270   -4.699960    0.080570
  C      5.052780   -5.435700    0.881880
  N      5.616730   -6.663050    0.972630
  C      6.435720   -6.693460    2.079440
  C      7.154860   -7.862510    2.419800
  C      7.989110   -7.989260    3.486600
  C      8.708390   -9.159980    3.828080
  C      8.716760  -10.379680    3.191210
  C      9.585930  -11.239550    3.895650
  N     10.061980  -12.502160    3.857760
  C     10.924040  -12.680230    4.919290
  C     11.570120  -13.926080    5.119120
  C     12.381520  -14.221190    6.162190
  C     13.040620  -15.467350    6.380020
  S     13.537950  -15.858300    8.004930
  C     14.168510  -17.371520    7.513720
  C     14.026610  -17.572900    6.173180
  C     13.396490  -16.484860    5.514360
  C     13.207090  -16.467950    4.029910
  F     11.898020  -16.765040    3.690270
  C     14.151200  -17.486450    3.384900
  F     13.941920  -17.543630    2.030490
  C     14.021070  -18.871330    4.020700
  F     12.725960  -19.313850    4.036230
  C     14.530410  -18.793780    5.464410
  F     15.917000  -18.767750    5.413930
  C     10.986670  -11.477300    5.642230
  C     10.150610  -10.581080    5.000340
  C      9.624770   -9.190490    5.038280
  C      6.378930   -5.431880    2.703520
  C      5.518020   -4.652700    1.956490
  C      4.898670   -3.303790    1.865600
  H      0.915780    2.923940    0.118790
  H     -2.418270    3.921540   -3.936060
  H     -2.614820    1.336350   -5.902120
  H     -0.062570   -1.040190   -3.842970
  H      3.651890   -0.921900    1.565180
  H      2.676490   -2.626990   -0.797230
  H      3.663500   -5.050540   -0.802930
  H      5.475830   -7.439800    0.348230
  H      7.012800   -8.710830    1.762970
  H      8.127600   -7.137150    4.137620
  H      8.160740  -10.642860    2.310420
  H      9.834110  -13.218500    3.187730
  H     11.340210  -14.683790    4.385580
  H     12.521880  -13.486570    6.942390
  H     14.617360  -18.027410    8.232050
  H     13.396090  -15.469150    3.611230
  H     15.187910  -17.149770    3.525970
  H     14.602240  -19.603760    3.445850
  H     14.262830  -19.709790    6.006010
  H     11.578820  -11.310850    6.519910
  H     10.414040   -8.441340    4.950120
  H      9.070220   -8.977630    5.954350
  H      6.912470   -5.154580    3.590340
  H      5.640550   -2.511630    1.753830
  H      4.293580   -3.064440    2.741370

 Total Charge           Charge          ....    0
 Multiplicity           Mult            ....    1
 Number of Electrons    NEL             ....  382
 Basis Dimension        Dim             ....  851

ORBITAL ENERGIES
----------------

  NO   OCC          E(Eh)            E(eV)
   0   2.0000     -88.962278     -2420.7867
   1   2.0000     -88.960999     -2420.7519
   2   2.0000     -88.958142     -2420.6741
   3   2.0000     -24.756527      -673.6593
   4   2.0000     -24.756205      -673.6506
   5   2.0000     -24.754663      -673.6086
   6   2.0000     -24.750368      -673.4917
   7   2.0000     -19.219759      -522.9962
   8   2.0000     -19.219084      -522.9779
   9   2.0000     -14.628993      -398.0751
  10   2.0000     -14.471498      -393.7895
  11   2.0000     -14.466020      -393.6404
  12   2.0000     -14.461314      -393.5124
  13   2.0000     -14.433166      -392.7464
  14   2.0000     -10.357192      -281.8335
  15   2.0000     -10.354706      -281.7659
  16   2.0000     -10.353463      -281.7321
  17   2.0000     -10.353259      -281.7265
  18   2.0000     -10.320327      -280.8304
  19   2.0000     -10.312001      -280.6038
  20   2.0000     -10.310791      -280.5709
  21   2.0000     -10.310331      -280.5584
  22   2.0000     -10.309553      -280.5372
  23   2.0000     -10.306481      -280.4536
  24   2.0000     -10.305223      -280.4194
  25   2.0000     -10.295913      -280.1660
  26   2.0000     -10.295505      -280.1549
  27   2.0000     -10.294536      -280.1286
  28   2.0000     -10.291884      -280.0564
  29   2.0000     -10.291575      -280.0480
  30   2.0000     -10.290577      -280.0208
  31   2.0000     -10.285795      -279.8907
  32   2.0000     -10.281894      -279.7846
  33   2.0000     -10.281425      -279.7718
  34   2.0000     -10.280584      -279.7489
  35   2.0000     -10.278887      -279.7027
  36   2.0000     -10.278569      -279.6941
  37   2.0000     -10.277150      -279.6555
  38   2.0000     -10.275877      -279.6208
  39   2.0000     -10.275270      -279.6043
  40   2.0000     -10.275019      -279.5975
  41   2.0000     -10.274713      -279.5891
  42   2.0000     -10.274335      -279.5789
  43   2.0000     -10.274157      -279.5740
  44   2.0000     -10.274115      -279.5729
  45   2.0000     -10.271341      -279.4974
  46   2.0000     -10.268047      -279.4078
  47   2.0000     -10.261252      -279.2229
  48   2.0000     -10.259921      -279.1866
  49   2.0000     -10.258152      -279.1385
  50   2.0000     -10.253314      -279.0069
  51   2.0000      -8.057446      -219.2542
  52   2.0000      -8.055766      -219.2085
  53   2.0000      -8.054185      -219.1655
  54   2.0000      -6.026837      -163.9986
  55   2.0000      -6.025223      -163.9547
  56   2.0000      -6.023352      -163.9037
  57   2.0000      -6.022824      -163.8894
  58   2.0000      -6.020716      -163.8320
  59   2.0000      -6.019247      -163.7920
  60   2.0000      -6.019097      -163.7880
  61   2.0000      -6.018095      -163.7607
  62   2.0000      -6.016639      -163.7211
  63   2.0000      -1.297564       -35.3085
  64   2.0000      -1.280243       -34.8372
  65   2.0000      -1.267837       -34.4996
  66   2.0000      -1.263753       -34.3885
  67   2.0000      -1.256545       -34.1923
  68   2.0000      -1.133611       -30.8471
  69   2.0000      -1.114178       -30.3183
  70   2.0000      -1.080147       -29.3923
  71   2.0000      -1.075782       -29.2735
  72   2.0000      -0.999167       -27.1887
  73   2.0000      -0.990563       -26.9546
  74   2.0000      -0.973484       -26.4898
  75   2.0000      -0.954235       -25.9661
  76   2.0000      -0.948901       -25.8209
  77   2.0000      -0.913792       -24.8655
  78   2.0000      -0.912991       -24.8438
  79   2.0000      -0.896434       -24.3932
  80   2.0000      -0.894096       -24.3296
  81   2.0000      -0.890517       -24.2322
  82   2.0000      -0.888913       -24.1886
  83   2.0000      -0.864849       -23.5337
  84   2.0000      -0.859108       -23.3775
  85   2.0000      -0.847308       -23.0564
  86   2.0000      -0.842610       -22.9286
  87   2.0000      -0.832973       -22.6664
  88   2.0000      -0.829597       -22.5745
  89   2.0000      -0.813691       -22.1417
  90   2.0000      -0.802615       -21.8403
  91   2.0000      -0.792846       -21.5744
  92   2.0000      -0.792022       -21.5520
  93   2.0000      -0.783619       -21.3234
  94   2.0000      -0.765160       -20.8211
  95   2.0000      -0.749930       -20.4066
  96   2.0000      -0.733098       -19.9486
  97   2.0000      -0.726699       -19.7745
  98   2.0000      -0.706587       -19.2272
  99   2.0000      -0.698865       -19.0171
 100   2.0000      -0.694956       -18.9107
 101   2.0000      -0.690695       -18.7948
 102   2.0000      -0.685436       -18.6517
 103   2.0000      -0.681013       -18.5313
 104   2.0000      -0.673241       -18.3198
 105   2.0000      -0.663699       -18.0602
 106   2.0000      -0.653488       -17.7823
 107   2.0000      -0.649836       -17.6829
 108   2.0000      -0.639207       -17.3937
 109   2.0000      -0.636562       -17.3217
 110   2.0000      -0.630968       -17.1695
 111   2.0000      -0.625396       -17.0179
 112   2.0000      -0.614974       -16.7343
 113   2.0000      -0.612915       -16.6783
 114   2.0000      -0.611266       -16.6334
 115   2.0000      -0.609739       -16.5918
 116   2.0000      -0.609266       -16.5790
 117   2.0000      -0.601870       -16.3777
 118   2.0000      -0.600634       -16.3441
 119   2.0000      -0.596703       -16.2371
 120   2.0000      -0.588493       -16.0137
 121   2.0000      -0.584767       -15.9123
 122   2.0000      -0.583029       -15.8650
 123   2.0000      -0.577775       -15.7221
 124   2.0000      -0.562204       -15.2983
 125   2.0000      -0.560262       -15.2455
 126   2.0000      -0.550155       -14.9705
 127   2.0000      -0.547065       -14.8864
 128   2.0000      -0.544140       -14.8068
 129   2.0000      -0.540562       -14.7094
 130   2.0000      -0.539015       -14.6673
 131   2.0000      -0.536712       -14.6047
 132   2.0000      -0.535858       -14.5814
 133   2.0000      -0.535252       -14.5650
 134   2.0000      -0.531784       -14.4706
 135   2.0000      -0.529862       -14.4183
 136   2.0000      -0.524923       -14.2839
 137   2.0000      -0.521619       -14.1940
 138   2.0000      -0.512087       -13.9346
 139   2.0000      -0.506323       -13.7778
 140   2.0000      -0.504020       -13.7151
 141   2.0000      -0.498453       -13.5636
 142   2.0000      -0.496169       -13.5014
 143   2.0000      -0.493094       -13.4178
 144   2.0000      -0.492112       -13.3910
 145   2.0000      -0.489306       -13.3147
 146   2.0000      -0.485900       -13.2220
 147   2.0000      -0.480175       -13.0662
 148   2.0000      -0.477721       -12.9995
 149   2.0000      -0.473567       -12.8864
 150   2.0000      -0.472733       -12.8637
 151   2.0000      -0.466885       -12.7046
 152   2.0000      -0.463640       -12.6163
 153   2.0000      -0.461694       -12.5633
 154   2.0000      -0.458934       -12.4882
 155   2.0000      -0.455241       -12.3877
 156   2.0000      -0.451983       -12.2991
 157   2.0000      -0.445114       -12.1122
 158   2.0000      -0.445003       -12.1091
 159   2.0000      -0.439546       -11.9607
 160   2.0000      -0.437863       -11.9149
 161   2.0000      -0.428688       -11.6652
 162   2.0000      -0.428028       -11.6472
 163   2.0000      -0.426901       -11.6166
 164   2.0000      -0.423604       -11.5269
 165   2.0000      -0.423262       -11.5175
 166   2.0000      -0.419316       -11.4102
 167   2.0000      -0.414325       -11.2744
 168   2.0000      -0.410790       -11.1782
 169   2.0000      -0.403989       -10.9931
 170   2.0000      -0.400650       -10.9023
 171   2.0000      -0.397732       -10.8228
 172   2.0000      -0.391539       -10.6543
 173   2.0000      -0.379678       -10.3316
 174   2.0000      -0.376519       -10.2456
 175   2.0000      -0.364629        -9.9221
 176   2.0000      -0.362420        -9.8619
 177   2.0000      -0.359025        -9.7696
 178   2.0000      -0.356370        -9.6973
 179   2.0000      -0.345311        -9.3964
 180   2.0000      -0.339532        -9.2391
 181   2.0000      -0.331423        -9.0185
 182   2.0000      -0.325260        -8.8508
 183   2.0000      -0.324683        -8.8351
 184   2.0000      -0.320630        -8.7248
 185   2.0000      -0.312140        -8.4938
 186   2.0000      -0.309537        -8.4229
 187   2.0000      -0.290902        -7.9158
 188   2.0000      -0.257360        -7.0031
 189   2.0000      -0.231973        -6.3123
 190   2.0000      -0.199539        -5.4297
 191   0.0000      -0.072692        -1.9781
 192   0.0000      -0.038735        -1.0540
 193   0.0000      -0.029620        -0.8060
 194   0.0000      -0.008005        -0.2178
 195   0.0000       0.016530         0.4498

MULLIKEN ATOMIC CHARGES
-----------------------
   0 O :   -0.257473
   1 N :    0.265892
   2 O :   -0.260307
   3 C :    0.175555
   4 C :   -0.066966
   5 C :   -0.024097
   6 C :   -0.087335
   7 S :    0.142953
   8 C :   -0.226446
   9 C :    0.210819
  10 N :   -0.056592
  11 N :   -0.057100
  12 C :   -0.008528
  13 C :   -0.027829
  14 S :    0.114700
  15 C :   -0.097973
  16 C :   -0.077326
  17 C :    0.039057
  18 C :   -0.126911
  19 C :   -0.080274
  20 C :    0.090376
  21 N :   -0.014771
  22 C :    0.107532
  23 C :    0.000506
  24 C :    0.009890
  25 C :   -0.105901
  26 C :   -0.087246
  27 C :    0.081232
  28 N :   -0.010862
  29 C :    0.081762
  30 C :   -0.006393
  31 C :   -0.003145
  32 C :   -0.128241
  33 S :    0.131588
  34 C :   -0.110507
  35 C :   -0.046522
  36 C :   -0.061400
  37 C :    0.326656
  38 F :   -0.245510
  39 C :    0.187428
  40 F :   -0.237676
  41 C :    0.225267
  42 F :   -0.234898
  43 C :    0.281475
  44 F :   -0.254949
  45 C :   -0.109295
  46 C :   -0.117202
  47 C :    0.289742
  48 C :   -0.113275
  49 C :   -0.106391
  50 C :    0.306140
  51 H :    0.003378
  52 H :    0.011294
  53 H :    0.133383
  54 H :   -0.003246
  55 H :    0.021821
  56 H :   -0.023395
  57 H :   -0.030553
  58 H :    0.120274
  59 H :   -0.041449
  60 H :   -0.028902
  61 H :   -0.040231
  62 H :    0.123696
  63 H :   -0.014906
  64 H :   -0.018537
  65 H :    0.020649
  66 H :    0.011157
  67 H :    0.028003
  68 H :    0.021242
  69 H :    0.018536
  70 H :   -0.035262
  71 H :    0.028852
  72 H :    0.028480
  73 H :   -0.033145
  74 H :    0.039701
  75 H :    0.039929
Sum of atomic charges:   -0.0000000

LOEWDIN ATOMIC CHARGES
----------------------
   0 O :   -0.222615
   1 N :    0.289628
   2 O :   -0.225710
   3 C :   -0.084633
   4 C :   -0.048808
   5 C :   -0.177152
   6 C :   -0.192697
   7 S :    0.466603
   8 C :   -0.240369
   9 C :   -0.024221
  10 N :    0.073387
  11 N :   -0.049883
  12 C :   -0.049350
  13 C :   -0.099636
  14 S :    0.442854
  15 C :   -0.127072
  16 C :   -0.074883
  17 C :   -0.005720
  18 C :   -0.034684
  19 C :   -0.013272
  20 C :   -0.028368
  21 N :    0.087506
  22 C :   -0.001368
  23 C :   -0.038514
  24 C :   -0.031211
  25 C :   -0.024640
  26 C :   -0.039626
  27 C :   -0.015139
  28 N :    0.090242
  29 C :   -0.022907
  30 C :   -0.019891
  31 C :   -0.069520
  32 C :   -0.148198
  33 S :    0.453401
  34 C :   -0.179543
  35 C :   -0.087139
  36 C :   -0.097225
  37 C :    0.096040
  38 F :   -0.124165
  39 C :    0.074304
  40 F :   -0.114978
  41 C :    0.081846
  42 F :   -0.110168
  43 C :    0.104170
  44 F :   -0.133482
  45 C :   -0.058921
  46 C :   -0.056592
  47 C :   -0.010268
  48 C :   -0.065773
  49 C :   -0.035418
  50 C :   -0.010802
  51 H :    0.035946
  52 H :    0.023015
  53 H :    0.084570
  54 H :    0.016290
  55 H :    0.033244
  56 H :    0.020372
  57 H :    0.026402
  58 H :    0.089904
  59 H :    0.021949
  60 H :    0.027327
  61 H :    0.019928
  62 H :    0.091981
  63 H :    0.026400
  64 H :    0.025752
  65 H :    0.025675
  66 H :    0.024855
  67 H :    0.031623
  68 H :    0.027288
  69 H :    0.028416
  70 H :    0.022669
  71 H :    0.049103
  72 H :    0.049182
  73 H :    0.023834
  74 H :    0.054385
  75 H :    0.054471

  Mayer bond orders larger than 0.100000
B(  0-O ,  1-N ) :   1.5330 B(  0-O ,  2-O ) :   0.2499 B(  1-N ,  2-O ) :   1.4971
B(  1-N ,  3-C ) :   0.9617 B(  3-C ,  4-C ) :   1.2332 B(  3-C , 15-C ) :   1.4067
B(  4-C ,  5-C ) :   1.4840 B(  4-C , 51-H ) :   0.9974 B(  5-C ,  6-C ) :   1.1809
B(  5-C , 14-S ) :   1.0811 B(  6-C ,  7-S ) :   1.1752 B(  6-C ,  8-C ) :   0.1205
B(  6-C , 13-C ) :   1.3697 B(  7-S ,  8-C ) :   1.1278 B(  8-C ,  9-C ) :   1.4385
B(  8-C , 52-H ) :   0.9956 B(  9-C , 10-N ) :   1.1100 B(  9-C , 13-C ) :   1.2287
B( 10-N , 11-N ) :   1.1305 B( 10-N , 53-H ) :   0.9544 B( 11-N , 12-C ) :   1.7535
B( 12-C , 13-C ) :   1.1443 B( 12-C , 54-H ) :   0.9969 B( 14-S , 15-C ) :   1.1229
B( 15-C , 16-C ) :   1.2081 B( 16-C , 17-C ) :   1.5052 B( 16-C , 55-H ) :   0.9705
B( 17-C , 18-C ) :   1.2068 B( 17-C , 56-H ) :   0.9721 B( 18-C , 19-C ) :   1.4937
B( 18-C , 50-C ) :   1.0369 B( 19-C , 20-C ) :   1.1069 B( 19-C , 57-H ) :   1.0345
B( 20-C , 21-N ) :   1.1893 B( 20-C , 49-C ) :   1.4100 B( 21-N , 22-C ) :   1.1908
B( 21-N , 58-H ) :   0.9340 B( 22-C , 23-C ) :   1.1113 B( 22-C , 48-C ) :   1.3586
B( 23-C , 24-C ) :   1.6396 B( 23-C , 59-H ) :   0.9613 B( 24-C , 25-C ) :   1.1521
B( 24-C , 60-H ) :   0.9755 B( 25-C , 26-C ) :   1.5800 B( 25-C , 47-C ) :   1.0275
B( 26-C , 27-C ) :   1.0944 B( 26-C , 61-H ) :   1.0199 B( 27-C , 28-N ) :   1.2173
B( 27-C , 46-C ) :   1.4301 B( 28-N , 29-C ) :   1.1725 B( 28-N , 62-H ) :   0.9322
B( 29-C , 30-C ) :   1.1139 B( 29-C , 45-C ) :   1.3822 B( 30-C , 31-C ) :   1.6837
B( 30-C , 63-H ) :   0.9475 B( 31-C , 32-C ) :   1.1130 B( 31-C , 64-H ) :   0.9548
B( 32-C , 33-S ) :   1.1553 B( 32-C , 36-C ) :   1.5262 B( 33-S , 34-C ) :   1.1619
B( 34-C , 35-C ) :   1.5754 B( 34-C , 65-H ) :   0.9687 B( 35-C , 36-C ) :   1.3110
B( 35-C , 43-C ) :   0.9589 B( 36-C , 37-C ) :   0.9724 B( 37-C , 38-F ) :   0.9898
B( 37-C , 39-C ) :   0.9889 B( 37-C , 66-H ) :   0.9251 B( 39-C , 40-F ) :   1.0430
B( 39-C , 41-C ) :   0.9929 B( 39-C , 67-H ) :   0.9347 B( 41-C , 42-F ) :   1.0378
B( 41-C , 43-C ) :   0.9917 B( 41-C , 68-H ) :   0.9309 B( 43-C , 44-F ) :   1.0244
B( 43-C , 69-H ) :   0.9306 B( 45-C , 46-C ) :   1.3614 B( 45-C , 70-H ) :   1.0164
B( 46-C , 47-C ) :   1.0170 B( 47-C , 71-H ) :   0.8772 B( 47-C , 72-H ) :   0.8764
B( 48-C , 49-C ) :   1.3779 B( 48-C , 73-H ) :   1.0193 B( 49-C , 50-C ) :   1.0019
B( 50-C , 74-H ) :   0.8710 B( 50-C , 75-H ) :   0.8707

-----------------------------------------------------------------------------
         ABSORPTION SPECTRUM VIA TRANSITION ELECTRIC DIPOLE MOMENTS
-----------------------------------------------------------------------------
State   Energy  Wavelength   fosc         T2         TX        TY        TZ
        (cm-1)    (nm)                  (au**2)     (au)      (au)      (au)
-----------------------------------------------------------------------------
   0   14171.1    705.7   2.460623135  57.16309  -4.14189   5.86403  -2.37088
   1   21744.6    459.9   0.386781874   5.85586   1.35934  -1.74089   0.98861
   2   22518.8    444.1   0.203819505   2.97972  -0.92661   1.35739  -0.52783
   3   24760.1    403.9   0.271899268   3.61520  -1.14108   0.17005  -1.51136
   4   26667.1    375.0   0.046219449   0.57059  -0.37397  -0.17689  -0.63202
   5   28403.3    352.1   0.034710786   0.40232  -0.29085   0.53690  -0.17164
   6   30947.6    323.1   0.089357961   0.95057   0.54037  -0.74213   0.32836
   7   31384.3    318.6   0.236282871   2.47854   0.97780  -0.30327   1.19602
   8   32448.0    308.2   0.000030253   0.00031   0.01412   0.00274   0.01000
   9   32662.2    306.2   0.002177708   0.02195   0.00661  -0.14210  -0.04138
  10   35086.6    285.0   0.044526140   0.41778   0.09307  -0.61098  -0.18925
  11   36826.2    271.5   0.071118014   0.63577   0.47032  -0.53134   0.36366
  12   37035.5    270.0   0.003774191   0.03355  -0.00386   0.17508   0.05367
  13   37327.8    267.9   0.026157911   0.23070   0.08133   0.34538   0.32373
  14   37486.7    266.8   0.001980291   0.01739   0.04662   0.05956   0.10803
  15   37933.5    263.6   0.053171758   0.46146  -0.14567   0.64631   0.15009
  16   39186.2    255.2   0.047731182   0.40100  -0.14514   0.59540   0.15947
  17   39607.3    252.5   0.025534457   0.21224   0.30251  -0.34150  -0.06409

FINAL SINGLE POINT ENERGY     -3439.851752740416

DIPOLE MOMENT
-------------
                                X             Y             Z
Electronic contribution:      9.89509     -22.66398      -2.45589
Nuclear contribution   :    -10.08866      21.39073       1.45606
                        -----------------------------------------
Total Dipole Moment    :     -0.19357      -1.27325      -0.99983
                        -----------------------------------------
Magnitude (a.u.)       :      1.63043
Magnitude (Debye)      :      4.14421

Rotational constants in cm-1:     0.005755     0.000227     0.000219
Rotational constants in MHz :   172.541518     6.800713     6.572947

                             ****ORCA TERMINATED NORMALLY****
TOTAL RUN TIME: 0 days 0 hours 4 minutes 46 seconds 887 msec
