                         Program Version 4.2.0 -  RELEASE  -
|  1> # ORCA input file
|  2> # SCF done       -175.896234975171          0.000834705790
|  3> ! CAM-B3LYP def2-SVP def2/J RIJCOSX Grid4 TightSCF
|  4> %maxcore 5000
|  5> %tddft
|  6>     Mode sTDDFT
|  7>     Ethresh 5.0
|  8>     maxcore 5000
|  9> end
| 10>
| 11> %pal
| 12>   nprocs 6
| 13>   end
| 14> * xyz 0 1
| 15>    C        1.33940         0.56372         7.53888
| 16>    N        0.78712        -0.41005         6.86987
| 17>    N        1.36919        -1.54191         6.63609
| 18>    C        2.61998        -1.79846         6.97280
| 19>    C        3.35877        -0.77809         7.63349
| 20>    C        2.67091         0.42947         7.98223
| 21>    N        3.46496         1.28368         8.62923
| 22>    S        4.92201         0.62766         8.75632
| 23>    N        4.63880        -0.75363         7.99608
| 24>    C        3.19644        -3.08967         6.71476
| 25>    C        3.89556        -3.87433         7.61296
| 26>    N        4.15391        -3.60286         8.96898
| 27>    O        4.99831        -4.28174         9.52438
| 28>    O        3.51235        -2.72224         9.52025
| 29>    C        4.25055        -5.11749         6.98083
| 30>    C        3.70886        -5.13370         5.73750
| 31>    C        3.03501        -3.88506         5.50385
| 32>    C        2.40893        -3.46740         4.34363
| 33>    C        2.29901        -2.12995         3.86625
| 34>    C        1.82898        -2.16216         2.58810
| 35>    C        1.57232        -3.51808         2.20638
| 36>    N        1.03393        -3.79207         0.94004
| 37>    O        0.61523        -2.84389         0.29760
| 38>    O        1.01745        -4.94254         0.52177
| 39>    C        1.88225        -4.36074         3.28738
| 40>    C        1.59615        -5.70163         3.58687
| 41>    C        1.24353        -6.71326         2.72511
| 42>    C        0.94189        -8.00181         3.18448
| 43>    N        0.61659        -9.04963         2.35302
| 44>    C        0.48102        -8.99185         0.91418
| 45>    C       -0.82933        -8.33718         0.48837
| 46>    C        0.37064       -10.22733         3.05863
| 47>    O        0.07169       -11.28727         2.53908
| 48>    C        0.56884        -9.86575         4.45095
| 49>    C        0.91519        -8.50710         4.50125
| 50>    C        1.11956        -8.14910         5.89274
| 51>    O        1.43711        -7.10628         6.42723
| 52>    N        0.87982        -9.33941         6.59791
| 53>    C        0.93235        -9.37849         8.03993
| 54>    C       -0.46149        -9.32284         8.65973
| 55>    C        0.54564       -10.37770         5.76292
| 56>    C        0.26528       -11.68562         6.18565
| 57>    C       -0.04522       -12.67453         5.28855
| 58>    C       -0.32383       -14.00452         5.61116
| 59>    S       -0.34408       -14.61464         7.23901
| 60>    C       -0.73746       -16.21104         6.72641
| 61>    C       -0.85282       -16.29143         5.32560
| 62>    C       -0.61820       -15.03661         4.68925
| 63>    C       -0.68551       -14.93035         3.29315
| 64>    C       -0.97950       -16.05416         2.55081
| 65>    C       -1.04709       -15.97305         1.13955
| 66>    N       -1.09977       -15.89994        -0.00228
| 67>    C       -1.21574       -17.30896         3.18812
| 68>    C       -1.51522       -18.43805         2.38796
| 69>    N       -1.75379       -19.35655         1.74693
| 70>    C       -1.15452       -17.42876         4.55849
| 71>    C       -0.90074       -17.25008         7.68727
| 72>    N       -1.21435       -18.47501         7.28474
| 73>    N       -1.37894       -19.47068         8.11139
| 74>    C       -1.24760       -19.35060         9.40553
| 75>    C       -0.91306       -18.10505         9.97675
| 76>    C       -0.73238       -17.00338         9.08069
| 77>    N       -0.42021       -15.87804         9.71301
| 78>    S       -0.36070       -16.18668        11.29658
| 79>    N       -0.72514       -17.74635        11.24694
| 80>    H        0.75198         1.45104         7.71185
| 81>    H        4.83385        -5.87968         7.46025
| 82>    H        3.84301        -5.89870         4.99839
| 83>    H        2.63593        -1.25704         4.38813
| 84>    H        1.67008        -1.32815         1.93037
| 85>    H        1.65435        -5.94625         4.63948
| 86>    H        1.20850        -6.52802         1.66331
| 87>    H        0.50596       -10.02885         0.56833
| 88>    H        1.33246        -8.45431         0.49031
| 89>    H       -1.67318        -8.85826         0.93464
| 90>    H       -0.92223        -8.38743        -0.59233
| 91>    H       -0.85986        -7.29280         0.78700
| 92>    H        1.50491        -8.49873         8.34613
| 93>    H        1.46646       -10.27729         8.35997
| 94>    H       -0.96049        -8.40187         8.36881
| 95>    H       -0.38227        -9.34624         9.74280
| 96>    H       -1.06889       -10.16436         8.33387
| 97>    H        0.30532       -11.91610         7.24112
| 98>    H       -0.07744       -12.41987         4.23742
| 99>    H       -0.50984       -13.98739         2.79801
|100>    H       -1.33065       -18.37121         5.05231
|101>    H       -1.40501       -20.23574        10.00096
|102> *
|103>
|104>                          ****END OF INPUT****

CARTESIAN COORDINATES (ANGSTROEM)
---------------------------------
  C      1.339400    0.563720    7.538880
  N      0.787120   -0.410050    6.869870
  N      1.369190   -1.541910    6.636090
  C      2.619980   -1.798460    6.972800
  C      3.358770   -0.778090    7.633490
  C      2.670910    0.429470    7.982230
  N      3.464960    1.283680    8.629230
  S      4.922010    0.627660    8.756320
  N      4.638800   -0.753630    7.996080
  C      3.196440   -3.089670    6.714760
  C      3.895560   -3.874330    7.612960
  N      4.153910   -3.602860    8.968980
  O      4.998310   -4.281740    9.524380
  O      3.512350   -2.722240    9.520250
  C      4.250550   -5.117490    6.980830
  C      3.708860   -5.133700    5.737500
  C      3.035010   -3.885060    5.503850
  C      2.408930   -3.467400    4.343630
  C      2.299010   -2.129950    3.866250
  C      1.828980   -2.162160    2.588100
  C      1.572320   -3.518080    2.206380
  N      1.033930   -3.792070    0.940040
  O      0.615230   -2.843890    0.297600
  O      1.017450   -4.942540    0.521770
  C      1.882250   -4.360740    3.287380
  C      1.596150   -5.701630    3.586870
  C      1.243530   -6.713260    2.725110
  C      0.941890   -8.001810    3.184480
  N      0.616590   -9.049630    2.353020
  C      0.481020   -8.991850    0.914180
  C     -0.829330   -8.337180    0.488370
  C      0.370640  -10.227330    3.058630
  O      0.071690  -11.287270    2.539080
  C      0.568840   -9.865750    4.450950
  C      0.915190   -8.507100    4.501250
  C      1.119560   -8.149100    5.892740
  O      1.437110   -7.106280    6.427230
  N      0.879820   -9.339410    6.597910
  C      0.932350   -9.378490    8.039930
  C     -0.461490   -9.322840    8.659730
  C      0.545640  -10.377700    5.762920
  C      0.265280  -11.685620    6.185650
  C     -0.045220  -12.674530    5.288550
  C     -0.323830  -14.004520    5.611160
  S     -0.344080  -14.614640    7.239010
  C     -0.737460  -16.211040    6.726410
  C     -0.852820  -16.291430    5.325600
  C     -0.618200  -15.036610    4.689250
  C     -0.685510  -14.930350    3.293150
  C     -0.979500  -16.054160    2.550810
  C     -1.047090  -15.973050    1.139550
  N     -1.099770  -15.899940   -0.002280
  C     -1.215740  -17.308960    3.188120
  C     -1.515220  -18.438050    2.387960
  N     -1.753790  -19.356550    1.746930
  C     -1.154520  -17.428760    4.558490
  C     -0.900740  -17.250080    7.687270
  N     -1.214350  -18.475010    7.284740
  N     -1.378940  -19.470680    8.111390
  C     -1.247600  -19.350600    9.405530
  C     -0.913060  -18.105050    9.976750
  C     -0.732380  -17.003380    9.080690
  N     -0.420210  -15.878040    9.713010
  S     -0.360700  -16.186680   11.296580
  N     -0.725140  -17.746350   11.246940
  H      0.751980    1.451040    7.711850
  H      4.833850   -5.879680    7.460250
  H      3.843010   -5.898700    4.998390
  H      2.635930   -1.257040    4.388130
  H      1.670080   -1.328150    1.930370
  H      1.654350   -5.946250    4.639480
  H      1.208500   -6.528020    1.663310
  H      0.505960  -10.028850    0.568330
  H      1.332460   -8.454310    0.490310
  H     -1.673180   -8.858260    0.934640
  H     -0.922230   -8.387430   -0.592330
  H     -0.859860   -7.292800    0.787000
  H      1.504910   -8.498730    8.346130
  H      1.466460  -10.277290    8.359970
  H     -0.960490   -8.401870    8.368810
  H     -0.382270   -9.346240    9.742800
  H     -1.068890  -10.164360    8.333870
  H      0.305320  -11.916100    7.241120
  H     -0.077440  -12.419870    4.237420
  H     -0.509840  -13.987390    2.798010
  H     -1.330650  -18.371210    5.052310
  H     -1.405010  -20.235740   10.000960

 Total Charge           Charge          ....    0
 Multiplicity           Mult            ....    1
 Number of Electrons    NEL             ....  468
 Basis Dimension        Dim             .... 1032

ORBITAL ENERGIES
----------------

  NO   OCC          E(Eh)            E(eV)
   0   2.0000     -89.065411     -2423.5930
   1   2.0000     -89.043431     -2422.9949
   2   2.0000     -89.003736     -2421.9148
   3   2.0000     -19.242688      -523.6202
   4   2.0000     -19.241024      -523.5749
   5   2.0000     -19.239243      -523.5264
   6   2.0000     -19.236892      -523.4624
   7   2.0000     -19.215733      -522.8867
   8   2.0000     -19.207961      -522.6752
   9   2.0000     -14.649108      -398.6225
  10   2.0000     -14.647303      -398.5734
  11   2.0000     -14.481012      -394.0484
  12   2.0000     -14.477996      -393.9663
  13   2.0000     -14.474626      -393.8746
  14   2.0000     -14.467488      -393.6804
  15   2.0000     -14.461834      -393.5265
  16   2.0000     -14.461087      -393.5062
  17   2.0000     -14.455071      -393.3425
  18   2.0000     -14.454724      -393.3330
  19   2.0000     -14.444570      -393.0567
  20   2.0000     -14.442218      -392.9927
  21   2.0000     -14.410395      -392.1268
  22   2.0000     -14.409162      -392.0932
  23   2.0000     -10.396696      -282.9085
  24   2.0000     -10.390620      -282.7431
  25   2.0000     -10.364977      -282.0454
  26   2.0000     -10.362444      -281.9764
  27   2.0000     -10.362215      -281.9702
  28   2.0000     -10.359369      -281.8928
  29   2.0000     -10.350840      -281.6607
  30   2.0000     -10.344020      -281.4751
  31   2.0000     -10.343208      -281.4530
  32   2.0000     -10.341317      -281.4015
  33   2.0000     -10.339717      -281.3580
  34   2.0000     -10.338512      -281.3252
  35   2.0000     -10.337547      -281.2989
  36   2.0000     -10.336849      -281.2800
  37   2.0000     -10.335072      -281.2316
  38   2.0000     -10.335070      -281.2316
  39   2.0000     -10.331389      -281.1314
  40   2.0000     -10.330124      -281.0970
  41   2.0000     -10.327952      -281.0379
  42   2.0000     -10.326188      -280.9899
  43   2.0000     -10.324464      -280.9429
  44   2.0000     -10.323494      -280.9166
  45   2.0000     -10.320894      -280.8458
  46   2.0000     -10.320618      -280.8383
  47   2.0000     -10.318598      -280.7833
  48   2.0000     -10.316795      -280.7343
  49   2.0000     -10.314652      -280.6759
  50   2.0000     -10.314113      -280.6613
  51   2.0000     -10.312709      -280.6231
  52   2.0000     -10.308959      -280.5210
  53   2.0000     -10.308198      -280.5003
  54   2.0000     -10.306937      -280.4660
  55   2.0000     -10.303346      -280.3683
  56   2.0000     -10.302404      -280.3427
  57   2.0000     -10.298315      -280.2314
  58   2.0000     -10.292168      -280.0641
  59   2.0000     -10.287106      -279.9264
  60   2.0000     -10.286569      -279.9118
  61   2.0000     -10.284978      -279.8685
  62   2.0000     -10.283349      -279.8241
  63   2.0000     -10.279475      -279.7187
  64   2.0000     -10.263076      -279.2725
  65   2.0000      -8.156944      -221.9617
  66   2.0000      -8.135167      -221.3691
  67   2.0000      -8.097578      -220.3463
  68   2.0000      -6.128015      -166.7518
  69   2.0000      -6.120250      -166.5405
  70   2.0000      -6.119602      -166.5228
  71   2.0000      -6.106116      -166.1559
  72   2.0000      -6.098356      -165.9447
  73   2.0000      -6.098057      -165.9366
  74   2.0000      -6.066471      -165.0771
  75   2.0000      -6.062232      -164.9617
  76   2.0000      -6.060717      -164.9205
  77   2.0000      -1.320061       -35.9207
  78   2.0000      -1.316788       -35.8316
  79   2.0000      -1.167751       -31.7761
  80   2.0000      -1.155285       -31.4369
  81   2.0000      -1.147599       -31.2277
  82   2.0000      -1.145446       -31.1692
  83   2.0000      -1.137787       -30.9608
  84   2.0000      -1.136935       -30.9376
  85   2.0000      -1.132797       -30.8250
  86   2.0000      -1.123304       -30.5667
  87   2.0000      -1.084427       -29.5088
  88   2.0000      -1.072956       -29.1966
  89   2.0000      -1.038098       -28.2481
  90   2.0000      -1.018717       -27.7207
  91   2.0000      -1.018333       -27.7103
  92   2.0000      -1.004635       -27.3375
  93   2.0000      -1.001071       -27.2405
  94   2.0000      -0.991436       -26.9783
  95   2.0000      -0.989761       -26.9328
  96   2.0000      -0.968415       -26.3519
  97   2.0000      -0.960236       -26.1294
  98   2.0000      -0.945777       -25.7359
  99   2.0000      -0.937052       -25.4985
 100   2.0000      -0.935058       -25.4442
 101   2.0000      -0.928249       -25.2589
 102   2.0000      -0.919190       -25.0124
 103   2.0000      -0.916256       -24.9326
 104   2.0000      -0.910891       -24.7866
 105   2.0000      -0.896301       -24.3896
 106   2.0000      -0.884818       -24.0771
 107   2.0000      -0.882680       -24.0189
 108   2.0000      -0.881963       -23.9994
 109   2.0000      -0.858531       -23.3618
 110   2.0000      -0.850456       -23.1421
 111   2.0000      -0.838052       -22.8046
 112   2.0000      -0.833343       -22.6764
 113   2.0000      -0.820926       -22.3385
 114   2.0000      -0.807445       -21.9717
 115   2.0000      -0.792818       -21.5737
 116   2.0000      -0.777793       -21.1648
 117   2.0000      -0.774306       -21.0699
 118   2.0000      -0.772944       -21.0329
 119   2.0000      -0.769053       -20.9270
 120   2.0000      -0.763868       -20.7859
 121   2.0000      -0.748909       -20.3789
 122   2.0000      -0.742221       -20.1969
 123   2.0000      -0.739340       -20.1185
 124   2.0000      -0.729986       -19.8639
 125   2.0000      -0.722985       -19.6734
 126   2.0000      -0.719395       -19.5757
 127   2.0000      -0.713483       -19.4149
 128   2.0000      -0.702144       -19.1063
 129   2.0000      -0.691358       -18.8128
 130   2.0000      -0.677354       -18.4317
 131   2.0000      -0.674320       -18.3492
 132   2.0000      -0.666511       -18.1367
 133   2.0000      -0.663762       -18.0619
 134   2.0000      -0.659557       -17.9475
 135   2.0000      -0.651563       -17.7299
 136   2.0000      -0.644235       -17.5305
 137   2.0000      -0.640938       -17.4408
 138   2.0000      -0.636993       -17.3335
 139   2.0000      -0.634101       -17.2548
 140   2.0000      -0.628284       -17.0965
 141   2.0000      -0.626304       -17.0426
 142   2.0000      -0.622645       -16.9430
 143   2.0000      -0.620857       -16.8944
 144   2.0000      -0.614036       -16.7088
 145   2.0000      -0.610435       -16.6108
 146   2.0000      -0.603916       -16.4334
 147   2.0000      -0.602165       -16.3857
 148   2.0000      -0.597640       -16.2626
 149   2.0000      -0.593600       -16.1527
 150   2.0000      -0.592936       -16.1346
 151   2.0000      -0.592275       -16.1166
 152   2.0000      -0.586974       -15.9724
 153   2.0000      -0.580783       -15.8039
 154   2.0000      -0.577782       -15.7222
 155   2.0000      -0.568668       -15.4742
 156   2.0000      -0.566141       -15.4055
 157   2.0000      -0.565571       -15.3900
 158   2.0000      -0.562135       -15.2965
 159   2.0000      -0.559732       -15.2311
 160   2.0000      -0.551046       -14.9947
 161   2.0000      -0.550483       -14.9794
 162   2.0000      -0.546391       -14.8681
 163   2.0000      -0.543466       -14.7885
 164   2.0000      -0.543234       -14.7821
 165   2.0000      -0.537755       -14.6330
 166   2.0000      -0.534128       -14.5344
 167   2.0000      -0.531002       -14.4493
 168   2.0000      -0.526048       -14.3145
 169   2.0000      -0.523625       -14.2486
 170   2.0000      -0.521931       -14.2025
 171   2.0000      -0.516799       -14.0628
 172   2.0000      -0.514627       -14.0037
 173   2.0000      -0.513589       -13.9755
 174   2.0000      -0.508235       -13.8298
 175   2.0000      -0.504578       -13.7303
 176   2.0000      -0.500338       -13.6149
 177   2.0000      -0.496204       -13.5024
 178   2.0000      -0.493156       -13.4195
 179   2.0000      -0.491457       -13.3732
 180   2.0000      -0.489647       -13.3240
 181   2.0000      -0.488470       -13.2920
 182   2.0000      -0.486570       -13.2402
 183   2.0000      -0.478748       -13.0274
 184   2.0000      -0.477768       -13.0007
 185   2.0000      -0.475145       -12.9294
 186   2.0000      -0.472101       -12.8465
 187   2.0000      -0.468887       -12.7591
 188   2.0000      -0.465606       -12.6698
 189   2.0000      -0.464576       -12.6418
 190   2.0000      -0.461027       -12.5452
 191   2.0000      -0.457994       -12.4626
 192   2.0000      -0.452005       -12.2997
 193   2.0000      -0.451003       -12.2724
 194   2.0000      -0.444114       -12.0850
 195   2.0000      -0.443730       -12.0745
 196   2.0000      -0.442991       -12.0544
 197   2.0000      -0.442086       -12.0298
 198   2.0000      -0.436626       -11.8812
 199   2.0000      -0.435498       -11.8505
 200   2.0000      -0.434672       -11.8280
 201   2.0000      -0.429076       -11.6758
 202   2.0000      -0.427111       -11.6223
 203   2.0000      -0.418960       -11.4005
 204   2.0000      -0.416363       -11.3298
 205   2.0000      -0.410346       -11.1661
 206   2.0000      -0.409396       -11.1402
 207   2.0000      -0.406998       -11.0750
 208   2.0000      -0.400473       -10.8974
 209   2.0000      -0.395009       -10.7487
 210   2.0000      -0.391539       -10.6543
 211   2.0000      -0.391010       -10.6399
 212   2.0000      -0.388753       -10.5785
 213   2.0000      -0.387541       -10.5455
 214   2.0000      -0.385191       -10.4816
 215   2.0000      -0.377873       -10.2824
 216   2.0000      -0.375255       -10.2112
 217   2.0000      -0.374676       -10.1955
 218   2.0000      -0.369234       -10.0474
 219   2.0000      -0.365871        -9.9558
 220   2.0000      -0.362452        -9.8628
 221   2.0000      -0.358808        -9.7637
 222   2.0000      -0.356876        -9.7111
 223   2.0000      -0.351994        -9.5783
 224   2.0000      -0.349630        -9.5139
 225   2.0000      -0.339844        -9.2476
 226   2.0000      -0.336345        -9.1524
 227   2.0000      -0.334941        -9.1142
 228   2.0000      -0.321850        -8.7580
 229   2.0000      -0.307492        -8.3673
 230   2.0000      -0.303712        -8.2644
 231   2.0000      -0.297954        -8.1078
 232   2.0000      -0.288546        -7.8517
 233   2.0000      -0.241421        -6.5694
 234   0.0000      -0.146509        -3.9867
 235   0.0000      -0.121526        -3.3069
 236   0.0000      -0.090428        -2.4607
 237   0.0000      -0.080148        -2.1810
 238   0.0000      -0.063916        -1.7393

MULLIKEN ATOMIC CHARGES
-----------------------
   0 C :   -0.009316
   1 N :   -0.050304
   2 N :   -0.035721
   3 C :   -0.124755
   4 C :    0.060017
   5 C :    0.036235
   6 N :   -0.255391
   7 S :    0.542495
   8 N :   -0.249620
   9 C :    0.059199
  10 C :    0.086183
  11 N :    0.272837
  12 O :   -0.242958
  13 O :   -0.248404
  14 C :    0.006077
  15 C :    0.028612
  16 C :    0.044748
  17 C :    0.027939
  18 C :    0.050245
  19 C :    0.017631
  20 C :    0.065443
  21 N :    0.279854
  22 O :   -0.246946
  23 O :   -0.264335
  24 C :    0.092510
  25 C :   -0.101518
  26 C :   -0.006720
  27 C :    0.142605
  28 N :   -0.247837
  29 C :    0.093424
  30 C :    0.005191
  31 C :    0.175371
  32 O :   -0.219533
  33 C :   -0.078176
  34 C :   -0.060094
  35 C :    0.166731
  36 O :   -0.189290
  37 N :   -0.255278
  38 C :    0.099265
  39 C :    0.000343
  40 C :    0.155730
  41 C :   -0.036366
  42 C :   -0.003237
  43 C :   -0.058408
  44 S :    0.213103
  45 C :   -0.149405
  46 C :    0.095729
  47 C :    0.118994
  48 C :   -0.056287
  49 C :   -0.061620
  50 C :   -0.174374
  51 N :    0.178632
  52 C :   -0.055814
  53 C :   -0.169102
  54 N :    0.182286
  55 C :   -0.044865
  56 C :    0.045237
  57 N :   -0.074539
  58 N :   -0.025651
  59 C :   -0.021050
  60 C :    0.063405
  61 C :   -0.015635
  62 N :   -0.294500
  63 S :    0.549649
  64 N :   -0.244517
  65 H :    0.006706
  66 H :   -0.004888
  67 H :   -0.003778
  68 H :   -0.008493
  69 H :    0.007972
  70 H :    0.037250
  71 H :    0.006351
  72 H :    0.045062
  73 H :    0.037216
  74 H :    0.022801
  75 H :    0.032897
  76 H :    0.024718
  77 H :    0.047938
  78 H :    0.024025
  79 H :    0.035067
  80 H :    0.029827
  81 H :    0.015530
  82 H :   -0.019444
  83 H :    0.022476
  84 H :    0.020454
  85 H :    0.023718
  86 H :    0.012442
Sum of atomic charges:    0.0000000

LOEWDIN ATOMIC CHARGES
----------------------
   0 C :    0.017027
   1 N :   -0.041667
   2 N :   -0.043889
   3 C :   -0.006671
   4 C :   -0.061095
   5 C :   -0.070046
   6 N :   -0.273632
   7 S :    0.685779
   8 N :   -0.275735
   9 C :   -0.007095
  10 C :   -0.014188
  11 N :    0.288969
  12 O :   -0.204068
  13 O :   -0.209720
  14 C :    0.003456
  15 C :   -0.019032
  16 C :    0.039552
  17 C :    0.069924
  18 C :   -0.030325
  19 C :    0.024413
  20 C :   -0.048540
  21 N :    0.287489
  22 O :   -0.210771
  23 O :   -0.225266
  24 C :    0.009125
  25 C :    0.006923
  26 C :   -0.004784
  27 C :    0.063759
  28 N :    0.010073
  29 C :    0.038883
  30 C :   -0.058441
  31 C :    0.079880
  32 O :   -0.207093
  33 C :   -0.115183
  34 C :   -0.098168
  35 C :    0.082942
  36 O :   -0.177514
  37 N :    0.002400
  38 C :    0.037540
  39 C :   -0.060101
  40 C :    0.081570
  41 C :   -0.051827
  42 C :    0.018097
  43 C :   -0.166965
  44 S :    0.539684
  45 C :   -0.174133
  46 C :   -0.024419
  47 C :   -0.028751
  48 C :    0.034170
  49 C :   -0.044698
  50 C :   -0.030892
  51 N :   -0.029362
  52 C :   -0.045944
  53 C :   -0.029939
  54 N :   -0.029367
  55 C :    0.040049
  56 C :   -0.019715
  57 N :   -0.050749
  58 N :   -0.029956
  59 C :    0.009091
  60 C :   -0.066481
  61 C :   -0.067170
  62 N :   -0.292864
  63 S :    0.680994
  64 N :   -0.261923
  65 H :    0.036162
  66 H :    0.035893
  67 H :    0.030244
  68 H :    0.028014
  69 H :    0.039521
  70 H :    0.040935
  71 H :    0.030250
  72 H :    0.038283
  73 H :    0.029426
  74 H :    0.029411
  75 H :    0.035806
  76 H :    0.025359
  77 H :    0.039467
  78 H :    0.023705
  79 H :    0.034692
  80 H :    0.033183
  81 H :    0.021819
  82 H :    0.024607
  83 H :    0.042948
  84 H :    0.051646
  85 H :    0.046510
  86 H :    0.038510

  Mayer bond orders larger than 0.100000
B(  0-C ,  1-N ) :   1.7230 B(  0-C ,  3-C ) :   0.1144 B(  0-C ,  5-C ) :   1.1295
B(  0-C , 65-H ) :   1.0175 B(  1-N ,  2-N ) :   1.1998 B(  2-N ,  3-C ) :   1.7237
B(  3-C ,  4-C ) :   1.1263 B(  3-C ,  9-C ) :   0.9960 B(  4-C ,  5-C ) :   1.2059
B(  4-C ,  8-N ) :   1.5416 B(  5-C ,  6-N ) :   1.4932 B(  6-N ,  7-S ) :   1.3040
B(  6-N ,  8-N ) :   0.1496 B(  7-S ,  8-N ) :   1.2902 B(  9-C , 10-C ) :   1.6188
B(  9-C , 16-C ) :   1.0991 B( 10-C , 11-N ) :   0.9283 B( 10-C , 14-C ) :   1.1235
B( 11-N , 12-O ) :   1.5292 B( 11-N , 13-O ) :   1.5113 B( 12-O , 13-O ) :   0.2685
B( 14-C , 15-C ) :   1.5887 B( 14-C , 66-H ) :   1.0156 B( 15-C , 16-C ) :   1.1072
B( 15-C , 67-H ) :   1.0031 B( 16-C , 17-C ) :   1.4850 B( 17-C , 18-C ) :   1.1500
B( 17-C , 24-C ) :   1.0101 B( 18-C , 19-C ) :   1.5503 B( 18-C , 68-H ) :   1.0004
B( 19-C , 20-C ) :   1.1475 B( 19-C , 69-H ) :   1.0060 B( 20-C , 21-N ) :   0.9714
B( 20-C , 24-C ) :   1.4207 B( 21-N , 22-O ) :   1.5361 B( 21-N , 23-O ) :   1.4512
B( 22-O , 23-O ) :   0.2455 B( 23-O , 71-H ) :   0.1026 B( 24-C , 25-C ) :   1.2147
B( 25-C , 26-C ) :   1.4942 B( 25-C , 70-H ) :   0.9408 B( 26-C , 27-C ) :   1.1985
B( 26-C , 71-H ) :   0.9471 B( 27-C , 28-N ) :   1.1518 B( 27-C , 34-C ) :   1.2692
B( 28-N , 29-C ) :   0.9326 B( 28-N , 31-C ) :   1.0949 B( 29-C , 30-C ) :   1.1254
B( 29-C , 72-H ) :   0.9287 B( 29-C , 73-H ) :   0.9481 B( 30-C , 74-H ) :   0.9628
B( 30-C , 75-H ) :   0.9671 B( 30-C , 76-H ) :   0.9662 B( 31-C , 32-O ) :   1.9856
B( 31-C , 33-C ) :   0.9886 B( 32-O , 83-H ) :   0.1163 B( 33-C , 34-C ) :   1.3171
B( 33-C , 40-C ) :   1.2723 B( 34-C , 35-C ) :   0.9737 B( 35-C , 36-O ) :   2.0325
B( 35-C , 37-N ) :   1.0608 B( 36-O , 70-H ) :   0.1016 B( 37-N , 38-C ) :   0.9428
B( 37-N , 40-C ) :   1.1627 B( 38-C , 39-C ) :   1.1188 B( 38-C , 77-H ) :   0.9289
B( 38-C , 78-H ) :   0.9498 B( 39-C , 79-H ) :   0.9641 B( 39-C , 80-H ) :   0.9680
B( 39-C , 81-H ) :   0.9690 B( 40-C , 41-C ) :   1.2137 B( 41-C , 42-C ) :   1.5003
B( 41-C , 82-H ) :   0.9685 B( 42-C , 43-C ) :   1.2386 B( 42-C , 83-H ) :   0.9430
B( 43-C , 44-S ) :   1.1141 B( 43-C , 45-C ) :   0.1071 B( 43-C , 47-C ) :   1.2509
B( 44-S , 45-C ) :   1.1947 B( 45-C , 46-C ) :   1.2835 B( 45-C , 56-C ) :   1.1830
B( 46-C , 47-C ) :   1.2064 B( 46-C , 55-C ) :   1.2351 B( 47-C , 48-C ) :   1.2272
B( 48-C , 49-C ) :   1.5353 B( 48-C , 84-H ) :   0.9937 B( 49-C , 50-C ) :   1.0852
B( 49-C , 52-C ) :   1.2538 B( 50-C , 51-N ) :   3.0425 B( 52-C , 53-C ) :   1.0835
B( 52-C , 55-C ) :   1.4950 B( 53-C , 54-N ) :   3.0462 B( 55-C , 85-H ) :   0.9901
B( 56-C , 57-N ) :   1.6765 B( 56-C , 59-C ) :   0.1008 B( 56-C , 61-C ) :   1.0831
B( 57-N , 58-N ) :   1.2093 B( 58-N , 59-C ) :   1.7223 B( 59-C , 60-C ) :   1.1244
B( 59-C , 86-H ) :   1.0170 B( 60-C , 61-C ) :   1.2079 B( 60-C , 64-N ) :   1.5018
B( 61-C , 62-N ) :   1.5245 B( 62-N , 63-S ) :   1.2577 B( 62-N , 64-N ) :   0.1459
B( 63-S , 64-N ) :   1.3062

-----------------------------------------------------------------------------
         ABSORPTION SPECTRUM VIA TRANSITION ELECTRIC DIPOLE MOMENTS
-----------------------------------------------------------------------------
State   Energy  Wavelength   fosc         T2         TX        TY        TZ
        (cm-1)    (nm)                  (au**2)     (au)      (au)      (au)
-----------------------------------------------------------------------------
   0    5728.8   1745.6   0.351871114  20.22077  -1.17830  -4.29183   0.64232
   1   12431.4    804.4   0.379580309  10.05214   0.38475   2.47772  -1.94037
   2   13928.3    718.0   0.004669316   0.11036   0.29767  -0.13251   0.06481
   3   14995.6    666.9   0.015356136   0.33713   0.08754   0.26093  -0.51125
   4   16694.1    599.0   0.080067847   1.57896   0.00676   0.99804  -0.76343
   5   18419.9    542.9   0.000315538   0.00564  -0.04881   0.05630  -0.00934
   6   18512.6    540.2   0.224949336   4.00029   0.38747   1.90457  -0.47201
   7   18729.9    533.9   0.016645466   0.29257  -0.01432  -0.40158   0.36209
   8   20304.6    492.5   0.005615675   0.09105   0.02220   0.18981   0.23352
   9   22066.3    453.2   0.097991820   1.46196  -0.14612  -0.71129  -0.96679
  10   23088.0    433.1   0.002319798   0.03308   0.09449   0.15263   0.02920
  11   23427.8    426.8   0.035886520   0.50428   0.19443   0.17097   0.66125
  12   23498.1    425.6   0.003709431   0.05197  -0.15573   0.10759  -0.12705
  13   24470.7    408.7   0.044203638   0.59468  -0.16243  -0.01777  -0.75365
  14   25354.3    394.4   0.158373112   2.05639   0.48336   0.36964   1.29851
  15   26044.2    384.0   0.166384418   2.10318   0.51193   0.70803   1.15750
  16   26212.3    381.5   0.014455751   0.18156  -0.25536   0.03358   0.33944
  17   26354.9    379.4   0.016878792   0.21084   0.22155   0.21282   0.34127
  18   27033.1    369.9   0.158128613   1.92571   0.07001  -1.38361  -0.08021
  19   27600.4    362.3   0.025931049   0.30930  -0.03198   0.43171  -0.34915
  20   27867.0    358.8   0.010404471   0.12291   0.26038  -0.12684   0.19755
  21   28211.3    354.5   0.011554492   0.13484   0.05596  -0.20106   0.30212
  22   28322.8    353.1   0.012374990   0.14384  -0.08167  -0.33345   0.16119
  23   28674.6    348.7   0.092353795   1.06031  -0.04220   0.37129  -0.95952
  24   28828.7    346.9   0.001041932   0.01190   0.10191  -0.03670  -0.01293
  25   28999.9    344.8   0.218769236   2.48351  -0.06577  -1.23269  -0.97962
  26   29624.7    337.6   0.407301717   4.52625   0.72407  -0.84875   1.81152
  27   30167.1    331.5   0.059362790   0.64782  -0.00255  -0.76512   0.24980
  28   30644.6    326.3   0.018898048   0.20302  -0.20266  -0.39604   0.07139
  29   30950.4    323.1   0.063792513   0.67855   0.25935   0.77821   0.07534
  30   31214.2    320.4   0.005822892   0.06141   0.24240  -0.00549   0.05124
  31   31658.7    315.9   0.026648682   0.27711  -0.13131   0.08768  -0.50218
  32   32022.6    312.3   0.054396399   0.55923  -0.05243  -0.71831  -0.20128
  33   32354.5    309.1   0.099364470   1.01105  -0.41394  -0.14529  -0.90476
  34   32559.0    307.1   0.077352825   0.78213   0.05886   0.80460   0.36234
  35   33031.2    302.7   0.008380094   0.08352  -0.11094   0.10908   0.24355
  36   33069.1    302.4   0.000185642   0.00185  -0.02067  -0.02921  -0.02383
  37   33311.0    300.2   0.001571751   0.01553   0.11527  -0.04596  -0.01154
  38   33377.2    299.6   0.022386404   0.22081  -0.20075  -0.24897  -0.34426
  39   33494.9    298.6   0.020293247   0.19946   0.02812   0.03050   0.44467
  40   33608.4    297.5   0.144439163   1.41486  -0.05890   0.43515  -1.10546
  41   33838.7    295.5   0.010463044   0.10179  -0.04545  -0.17061  -0.26574
  42   34036.9    293.8   0.011452183   0.11077   0.09426   0.31893   0.01281
  43   34083.2    293.4   0.008145894   0.07868  -0.09656  -0.04776   0.25899
  44   34267.2    291.8   0.203248900   1.95265  -0.32924  -0.71454  -1.15485
  45   34564.7    289.3   0.014599617   0.13905  -0.06968  -0.36167   0.05827
  46   35067.9    285.2   0.008948851   0.08401   0.08720  -0.06730   0.26810
  47   35221.1    283.9   0.094705115   0.88521   0.24564  -0.18677   0.88881
  48   35392.6    282.5   0.020977058   0.19512   0.02561  -0.27955   0.34105
  49   35738.7    279.8   0.030998874   0.28555   0.13933  -0.23206   0.46075
  50   36003.6    277.7   0.067298626   0.61537  -0.36601   0.32581  -0.61258
  51   36134.4    276.7   0.034287738   0.31239  -0.06783  -0.08897  -0.54760
  52   36453.3    274.3   0.003794051   0.03426   0.18248  -0.00299   0.03091
  53   36906.3    271.0   0.003690369   0.03292  -0.14420  -0.05174   0.09721
  54   36958.7    270.6   0.013365507   0.11905  -0.11867  -0.24756  -0.20901
  55   37210.3    268.7   0.047725358   0.42224   0.10279  -0.56418   0.30558
  56   37264.0    268.4   0.005871454   0.05187   0.22054  -0.05049  -0.02617
  57   37455.9    267.0   0.036804601   0.32349   0.07423  -0.31528   0.46752
  58   37683.1    265.4   0.042891843   0.37472   0.03919   0.51412   0.32993
  59   37956.4    263.5   0.009708961   0.08421   0.16078   0.23509   0.05559
  60   38061.5    262.7   0.001613342   0.01395  -0.11093   0.01111  -0.03905
  61   38153.4    262.1   0.004706334   0.04061  -0.02095  -0.19804   0.03082
  62   38214.5    261.7   0.008229595   0.07090  -0.05995   0.25910  -0.01300
  63   38548.1    259.4   0.058412953   0.49886   0.33727  -0.33149   0.52462
  64   38562.6    259.3   0.011163926   0.09531  -0.03641  -0.08210   0.29537
  65   38834.1    257.5   0.014680037   0.12445   0.13223  -0.21129  -0.24963
  66   38966.8    256.6   0.056647279   0.47859  -0.13491  -0.13489  -0.66497
  67   39914.4    250.5   0.023003860   0.18973   0.27451   0.32507   0.09333
  68   40011.0    249.9   0.019660989   0.16177  -0.02629   0.24402  -0.31864
  69   40209.5    248.7   0.074451368   0.60956   0.10964   0.74749  -0.19698
  70   40312.5    248.1   0.007179811   0.05863   0.01802  -0.00652  -0.24138

FINAL SINGLE POINT ENERGY     -4021.897691088063

DIPOLE MOMENT
-------------
                                X             Y             Z
Electronic contribution:      9.20725      -8.17188      22.69090
Nuclear contribution   :     -7.91518       9.01948     -18.51848
                        -----------------------------------------
Total Dipole Moment    :      1.29207       0.84760       4.17242
                        -----------------------------------------
Magnitude (a.u.)       :      4.44937
Magnitude (Debye)      :     11.30941

Rotational constants in cm-1:     0.001806     0.000414     0.000345
Rotational constants in MHz :    54.151478    12.402303    10.338958

                             ****ORCA TERMINATED NORMALLY****
TOTAL RUN TIME: 0 days 0 hours 10 minutes 18 seconds 952 msec
