                         Program Version 4.2.0 -  RELEASE  -
|  1> # ORCA input file
|  2> # SCF done       -179.549091753801          0.000957666749
|  3> ! CAM-B3LYP def2-SVP def2/J RIJCOSX Grid4 TightSCF
|  4> %maxcore 5000
|  5> %tddft
|  6>     Mode sTDDFT
|  7>     Ethresh 5.0
|  8>     maxcore 5000
|  9> end
| 10>
| 11> %pal
| 12>   nprocs 6
| 13>   end
| 14> * xyz 0 1
| 15>    C       -2.21725        -0.64855         7.72054
| 16>    N       -2.05920        -1.62092         6.86637
| 17>    N       -1.16827        -2.54811         6.98556
| 18>    C       -0.26128        -2.56664         7.94512
| 19>    C       -0.27770        -1.51125         8.89785
| 20>    C       -1.33234        -0.54461         8.81321
| 21>    N       -1.25006         0.36452         9.78541
| 22>    S        0.03281         0.03257        10.68669
| 23>    N        0.56158        -1.25743         9.89890
| 24>    C        0.67765        -3.65133         8.04374
| 25>    C        0.95490        -4.39630         9.17650
| 26>    N        0.36924        -4.26436        10.44925
| 27>    O        0.92702        -4.81293        11.38091
| 28>    O       -0.66541        -3.62335        10.54788
| 29>    C        1.89834        -5.42662         8.84382
| 30>    C        2.14795        -5.36167         7.50862
| 31>    C        1.41840        -4.25986         6.94934
| 32>    C        1.47285        -3.77946         5.64877
| 33>    C        1.29848        -2.43348         5.23809
| 34>    C        1.68232        -2.32129         3.92986
| 35>    C        2.08089        -3.59574         3.43524
| 36>    N        2.50848        -3.71597         2.10687
| 37>    O        2.30471        -2.76738         1.36886
| 38>    O        3.08861        -4.73310         1.73672
| 39>    C        1.91124        -4.55107         4.46603
| 40>    C        1.88073        -5.94471         4.47822
| 41>    C        2.35777        -6.80165         3.50569
| 42>    C        2.27747        -8.18248         3.56183
| 43>    S        1.46665        -9.11439         4.81177
| 44>    C        1.90859       -10.66599         4.11499
| 45>    C        2.66254       -10.45887         2.93295
| 46>    C        2.84124        -9.08501         2.64287
| 47>    N        3.55126        -8.96748         1.50092
| 48>    C        3.83317       -10.23305         1.04293
| 49>    C        4.55570       -10.44980        -0.14091
| 50>    N        5.13767       -10.62626        -1.11265
| 51>    C        3.29886       -11.18000         1.90218
| 52>    C        1.48679       -11.83687         4.72210
| 53>    C        1.92958       -13.09036         4.33272
| 54>    C        1.50501       -14.31009         4.84541
| 55>    C        2.22913       -15.52201         4.79535
| 56>    N        3.40772       -15.79178         4.08634
| 57>    O        3.91601       -16.88884         4.23785
| 58>    O        3.85632       -14.93033         3.33949
| 59>    C        1.59902       -16.46905         5.64103
| 60>    C        0.49038       -15.89562         6.21128
| 61>    C        0.33437       -14.57840         5.70095
| 62>    C       -0.81637       -13.80359         5.76318
| 63>    C       -1.29415       -12.96304         4.70248
| 64>    C       -2.58094       -12.60857         4.96475
| 65>    C       -2.95244       -13.15324         6.23683
| 66>    N       -4.21152       -12.91636         6.81772
| 67>    O       -4.42568       -13.31766         7.95068
| 68>    O       -5.03119       -12.31989         6.14098
| 69>    C       -1.88586       -13.88447         6.75898
| 70>    C       -1.82747       -14.46333         8.05377
| 71>    C       -0.69772       -14.66596         8.77304
| 72>    C       -0.69698       -15.21599        10.09413
| 73>    N        0.45822       -15.23937        10.74318
| 74>    N        0.60027       -15.67536        11.95057
| 75>    C       -0.38663       -16.13057        12.67399
| 76>    C       -1.68192       -16.18214        12.11936
| 77>    C       -1.84845       -15.72339        10.76847
| 78>    N       -3.10557       -15.85287        10.35477
| 79>    S       -3.98660       -16.46520        11.54848
| 80>    N       -2.82750       -16.61566        12.64597
| 81>    H       -3.01763         0.05180         7.54484
| 82>    H        2.30342        -6.11484         9.56058
| 83>    H        2.86223        -5.95636         6.97300
| 84>    H        1.01756        -1.62066         5.87713
| 85>    H        1.71037        -1.42584         3.33729
| 86>    H        1.43162        -6.39786         5.35351
| 87>    H        2.86004        -6.38255         2.64466
| 88>    H        3.81967        -8.10820         1.04595
| 89>    H        3.38073       -12.24064         1.77458
| 90>    H        0.81498       -11.74420         5.56487
| 91>    H        2.75253       -13.13805         3.63395
| 92>    H        1.95321       -17.47287         5.78248
| 93>    H       -0.21813       -16.39302         6.84409
| 94>    H       -0.75438       -12.76392         3.79723
| 95>    H       -3.24103       -12.02635         4.35078
| 96>    H       -2.78250       -14.67844         8.51924
| 97>    H        0.27407       -14.36637         8.40657
| 98>    H       -0.16788       -16.45733        13.67765
| 99> *
|100>
|101>                          ****END OF INPUT****

CARTESIAN COORDINATES (ANGSTROEM)
---------------------------------
  C     -2.217250   -0.648550    7.720540
  N     -2.059200   -1.620920    6.866370
  N     -1.168270   -2.548110    6.985560
  C     -0.261280   -2.566640    7.945120
  C     -0.277700   -1.511250    8.897850
  C     -1.332340   -0.544610    8.813210
  N     -1.250060    0.364520    9.785410
  S      0.032810    0.032570   10.686690
  N      0.561580   -1.257430    9.898900
  C      0.677650   -3.651330    8.043740
  C      0.954900   -4.396300    9.176500
  N      0.369240   -4.264360   10.449250
  O      0.927020   -4.812930   11.380910
  O     -0.665410   -3.623350   10.547880
  C      1.898340   -5.426620    8.843820
  C      2.147950   -5.361670    7.508620
  C      1.418400   -4.259860    6.949340
  C      1.472850   -3.779460    5.648770
  C      1.298480   -2.433480    5.238090
  C      1.682320   -2.321290    3.929860
  C      2.080890   -3.595740    3.435240
  N      2.508480   -3.715970    2.106870
  O      2.304710   -2.767380    1.368860
  O      3.088610   -4.733100    1.736720
  C      1.911240   -4.551070    4.466030
  C      1.880730   -5.944710    4.478220
  C      2.357770   -6.801650    3.505690
  C      2.277470   -8.182480    3.561830
  S      1.466650   -9.114390    4.811770
  C      1.908590  -10.665990    4.114990
  C      2.662540  -10.458870    2.932950
  C      2.841240   -9.085010    2.642870
  N      3.551260   -8.967480    1.500920
  C      3.833170  -10.233050    1.042930
  C      4.555700  -10.449800   -0.140910
  N      5.137670  -10.626260   -1.112650
  C      3.298860  -11.180000    1.902180
  C      1.486790  -11.836870    4.722100
  C      1.929580  -13.090360    4.332720
  C      1.505010  -14.310090    4.845410
  C      2.229130  -15.522010    4.795350
  N      3.407720  -15.791780    4.086340
  O      3.916010  -16.888840    4.237850
  O      3.856320  -14.930330    3.339490
  C      1.599020  -16.469050    5.641030
  C      0.490380  -15.895620    6.211280
  C      0.334370  -14.578400    5.700950
  C     -0.816370  -13.803590    5.763180
  C     -1.294150  -12.963040    4.702480
  C     -2.580940  -12.608570    4.964750
  C     -2.952440  -13.153240    6.236830
  N     -4.211520  -12.916360    6.817720
  O     -4.425680  -13.317660    7.950680
  O     -5.031190  -12.319890    6.140980
  C     -1.885860  -13.884470    6.758980
  C     -1.827470  -14.463330    8.053770
  C     -0.697720  -14.665960    8.773040
  C     -0.696980  -15.215990   10.094130
  N      0.458220  -15.239370   10.743180
  N      0.600270  -15.675360   11.950570
  C     -0.386630  -16.130570   12.673990
  C     -1.681920  -16.182140   12.119360
  C     -1.848450  -15.723390   10.768470
  N     -3.105570  -15.852870   10.354770
  S     -3.986600  -16.465200   11.548480
  N     -2.827500  -16.615660   12.645970
  H     -3.017630    0.051800    7.544840
  H      2.303420   -6.114840    9.560580
  H      2.862230   -5.956360    6.973000
  H      1.017560   -1.620660    5.877130
  H      1.710370   -1.425840    3.337290
  H      1.431620   -6.397860    5.353510
  H      2.860040   -6.382550    2.644660
  H      3.819670   -8.108200    1.045950
  H      3.380730  -12.240640    1.774580
  H      0.814980  -11.744200    5.564870
  H      2.752530  -13.138050    3.633950
  H      1.953210  -17.472870    5.782480
  H     -0.218130  -16.393020    6.844090
  H     -0.754380  -12.763920    3.797230
  H     -3.241030  -12.026350    4.350780
  H     -2.782500  -14.678440    8.519240
  H      0.274070  -14.366370    8.406570
  H     -0.167880  -16.457330   13.677650

 Total Charge           Charge          ....    0
 Multiplicity           Mult            ....    1
 Number of Electrons    NEL             ....  474
 Basis Dimension        Dim             .... 1026

ORBITAL ENERGIES
----------------

  NO   OCC          E(Eh)            E(eV)
   0   2.0000     -89.050630     -2423.1908
   1   2.0000     -89.045679     -2423.0561
   2   2.0000     -89.000845     -2421.8361
   3   2.0000     -19.245181      -523.6880
   4   2.0000     -19.243440      -523.6406
   5   2.0000     -19.243158      -523.6330
   6   2.0000     -19.242841      -523.6243
   7   2.0000     -19.242572      -523.6170
   8   2.0000     -19.241981      -523.6009
   9   2.0000     -19.241817      -523.5965
  10   2.0000     -19.239436      -523.5317
  11   2.0000     -14.652195      -398.7065
  12   2.0000     -14.652049      -398.7025
  13   2.0000     -14.651657      -398.6919
  14   2.0000     -14.650632      -398.6640
  15   2.0000     -14.512596      -394.9078
  16   2.0000     -14.463566      -393.5736
  17   2.0000     -14.463001      -393.5583
  18   2.0000     -14.456989      -393.3947
  19   2.0000     -14.456622      -393.3847
  20   2.0000     -14.447466      -393.1355
  21   2.0000     -14.446200      -393.1011
  22   2.0000     -14.446175      -393.1004
  23   2.0000     -14.444198      -393.0466
  24   2.0000     -14.435495      -392.8098
  25   2.0000     -10.376488      -282.3586
  26   2.0000     -10.359445      -281.8948
  27   2.0000     -10.356894      -281.8254
  28   2.0000     -10.350040      -281.6389
  29   2.0000     -10.347264      -281.5634
  30   2.0000     -10.345992      -281.5288
  31   2.0000     -10.344933      -281.4999
  32   2.0000     -10.343103      -281.4501
  33   2.0000     -10.342811      -281.4422
  34   2.0000     -10.340852      -281.3889
  35   2.0000     -10.339667      -281.3566
  36   2.0000     -10.338943      -281.3370
  37   2.0000     -10.337987      -281.3109
  38   2.0000     -10.337936      -281.3095
  39   2.0000     -10.337134      -281.2877
  40   2.0000     -10.336265      -281.2641
  41   2.0000     -10.334776      -281.2235
  42   2.0000     -10.333550      -281.1902
  43   2.0000     -10.332874      -281.1718
  44   2.0000     -10.331702      -281.1399
  45   2.0000     -10.331476      -281.1338
  46   2.0000     -10.330493      -281.1070
  47   2.0000     -10.329652      -281.0841
  48   2.0000     -10.326930      -281.0101
  49   2.0000     -10.325393      -280.9682
  50   2.0000     -10.322438      -280.8878
  51   2.0000     -10.322159      -280.8802
  52   2.0000     -10.319113      -280.7973
  53   2.0000     -10.318424      -280.7786
  54   2.0000     -10.317293      -280.7478
  55   2.0000     -10.316117      -280.7158
  56   2.0000     -10.310394      -280.5601
  57   2.0000     -10.305291      -280.4212
  58   2.0000     -10.303523      -280.3731
  59   2.0000     -10.301899      -280.3289
  60   2.0000     -10.301065      -280.3062
  61   2.0000     -10.300500      -280.2909
  62   2.0000     -10.296573      -280.1840
  63   2.0000     -10.296291      -280.1763
  64   2.0000     -10.293410      -280.0979
  65   2.0000     -10.286627      -279.9134
  66   2.0000      -8.142306      -221.5634
  67   2.0000      -8.137367      -221.4290
  68   2.0000      -8.095435      -220.2880
  69   2.0000      -6.113357      -166.3529
  70   2.0000      -6.108312      -166.2156
  71   2.0000      -6.105466      -166.1382
  72   2.0000      -6.105132      -166.1291
  73   2.0000      -6.100528      -166.0038
  74   2.0000      -6.100298      -165.9976
  75   2.0000      -6.064771      -165.0308
  76   2.0000      -6.060698      -164.9200
  77   2.0000      -6.057485      -164.8325
  78   2.0000      -1.322713       -35.9928
  79   2.0000      -1.322251       -35.9803
  80   2.0000      -1.320724       -35.9387
  81   2.0000      -1.318957       -35.8906
  82   2.0000      -1.153593       -31.3909
  83   2.0000      -1.150228       -31.2993
  84   2.0000      -1.139874       -31.0175
  85   2.0000      -1.139072       -30.9957
  86   2.0000      -1.137788       -30.9608
  87   2.0000      -1.135830       -30.9075
  88   2.0000      -1.134776       -30.8788
  89   2.0000      -1.127027       -30.6680
  90   2.0000      -1.126549       -30.6550
  91   2.0000      -1.029199       -28.0059
  92   2.0000      -1.024675       -27.8828
  93   2.0000      -1.020851       -27.7788
  94   2.0000      -1.011982       -27.5374
  95   2.0000      -1.007197       -27.4072
  96   2.0000      -1.005506       -27.3612
  97   2.0000      -1.003688       -27.3117
  98   2.0000      -0.994595       -27.0643
  99   2.0000      -0.954128       -25.9632
 100   2.0000      -0.950031       -25.8517
 101   2.0000      -0.938061       -25.5259
 102   2.0000      -0.925456       -25.1829
 103   2.0000      -0.922486       -25.1021
 104   2.0000      -0.919626       -25.0243
 105   2.0000      -0.919365       -25.0172
 106   2.0000      -0.915833       -24.9211
 107   2.0000      -0.911741       -24.8097
 108   2.0000      -0.897792       -24.4302
 109   2.0000      -0.888586       -24.1796
 110   2.0000      -0.886786       -24.1307
 111   2.0000      -0.882627       -24.0175
 112   2.0000      -0.867387       -23.6028
 113   2.0000      -0.844678       -22.9848
 114   2.0000      -0.841172       -22.8894
 115   2.0000      -0.832494       -22.6533
 116   2.0000      -0.815461       -22.1898
 117   2.0000      -0.808442       -21.9988
 118   2.0000      -0.786657       -21.4060
 119   2.0000      -0.784174       -21.3384
 120   2.0000      -0.777868       -21.1669
 121   2.0000      -0.770818       -20.9750
 122   2.0000      -0.746885       -20.3238
 123   2.0000      -0.745446       -20.2846
 124   2.0000      -0.744659       -20.2632
 125   2.0000      -0.740941       -20.1620
 126   2.0000      -0.737320       -20.0635
 127   2.0000      -0.735764       -20.0212
 128   2.0000      -0.730149       -19.8684
 129   2.0000      -0.717160       -19.5149
 130   2.0000      -0.711177       -19.3521
 131   2.0000      -0.690490       -18.7892
 132   2.0000      -0.685832       -18.6624
 133   2.0000      -0.680085       -18.5061
 134   2.0000      -0.677508       -18.4359
 135   2.0000      -0.667191       -18.1552
 136   2.0000      -0.660526       -17.9738
 137   2.0000      -0.657879       -17.9018
 138   2.0000      -0.651228       -17.7208
 139   2.0000      -0.645290       -17.5592
 140   2.0000      -0.642946       -17.4955
 141   2.0000      -0.640128       -17.4188
 142   2.0000      -0.637305       -17.3420
 143   2.0000      -0.633650       -17.2425
 144   2.0000      -0.633119       -17.2281
 145   2.0000      -0.632669       -17.2158
 146   2.0000      -0.631538       -17.1850
 147   2.0000      -0.629159       -17.1203
 148   2.0000      -0.625825       -17.0296
 149   2.0000      -0.624178       -16.9847
 150   2.0000      -0.616883       -16.7862
 151   2.0000      -0.613265       -16.6878
 152   2.0000      -0.607670       -16.5355
 153   2.0000      -0.606236       -16.4965
 154   2.0000      -0.603329       -16.4174
 155   2.0000      -0.591400       -16.0928
 156   2.0000      -0.589748       -16.0478
 157   2.0000      -0.585282       -15.9263
 158   2.0000      -0.583358       -15.8740
 159   2.0000      -0.578511       -15.7421
 160   2.0000      -0.578400       -15.7391
 161   2.0000      -0.576868       -15.6974
 162   2.0000      -0.570196       -15.5158
 163   2.0000      -0.567998       -15.4560
 164   2.0000      -0.565817       -15.3967
 165   2.0000      -0.565010       -15.3747
 166   2.0000      -0.562590       -15.3089
 167   2.0000      -0.559842       -15.2341
 168   2.0000      -0.552853       -15.0439
 169   2.0000      -0.550393       -14.9770
 170   2.0000      -0.544223       -14.8091
 171   2.0000      -0.541167       -14.7259
 172   2.0000      -0.537201       -14.6180
 173   2.0000      -0.527959       -14.3665
 174   2.0000      -0.523664       -14.2496
 175   2.0000      -0.516726       -14.0608
 176   2.0000      -0.516271       -14.0484
 177   2.0000      -0.514294       -13.9946
 178   2.0000      -0.512143       -13.9361
 179   2.0000      -0.508669       -13.8416
 180   2.0000      -0.505430       -13.7534
 181   2.0000      -0.501403       -13.6439
 182   2.0000      -0.499404       -13.5895
 183   2.0000      -0.496678       -13.5153
 184   2.0000      -0.495122       -13.4729
 185   2.0000      -0.493825       -13.4377
 186   2.0000      -0.491443       -13.3728
 187   2.0000      -0.489245       -13.3130
 188   2.0000      -0.488481       -13.2923
 189   2.0000      -0.485463       -13.2101
 190   2.0000      -0.484680       -13.1888
 191   2.0000      -0.472420       -12.8552
 192   2.0000      -0.469361       -12.7720
 193   2.0000      -0.465898       -12.6777
 194   2.0000      -0.462783       -12.5930
 195   2.0000      -0.461268       -12.5517
 196   2.0000      -0.454605       -12.3704
 197   2.0000      -0.450663       -12.2632
 198   2.0000      -0.446820       -12.1586
 199   2.0000      -0.441760       -12.0209
 200   2.0000      -0.440668       -11.9912
 201   2.0000      -0.437210       -11.8971
 202   2.0000      -0.434675       -11.8281
 203   2.0000      -0.430280       -11.7085
 204   2.0000      -0.402673       -10.9573
 205   2.0000      -0.399060       -10.8590
 206   2.0000      -0.397375       -10.8131
 207   2.0000      -0.396097       -10.7783
 208   2.0000      -0.393548       -10.7090
 209   2.0000      -0.392501       -10.6805
 210   2.0000      -0.391001       -10.6397
 211   2.0000      -0.390270       -10.6198
 212   2.0000      -0.389935       -10.6107
 213   2.0000      -0.385723       -10.4960
 214   2.0000      -0.385121       -10.4797
 215   2.0000      -0.381914       -10.3924
 216   2.0000      -0.380472       -10.3532
 217   2.0000      -0.380303       -10.3486
 218   2.0000      -0.378975       -10.3124
 219   2.0000      -0.377743       -10.2789
 220   2.0000      -0.375699       -10.2233
 221   2.0000      -0.369701       -10.0601
 222   2.0000      -0.368619       -10.0306
 223   2.0000      -0.366520        -9.9735
 224   2.0000      -0.361305        -9.8316
 225   2.0000      -0.353319        -9.6143
 226   2.0000      -0.350931        -9.5493
 227   2.0000      -0.349030        -9.4976
 228   2.0000      -0.344580        -9.3765
 229   2.0000      -0.341110        -9.2821
 230   2.0000      -0.330422        -8.9912
 231   2.0000      -0.310624        -8.4525
 232   2.0000      -0.304486        -8.2855
 233   2.0000      -0.303015        -8.2455
 234   2.0000      -0.299474        -8.1491
 235   2.0000      -0.288351        -7.8464
 236   2.0000      -0.250435        -6.8147
 237   0.0000      -0.162592        -4.4243
 238   0.0000      -0.133612        -3.6358
 239   0.0000      -0.101184        -2.7533
 240   0.0000      -0.086705        -2.3594
 241   0.0000      -0.080566        -2.1923

MULLIKEN ATOMIC CHARGES
-----------------------
   0 C :   -0.004474
   1 N :   -0.050693
   2 N :   -0.032245
   3 C :   -0.132806
   4 C :    0.059780
   5 C :    0.034924
   6 N :   -0.254802
   7 S :    0.544885
   8 N :   -0.249356
   9 C :    0.068287
  10 C :    0.082843
  11 N :    0.273280
  12 O :   -0.239464
  13 O :   -0.247568
  14 C :    0.001325
  15 C :   -0.017985
  16 C :    0.042731
  17 C :    0.043342
  18 C :    0.029632
  19 C :    0.026928
  20 C :    0.053480
  21 N :    0.284935
  22 O :   -0.249375
  23 O :   -0.284144
  24 C :    0.094584
  25 C :   -0.100864
  26 C :   -0.011984
  27 C :   -0.090670
  28 S :    0.172303
  29 C :   -0.131081
  30 C :    0.131352
  31 C :    0.089586
  32 N :   -0.007102
  33 C :   -0.097112
  34 C :   -0.143963
  35 N :    0.187137
  36 C :   -0.033872
  37 C :    0.053685
  38 C :   -0.062549
  39 C :    0.048089
  40 C :    0.087748
  41 N :    0.278120
  42 O :   -0.243461
  43 O :   -0.267172
  44 C :    0.023702
  45 C :   -0.001928
  46 C :    0.032718
  47 C :    0.014830
  48 C :   -0.005382
  49 C :    0.010800
  50 C :    0.093884
  51 N :    0.269414
  52 O :   -0.244192
  53 O :   -0.243336
  54 C :    0.047316
  55 C :   -0.020761
  56 C :   -0.018336
  57 C :   -0.032276
  58 N :   -0.051393
  59 N :   -0.039691
  60 C :   -0.006984
  61 C :    0.049043
  62 C :    0.033638
  63 N :   -0.266865
  64 S :    0.549719
  65 N :   -0.252362
  66 H :    0.008488
  67 H :    0.002279
  68 H :   -0.003170
  69 H :   -0.007585
  70 H :    0.011084
  71 H :    0.013259
  72 H :    0.015910
  73 H :    0.153815
  74 H :    0.021884
  75 H :    0.012094
  76 H :    0.020269
  77 H :    0.010851
  78 H :    0.005267
  79 H :    0.001047
  80 H :    0.007049
  81 H :    0.046829
  82 H :   -0.004017
  83 H :    0.006854
Sum of atomic charges:   -0.0000000

LOEWDIN ATOMIC CHARGES
----------------------
   0 C :    0.019280
   1 N :   -0.041780
   2 N :   -0.044700
   3 C :   -0.008556
   4 C :   -0.061515
   5 C :   -0.069964
   6 N :   -0.272651
   7 S :    0.688505
   8 N :   -0.276261
   9 C :   -0.002892
  10 C :   -0.022091
  11 N :    0.288446
  12 O :   -0.201185
  13 O :   -0.209158
  14 C :    0.004617
  15 C :   -0.042862
  16 C :    0.023280
  17 C :    0.073194
  18 C :   -0.043113
  19 C :    0.038762
  20 C :   -0.069335
  21 N :    0.289161
  22 O :   -0.212877
  23 O :   -0.242962
  24 C :    0.019950
  25 C :   -0.028586
  26 C :    0.005882
  27 C :   -0.180258
  28 S :    0.465226
  29 C :   -0.138670
  30 C :   -0.059214
  31 C :    0.009796
  32 N :    0.099632
  33 C :   -0.015284
  34 C :   -0.045572
  35 N :   -0.017142
  36 C :   -0.022882
  37 C :   -0.014112
  38 C :   -0.000016
  39 C :    0.005575
  40 C :   -0.053827
  41 N :    0.286797
  42 O :   -0.208282
  43 O :   -0.232635
  44 C :    0.029423
  45 C :   -0.038909
  46 C :    0.047020
  47 C :    0.032991
  48 C :   -0.041843
  49 C :    0.004037
  50 C :   -0.035355
  51 N :    0.284434
  52 O :   -0.209172
  53 O :   -0.208344
  54 C :   -0.001149
  55 C :   -0.000064
  56 C :   -0.006926
  57 C :   -0.008111
  58 N :   -0.050673
  59 N :   -0.037958
  60 C :    0.014658
  61 C :   -0.070444
  62 C :   -0.056252
  63 N :   -0.267420
  64 S :    0.684876
  65 N :   -0.268904
  66 H :    0.036908
  67 H :    0.038365
  68 H :    0.029081
  69 H :    0.028175
  70 H :    0.040876
  71 H :    0.032030
  72 H :    0.031144
  73 H :    0.110743
  74 H :    0.045489
  75 H :    0.037289
  76 H :    0.038452
  77 H :    0.042245
  78 H :    0.033326
  79 H :    0.030956
  80 H :    0.039375
  81 H :    0.037914
  82 H :    0.035400
  83 H :    0.036599

  Mayer bond orders larger than 0.100000
B(  0-C ,  1-N ) :   1.7203 B(  0-C ,  3-C ) :   0.1154 B(  0-C ,  5-C ) :   1.1314
B(  0-C , 66-H ) :   1.0172 B(  1-N ,  2-N ) :   1.2015 B(  2-N ,  3-C ) :   1.7276
B(  3-C ,  4-C ) :   1.1313 B(  3-C ,  9-C ) :   0.9880 B(  4-C ,  5-C ) :   1.2075
B(  4-C ,  8-N ) :   1.5415 B(  5-C ,  6-N ) :   1.4907 B(  6-N ,  7-S ) :   1.3067
B(  6-N ,  8-N ) :   0.1496 B(  7-S ,  8-N ) :   1.2919 B(  9-C , 10-C ) :   1.6178
B(  9-C , 16-C ) :   1.1102 B( 10-C , 11-N ) :   0.9279 B( 10-C , 14-C ) :   1.1293
B( 11-N , 12-O ) :   1.5316 B( 11-N , 13-O ) :   1.5095 B( 12-O , 13-O ) :   0.2687
B( 14-C , 15-C ) :   1.5772 B( 14-C , 67-H ) :   1.0165 B( 15-C , 16-C ) :   1.1069
B( 15-C , 68-H ) :   1.0048 B( 16-C , 17-C ) :   1.4580 B( 17-C , 18-C ) :   1.1782
B( 17-C , 24-C ) :   1.0025 B( 18-C , 19-C ) :   1.5243 B( 18-C , 69-H ) :   1.0012
B( 19-C , 20-C ) :   1.1588 B( 19-C , 70-H ) :   1.0055 B( 20-C , 21-N ) :   0.9880
B( 20-C , 24-C ) :   1.3765 B( 21-N , 22-O ) :   1.5377 B( 21-N , 23-O ) :   1.4311
B( 22-O , 23-O ) :   0.2346 B( 23-O , 72-H ) :   0.1234 B( 24-C , 25-C ) :   1.2798
B( 25-C , 26-C ) :   1.4444 B( 25-C , 71-H ) :   0.9634 B( 26-C , 27-C ) :   1.2776
B( 26-C , 72-H ) :   0.9494 B( 27-C , 28-S ) :   1.0737 B( 27-C , 31-C ) :   1.2733
B( 28-S , 29-C ) :   1.1278 B( 29-C , 30-C ) :   1.2032 B( 29-C , 37-C ) :   1.2925
B( 30-C , 31-C ) :   1.2660 B( 30-C , 36-C ) :   1.2077 B( 31-C , 32-N ) :   1.2285
B( 32-N , 33-C ) :   1.2157 B( 32-N , 73-H ) :   0.9268 B( 33-C , 34-C ) :   1.0616
B( 33-C , 36-C ) :   1.5594 B( 34-C , 35-N ) :   3.0549 B( 36-C , 74-H ) :   1.0072
B( 37-C , 38-C ) :   1.4212 B( 37-C , 75-H ) :   0.9483 B( 38-C , 39-C ) :   1.3008
B( 38-C , 76-H ) :   0.9520 B( 39-C , 40-C ) :   1.4011 B( 39-C , 46-C ) :   0.9953
B( 40-C , 41-N ) :   0.9676 B( 40-C , 44-C ) :   1.1782 B( 41-N , 42-O ) :   1.5353
B( 41-N , 43-O ) :   1.4740 B( 42-O , 43-O ) :   0.2524 B( 44-C , 45-C ) :   1.5008
B( 44-C , 77-H ) :   1.0109 B( 45-C , 46-C ) :   1.1970 B( 45-C , 78-H ) :   1.0021
B( 46-C , 47-C ) :   1.4422 B( 47-C , 48-C ) :   1.1433 B( 47-C , 54-C ) :   1.0355
B( 48-C , 49-C ) :   1.5619 B( 48-C , 79-H ) :   0.9980 B( 49-C , 50-C ) :   1.1396
B( 49-C , 80-H ) :   1.0135 B( 50-C , 51-N ) :   0.9422 B( 50-C , 54-C ) :   1.5099
B( 51-N , 52-O ) :   1.4997 B( 51-N , 53-O ) :   1.5333 B( 52-O , 53-O ) :   0.2654
B( 54-C , 55-C ) :   1.1435 B( 55-C , 56-C ) :   1.5777 B( 55-C , 81-H ) :   0.9287
B( 56-C , 57-C ) :   1.1478 B( 56-C , 82-H ) :   0.9657 B( 57-C , 58-N ) :   1.6758
B( 57-C , 60-C ) :   0.1109 B( 57-C , 62-C ) :   1.0901 B( 58-N , 59-N ) :   1.2092
B( 59-N , 60-C ) :   1.7144 B( 60-C , 61-C ) :   1.1344 B( 60-C , 83-H ) :   1.0162
B( 61-C , 62-C ) :   1.2058 B( 61-C , 65-N ) :   1.4942 B( 62-C , 63-N ) :   1.5167
B( 63-N , 64-S ) :   1.2739 B( 63-N , 65-N ) :   0.1463 B( 64-S , 65-N ) :   1.3029

-----------------------------------------------------------------------------
         ABSORPTION SPECTRUM VIA TRANSITION ELECTRIC DIPOLE MOMENTS
-----------------------------------------------------------------------------
State   Energy  Wavelength   fosc         T2         TX        TY        TZ
        (cm-1)    (nm)                  (au**2)     (au)      (au)      (au)
-----------------------------------------------------------------------------
   0    4577.9   2184.4   0.249662314  17.95416  -0.64390  -4.18200   0.22450
   1    9427.5   1060.7   0.154949928   5.41092  -1.06433   0.67960   1.95352
   2   11409.2    876.5   0.012201928   0.35208  -0.25864  -0.34390  -0.40857
   3   13191.7    758.1   0.009146485   0.22826   0.21411   0.23930   0.35377
   4   14987.3    667.2   0.016443002   0.36119   0.47031  -0.15623  -0.33998
   5   15230.4    656.6   0.000073988   0.00160   0.02788   0.02774   0.00723
   6   15712.4    636.4   0.007342609   0.15385  -0.09842  -0.37792  -0.03654
   7   17648.6    566.6   0.373489942   6.96696  -0.21499  -2.62707   0.13863
   8   19877.2    503.1   0.029732648   0.49244   0.19757   0.64924  -0.17860
   9   20038.9    499.0   0.003399442   0.05585   0.17230   0.15025  -0.05989
  10   20129.7    496.8   0.000218258   0.00357   0.03032   0.01368   0.04963
  11   20393.0    490.4   0.072091573   1.16380  -0.09916   0.59145  -0.89675
  12   21828.3    458.1   0.139258260   2.10028  -0.06243  -1.27268   0.69040
  13   22738.2    439.8   0.119258557   1.72667   0.52192  -0.66986  -1.00278
  14   23225.1    430.6   0.039922044   0.56589   0.24649  -0.66247  -0.25742
  15   23572.5    424.2   0.025184302   0.35172   0.24913  -0.49140  -0.21950
  16   24017.3    416.4   0.091963848   1.26058  -0.37753  -0.21516   1.03526
  17   24292.1    411.7   0.119911233   1.62506  -0.13077  -0.26611   1.23982
  18   24303.8    411.5   0.092499045   1.25296   0.62732  -0.24154  -0.89504
  19   24551.2    407.3   0.006118160   0.08204   0.20381   0.08651  -0.18171
  20   25192.3    396.9   0.096701768   1.26370   0.82047  -0.59138  -0.49071
  21   25457.3    392.8   0.041463448   0.53620  -0.38277   0.10649   0.61510
  22   25680.1    389.4   0.012653876   0.16222   0.20166  -0.30941   0.16068
  23   25762.6    388.2   0.071117861   0.90879   0.14743  -0.02677  -0.94146
  24   25799.1    387.6   0.004513405   0.05759   0.00910   0.04270  -0.23598
  25   26002.3    384.6   0.221389587   2.80299  -0.44883   0.95991  -1.29620
  26   26420.7    378.5   0.068203849   0.84985  -0.63564   0.66625   0.04379
  27   27250.7    367.0   0.048245967   0.58285   0.31213  -0.49891   0.48633
  28   27462.0    364.1   0.073341557   0.87921  -0.23017   0.53939  -0.73164
  29   28252.6    353.9   0.158219281   1.84364  -1.08065   0.67204   0.47351
  30   28604.4    349.6   0.284065698   3.26935  -0.39881  -0.55069   1.67542
  31   29412.0    340.0   0.129394941   1.44833   0.37167  -0.98353   0.58554
  32   29587.4    338.0   0.033192806   0.36933  -0.00325   0.60606   0.04477
  33   29806.3    335.5   0.010745211   0.11868  -0.02422   0.17360  -0.29658
  34   30057.1    332.7   0.022168999   0.24281   0.32192  -0.28567   0.23995
  35   30303.4    330.0   0.008077849   0.08776  -0.07457   0.22028  -0.18351
  36   30365.1    329.3   0.002426313   0.02631   0.02855   0.06023  -0.14786
  37   30540.3    327.4   0.034528000   0.37220  -0.46097   0.36011  -0.17326
  38   30711.7    325.6   0.013544752   0.14519   0.11176   0.34703   0.11079
  39   31114.7    321.4   0.015864622   0.16786  -0.07940  -0.36878   0.15984
  40   31521.2    317.2   0.092543784   0.96654   0.77528  -0.50796  -0.32781
  41   31618.3    316.3   0.026586555   0.27682  -0.32686   0.15698   0.38124
  42   31778.4    314.7   0.082198633   0.85155  -0.20034   0.44669  -0.78223
  43   31932.6    313.2   0.004967879   0.05122  -0.04241   0.10775  -0.19444
  44   32065.6    311.9   0.014874324   0.15271  -0.33945   0.16069  -0.10800
  45   32263.1    310.0   0.100257050   1.02302   0.24947   0.47542  -0.85718
  46   32604.4    306.7   0.014734382   0.14878   0.00552  -0.14764   0.35630
  47   32750.2    305.3   0.004533973   0.04558  -0.19202   0.08679  -0.03423
  48   32864.8    304.3   0.182869078   1.83183  -1.13766   0.73300   0.01650
  49   32964.7    303.4   0.048244769   0.48181  -0.49089   0.40428  -0.27820
  50   33254.3    300.7   0.032959612   0.32629   0.14658  -0.03077  -0.55124
  51   33493.4    298.6   0.001879727   0.01848   0.03288   0.12885  -0.02814
  52   33591.1    297.7   0.041487192   0.40660   0.41539  -0.06873  -0.47888
  53   33743.6    296.4   0.065355297   0.63762   0.52869  -0.33318   0.49709
  54   33849.0    295.4   0.053194699   0.51737   0.33798  -0.10136  -0.62679
  55   33886.4    295.1   0.053901399   0.52366   0.15691   0.43012  -0.56039
  56   34368.1    291.0   0.003553058   0.03403   0.18307   0.01379  -0.01812
  57   34561.1    289.3   0.008126703   0.07741  -0.15905   0.21214   0.08433
  58   34729.4    287.9   0.089094810   0.84456  -0.72298   0.40473  -0.39755
  59   34829.7    287.1   0.062201668   0.58793  -0.60510   0.45478   0.12231
  60   34931.4    286.3   0.050929729   0.47999   0.57184  -0.34470  -0.18484
  61   35276.7    283.5   0.018019402   0.16816  -0.19650  -0.09544   0.34705
  62   35399.3    282.5   0.004252833   0.03955  -0.09978   0.17203  -0.00094
  63   35594.7    280.9   0.007377401   0.06823  -0.04262  -0.23697  -0.10130
  64   35645.2    280.5   0.053411503   0.49330  -0.40418   0.06335   0.57090
  65   35837.8    279.0   0.006432400   0.05909   0.19888  -0.13975   0.00298
  66   36049.1    277.4   0.034868587   0.31843   0.32593  -0.45535  -0.06967
  67   36090.0    277.1   0.023597794   0.21526   0.41336  -0.13872  -0.15859
  68   36535.3    273.7   0.093151849   0.83937   0.89541  -0.14114   0.13303
  69   36639.7    272.9   0.234597603   2.10789   0.53024  -1.19841  -0.62494
  70   37001.6    270.3   0.011584333   0.10307   0.27343  -0.06497  -0.15520
  71   37033.5    270.0   0.008579561   0.07627  -0.08722  -0.04217  -0.25862
  72   37321.5    267.9   0.079364691   0.70007  -0.50557   0.53004   0.40438
  73   37541.0    266.4   0.045158042   0.39601   0.50006   0.02402  -0.38128
  74   37863.5    264.1   0.005137511   0.04467   0.05398  -0.20428   0.00510
  75   37954.1    263.5   0.019743229   0.17125   0.04602  -0.00977  -0.41114
  76   37995.6    263.2   0.001672199   0.01449   0.03123  -0.11111  -0.03417
  77   38192.7    261.8   0.003059301   0.02637   0.08370   0.03076  -0.13571
  78   38308.8    261.0   0.056833068   0.48840   0.03011  -0.19756  -0.66968
  79   38433.0    260.2   0.007488142   0.06414   0.12012  -0.18826  -0.11947
  80   38660.3    258.7   0.046373689   0.39490   0.39892  -0.25357  -0.41408
  81   38695.5    258.4   0.029866125   0.25409   0.12767   0.06610  -0.48314
  82   38875.3    257.2   0.031339452   0.26540   0.35144  -0.33425  -0.17366
  83   38977.3    256.6   0.084095087   0.71029  -0.32861  -0.12616   0.76576
  84   39127.0    255.6   0.141311270   1.18898  -0.41596   0.03805   1.00723
  85   39333.2    254.2   0.009030831   0.07559   0.22313  -0.15009  -0.05722
  86   39385.8    253.9   0.017973389   0.15023  -0.18453   0.24700   0.23489
  87   39412.3    253.7   0.017739706   0.14818   0.27211   0.24693  -0.11473
  88   39531.1    253.0   0.049124022   0.40910  -0.34115   0.32532   0.43230
  89   39582.6    252.6   0.009079043   0.07551  -0.09438   0.05974  -0.25107
  90   39705.6    251.9   0.069332552   0.57486  -0.44466   0.11452   0.60334
  91   39946.1    250.3   0.027373544   0.22560   0.03751  -0.31599   0.35262
  92   40018.1    249.9   0.027252714   0.22420   0.04560  -0.26907   0.38693
  93   40054.3    249.7   0.002294577   0.01886   0.03667   0.09128  -0.09583

FINAL SINGLE POINT ENERGY     -4131.392114360156

DIPOLE MOMENT
-------------
                                X             Y             Z
Electronic contribution:     -7.57339      10.60551      14.40059
Nuclear contribution   :      7.15518     -10.55154     -13.41621
                        -----------------------------------------
Total Dipole Moment    :     -0.41821       0.05397       0.98437
                        -----------------------------------------
Magnitude (a.u.)       :      1.07089
Magnitude (Debye)      :      2.72198

Rotational constants in cm-1:     0.001064     0.000526     0.000390
Rotational constants in MHz :    31.898629    15.779172    11.689815

                             ****ORCA TERMINATED NORMALLY****
TOTAL RUN TIME: 0 days 0 hours 9 minutes 3 seconds 757 msec
