                         Program Version 4.2.0 -  RELEASE  -
|  1> # ORCA input file
|  2> # SCF done       -164.967065985797          0.000863156307
|  3> ! CAM-B3LYP def2-SVP def2/J RIJCOSX Grid4 TightSCF
|  4> %maxcore 5000
|  5> %tddft
|  6>     Mode sTDDFT
|  7>     Ethresh 5.0
|  8>     maxcore 5000
|  9> end
| 10>
| 11> %pal
| 12>   nprocs 6
| 13>   end
| 14> * xyz 0 1
| 15>    C        1.31522         0.58974        -4.14778
| 16>    C        0.05183         0.81079        -3.68407
| 17>    F       -0.51071         2.01975        -3.63189
| 18>    C       -0.60031        -0.36799        -3.26583
| 19>    F       -1.84306        -0.37871        -2.78351
| 20>    C        0.17479        -1.50209        -3.41188
| 21>    S        1.72414        -1.06816        -4.07925
| 22>    C       -0.14782        -2.85311        -3.10444
| 23>    C       -1.31479        -3.35361        -2.57491
| 24>    C       -1.20415        -4.77106        -2.48605
| 25>    C        0.14867        -5.11577        -2.96561
| 26>    C        0.76760        -3.96324        -3.32731
| 27>    C        0.75468        -6.37885        -2.94938
| 28>    N        1.31209        -7.38186        -2.90666
| 29>    C       -2.16393        -5.66925        -2.07438
| 30>    C       -2.11249        -7.08313        -2.18356
| 31>    C       -3.26624        -7.62867        -1.64518
| 32>    C       -4.08985        -6.52740        -1.16726
| 33>    C       -3.45562        -5.35645        -1.44240
| 34>    C       -3.95591        -4.08807        -1.12500
| 35>    N       -4.40315        -3.06939        -0.84100
| 36>    C       -3.52917        -9.02133        -1.63954
| 37>    N       -4.42849        -9.70746        -0.86548
| 38>    C       -5.31620        -9.19179         0.14991
| 39>    C       -6.69283        -8.86276        -0.42307
| 40>    C       -4.39090       -11.09532        -1.11694
| 41>    O       -5.08569       -11.89490        -0.52688
| 42>    C       -3.38857       -11.24645        -2.14974
| 43>    C       -2.87342        -9.96966        -2.44044
| 44>    C       -1.90646       -10.10864        -3.51670
| 45>    O       -1.25030        -9.30015        -4.13348
| 46>    N       -1.88266       -11.49084        -3.77791
| 47>    C       -0.97820       -12.04712        -4.75758
| 48>    C        0.25998       -12.65694        -4.10656
| 49>    C       -2.75358       -12.18675        -2.97846
| 50>    C       -2.91608       -13.58303        -3.05403
| 51>    C       -3.81321       -14.27666        -2.29339
| 52>    C       -4.00906       -15.68171        -2.31412
| 53>    C       -3.23197       -16.63382        -3.02724
| 54>    C       -3.52253       -18.04698        -2.96193
| 55>    N       -2.78507       -18.91034        -3.67264
| 56>    C       -1.79715       -18.48305        -4.41649
| 57>    C       -1.48521       -17.08740        -4.45279
| 58>    N       -2.19802       -16.22209        -3.77069
| 59>    C       -0.39962       -16.59581        -5.21961
| 60>    N        0.47080       -16.19470        -5.84681
| 61>    C       -1.03485       -19.40848        -5.17234
| 62>    N       -0.38936       -20.11782        -5.79805
| 63>    C       -4.56314       -18.58890        -2.17106
| 64>    C       -5.36959       -17.64402        -1.50520
| 65>    C       -5.08384       -16.22733        -1.57099
| 66>    N       -5.97940       -15.51602        -0.88854
| 67>    S       -7.06479       -16.50395        -0.25020
| 68>    N       -6.47363       -17.88423        -0.79684
| 69>    C       -4.75972       -20.00431        -2.11600
| 70>    C       -5.48182       -20.76655        -1.21446
| 71>    F       -6.07871       -20.30471        -0.11683
| 72>    C       -5.46821       -22.14436        -1.51567
| 73>    F       -6.10303       -23.05471        -0.76978
| 74>    C       -4.75211       -22.44317        -2.63448
| 75>    S       -4.03337       -21.04469        -3.31214
| 76>    H        2.00955         1.31524        -4.51961
| 77>    H       -2.18602        -2.79051        -2.30480
| 78>    H        1.76668        -3.85789        -3.70806
| 79>    H       -1.31232        -7.63221        -2.63778
| 80>    H       -5.05937        -6.60563        -0.71517
| 81>    H       -4.85492        -8.32304         0.62326
| 82>    H       -5.42397        -9.98387         0.89726
| 83>    H       -6.61990        -8.15766        -1.24849
| 84>    H       -7.32325        -8.43518         0.35172
| 85>    H       -7.16176        -9.77212        -0.79041
| 86>    H       -0.68118       -11.21408        -5.40041
| 87>    H       -1.50534       -12.79008        -5.36176
| 88>    H        0.81519       -11.88997        -3.57236
| 89>    H        0.90082       -13.08464        -4.87205
| 90>    H       -0.01364       -13.44291        -3.40624
| 91>    H       -2.29669       -14.11985        -3.75459
| 92>    H       -4.46179       -13.74228        -1.60978
| 93>    H       -4.59098       -23.41227        -3.06098
| 94> *
| 95>
| 96>                          ****END OF INPUT****

CARTESIAN COORDINATES (ANGSTROEM)
---------------------------------
  C      1.315220    0.589740   -4.147780
  C      0.051830    0.810790   -3.684070
  F     -0.510710    2.019750   -3.631890
  C     -0.600310   -0.367990   -3.265830
  F     -1.843060   -0.378710   -2.783510
  C      0.174790   -1.502090   -3.411880
  S      1.724140   -1.068160   -4.079250
  C     -0.147820   -2.853110   -3.104440
  C     -1.314790   -3.353610   -2.574910
  C     -1.204150   -4.771060   -2.486050
  C      0.148670   -5.115770   -2.965610
  C      0.767600   -3.963240   -3.327310
  C      0.754680   -6.378850   -2.949380
  N      1.312090   -7.381860   -2.906660
  C     -2.163930   -5.669250   -2.074380
  C     -2.112490   -7.083130   -2.183560
  C     -3.266240   -7.628670   -1.645180
  C     -4.089850   -6.527400   -1.167260
  C     -3.455620   -5.356450   -1.442400
  C     -3.955910   -4.088070   -1.125000
  N     -4.403150   -3.069390   -0.841000
  C     -3.529170   -9.021330   -1.639540
  N     -4.428490   -9.707460   -0.865480
  C     -5.316200   -9.191790    0.149910
  C     -6.692830   -8.862760   -0.423070
  C     -4.390900  -11.095320   -1.116940
  O     -5.085690  -11.894900   -0.526880
  C     -3.388570  -11.246450   -2.149740
  C     -2.873420   -9.969660   -2.440440
  C     -1.906460  -10.108640   -3.516700
  O     -1.250300   -9.300150   -4.133480
  N     -1.882660  -11.490840   -3.777910
  C     -0.978200  -12.047120   -4.757580
  C      0.259980  -12.656940   -4.106560
  C     -2.753580  -12.186750   -2.978460
  C     -2.916080  -13.583030   -3.054030
  C     -3.813210  -14.276660   -2.293390
  C     -4.009060  -15.681710   -2.314120
  C     -3.231970  -16.633820   -3.027240
  C     -3.522530  -18.046980   -2.961930
  N     -2.785070  -18.910340   -3.672640
  C     -1.797150  -18.483050   -4.416490
  C     -1.485210  -17.087400   -4.452790
  N     -2.198020  -16.222090   -3.770690
  C     -0.399620  -16.595810   -5.219610
  N      0.470800  -16.194700   -5.846810
  C     -1.034850  -19.408480   -5.172340
  N     -0.389360  -20.117820   -5.798050
  C     -4.563140  -18.588900   -2.171060
  C     -5.369590  -17.644020   -1.505200
  C     -5.083840  -16.227330   -1.570990
  N     -5.979400  -15.516020   -0.888540
  S     -7.064790  -16.503950   -0.250200
  N     -6.473630  -17.884230   -0.796840
  C     -4.759720  -20.004310   -2.116000
  C     -5.481820  -20.766550   -1.214460
  F     -6.078710  -20.304710   -0.116830
  C     -5.468210  -22.144360   -1.515670
  F     -6.103030  -23.054710   -0.769780
  C     -4.752110  -22.443170   -2.634480
  S     -4.033370  -21.044690   -3.312140
  H      2.009550    1.315240   -4.519610
  H     -2.186020   -2.790510   -2.304800
  H      1.766680   -3.857890   -3.708060
  H     -1.312320   -7.632210   -2.637780
  H     -5.059370   -6.605630   -0.715170
  H     -4.854920   -8.323040    0.623260
  H     -5.423970   -9.983870    0.897260
  H     -6.619900   -8.157660   -1.248490
  H     -7.323250   -8.435180    0.351720
  H     -7.161760   -9.772120   -0.790410
  H     -0.681180  -11.214080   -5.400410
  H     -1.505340  -12.790080   -5.361760
  H      0.815190  -11.889970   -3.572360
  H      0.900820  -13.084640   -4.872050
  H     -0.013640  -13.442910   -3.406240
  H     -2.296690  -14.119850   -3.754590
  H     -4.461790  -13.742280   -1.609780
  H     -4.590980  -23.412270   -3.060980

 Total Charge           Charge          ....    0
 Multiplicity           Mult            ....    1
 Number of Electrons    NEL             ....  440
 Basis Dimension        Dim             ....  956

ORBITAL ENERGIES
----------------

  NO   OCC          E(Eh)            E(eV)
   0   2.0000     -89.049569     -2423.1620
   1   2.0000     -88.985787     -2421.4264
   2   2.0000     -88.972779     -2421.0724
   3   2.0000     -24.808276      -675.0675
   4   2.0000     -24.800142      -674.8462
   5   2.0000     -24.796371      -674.7436
   6   2.0000     -24.790352      -674.5798
   7   2.0000     -19.198861      -522.4276
   8   2.0000     -19.194670      -522.3135
   9   2.0000     -14.475280      -393.8924
  10   2.0000     -14.473048      -393.8317
  11   2.0000     -14.462355      -393.5407
  12   2.0000     -14.455811      -393.3626
  13   2.0000     -14.453749      -393.3065
  14   2.0000     -14.453605      -393.3026
  15   2.0000     -14.440533      -392.9469
  16   2.0000     -14.439757      -392.9258
  17   2.0000     -14.407821      -392.0567
  18   2.0000     -14.405023      -391.9806
  19   2.0000     -10.394449      -282.8473
  20   2.0000     -10.392761      -282.8014
  21   2.0000     -10.382179      -282.5135
  22   2.0000     -10.380404      -282.4652
  23   2.0000     -10.379109      -282.4299
  24   2.0000     -10.378491      -282.4131
  25   2.0000     -10.377815      -282.3947
  26   2.0000     -10.366610      -282.0898
  27   2.0000     -10.359075      -281.8848
  28   2.0000     -10.358482      -281.8686
  29   2.0000     -10.349656      -281.6284
  30   2.0000     -10.348979      -281.6100
  31   2.0000     -10.347272      -281.5636
  32   2.0000     -10.343814      -281.4695
  33   2.0000     -10.335855      -281.2529
  34   2.0000     -10.333964      -281.2015
  35   2.0000     -10.332905      -281.1726
  36   2.0000     -10.328902      -281.0637
  37   2.0000     -10.326599      -281.0011
  38   2.0000     -10.325515      -280.9715
  39   2.0000     -10.321277      -280.8562
  40   2.0000     -10.320196      -280.8268
  41   2.0000     -10.320043      -280.8226
  42   2.0000     -10.318999      -280.7942
  43   2.0000     -10.316235      -280.7190
  44   2.0000     -10.316143      -280.7165
  45   2.0000     -10.316106      -280.7155
  46   2.0000     -10.312635      -280.6211
  47   2.0000     -10.312368      -280.6138
  48   2.0000     -10.309574      -280.5378
  49   2.0000     -10.307598      -280.4840
  50   2.0000     -10.305949      -280.4391
  51   2.0000     -10.305653      -280.4311
  52   2.0000     -10.305207      -280.4189
  53   2.0000     -10.297034      -280.1965
  54   2.0000     -10.292393      -280.0703
  55   2.0000     -10.285639      -279.8865
  56   2.0000     -10.284101      -279.8446
  57   2.0000     -10.271114      -279.4912
  58   2.0000     -10.270358      -279.4706
  59   2.0000     -10.269819      -279.4560
  60   2.0000     -10.256696      -279.0989
  61   2.0000      -8.140743      -221.5209
  62   2.0000      -8.081142      -219.8990
  63   2.0000      -8.066588      -219.5030
  64   2.0000      -6.111701      -166.3078
  65   2.0000      -6.103896      -166.0955
  66   2.0000      -6.103817      -166.0933
  67   2.0000      -6.050503      -164.6426
  68   2.0000      -6.046466      -164.5327
  69   2.0000      -6.043003      -164.4385
  70   2.0000      -6.036214      -164.2537
  71   2.0000      -6.031747      -164.1322
  72   2.0000      -6.028319      -164.0389
  73   2.0000      -1.325543       -36.0699
  74   2.0000      -1.316089       -35.8126
  75   2.0000      -1.312270       -35.7087
  76   2.0000      -1.301606       -35.4185
  77   2.0000      -1.147130       -31.2150
  78   2.0000      -1.140745       -31.0412
  79   2.0000      -1.133769       -30.8514
  80   2.0000      -1.133246       -30.8372
  81   2.0000      -1.070638       -29.1335
  82   2.0000      -1.061688       -28.8900
  83   2.0000      -1.060724       -28.8638
  84   2.0000      -1.024615       -27.8812
  85   2.0000      -1.021427       -27.7945
  86   2.0000      -1.015306       -27.6279
  87   2.0000      -1.010925       -27.5087
  88   2.0000      -1.006706       -27.3939
  89   2.0000      -0.998229       -27.1632
  90   2.0000      -0.998119       -27.1602
  91   2.0000      -0.983607       -26.7653
  92   2.0000      -0.981840       -26.7172
  93   2.0000      -0.978824       -26.6352
  94   2.0000      -0.933768       -25.4091
  95   2.0000      -0.922708       -25.1082
  96   2.0000      -0.916703       -24.9448
  97   2.0000      -0.894359       -24.3367
  98   2.0000      -0.889000       -24.1909
  99   2.0000      -0.877828       -23.8869
 100   2.0000      -0.869303       -23.6549
 101   2.0000      -0.855146       -23.2697
 102   2.0000      -0.850159       -23.1340
 103   2.0000      -0.845419       -23.0050
 104   2.0000      -0.841027       -22.8855
 105   2.0000      -0.832727       -22.6596
 106   2.0000      -0.831847       -22.6357
 107   2.0000      -0.823725       -22.4147
 108   2.0000      -0.818016       -22.2594
 109   2.0000      -0.804116       -21.8811
 110   2.0000      -0.784722       -21.3534
 111   2.0000      -0.769494       -20.9390
 112   2.0000      -0.762827       -20.7576
 113   2.0000      -0.748641       -20.3716
 114   2.0000      -0.732412       -19.9300
 115   2.0000      -0.729995       -19.8642
 116   2.0000      -0.720783       -19.6135
 117   2.0000      -0.715948       -19.4819
 118   2.0000      -0.713534       -19.4163
 119   2.0000      -0.708527       -19.2800
 120   2.0000      -0.701353       -19.0848
 121   2.0000      -0.691237       -18.8095
 122   2.0000      -0.685077       -18.6419
 123   2.0000      -0.681698       -18.5499
 124   2.0000      -0.674451       -18.3528
 125   2.0000      -0.672071       -18.2880
 126   2.0000      -0.668298       -18.1853
 127   2.0000      -0.662204       -18.0195
 128   2.0000      -0.656523       -17.8649
 129   2.0000      -0.653155       -17.7732
 130   2.0000      -0.643681       -17.5155
 131   2.0000      -0.634579       -17.2678
 132   2.0000      -0.634163       -17.2565
 133   2.0000      -0.629352       -17.1255
 134   2.0000      -0.620289       -16.8789
 135   2.0000      -0.605031       -16.4637
 136   2.0000      -0.595932       -16.2161
 137   2.0000      -0.591595       -16.0981
 138   2.0000      -0.590113       -16.0578
 139   2.0000      -0.590044       -16.0559
 140   2.0000      -0.582758       -15.8577
 141   2.0000      -0.581803       -15.8317
 142   2.0000      -0.579909       -15.7801
 143   2.0000      -0.579016       -15.7558
 144   2.0000      -0.571782       -15.5590
 145   2.0000      -0.569589       -15.4993
 146   2.0000      -0.563167       -15.3246
 147   2.0000      -0.560689       -15.2571
 148   2.0000      -0.553189       -15.0530
 149   2.0000      -0.552802       -15.0425
 150   2.0000      -0.545934       -14.8556
 151   2.0000      -0.542201       -14.7540
 152   2.0000      -0.540995       -14.7212
 153   2.0000      -0.537154       -14.6167
 154   2.0000      -0.534965       -14.5571
 155   2.0000      -0.532231       -14.4827
 156   2.0000      -0.525068       -14.2878
 157   2.0000      -0.522819       -14.2266
 158   2.0000      -0.521088       -14.1795
 159   2.0000      -0.520743       -14.1701
 160   2.0000      -0.518799       -14.1172
 161   2.0000      -0.516498       -14.0546
 162   2.0000      -0.507338       -13.8054
 163   2.0000      -0.503939       -13.7129
 164   2.0000      -0.501860       -13.6563
 165   2.0000      -0.496766       -13.5177
 166   2.0000      -0.495425       -13.4812
 167   2.0000      -0.494164       -13.4469
 168   2.0000      -0.493444       -13.4273
 169   2.0000      -0.492284       -13.3957
 170   2.0000      -0.487569       -13.2674
 171   2.0000      -0.485786       -13.2189
 172   2.0000      -0.483932       -13.1685
 173   2.0000      -0.482090       -13.1183
 174   2.0000      -0.476624       -12.9696
 175   2.0000      -0.472627       -12.8608
 176   2.0000      -0.470746       -12.8097
 177   2.0000      -0.469960       -12.7883
 178   2.0000      -0.468424       -12.7465
 179   2.0000      -0.466976       -12.7071
 180   2.0000      -0.465368       -12.6633
 181   2.0000      -0.463555       -12.6140
 182   2.0000      -0.462846       -12.5947
 183   2.0000      -0.460534       -12.5318
 184   2.0000      -0.454390       -12.3646
 185   2.0000      -0.451132       -12.2759
 186   2.0000      -0.449124       -12.2213
 187   2.0000      -0.445582       -12.1249
 188   2.0000      -0.440476       -11.9860
 189   2.0000      -0.437684       -11.9100
 190   2.0000      -0.437266       -11.8986
 191   2.0000      -0.437116       -11.8945
 192   2.0000      -0.436273       -11.8716
 193   2.0000      -0.432847       -11.7784
 194   2.0000      -0.431427       -11.7397
 195   2.0000      -0.428123       -11.6498
 196   2.0000      -0.425337       -11.5740
 197   2.0000      -0.422436       -11.4951
 198   2.0000      -0.420400       -11.4397
 199   2.0000      -0.417400       -11.3580
 200   2.0000      -0.414405       -11.2765
 201   2.0000      -0.408799       -11.1240
 202   2.0000      -0.401367       -10.9217
 203   2.0000      -0.396519       -10.7898
 204   2.0000      -0.379226       -10.3193
 205   2.0000      -0.370595       -10.0844
 206   2.0000      -0.363116        -9.8809
 207   2.0000      -0.360859        -9.8195
 208   2.0000      -0.356622        -9.7042
 209   2.0000      -0.352677        -9.5968
 210   2.0000      -0.340073        -9.2539
 211   2.0000      -0.337115        -9.1734
 212   2.0000      -0.333435        -9.0732
 213   2.0000      -0.327013        -8.8985
 214   2.0000      -0.322475        -8.7750
 215   2.0000      -0.317073        -8.6280
 216   2.0000      -0.311799        -8.4845
 217   2.0000      -0.288118        -7.8401
 218   2.0000      -0.281155        -7.6506
 219   2.0000      -0.235108        -6.3976
 220   0.0000      -0.139708        -3.8017
 221   0.0000      -0.122226        -3.3259
 222   0.0000      -0.072257        -1.9662
 223   0.0000      -0.056185        -1.5289
 224   0.0000      -0.039786        -1.0826

MULLIKEN ATOMIC CHARGES
-----------------------
   0 C :   -0.130564
   1 C :    0.249556
   2 F :   -0.167605
   3 C :    0.212362
   4 F :   -0.154174
   5 C :   -0.182643
   6 S :    0.156685
   7 C :    0.146236
   8 C :   -0.142594
   9 C :    0.114172
  10 C :   -0.078757
  11 C :   -0.026624
  12 C :   -0.179448
  13 N :    0.146780
  14 C :    0.117479
  15 C :   -0.109127
  16 C :    0.040196
  17 C :   -0.032100
  18 C :   -0.094012
  19 C :   -0.186975
  20 N :    0.147390
  21 C :    0.155926
  22 N :   -0.257403
  23 C :    0.101579
  24 C :    0.000566
  25 C :    0.152726
  26 O :   -0.193236
  27 C :   -0.055848
  28 C :   -0.064590
  29 C :    0.150343
  30 O :   -0.181414
  31 N :   -0.255464
  32 C :    0.096781
  33 C :    0.001066
  34 C :    0.155514
  35 C :   -0.002296
  36 C :   -0.083074
  37 C :    0.099975
  38 C :   -0.042789
  39 C :   -0.049800
  40 N :    0.006886
  41 C :   -0.090256
  42 C :   -0.129944
  43 N :    0.041992
  44 C :   -0.221345
  45 N :    0.243605
  46 C :   -0.241588
  47 N :    0.251365
  48 C :    0.193388
  49 C :   -0.028749
  50 C :   -0.000202
  51 N :   -0.261604
  52 S :    0.560651
  53 N :   -0.266876
  54 C :   -0.287133
  55 C :    0.228758
  56 F :   -0.151351
  57 C :    0.237307
  58 F :   -0.174839
  59 C :   -0.118175
  60 S :    0.185773
  61 H :    0.047500
  62 H :    0.008009
  63 H :    0.008417
  64 H :    0.029096
  65 H :   -0.014527
  66 H :    0.026859
  67 H :    0.041391
  68 H :    0.021660
  69 H :    0.025990
  70 H :    0.034889
  71 H :    0.046691
  72 H :    0.025780
  73 H :    0.035006
  74 H :    0.035060
  75 H :    0.012717
  76 H :   -0.004324
  77 H :    0.026227
  78 H :    0.041099
Sum of atomic charges:   -0.0000000

LOEWDIN ATOMIC CHARGES
----------------------
   0 C :   -0.203526
   1 C :    0.021644
   2 F :   -0.046737
   3 C :    0.039364
   4 F :   -0.030697
   5 C :   -0.204767
   6 S :    0.469872
   7 C :   -0.019811
   8 C :   -0.034798
   9 C :    0.051317
  10 C :   -0.069108
  11 C :    0.040823
  12 C :   -0.034067
  13 N :   -0.047105
  14 C :    0.024826
  15 C :    0.017601
  16 C :   -0.041048
  17 C :    0.040821
  18 C :   -0.079244
  19 C :   -0.034162
  20 N :   -0.058926
  21 C :    0.074535
  22 N :    0.001647
  23 C :    0.036756
  24 C :   -0.062587
  25 C :    0.079498
  26 O :   -0.186886
  27 C :   -0.111617
  28 C :   -0.105091
  29 C :    0.081202
  30 O :   -0.175190
  31 N :    0.004130
  32 C :    0.037625
  33 C :   -0.060242
  34 C :    0.077452
  35 C :   -0.024315
  36 C :    0.025825
  37 C :   -0.027379
  38 C :   -0.001854
  39 C :   -0.012742
  40 N :   -0.013988
  41 C :   -0.023060
  42 C :   -0.026724
  43 N :    0.009738
  44 C :   -0.037130
  45 N :   -0.004865
  46 C :   -0.038559
  47 N :    0.001277
  48 C :   -0.022715
  49 C :   -0.048354
  50 C :   -0.037012
  51 N :   -0.270462
  52 S :    0.696503
  53 N :   -0.274259
  54 C :   -0.211313
  55 C :    0.041730
  56 F :   -0.028661
  57 C :    0.010475
  58 F :   -0.054564
  59 C :   -0.203947
  60 S :    0.495674
  61 H :    0.037610
  62 H :    0.034092
  63 H :    0.032789
  64 H :    0.038423
  65 H :    0.034857
  66 H :    0.024836
  67 H :    0.037908
  68 H :    0.021292
  69 H :    0.031950
  70 H :    0.034954
  71 H :    0.039229
  72 H :    0.024263
  73 H :    0.034146
  74 H :    0.035323
  75 H :    0.020881
  76 H :    0.027025
  77 H :    0.042306
  78 H :    0.035294

  Mayer bond orders larger than 0.100000
B(  0-C ,  1-C ) :   1.5321 B(  0-C ,  5-C ) :   0.1247 B(  0-C ,  6-S ) :   1.1414
B(  0-C , 61-H ) :   0.9677 B(  1-C ,  2-F ) :   1.1467 B(  1-C ,  3-C ) :   1.2078
B(  3-C ,  4-F ) :   1.1608 B(  3-C ,  5-C ) :   1.4248 B(  5-C ,  6-S ) :   1.1294
B(  5-C ,  7-C ) :   1.1200 B(  7-C ,  8-C ) :   1.5699 B(  7-C , 11-C ) :   1.0313
B(  8-C ,  9-C ) :   1.1144 B(  8-C , 62-H ) :   1.0056 B(  9-C , 10-C ) :   1.0990
B(  9-C , 14-C ) :   1.3857 B( 10-C , 11-C ) :   1.6907 B( 10-C , 12-C ) :   1.0836
B( 11-C , 63-H ) :   1.0116 B( 12-C , 13-N ) :   2.9844 B( 14-C , 15-C ) :   1.1240
B( 14-C , 18-C ) :   1.1066 B( 15-C , 16-C ) :   1.5317 B( 15-C , 64-H ) :   0.9879
B( 16-C , 17-C ) :   1.0334 B( 16-C , 21-C ) :   1.0524 B( 17-C , 18-C ) :   1.6627
B( 17-C , 65-H ) :   1.0233 B( 18-C , 19-C ) :   1.0820 B( 19-C , 20-N ) :   2.9807
B( 21-C , 22-N ) :   1.2041 B( 21-C , 28-C ) :   1.3475 B( 22-N , 23-C ) :   0.9411
B( 22-N , 25-C ) :   1.0413 B( 23-C , 24-C ) :   1.1183 B( 23-C , 66-H ) :   0.9502
B( 23-C , 67-H ) :   0.9278 B( 24-C , 68-H ) :   0.9650 B( 24-C , 69-H ) :   0.9685
B( 24-C , 70-H ) :   0.9603 B( 25-C , 26-O ) :   2.0479 B( 25-C , 27-C ) :   0.9866
B( 27-C , 28-C ) :   1.2739 B( 27-C , 34-C ) :   1.2817 B( 28-C , 29-C ) :   0.9661
B( 29-C , 30-O ) :   2.0924 B( 29-C , 31-N ) :   1.0478 B( 31-N , 32-C ) :   0.9370
B( 31-N , 34-C ) :   1.1758 B( 32-C , 33-C ) :   1.1229 B( 32-C , 71-H ) :   0.9264
B( 32-C , 72-H ) :   0.9487 B( 33-C , 73-H ) :   0.9624 B( 33-C , 74-H ) :   0.9665
B( 33-C , 75-H ) :   0.9674 B( 34-C , 35-C ) :   1.1676 B( 35-C , 36-C ) :   1.5035
B( 35-C , 76-H ) :   0.9436 B( 36-C , 37-C ) :   1.2203 B( 36-C , 77-H ) :   0.9537
B( 37-C , 38-C ) :   1.2106 B( 37-C , 48-C ) :   0.1216 B( 37-C , 50-C ) :   1.1779
B( 38-C , 39-C ) :   1.1166 B( 38-C , 43-N ) :   1.4455 B( 39-C , 40-N ) :   1.3939
B( 39-C , 48-C ) :   1.2631 B( 40-N , 41-C ) :   1.7038 B( 41-C , 42-C ) :   1.2169
B( 41-C , 46-C ) :   1.1642 B( 42-C , 43-N ) :   1.7142 B( 42-C , 44-C ) :   1.1632
B( 44-C , 45-N ) :   3.0231 B( 46-C , 47-N ) :   3.0397 B( 48-C , 49-C ) :   1.2107
B( 48-C , 54-C ) :   1.1607 B( 49-C , 50-C ) :   1.0956 B( 49-C , 53-N ) :   1.5173
B( 50-C , 51-N ) :   1.5438 B( 51-N , 52-S ) :   1.2908 B( 51-N , 53-N ) :   0.1519
B( 52-S , 53-N ) :   1.2997 B( 54-C , 55-C ) :   1.3940 B( 54-C , 59-C ) :   0.1154
B( 54-C , 60-S ) :   1.1291 B( 55-C , 56-F ) :   1.1856 B( 55-C , 57-C ) :   1.2122
B( 57-C , 58-F ) :   1.1386 B( 57-C , 59-C ) :   1.5286 B( 59-C , 60-S ) :   1.1199
B( 59-C , 78-H ) :   0.9713

-----------------------------------------------------------------------------
         ABSORPTION SPECTRUM VIA TRANSITION ELECTRIC DIPOLE MOMENTS
-----------------------------------------------------------------------------
State   Energy  Wavelength   fosc         T2         TX        TY        TZ
        (cm-1)    (nm)                  (au**2)     (au)      (au)      (au)
-----------------------------------------------------------------------------
   0    6551.2   1526.4   0.540525333  27.16237   1.02928   5.10769   0.12043
   1    9940.0   1006.0   0.014260659   0.47231   0.56718   0.36378  -0.13521
   2   15394.1    649.6   0.004932131   0.10548   0.20461  -0.25181  -0.01426
   3   15976.3    625.9   0.166499236   3.43093   0.98836   1.44620  -0.60214
   4   19578.5    510.8   0.269964535   4.53945  -0.45481   1.96370   0.69029
   5   20269.1    493.4   0.075160665   1.22076  -0.24296   1.01545   0.36139
   6   20921.0    478.0   0.008396171   0.13212  -0.14878   0.03261   0.33003
   7   22819.3    438.2   0.012512986   0.18052   0.10329   0.40663  -0.06715
   8   22884.5    437.0   0.107462635   1.54594  -0.46959  -1.11419   0.28982
   9   23684.3    422.2   0.076122208   1.05810  -0.32671  -0.97310   0.06657
  10   24313.5    411.3   0.013378850   0.18115  -0.20425  -0.37268  -0.02330
  11   24653.6    405.6   0.053822314   0.71872  -0.32369  -0.76829   0.15384
  12   25376.8    394.1   0.004340879   0.05631   0.06631   0.19119  -0.12394
  13   25776.0    388.0   0.026713467   0.34118  -0.21261  -0.54283  -0.03624
  14   26206.6    381.6   0.513672933   6.45284  -1.54203  -1.78725   0.93847
  15   26797.0    373.2   0.001289170   0.01584  -0.10479   0.01363   0.06835
  16   27085.3    369.2   0.008285327   0.10071   0.20437  -0.11085  -0.21598
  17   27439.0    364.4   0.014017803   0.16819   0.04248   0.39723  -0.09268
  18   27448.5    364.3   0.002608180   0.03128   0.13786  -0.09710  -0.05336
  19   27807.3    359.6   0.037113325   0.43939  -0.21577  -0.61721   0.10899
  20   28767.5    347.6   0.058789429   0.67278  -0.61064  -0.31778   0.44599
  21   29093.4    343.7   0.002432066   0.02752   0.09810   0.13159  -0.02409
  22   30754.5    325.2   0.329225759   3.52420  -0.94748   1.43867   0.74613
  23   31230.1    320.2   0.001619442   0.01707  -0.06297  -0.11159   0.02558
  24   32137.9    311.2   0.046807628   0.47948   0.46877  -0.05912  -0.50620
  25   32852.7    304.4   0.020592594   0.20636   0.27003  -0.26669  -0.24963
  26   32870.1    304.2   0.465049999   4.65774   1.69024   0.48775  -1.25018
  27   33265.9    300.6   0.046846481   0.46361  -0.53073   0.02608   0.42575
  28   33454.9    298.9   0.113199027   1.11393   0.60513   0.76484  -0.40345
  29   33723.4    296.5   0.064759929   0.63219   0.25747   0.71576  -0.23149
  30   34262.9    291.9   0.085020925   0.81692   0.52680   0.71431  -0.17077
  31   34695.5    288.2   0.245559959   2.33003  -1.07751  -0.92139   0.56571
  32   34778.0    287.5   0.012875786   0.12188   0.16925   0.27006  -0.14249
  33   35238.4    283.8   0.139101119   1.29954  -0.85611  -0.51167   0.55209
  34   35461.6    282.0   0.037391258   0.34713   0.39347  -0.15695  -0.40948
  35   35648.3    280.5   0.137061994   1.26577  -0.53110  -0.87580   0.46548
  36   36050.1    277.4   0.168906748   1.54247   0.21171   1.18404  -0.30934
  37   36342.5    275.2   0.137136587   1.24226  -0.70048   0.77807   0.38235
  38   36592.3    273.3   0.004404805   0.03963  -0.09438   0.07853   0.15670
  39   36639.7    272.9   0.018884009   0.16967  -0.21636   0.34205   0.07658
  40   36861.5    271.3   0.074531533   0.66564   0.61595   0.20047  -0.49605
  41   38014.9    263.1   0.099095651   0.85818   0.26552   0.88749  -0.00575
  42   38362.5    260.7   0.019720342   0.16923   0.19327  -0.20627  -0.29888
  43   38411.7    260.3   0.096091615   0.82356  -0.10359  -0.89944   0.06198
  44   38650.9    258.7   0.020625854   0.17568  -0.35897  -0.21558   0.01860
  45   39700.9    251.9   0.007337070   0.06084  -0.04294   0.22841   0.08261
  46   40003.8    250.0   0.059198369   0.48717   0.48736  -0.31392  -0.38873

FINAL SINGLE POINT ENERGY     -3899.374289755569

DIPOLE MOMENT
-------------
                                X             Y             Z
Electronic contribution:     -5.78894     -22.79104       1.85449
Nuclear contribution   :      4.99489      23.08753      -1.55808
                        -----------------------------------------
Total Dipole Moment    :     -0.79405       0.29649       0.29641
                        -----------------------------------------
Magnitude (a.u.)       :      0.89793
Magnitude (Debye)      :      2.28236

Rotational constants in cm-1:     0.003235     0.000367     0.000332
Rotational constants in MHz :    96.994540    10.991025     9.951638

                             ****ORCA TERMINATED NORMALLY****
TOTAL RUN TIME: 0 days 0 hours 7 minutes 42 seconds 415 msec
