                         Program Version 4.2.0 -  RELEASE  -
|  1> # ORCA input file
|  2> # SCF done       -145.503065106284          0.000385173518
|  3> ! CAM-B3LYP def2-SVP def2/J RIJCOSX Grid4 TightSCF
|  4> %maxcore 5000
|  5> %tddft
|  6>     Mode sTDDFT
|  7>     Ethresh 5.0
|  8>     maxcore 5000
|  9> end
| 10>
| 11> %pal
| 12>   nprocs 6
| 13>   end
| 14> * xyz 0 1
| 15>    C       -5.03355        -1.59924        -4.59563
| 16>    C       -5.06642        -2.95486        -4.77744
| 17>    C       -4.40397        -3.81020        -3.89313
| 18>    C       -3.68915        -3.34292        -2.80414
| 19>    C       -3.63059        -1.92961        -2.60224
| 20>    N       -2.93046        -1.40242        -1.58015
| 21>    C       -2.91454        -0.10376        -1.44602
| 22>    C       -3.60594         0.74430        -2.33246
| 23>    N       -4.28511         0.27207        -3.34095
| 24>    C       -4.31455        -1.06714        -3.50839
| 25>    C       -3.03084        -4.27026        -1.91460
| 26>    S       -2.98327        -5.97451        -2.30369
| 27>    C       -2.12397        -6.35329        -0.84700
| 28>    C       -1.86483        -5.19241        -0.11515
| 29>    C       -2.39576        -4.03667        -0.72263
| 30>    C       -1.01358        -5.11439         1.06321
| 31>    O       -1.00463        -4.20979         1.86141
| 32>    C       -1.85573        -7.71315        -0.55000
| 33>    C       -1.65864        -8.21093         0.69930
| 34>    C       -1.37970        -9.57996         0.93605
| 35>    N       -1.19730       -10.11501         2.19279
| 36>    C       -1.18593        -9.39801         3.44461
| 37>    C        0.13714        -8.67127         3.67348
| 38>    C       -0.94314       -11.49517         2.14693
| 39>    O       -0.75322       -12.17453         3.13894
| 40>    C       -0.98345       -11.82062         0.74104
| 41>    C       -1.25251       -10.62523         0.02447
| 42>    C       -1.30546       -10.95278        -1.38090
| 43>    O       -1.51528       -10.27579        -2.37059
| 44>    N       -1.06208       -12.33423        -1.42627
| 45>    C       -0.98556       -13.03622        -2.68393
| 46>    C        0.45926       -13.28162        -3.11268
| 47>    C       -0.86411       -12.86746        -0.17081
| 48>    C       -0.60783       -14.23977         0.06670
| 49>    C       -0.43163       -14.74066         1.31696
| 50>    C       -0.17714       -16.10621         1.60590
| 51>    S       -0.06762       -16.61721         3.27299
| 52>    C        0.22161       -18.26449         2.82005
| 53>    C        0.23941       -18.39540         1.42567
| 54>    C        0.01135       -17.17666         0.76187
| 55>    C        0.46477       -19.62991         0.69036
| 56>    O        0.47148       -19.71822        -0.51400
| 57>    C        0.39347       -19.28201         3.79667
| 58>    C        0.33083       -19.05891         5.12735
| 59>    C        0.47763       -20.03723         6.17151
| 60>    C        0.73424       -21.38151         5.95967
| 61>    C        0.85955       -22.28472         7.01906
| 62>    C        0.73239       -21.87367         8.31972
| 63>    C        0.47256       -20.51699         8.59418
| 64>    N        0.34626       -20.10952         9.87564
| 65>    C        0.10519       -18.84418        10.08359
| 66>    C       -0.02086       -17.92510         9.02251
| 67>    N        0.09587       -18.29081         7.77420
| 68>    C        0.34462       -19.59061         7.52274
| 69>    H       -5.54052        -0.91481        -5.25659
| 70>    H       -5.61160        -3.38032        -5.60640
| 71>    H       -4.45663        -4.87615        -4.06333
| 72>    H       -2.33905         0.28866        -0.61826
| 73>    H       -3.59444         1.81921        -2.21158
| 74>    H       -2.28686        -3.05549        -0.29932
| 75>    H       -0.30529        -5.96264         1.15876
| 76>    H       -1.85850        -8.39595        -1.39082
| 77>    H       -1.74998        -7.56252         1.55831
| 78>    H       -1.32770       -10.15228         4.22396
| 79>    H       -2.02521        -8.69759         3.47549
| 80>    H        0.95607        -9.38654         3.67968
| 81>    H        0.11490        -8.15814         4.63079
| 82>    H        0.32246        -7.93925         2.89069
| 83>    H       -1.48050       -12.39338        -3.41755
| 84>    H       -1.53706       -13.97806        -2.61284
| 85>    H        0.97817       -12.33277        -3.22465
| 86>    H        0.47714       -13.80249        -4.06603
| 87>    H        0.98975       -13.88038        -2.37556
| 88>    H       -0.56310       -14.89825        -0.78784
| 89>    H       -0.49101       -14.07223         2.16593
| 90>    H       -0.00287       -17.11608        -0.31116
| 91>    H        0.63973       -20.52306         1.31965
| 92>    H        0.57410       -20.27687         3.41533
| 93>    H        0.14428       -18.05371         5.48315
| 94>    H        0.84318       -21.75342         4.95253
| 95>    H        1.05972       -23.32307         6.79919
| 96>    H        0.82455       -22.55595         9.14964
| 97>    H        0.00692       -18.53040        11.11425
| 98>    H       -0.21922       -16.87721         9.20356
| 99> *
|100>
|101>                          ****END OF INPUT****

CARTESIAN COORDINATES (ANGSTROEM)
---------------------------------
  C     -5.033550   -1.599240   -4.595630
  C     -5.066420   -2.954860   -4.777440
  C     -4.403970   -3.810200   -3.893130
  C     -3.689150   -3.342920   -2.804140
  C     -3.630590   -1.929610   -2.602240
  N     -2.930460   -1.402420   -1.580150
  C     -2.914540   -0.103760   -1.446020
  C     -3.605940    0.744300   -2.332460
  N     -4.285110    0.272070   -3.340950
  C     -4.314550   -1.067140   -3.508390
  C     -3.030840   -4.270260   -1.914600
  S     -2.983270   -5.974510   -2.303690
  C     -2.123970   -6.353290   -0.847000
  C     -1.864830   -5.192410   -0.115150
  C     -2.395760   -4.036670   -0.722630
  C     -1.013580   -5.114390    1.063210
  O     -1.004630   -4.209790    1.861410
  C     -1.855730   -7.713150   -0.550000
  C     -1.658640   -8.210930    0.699300
  C     -1.379700   -9.579960    0.936050
  N     -1.197300  -10.115010    2.192790
  C     -1.185930   -9.398010    3.444610
  C      0.137140   -8.671270    3.673480
  C     -0.943140  -11.495170    2.146930
  O     -0.753220  -12.174530    3.138940
  C     -0.983450  -11.820620    0.741040
  C     -1.252510  -10.625230    0.024470
  C     -1.305460  -10.952780   -1.380900
  O     -1.515280  -10.275790   -2.370590
  N     -1.062080  -12.334230   -1.426270
  C     -0.985560  -13.036220   -2.683930
  C      0.459260  -13.281620   -3.112680
  C     -0.864110  -12.867460   -0.170810
  C     -0.607830  -14.239770    0.066700
  C     -0.431630  -14.740660    1.316960
  C     -0.177140  -16.106210    1.605900
  S     -0.067620  -16.617210    3.272990
  C      0.221610  -18.264490    2.820050
  C      0.239410  -18.395400    1.425670
  C      0.011350  -17.176660    0.761870
  C      0.464770  -19.629910    0.690360
  O      0.471480  -19.718220   -0.514000
  C      0.393470  -19.282010    3.796670
  C      0.330830  -19.058910    5.127350
  C      0.477630  -20.037230    6.171510
  C      0.734240  -21.381510    5.959670
  C      0.859550  -22.284720    7.019060
  C      0.732390  -21.873670    8.319720
  C      0.472560  -20.516990    8.594180
  N      0.346260  -20.109520    9.875640
  C      0.105190  -18.844180   10.083590
  C     -0.020860  -17.925100    9.022510
  N      0.095870  -18.290810    7.774200
  C      0.344620  -19.590610    7.522740
  H     -5.540520   -0.914810   -5.256590
  H     -5.611600   -3.380320   -5.606400
  H     -4.456630   -4.876150   -4.063330
  H     -2.339050    0.288660   -0.618260
  H     -3.594440    1.819210   -2.211580
  H     -2.286860   -3.055490   -0.299320
  H     -0.305290   -5.962640    1.158760
  H     -1.858500   -8.395950   -1.390820
  H     -1.749980   -7.562520    1.558310
  H     -1.327700  -10.152280    4.223960
  H     -2.025210   -8.697590    3.475490
  H      0.956070   -9.386540    3.679680
  H      0.114900   -8.158140    4.630790
  H      0.322460   -7.939250    2.890690
  H     -1.480500  -12.393380   -3.417550
  H     -1.537060  -13.978060   -2.612840
  H      0.978170  -12.332770   -3.224650
  H      0.477140  -13.802490   -4.066030
  H      0.989750  -13.880380   -2.375560
  H     -0.563100  -14.898250   -0.787840
  H     -0.491010  -14.072230    2.165930
  H     -0.002870  -17.116080   -0.311160
  H      0.639730  -20.523060    1.319650
  H      0.574100  -20.276870    3.415330
  H      0.144280  -18.053710    5.483150
  H      0.843180  -21.753420    4.952530
  H      1.059720  -23.323070    6.799190
  H      0.824550  -22.555950    9.149640
  H      0.006920  -18.530400   11.114250
  H     -0.219220  -16.877210    9.203560

 Total Charge           Charge          ....    0
 Multiplicity           Mult            ....    1
 Number of Electrons    NEL             ....  388
 Basis Dimension        Dim             ....  914

ORBITAL ENERGIES
----------------

  NO   OCC          E(Eh)            E(eV)
   0   2.0000     -88.962770     -2420.8001
   1   2.0000     -88.958437     -2420.6821
   2   2.0000     -19.208026      -522.6770
   3   2.0000     -19.201725      -522.5055
   4   2.0000     -19.186961      -522.1037
   5   2.0000     -19.183872      -522.0197
   6   2.0000     -14.448558      -393.1653
   7   2.0000     -14.447517      -393.1369
   8   2.0000     -14.426794      -392.5730
   9   2.0000     -14.423815      -392.4919
  10   2.0000     -14.422146      -392.4465
  11   2.0000     -14.420779      -392.4094
  12   2.0000     -10.369182      -282.1598
  13   2.0000     -10.366790      -282.0947
  14   2.0000     -10.355091      -281.7764
  15   2.0000     -10.347890      -281.5804
  16   2.0000     -10.333704      -281.1944
  17   2.0000     -10.331731      -281.1407
  18   2.0000     -10.321670      -280.8669
  19   2.0000     -10.319814      -280.8164
  20   2.0000     -10.318646      -280.7846
  21   2.0000     -10.318218      -280.7730
  22   2.0000     -10.317645      -280.7574
  23   2.0000     -10.316904      -280.7372
  24   2.0000     -10.316327      -280.7215
  25   2.0000     -10.315126      -280.6889
  26   2.0000     -10.313396      -280.6418
  27   2.0000     -10.312564      -280.6191
  28   2.0000     -10.307185      -280.4728
  29   2.0000     -10.304721      -280.4057
  30   2.0000     -10.303683      -280.3775
  31   2.0000     -10.303479      -280.3719
  32   2.0000     -10.296582      -280.1842
  33   2.0000     -10.293215      -280.0926
  34   2.0000     -10.291816      -280.0545
  35   2.0000     -10.291353      -280.0420
  36   2.0000     -10.291353      -280.0419
  37   2.0000     -10.289785      -279.9993
  38   2.0000     -10.288467      -279.9634
  39   2.0000     -10.286778      -279.9175
  40   2.0000     -10.285413      -279.8803
  41   2.0000     -10.285118      -279.8723
  42   2.0000     -10.284249      -279.8486
  43   2.0000     -10.282839      -279.8103
  44   2.0000     -10.282782      -279.8087
  45   2.0000     -10.282453      -279.7998
  46   2.0000     -10.281743      -279.7805
  47   2.0000     -10.276735      -279.6442
  48   2.0000     -10.275822      -279.6193
  49   2.0000     -10.266837      -279.3748
  50   2.0000     -10.260572      -279.2044
  51   2.0000     -10.259145      -279.1655
  52   2.0000     -10.255506      -279.0665
  53   2.0000     -10.253712      -279.0177
  54   2.0000      -8.058394      -219.2801
  55   2.0000      -8.054109      -219.1635
  56   2.0000      -6.027507      -164.0168
  57   2.0000      -6.023419      -163.9056
  58   2.0000      -6.023290      -163.9021
  59   2.0000      -6.020718      -163.8321
  60   2.0000      -6.019142      -163.7892
  61   2.0000      -6.016385      -163.7142
  62   2.0000      -1.128092       -30.6969
  63   2.0000      -1.121076       -30.5060
  64   2.0000      -1.120676       -30.4952
  65   2.0000      -1.114338       -30.3227
  66   2.0000      -1.080864       -29.4118
  67   2.0000      -1.077822       -29.3290
  68   2.0000      -1.057933       -28.7878
  69   2.0000      -1.049764       -28.5655
  70   2.0000      -1.004017       -27.3207
  71   2.0000      -1.001641       -27.2560
  72   2.0000      -0.993957       -27.0469
  73   2.0000      -0.987947       -26.8834
  74   2.0000      -0.957754       -26.0618
  75   2.0000      -0.951289       -25.8859
  76   2.0000      -0.924350       -25.1528
  77   2.0000      -0.915834       -24.9211
  78   2.0000      -0.906438       -24.6654
  79   2.0000      -0.894176       -24.3318
  80   2.0000      -0.872530       -23.7427
  81   2.0000      -0.865170       -23.5425
  82   2.0000      -0.857984       -23.3469
  83   2.0000      -0.855907       -23.2904
  84   2.0000      -0.855691       -23.2845
  85   2.0000      -0.851091       -23.1594
  86   2.0000      -0.840387       -22.8681
  87   2.0000      -0.823538       -22.4096
  88   2.0000      -0.815846       -22.2003
  89   2.0000      -0.811693       -22.0873
  90   2.0000      -0.781256       -21.2590
  91   2.0000      -0.769121       -20.9289
  92   2.0000      -0.758821       -20.6486
  93   2.0000      -0.756381       -20.5822
  94   2.0000      -0.754715       -20.5368
  95   2.0000      -0.744443       -20.2573
  96   2.0000      -0.742241       -20.1974
  97   2.0000      -0.732370       -19.9288
  98   2.0000      -0.724694       -19.7199
  99   2.0000      -0.715337       -19.4653
 100   2.0000      -0.708563       -19.2810
 101   2.0000      -0.702588       -19.1184
 102   2.0000      -0.689121       -18.7519
 103   2.0000      -0.678919       -18.4743
 104   2.0000      -0.659878       -17.9562
 105   2.0000      -0.652831       -17.7644
 106   2.0000      -0.646593       -17.5947
 107   2.0000      -0.645686       -17.5700
 108   2.0000      -0.636913       -17.3313
 109   2.0000      -0.636184       -17.3114
 110   2.0000      -0.629226       -17.1221
 111   2.0000      -0.625255       -17.0140
 112   2.0000      -0.619054       -16.8453
 113   2.0000      -0.614844       -16.7308
 114   2.0000      -0.608703       -16.5636
 115   2.0000      -0.604720       -16.4553
 116   2.0000      -0.598997       -16.2995
 117   2.0000      -0.585749       -15.9390
 118   2.0000      -0.580449       -15.7948
 119   2.0000      -0.579035       -15.7564
 120   2.0000      -0.573582       -15.6079
 121   2.0000      -0.570752       -15.5309
 122   2.0000      -0.565701       -15.3935
 123   2.0000      -0.555394       -15.1130
 124   2.0000      -0.550965       -14.9925
 125   2.0000      -0.545239       -14.8367
 126   2.0000      -0.544424       -14.8145
 127   2.0000      -0.544145       -14.8070
 128   2.0000      -0.530460       -14.4346
 129   2.0000      -0.529651       -14.4125
 130   2.0000      -0.528485       -14.3808
 131   2.0000      -0.527399       -14.3512
 132   2.0000      -0.525903       -14.3105
 133   2.0000      -0.524424       -14.2703
 134   2.0000      -0.521199       -14.1826
 135   2.0000      -0.517826       -14.0908
 136   2.0000      -0.514970       -14.0131
 137   2.0000      -0.513452       -13.9717
 138   2.0000      -0.512280       -13.9399
 139   2.0000      -0.508553       -13.8384
 140   2.0000      -0.506726       -13.7887
 141   2.0000      -0.504556       -13.7297
 142   2.0000      -0.503081       -13.6895
 143   2.0000      -0.496686       -13.5155
 144   2.0000      -0.493165       -13.4197
 145   2.0000      -0.490811       -13.3557
 146   2.0000      -0.485518       -13.2116
 147   2.0000      -0.474204       -12.9038
 148   2.0000      -0.472050       -12.8451
 149   2.0000      -0.470029       -12.7901
 150   2.0000      -0.465041       -12.6544
 151   2.0000      -0.462201       -12.5771
 152   2.0000      -0.461461       -12.5570
 153   2.0000      -0.458416       -12.4741
 154   2.0000      -0.456116       -12.4116
 155   2.0000      -0.455204       -12.3867
 156   2.0000      -0.452395       -12.3103
 157   2.0000      -0.451480       -12.2854
 158   2.0000      -0.450907       -12.2698
 159   2.0000      -0.449540       -12.2326
 160   2.0000      -0.447022       -12.1641
 161   2.0000      -0.443843       -12.0776
 162   2.0000      -0.441740       -12.0203
 163   2.0000      -0.438655       -11.9364
 164   2.0000      -0.435583       -11.8528
 165   2.0000      -0.431953       -11.7540
 166   2.0000      -0.428348       -11.6559
 167   2.0000      -0.427427       -11.6309
 168   2.0000      -0.423796       -11.5321
 169   2.0000      -0.421026       -11.4567
 170   2.0000      -0.420270       -11.4361
 171   2.0000      -0.415585       -11.3086
 172   2.0000      -0.414548       -11.2804
 173   2.0000      -0.399754       -10.8778
 174   2.0000      -0.385945       -10.5021
 175   2.0000      -0.379839       -10.3360
 176   2.0000      -0.373573       -10.1654
 177   2.0000      -0.358598        -9.7579
 178   2.0000      -0.342918        -9.3313
 179   2.0000      -0.331789        -9.0284
 180   2.0000      -0.331373        -9.0171
 181   2.0000      -0.329015        -8.9530
 182   2.0000      -0.328896        -8.9497
 183   2.0000      -0.328438        -8.9373
 184   2.0000      -0.326789        -8.8924
 185   2.0000      -0.323035        -8.7902
 186   2.0000      -0.320694        -8.7265
 187   2.0000      -0.319092        -8.6829
 188   2.0000      -0.316531        -8.6132
 189   2.0000      -0.316104        -8.6016
 190   2.0000      -0.309724        -8.4280
 191   2.0000      -0.276292        -7.5183
 192   2.0000      -0.265709        -7.2303
 193   2.0000      -0.225611        -6.1392
 194   0.0000      -0.087484        -2.3806
 195   0.0000      -0.063740        -1.7345
 196   0.0000      -0.046726        -1.2715
 197   0.0000      -0.032082        -0.8730
 198   0.0000      -0.022443        -0.6107

MULLIKEN ATOMIC CHARGES
-----------------------
   0 C :    0.008583
   1 C :    0.045838
   2 C :   -0.071703
   3 C :    0.177556
   4 C :   -0.040170
   5 N :   -0.027540
   6 C :    0.036391
   7 C :    0.018443
   8 N :   -0.017477
   9 C :   -0.024933
  10 C :   -0.105499
  11 S :    0.135127
  12 C :   -0.083250
  13 C :    0.035027
  14 C :   -0.027022
  15 C :    0.108646
  16 O :   -0.186002
  17 C :    0.044627
  18 C :   -0.042341
  19 C :    0.124979
  20 N :   -0.258933
  21 C :    0.096896
  22 C :    0.006357
  23 C :    0.161689
  24 O :   -0.219682
  25 C :   -0.068653
  26 C :   -0.064113
  27 C :    0.164680
  28 O :   -0.215860
  29 N :   -0.260602
  30 C :    0.099963
  31 C :    0.004426
  32 C :    0.138201
  33 C :   -0.032142
  34 C :    0.080649
  35 C :   -0.064784
  36 S :    0.158362
  37 C :   -0.056813
  38 C :    0.007344
  39 C :   -0.017799
  40 C :    0.142266
  41 O :   -0.187605
  42 C :    0.024041
  43 C :   -0.020230
  44 C :    0.092203
  45 C :   -0.044947
  46 C :    0.050039
  47 C :    0.003542
  48 C :   -0.016793
  49 N :   -0.016982
  50 C :    0.021315
  51 C :    0.027043
  52 N :   -0.020073
  53 C :   -0.026951
  54 H :   -0.022706
  55 H :   -0.005577
  56 H :   -0.001379
  57 H :    0.014157
  58 H :    0.014429
  59 H :    0.006920
  60 H :   -0.006192
  61 H :    0.020203
  62 H :   -0.015108
  63 H :    0.041920
  64 H :    0.026353
  65 H :    0.028127
  66 H :    0.025494
  67 H :    0.014542
  68 H :    0.041878
  69 H :    0.023586
  70 H :    0.028943
  71 H :    0.023217
  72 H :    0.017266
  73 H :   -0.026870
  74 H :    0.008995
  75 H :   -0.003549
  76 H :   -0.024292
  77 H :   -0.018816
  78 H :    0.011664
  79 H :   -0.021690
  80 H :   -0.005365
  81 H :   -0.020265
  82 H :    0.014018
  83 H :    0.014760
Sum of atomic charges:    0.0000000

LOEWDIN ATOMIC CHARGES
----------------------
   0 C :   -0.012120
   1 C :   -0.012673
   2 C :   -0.019185
   3 C :   -0.032057
   4 C :   -0.003215
   5 N :   -0.029198
   6 C :    0.008090
   7 C :    0.001563
   8 N :   -0.036278
   9 C :   -0.009766
  10 C :   -0.157546
  11 S :    0.460135
  12 C :   -0.149508
  13 C :   -0.111724
  14 C :   -0.016577
  15 C :    0.094801
  16 O :   -0.140737
  17 C :    0.001016
  18 C :   -0.043593
  19 C :    0.068933
  20 N :    0.000471
  21 C :    0.035981
  22 C :   -0.060669
  23 C :    0.077990
  24 O :   -0.209860
  25 C :   -0.126222
  26 C :   -0.119942
  27 C :    0.080305
  28 O :   -0.205081
  29 N :   -0.000589
  30 C :    0.036058
  31 C :   -0.061147
  32 C :    0.078239
  33 C :   -0.050077
  34 C :    0.014227
  35 C :   -0.172253
  36 S :    0.472423
  37 C :   -0.133149
  38 C :   -0.120748
  39 C :   -0.013290
  40 C :    0.104258
  41 O :   -0.142043
  42 C :   -0.044161
  43 C :    0.001777
  44 C :   -0.026868
  45 C :   -0.003548
  46 C :   -0.013714
  47 C :   -0.008242
  48 C :   -0.012801
  49 N :   -0.037220
  50 C :    0.002406
  51 C :    0.005864
  52 N :   -0.037801
  53 C :   -0.004027
  54 H :    0.035711
  55 H :    0.034065
  56 H :    0.023115
  57 H :    0.027463
  58 H :    0.026664
  59 H :    0.034172
  60 H :   -0.004972
  61 H :    0.037975
  62 H :    0.029984
  63 H :    0.037149
  64 H :    0.023763
  65 H :    0.031726
  66 H :    0.031774
  67 H :    0.021305
  68 H :    0.037158
  69 H :    0.023072
  70 H :    0.031981
  71 H :    0.030682
  72 H :    0.022438
  73 H :    0.028192
  74 H :    0.036266
  75 H :    0.034433
  76 H :   -0.006706
  77 H :    0.026406
  78 H :    0.025797
  79 H :    0.028834
  80 H :    0.033788
  81 H :    0.036521
  82 H :    0.026810
  83 H :    0.027525

  Mayer bond orders larger than 0.100000
B(  0-C ,  1-C ) :   1.4375 B(  0-C ,  3-C ) :   0.1061 B(  0-C ,  9-C ) :   1.2552
B(  0-C , 54-H ) :   1.0102 B(  1-C ,  2-C ) :   1.2578 B(  1-C , 55-H ) :   0.9865
B(  2-C ,  3-C ) :   1.4500 B(  2-C , 56-H ) :   0.9887 B(  3-C ,  4-C ) :   1.2113
B(  3-C , 10-C ) :   1.0793 B(  4-C ,  5-N ) :   1.4658 B(  4-C ,  9-C ) :   1.2357
B(  5-N ,  6-C ) :   1.6438 B(  6-C ,  7-C ) :   1.2290 B(  6-C , 57-H ) :   0.9739
B(  7-C ,  8-N ) :   1.6736 B(  7-C , 58-H ) :   0.9749 B(  8-N ,  9-C ) :   1.4231
B( 10-C , 11-S ) :   1.1019 B( 10-C , 14-C ) :   1.5276 B( 11-S , 12-C ) :   1.1553
B( 12-C , 13-C ) :   1.4058 B( 12-C , 17-C ) :   1.1265 B( 13-C , 14-C ) :   1.2002
B( 13-C , 15-C ) :   0.9774 B( 14-C , 59-H ) :   0.9946 B( 15-C , 16-O ) :   2.1743
B( 15-C , 60-H ) :   0.9546 B( 17-C , 18-C ) :   1.6113 B( 17-C , 61-H ) :   0.9293
B( 18-C , 19-C ) :   1.1707 B( 18-C , 62-H ) :   0.9616 B( 19-C , 20-N ) :   1.1524
B( 19-C , 26-C ) :   1.3436 B( 20-N , 21-C ) :   0.9479 B( 20-N , 23-C ) :   1.0652
B( 21-C , 22-C ) :   1.1193 B( 21-C , 63-H ) :   0.9272 B( 21-C , 64-H ) :   0.9500
B( 22-C , 65-H ) :   0.9627 B( 22-C , 66-H ) :   0.9675 B( 22-C , 67-H ) :   0.9687
B( 23-C , 24-O ) :   2.0118 B( 23-C , 25-C ) :   0.9951 B( 24-O , 74-H ) :   0.1178
B( 25-C , 26-C ) :   1.2497 B( 25-C , 32-C ) :   1.3322 B( 26-C , 27-C ) :   0.9883
B( 27-C , 28-O ) :   2.0182 B( 27-C , 29-N ) :   1.0641 B( 28-O , 61-H ) :   0.1147
B( 29-N , 30-C ) :   0.9479 B( 29-N , 32-C ) :   1.1526 B( 30-C , 31-C ) :   1.1200
B( 30-C , 68-H ) :   0.9278 B( 30-C , 69-H ) :   0.9496 B( 31-C , 70-H ) :   0.9634
B( 31-C , 71-H ) :   0.9680 B( 31-C , 72-H ) :   0.9685 B( 32-C , 33-C ) :   1.1709
B( 33-C , 34-C ) :   1.6190 B( 33-C , 73-H ) :   0.9633 B( 34-C , 35-C ) :   1.1260
B( 34-C , 74-H ) :   0.9375 B( 35-C , 36-S ) :   1.0981 B( 35-C , 39-C ) :   1.4784
B( 36-S , 37-C ) :   1.1618 B( 37-C , 38-C ) :   1.3756 B( 37-C , 42-C ) :   1.1638
B( 38-C , 39-C ) :   1.2511 B( 38-C , 40-C ) :   0.9974 B( 39-C , 75-H ) :   1.0000
B( 40-C , 41-O ) :   2.1720 B( 40-C , 76-H ) :   0.9612 B( 42-C , 43-C ) :   1.6490
B( 42-C , 77-H ) :   0.9633 B( 43-C , 44-C ) :   1.1075 B( 43-C , 78-H ) :   0.9700
B( 44-C , 45-C ) :   1.4387 B( 44-C , 47-C ) :   0.1048 B( 44-C , 53-C ) :   1.1898
B( 45-C , 46-C ) :   1.2629 B( 45-C , 79-H ) :   0.9967 B( 46-C , 47-C ) :   1.4289
B( 46-C , 80-H ) :   0.9867 B( 47-C , 48-C ) :   1.2559 B( 47-C , 81-H ) :   1.0096
B( 48-C , 49-N ) :   1.4247 B( 48-C , 53-C ) :   1.2380 B( 49-N , 50-C ) :   1.6752
B( 50-C , 51-C ) :   1.2247 B( 50-C , 82-H ) :   0.9748 B( 51-C , 52-N ) :   1.6612
B( 51-C , 83-H ) :   0.9752 B( 52-N , 53-C ) :   1.4694

-----------------------------------------------------------------------------
         ABSORPTION SPECTRUM VIA TRANSITION ELECTRIC DIPOLE MOMENTS
-----------------------------------------------------------------------------
State   Energy  Wavelength   fosc         T2         TX        TY        TZ
        (cm-1)    (nm)                  (au**2)     (au)      (au)      (au)
-----------------------------------------------------------------------------
   0   14911.8    670.6   1.196442707  26.41422  -0.97922   4.92422  -1.09883
   1   21973.3    455.1   0.099133101   1.48525  -0.12390   0.05758   1.21102
   2   24609.3    406.4   0.386358583   5.16854   0.10164  -1.03959   2.01927
   3   25648.6    389.9   0.190229835   2.44169  -0.29366   1.49202  -0.35961
   4   25924.4    385.7   0.677564750   8.60436  -0.71476   1.78576  -2.21462
   5   27289.8    366.4   0.004355278   0.05254   0.14079  -0.05790   0.17137
   6   28067.1    356.3   0.004899846   0.05747  -0.20028   0.07764   0.10645
   7   29637.2    337.4   0.002224437   0.02471   0.13641  -0.06835  -0.03781
   8   30060.0    332.7   0.002494629   0.02732  -0.13266  -0.06451   0.07457
   9   30119.0    332.0   0.010485173   0.11461   0.13511  -0.22476  -0.21409
  10   30192.6    331.2   0.005314384   0.05795   0.23795   0.03631   0.00326
  11   30392.1    329.0   0.001417712   0.01536   0.09666  -0.03814   0.06752
  12   31020.4    322.4   0.181812421   1.92953   0.00032  -0.13361   1.38263
  13   32902.1    303.9   0.004353200   0.04356   0.07251  -0.17967   0.07758
  14   33065.8    302.4   0.000310975   0.00310   0.00910   0.03866  -0.03897
  15   33352.0    299.8   0.018874703   0.18631  -0.29434   0.29863  -0.10245
  16   34106.5    293.2   0.125890910   1.21516  -0.10397   0.57025  -0.93764
  17   35178.5    284.3   0.009459176   0.08852  -0.14707   0.25786  -0.01996
  18   35672.3    280.3   0.069468548   0.64111  -0.09614   0.79134  -0.07514
  19   36041.2    277.5   0.108002584   0.98653   0.12755  -0.61422   0.77006
  20   36237.9    276.0   0.027112046   0.24631   0.06636  -0.17374   0.46013
  21   36270.1    275.7   0.020164059   0.18302  -0.22881  -0.26107  -0.25003
  22   36709.8    272.4   0.033900490   0.30402  -0.00578   0.45712   0.30827
  23   36776.3    271.9   0.047670888   0.42674   0.07270  -0.59106  -0.26850
  24   37672.9    265.4   0.060930899   0.53246  -0.10635   0.11415   0.71282
  25   37736.1    265.0   0.002884615   0.02517   0.02838  -0.02594   0.15391
  26   38075.9    262.6   0.015343950   0.13267   0.13825   0.30972   0.13276
  27   38553.6    259.4   0.008632709   0.07372   0.06005   0.11831   0.23688
  28   38893.2    257.1   0.001919449   0.01625  -0.12392  -0.02985  -0.00109
  29   39130.5    255.6   0.343450127   2.88951   0.42896  -1.41882   0.83213
  30   39773.0    251.4   0.073985214   0.61240   0.08175  -0.57742   0.52182
  31   40212.9    248.7   0.028896893   0.23657  -0.19546   0.38727   0.21998

FINAL SINGLE POINT ENERGY     -3041.269739286537

DIPOLE MOMENT
-------------
                                X             Y             Z
Electronic contribution:     -8.62512       7.03646       0.12805
Nuclear contribution   :      8.43753      -7.74862       0.39600
                        -----------------------------------------
Total Dipole Moment    :     -0.18759      -0.71216       0.52405
                        -----------------------------------------
Magnitude (a.u.)       :      0.90388
Magnitude (Debye)      :      2.29747

Rotational constants in cm-1:     0.003787     0.000385     0.000355
Rotational constants in MHz :   113.525522    11.547581    10.628800

                             ****ORCA TERMINATED NORMALLY****
TOTAL RUN TIME: 0 days 0 hours 5 minutes 36 seconds 104 msec
