                         Program Version 4.2.0 -  RELEASE  -
|  1> # ORCA input file
|  2> # SCF done       -162.246159760828          0.000461994184
|  3> ! CAM-B3LYP def2-SVP def2/J RIJCOSX Grid4 TightSCF
|  4> %maxcore 5000
|  5> %tddft
|  6>     Mode sTDDFT
|  7>     Ethresh 5.0
|  8>     maxcore 5000
|  9> end
| 10>
| 11> %pal
| 12>   nprocs 6
| 13>   end
| 14> * xyz 0 1
| 15>    C        0.11613        -1.54322         1.80997
| 16>    C       -0.84883        -1.18474         0.82937
| 17>    C       -0.50198        -0.27896        -0.15413
| 18>    C        0.78959         0.27553        -0.18010
| 19>    C        1.74758        -0.09869         0.80301
| 20>    C        1.37471        -1.02384         1.80065
| 21>    N        2.99369         0.41668         0.78785
| 22>    C        3.27316         1.26887        -0.16124
| 23>    C        2.32152         1.64846        -1.13314
| 24>    N        1.11017         1.16637        -1.14445
| 25>    C       -2.16869        -1.77449         0.90293
| 26>    S       -2.60798        -2.66363         2.34036
| 27>    C       -4.20172        -3.05760         1.75398
| 28>    C       -4.36894        -2.50980         0.48995
| 29>    C       -3.23259        -1.78799         0.01837
| 30>    C       -3.49921        -1.27064        -1.33009
| 31>    O       -2.78626        -0.61912        -2.05308
| 32>    C       -4.90578        -1.71742        -1.68945
| 33>    C       -5.43543        -2.50260        -0.50596
| 34>    O       -6.53464        -3.00806        -0.44834
| 35>    C       -5.02715        -3.84673         2.59311
| 36>    C       -6.28264        -4.26006         2.27755
| 37>    C       -7.05193        -5.07700         3.14035
| 38>    N       -8.30821        -5.53836         2.82028
| 39>    C       -9.01996        -5.30988         1.58505
| 40>    C       -8.51993        -6.21693         0.46420
| 41>    C       -8.84484        -6.34940         3.83145
| 42>    O       -9.94102        -6.87275         3.76563
| 43>    C       -7.82638        -6.36298         4.85904
| 44>    C       -6.74214        -5.57186         4.40757
| 45>    C       -5.72678        -5.57944         5.43871
| 46>    O       -4.62902        -5.05909         5.50251
| 47>    N       -6.26728        -6.38255         6.45375
| 48>    C       -5.56323        -6.59964         7.69542
| 49>    C       -6.10578        -5.71895         8.81748
| 50>    C       -7.51559        -6.86035         6.12529
| 51>    C       -8.26023        -7.72502         6.96186
| 52>    C       -9.47230        -8.22346         6.59942
| 53>    C      -10.23897        -9.12512         7.37662
| 54>    S      -11.73139        -9.71802         6.68888
| 55>    C      -12.09660       -10.72984         8.06346
| 56>    C      -11.09635       -10.58973         9.01505
| 57>    C      -10.05735        -9.69566         8.63068
| 58>    C       -9.04812        -9.60701         9.68229
| 59>    O       -8.02390        -8.96113         9.70297
| 60>    C       -9.52263       -10.51104        10.80512
| 61>    C      -10.82852       -11.13513        10.34469
| 62>    O      -11.48005       -11.92251        10.99152
| 63>    C      -13.28422       -11.51393         8.00346
| 64>    C      -13.69905       -12.36510         8.96440
| 65>    C      -14.88663       -13.18648         8.91871
| 66>    C      -15.16770       -13.99370        10.05445
| 67>    C      -16.25933       -14.80729        10.10603
| 68>    C      -17.14561       -14.86456         9.00979
| 69>    C      -16.87851       -14.06336         7.86283
| 70>    C      -15.74723       -13.23304         7.83789
| 71>    N      -17.70629       -14.09635         6.79365
| 72>    C      -18.74273       -14.88498         6.86698
| 73>    C      -19.00625       -15.67725         8.00515
| 74>    N      -18.22687       -15.66859         9.05302
| 75>    H       -0.16025        -2.25448         2.57489
| 76>    H       -1.19065         0.02232        -0.92580
| 77>    H        2.10860        -1.30172         2.54069
| 78>    H        4.27576         1.67534        -0.16885
| 79>    H        2.56900         2.35998        -1.90978
| 80>    H       -4.90007        -2.32977        -2.59403
| 81>    H       -5.54201        -0.85566        -1.90409
| 82>    H       -4.59332        -4.13326         3.54319
| 83>    H       -6.71822        -3.97120         1.33301
| 84>    H       -8.92670        -4.26019         1.29669
| 85>    H      -10.06989        -5.53086         1.79675
| 86>    H       -7.47557        -6.01482         0.23969
| 87>    H       -9.10631        -6.04299        -0.43329
| 88>    H       -8.62265        -7.26030         0.75312
| 89>    H       -4.51852        -6.34393         7.49744
| 90>    H       -5.62590        -7.65427         7.97466
| 91>    H       -6.03629        -4.67034         8.53765
| 92>    H       -5.52333        -5.87958         9.72001
| 93>    H       -7.14467        -5.95865         9.02963
| 94>    H       -7.83085        -8.00370         7.91219
| 95>    H       -9.90222        -7.94066         5.64647
| 96>    H       -9.66837        -9.94242        11.72652
| 97>    H       -8.77972       -11.27958        11.02988
| 98>    H      -13.85726       -11.38533         7.09495
| 99>    H      -13.10562       -12.46045         9.86300
|100>    H      -14.48562       -13.94887        10.89097
|101>    H      -16.47382       -15.42113        10.96686
|102>    H      -15.58357       -12.64713         6.94773
|103>    H      -19.39912       -14.90618         6.00705
|104>    H      -19.87155       -16.32519         8.04860
|105> *
|106>
|107>                          ****END OF INPUT****

CARTESIAN COORDINATES (ANGSTROEM)
---------------------------------
  C      0.116130   -1.543220    1.809970
  C     -0.848830   -1.184740    0.829370
  C     -0.501980   -0.278960   -0.154130
  C      0.789590    0.275530   -0.180100
  C      1.747580   -0.098690    0.803010
  C      1.374710   -1.023840    1.800650
  N      2.993690    0.416680    0.787850
  C      3.273160    1.268870   -0.161240
  C      2.321520    1.648460   -1.133140
  N      1.110170    1.166370   -1.144450
  C     -2.168690   -1.774490    0.902930
  S     -2.607980   -2.663630    2.340360
  C     -4.201720   -3.057600    1.753980
  C     -4.368940   -2.509800    0.489950
  C     -3.232590   -1.787990    0.018370
  C     -3.499210   -1.270640   -1.330090
  O     -2.786260   -0.619120   -2.053080
  C     -4.905780   -1.717420   -1.689450
  C     -5.435430   -2.502600   -0.505960
  O     -6.534640   -3.008060   -0.448340
  C     -5.027150   -3.846730    2.593110
  C     -6.282640   -4.260060    2.277550
  C     -7.051930   -5.077000    3.140350
  N     -8.308210   -5.538360    2.820280
  C     -9.019960   -5.309880    1.585050
  C     -8.519930   -6.216930    0.464200
  C     -8.844840   -6.349400    3.831450
  O     -9.941020   -6.872750    3.765630
  C     -7.826380   -6.362980    4.859040
  C     -6.742140   -5.571860    4.407570
  C     -5.726780   -5.579440    5.438710
  O     -4.629020   -5.059090    5.502510
  N     -6.267280   -6.382550    6.453750
  C     -5.563230   -6.599640    7.695420
  C     -6.105780   -5.718950    8.817480
  C     -7.515590   -6.860350    6.125290
  C     -8.260230   -7.725020    6.961860
  C     -9.472300   -8.223460    6.599420
  C    -10.238970   -9.125120    7.376620
  S    -11.731390   -9.718020    6.688880
  C    -12.096600  -10.729840    8.063460
  C    -11.096350  -10.589730    9.015050
  C    -10.057350   -9.695660    8.630680
  C     -9.048120   -9.607010    9.682290
  O     -8.023900   -8.961130    9.702970
  C     -9.522630  -10.511040   10.805120
  C    -10.828520  -11.135130   10.344690
  O    -11.480050  -11.922510   10.991520
  C    -13.284220  -11.513930    8.003460
  C    -13.699050  -12.365100    8.964400
  C    -14.886630  -13.186480    8.918710
  C    -15.167700  -13.993700   10.054450
  C    -16.259330  -14.807290   10.106030
  C    -17.145610  -14.864560    9.009790
  C    -16.878510  -14.063360    7.862830
  C    -15.747230  -13.233040    7.837890
  N    -17.706290  -14.096350    6.793650
  C    -18.742730  -14.884980    6.866980
  C    -19.006250  -15.677250    8.005150
  N    -18.226870  -15.668590    9.053020
  H     -0.160250   -2.254480    2.574890
  H     -1.190650    0.022320   -0.925800
  H      2.108600   -1.301720    2.540690
  H      4.275760    1.675340   -0.168850
  H      2.569000    2.359980   -1.909780
  H     -4.900070   -2.329770   -2.594030
  H     -5.542010   -0.855660   -1.904090
  H     -4.593320   -4.133260    3.543190
  H     -6.718220   -3.971200    1.333010
  H     -8.926700   -4.260190    1.296690
  H    -10.069890   -5.530860    1.796750
  H     -7.475570   -6.014820    0.239690
  H     -9.106310   -6.042990   -0.433290
  H     -8.622650   -7.260300    0.753120
  H     -4.518520   -6.343930    7.497440
  H     -5.625900   -7.654270    7.974660
  H     -6.036290   -4.670340    8.537650
  H     -5.523330   -5.879580    9.720010
  H     -7.144670   -5.958650    9.029630
  H     -7.830850   -8.003700    7.912190
  H     -9.902220   -7.940660    5.646470
  H     -9.668370   -9.942420   11.726520
  H     -8.779720  -11.279580   11.029880
  H    -13.857260  -11.385330    7.094950
  H    -13.105620  -12.460450    9.863000
  H    -14.485620  -13.948870   10.890970
  H    -16.473820  -15.421130   10.966860
  H    -15.583570  -12.647130    6.947730
  H    -19.399120  -14.906180    6.007050
  H    -19.871550  -16.325190    8.048600

 Total Charge           Charge          ....    0
 Multiplicity           Mult            ....    1
 Number of Electrons    NEL             ....  428
 Basis Dimension        Dim             ....  998

ORBITAL ENERGIES
----------------

  NO   OCC          E(Eh)            E(eV)
   0   2.0000     -88.979288     -2421.2495
   1   2.0000     -88.977793     -2421.2089
   2   2.0000     -19.221617      -523.0468
   3   2.0000     -19.220550      -523.0177
   4   2.0000     -19.218897      -522.9728
   5   2.0000     -19.217753      -522.9417
   6   2.0000     -19.189380      -522.1696
   7   2.0000     -19.188543      -522.1468
   8   2.0000     -14.449639      -393.1947
   9   2.0000     -14.449331      -393.1863
  10   2.0000     -14.418884      -392.3578
  11   2.0000     -14.418745      -392.3540
  12   2.0000     -14.418493      -392.3471
  13   2.0000     -14.417650      -392.3242
  14   2.0000     -10.374458      -282.3033
  15   2.0000     -10.373464      -282.2763
  16   2.0000     -10.372641      -282.2539
  17   2.0000     -10.372368      -282.2465
  18   2.0000     -10.371573      -282.2249
  19   2.0000     -10.370834      -282.2048
  20   2.0000     -10.334337      -281.2116
  21   2.0000     -10.333841      -281.1981
  22   2.0000     -10.333016      -281.1756
  23   2.0000     -10.332248      -281.1548
  24   2.0000     -10.330049      -281.0949
  25   2.0000     -10.329040      -281.0675
  26   2.0000     -10.314053      -280.6597
  27   2.0000     -10.313388      -280.6415
  28   2.0000     -10.313105      -280.6339
  29   2.0000     -10.312575      -280.6194
  30   2.0000     -10.312219      -280.6098
  31   2.0000     -10.311070      -280.5785
  32   2.0000     -10.310748      -280.5697
  33   2.0000     -10.310126      -280.5528
  34   2.0000     -10.301098      -280.3071
  35   2.0000     -10.300708      -280.2965
  36   2.0000     -10.300461      -280.2898
  37   2.0000     -10.294777      -280.1351
  38   2.0000     -10.294439      -280.1259
  39   2.0000     -10.293642      -280.1042
  40   2.0000     -10.293520      -280.1009
  41   2.0000     -10.293402      -280.0977
  42   2.0000     -10.292331      -280.0686
  43   2.0000     -10.291146      -280.0363
  44   2.0000     -10.289560      -279.9932
  45   2.0000     -10.287250      -279.9303
  46   2.0000     -10.285220      -279.8751
  47   2.0000     -10.284842      -279.8648
  48   2.0000     -10.284361      -279.8517
  49   2.0000     -10.283690      -279.8334
  50   2.0000     -10.283519      -279.8288
  51   2.0000     -10.280321      -279.7418
  52   2.0000     -10.279411      -279.7170
  53   2.0000     -10.278902      -279.7031
  54   2.0000     -10.275815      -279.6191
  55   2.0000     -10.275160      -279.6013
  56   2.0000     -10.259474      -279.1745
  57   2.0000     -10.258916      -279.1593
  58   2.0000     -10.255182      -279.0577
  59   2.0000     -10.255070      -279.0546
  60   2.0000      -8.074551      -219.7197
  61   2.0000      -8.073433      -219.6893
  62   2.0000      -6.043641      -164.4558
  63   2.0000      -6.042495      -164.4247
  64   2.0000      -6.039322      -164.3383
  65   2.0000      -6.038269      -164.3096
  66   2.0000      -6.037177      -164.2799
  67   2.0000      -6.035955      -164.2467
  68   2.0000      -1.138478       -30.9796
  69   2.0000      -1.138060       -30.9682
  70   2.0000      -1.133306       -30.8388
  71   2.0000      -1.133185       -30.8355
  72   2.0000      -1.130706       -30.7681
  73   2.0000      -1.124112       -30.5886
  74   2.0000      -1.073789       -29.2193
  75   2.0000      -1.073616       -29.2146
  76   2.0000      -1.060545       -28.8589
  77   2.0000      -1.052001       -28.6264
  78   2.0000      -1.011526       -27.5250
  79   2.0000      -1.009448       -27.4685
  80   2.0000      -0.996608       -27.1191
  81   2.0000      -0.996585       -27.1184
  82   2.0000      -0.955872       -26.0106
  83   2.0000      -0.954930       -25.9850
  84   2.0000      -0.929478       -25.2924
  85   2.0000      -0.928519       -25.2663
  86   2.0000      -0.923872       -25.1398
  87   2.0000      -0.916910       -24.9504
  88   2.0000      -0.907295       -24.6888
  89   2.0000      -0.890550       -24.2331
  90   2.0000      -0.873809       -23.7775
  91   2.0000      -0.864418       -23.5220
  92   2.0000      -0.857074       -23.3222
  93   2.0000      -0.848511       -23.0892
  94   2.0000      -0.844863       -22.9899
  95   2.0000      -0.831790       -22.6342
  96   2.0000      -0.825871       -22.4731
  97   2.0000      -0.823962       -22.4211
  98   2.0000      -0.819952       -22.3120
  99   2.0000      -0.814113       -22.1531
 100   2.0000      -0.788773       -21.4636
 101   2.0000      -0.776477       -21.1290
 102   2.0000      -0.761360       -20.7177
 103   2.0000      -0.759662       -20.6714
 104   2.0000      -0.754237       -20.5238
 105   2.0000      -0.740335       -20.1455
 106   2.0000      -0.739608       -20.1258
 107   2.0000      -0.728833       -19.8325
 108   2.0000      -0.718123       -19.5411
 109   2.0000      -0.706258       -19.2182
 110   2.0000      -0.702723       -19.1221
 111   2.0000      -0.701747       -19.0955
 112   2.0000      -0.700706       -19.0672
 113   2.0000      -0.698852       -19.0167
 114   2.0000      -0.692740       -18.8504
 115   2.0000      -0.683392       -18.5960
 116   2.0000      -0.673061       -18.3149
 117   2.0000      -0.660753       -17.9800
 118   2.0000      -0.644970       -17.5505
 119   2.0000      -0.642202       -17.4752
 120   2.0000      -0.627068       -17.0634
 121   2.0000      -0.626726       -17.0541
 122   2.0000      -0.620129       -16.8746
 123   2.0000      -0.618112       -16.8197
 124   2.0000      -0.609819       -16.5940
 125   2.0000      -0.606173       -16.4948
 126   2.0000      -0.596115       -16.2211
 127   2.0000      -0.592164       -16.1136
 128   2.0000      -0.589289       -16.0354
 129   2.0000      -0.584800       -15.9132
 130   2.0000      -0.580293       -15.7906
 131   2.0000      -0.574002       -15.6194
 132   2.0000      -0.568018       -15.4566
 133   2.0000      -0.567426       -15.4405
 134   2.0000      -0.567075       -15.4309
 135   2.0000      -0.563743       -15.3402
 136   2.0000      -0.560405       -15.2494
 137   2.0000      -0.558924       -15.2091
 138   2.0000      -0.556263       -15.1367
 139   2.0000      -0.554543       -15.0899
 140   2.0000      -0.549231       -14.9453
 141   2.0000      -0.534261       -14.5380
 142   2.0000      -0.530049       -14.4234
 143   2.0000      -0.526983       -14.3399
 144   2.0000      -0.524891       -14.2830
 145   2.0000      -0.524320       -14.2675
 146   2.0000      -0.523989       -14.2585
 147   2.0000      -0.523273       -14.2390
 148   2.0000      -0.522825       -14.2268
 149   2.0000      -0.521363       -14.1870
 150   2.0000      -0.520757       -14.1705
 151   2.0000      -0.519488       -14.1360
 152   2.0000      -0.516914       -14.0659
 153   2.0000      -0.515868       -14.0375
 154   2.0000      -0.514004       -13.9868
 155   2.0000      -0.509895       -13.8750
 156   2.0000      -0.508629       -13.8405
 157   2.0000      -0.504917       -13.7395
 158   2.0000      -0.500381       -13.6161
 159   2.0000      -0.498110       -13.5543
 160   2.0000      -0.497889       -13.5482
 161   2.0000      -0.487661       -13.2699
 162   2.0000      -0.485332       -13.2065
 163   2.0000      -0.484286       -13.1781
 164   2.0000      -0.483900       -13.1676
 165   2.0000      -0.482333       -13.1250
 166   2.0000      -0.478424       -13.0186
 167   2.0000      -0.470471       -12.8022
 168   2.0000      -0.466127       -12.6840
 169   2.0000      -0.462469       -12.5844
 170   2.0000      -0.461663       -12.5625
 171   2.0000      -0.457112       -12.4386
 172   2.0000      -0.455009       -12.3814
 173   2.0000      -0.453445       -12.3389
 174   2.0000      -0.451116       -12.2755
 175   2.0000      -0.449147       -12.2219
 176   2.0000      -0.446481       -12.1494
 177   2.0000      -0.444963       -12.1080
 178   2.0000      -0.444511       -12.0958
 179   2.0000      -0.439899       -11.9702
 180   2.0000      -0.437518       -11.9055
 181   2.0000      -0.435994       -11.8640
 182   2.0000      -0.435127       -11.8404
 183   2.0000      -0.431567       -11.7435
 184   2.0000      -0.431457       -11.7405
 185   2.0000      -0.427912       -11.6441
 186   2.0000      -0.425139       -11.5686
 187   2.0000      -0.419479       -11.4146
 188   2.0000      -0.417679       -11.3656
 189   2.0000      -0.417456       -11.3596
 190   2.0000      -0.415866       -11.3163
 191   2.0000      -0.401495       -10.9252
 192   2.0000      -0.382668       -10.4129
 193   2.0000      -0.381461       -10.3801
 194   2.0000      -0.380676       -10.3587
 195   2.0000      -0.363386        -9.8882
 196   2.0000      -0.351128        -9.5547
 197   2.0000      -0.350674        -9.5423
 198   2.0000      -0.346518        -9.4292
 199   2.0000      -0.345579        -9.4037
 200   2.0000      -0.344388        -9.3713
 201   2.0000      -0.333835        -9.0841
 202   2.0000      -0.329860        -8.9760
 203   2.0000      -0.327510        -8.9120
 204   2.0000      -0.326806        -8.8928
 205   2.0000      -0.323189        -8.7944
 206   2.0000      -0.317802        -8.6478
 207   2.0000      -0.316956        -8.6248
 208   2.0000      -0.314830        -8.5670
 209   2.0000      -0.314180        -8.5493
 210   2.0000      -0.311747        -8.4831
 211   2.0000      -0.286353        -7.7921
 212   2.0000      -0.272791        -7.4230
 213   2.0000      -0.230772        -6.2796
 214   0.0000      -0.098351        -2.6763
 215   0.0000      -0.067807        -1.8451
 216   0.0000      -0.057095        -1.5536
 217   0.0000      -0.047243        -1.2855
 218   0.0000      -0.028636        -0.7792

MULLIKEN ATOMIC CHARGES
-----------------------
   0 C :   -0.019541
   1 C :    0.149058
   2 C :   -0.064722
   3 C :   -0.012545
   4 C :   -0.022384
   5 C :    0.008963
   6 N :   -0.018521
   7 C :    0.024341
   8 C :    0.018487
   9 N :   -0.003154
  10 C :   -0.116460
  11 S :    0.169198
  12 C :   -0.129529
  13 C :    0.015817
  14 C :    0.021706
  15 C :    0.018986
  16 O :   -0.146369
  17 C :    0.083368
  18 C :    0.032049
  19 O :   -0.166489
  20 C :    0.059542
  21 C :   -0.026228
  22 C :    0.125840
  23 N :   -0.255821
  24 C :    0.099688
  25 C :    0.010767
  26 C :    0.165183
  27 O :   -0.213974
  28 C :   -0.064894
  29 C :   -0.063873
  30 C :    0.165563
  31 O :   -0.213266
  32 N :   -0.256412
  33 C :    0.100186
  34 C :    0.009994
  35 C :    0.127427
  36 C :   -0.028369
  37 C :    0.067033
  38 C :   -0.142648
  39 S :    0.188956
  40 C :   -0.131631
  41 C :    0.015950
  42 C :    0.019415
  43 C :    0.030503
  44 O :   -0.165521
  45 C :    0.081516
  46 C :    0.026267
  47 O :   -0.159127
  48 C :    0.076675
  49 C :   -0.011807
  50 C :    0.126427
  51 C :   -0.000974
  52 C :    0.015818
  53 C :   -0.028501
  54 C :   -0.000931
  55 C :   -0.050048
  56 N :   -0.015581
  57 C :    0.020152
  58 C :    0.018290
  59 N :   -0.016162
  60 H :    0.002029
  61 H :   -0.016867
  62 H :   -0.021165
  63 H :    0.010842
  64 H :    0.012487
  65 H :    0.067751
  66 H :    0.069004
  67 H :   -0.001255
  68 H :   -0.011396
  69 H :    0.036682
  70 H :    0.037887
  71 H :    0.018055
  72 H :    0.022872
  73 H :    0.022596
  74 H :    0.037835
  75 H :    0.035233
  76 H :    0.022322
  77 H :    0.022761
  78 H :    0.019962
  79 H :   -0.012608
  80 H :   -0.002149
  81 H :    0.068188
  82 H :    0.066416
  83 H :   -0.020564
  84 H :    0.000222
  85 H :   -0.000551
  86 H :   -0.023394
  87 H :   -0.033803
  88 H :    0.011290
  89 H :    0.011642
Sum of atomic charges:   -0.0000000

LOEWDIN ATOMIC CHARGES
----------------------
   0 C :   -0.020137
   1 C :   -0.047670
   2 C :    0.014390
   3 C :   -0.015314
   4 C :   -0.010822
   5 C :   -0.008914
   6 N :   -0.041983
   7 C :    0.003999
   8 C :    0.000947
   9 N :   -0.032989
  10 C :   -0.120469
  11 S :    0.500096
  12 C :   -0.133353
  13 C :   -0.096522
  14 C :   -0.095254
  15 C :    0.082489
  16 O :   -0.124433
  17 C :   -0.064885
  18 C :    0.083216
  19 O :   -0.144416
  20 C :   -0.011454
  21 C :   -0.021643
  22 C :    0.071363
  23 N :    0.003759
  24 C :    0.037647
  25 C :   -0.058899
  26 C :    0.079314
  27 O :   -0.204562
  28 C :   -0.117877
  29 C :   -0.116386
  30 C :    0.080018
  31 O :   -0.203757
  32 N :    0.003376
  33 C :    0.037483
  34 C :   -0.058880
  35 C :    0.073502
  36 C :   -0.025516
  37 C :   -0.008233
  38 C :   -0.137843
  39 S :    0.492607
  40 C :   -0.123992
  41 C :   -0.101297
  42 C :   -0.092546
  43 C :    0.084053
  44 O :   -0.143217
  45 C :   -0.064303
  46 C :    0.082555
  47 O :   -0.138560
  48 C :   -0.052929
  49 C :    0.019390
  50 C :   -0.026464
  51 C :   -0.002899
  52 C :   -0.010256
  53 C :   -0.011984
  54 C :   -0.014701
  55 C :    0.000701
  56 N :   -0.041684
  57 C :    0.000232
  58 C :    0.000667
  59 N :   -0.040257
  60 H :    0.021817
  61 H :    0.035502
  62 H :    0.037584
  63 H :    0.025655
  64 H :    0.026099
  65 H :    0.063846
  66 H :    0.063838
  67 H :    0.033815
  68 H :    0.029261
  69 H :    0.028931
  70 H :    0.035659
  71 H :    0.023766
  72 H :    0.031422
  73 H :    0.028681
  74 H :    0.035375
  75 H :    0.028289
  76 H :    0.028616
  77 H :    0.031402
  78 H :    0.024448
  79 H :    0.028979
  80 H :    0.034069
  81 H :    0.063658
  82 H :    0.062656
  83 H :    0.026056
  84 H :    0.030511
  85 H :    0.036291
  86 H :    0.036535
  87 H :    0.031720
  88 H :    0.025477
  89 H :    0.025538

  Mayer bond orders larger than 0.100000
B(  0-C ,  1-C ) :   1.1781 B(  0-C ,  5-C ) :   1.5034 B(  0-C , 60-H ) :   0.9808
B(  1-C ,  2-C ) :   1.3938 B(  1-C , 10-C ) :   1.0857 B(  2-C ,  3-C ) :   1.2230
B(  2-C , 61-H ) :   0.9963 B(  3-C ,  4-C ) :   1.2394 B(  3-C ,  9-N ) :   1.4444
B(  4-C ,  5-C ) :   1.2296 B(  4-C ,  6-N ) :   1.4337 B(  5-C , 62-H ) :   1.0045
B(  6-N ,  7-C ) :   1.6699 B(  7-C ,  8-C ) :   1.2242 B(  7-C , 63-H ) :   0.9735
B(  8-C ,  9-N ) :   1.6777 B(  8-C , 64-H ) :   0.9742 B( 10-C , 11-S ) :   1.1532
B( 10-C , 14-C ) :   1.4944 B( 11-S , 12-C ) :   1.1541 B( 12-C , 13-C ) :   1.4297
B( 12-C , 20-C ) :   1.1577 B( 13-C , 14-C ) :   1.2029 B( 13-C , 18-C ) :   0.9676
B( 14-C , 15-C ) :   0.9368 B( 15-C , 16-O ) :   2.1660 B( 15-C , 17-C ) :   1.0028
B( 17-C , 18-C ) :   1.0052 B( 17-C , 65-H ) :   0.8930 B( 17-C , 66-H ) :   0.8954
B( 18-C , 19-O ) :   2.1195 B( 19-O , 68-H ) :   0.1153 B( 20-C , 21-C ) :   1.6026
B( 20-C , 67-H ) :   0.9283 B( 21-C , 22-C ) :   1.1660 B( 21-C , 68-H ) :   0.9348
B( 22-C , 23-N ) :   1.1612 B( 22-C , 29-C ) :   1.3243 B( 23-N , 24-C ) :   0.9406
B( 23-N , 26-C ) :   1.0687 B( 24-C , 25-C ) :   1.1254 B( 24-C , 69-H ) :   0.9477
B( 24-C , 70-H ) :   0.9285 B( 25-C , 71-H ) :   0.9671 B( 25-C , 72-H ) :   0.9671
B( 25-C , 73-H ) :   0.9637 B( 26-C , 27-O ) :   2.0198 B( 26-C , 28-C ) :   0.9842
B( 27-O , 80-H ) :   0.1159 B( 28-C , 29-C ) :   1.2624 B( 28-C , 35-C ) :   1.3215
B( 29-C , 30-C ) :   0.9823 B( 30-C , 31-O ) :   2.0215 B( 30-C , 32-N ) :   1.0688
B( 31-O , 67-H ) :   0.1152 B( 32-N , 33-C ) :   0.9403 B( 32-N , 35-C ) :   1.1603
B( 33-C , 34-C ) :   1.1256 B( 33-C , 74-H ) :   0.9284 B( 33-C , 75-H ) :   0.9473
B( 34-C , 76-H ) :   0.9635 B( 34-C , 77-H ) :   0.9672 B( 34-C , 78-H ) :   0.9673
B( 35-C , 36-C ) :   1.1697 B( 36-C , 37-C ) :   1.5980 B( 36-C , 79-H ) :   0.9357
B( 37-C , 38-C ) :   1.1592 B( 37-C , 80-H ) :   0.9287 B( 38-C , 39-S ) :   1.1470
B( 38-C , 42-C ) :   1.4310 B( 39-S , 40-C ) :   1.1539 B( 40-C , 41-C ) :   1.4445
B( 40-C , 48-C ) :   1.1378 B( 41-C , 42-C ) :   1.2134 B( 41-C , 46-C ) :   0.9584
B( 42-C , 43-C ) :   0.9636 B( 43-C , 44-O ) :   2.1221 B( 43-C , 45-C ) :   1.0064
B( 44-O , 79-H ) :   0.1132 B( 45-C , 46-C ) :   1.0060 B( 45-C , 81-H ) :   0.8939
B( 45-C , 82-H ) :   0.8958 B( 46-C , 47-O ) :   2.1335 B( 47-O , 84-H ) :   0.1184
B( 48-C , 49-C ) :   1.6844 B( 48-C , 83-H ) :   0.9460 B( 49-C , 50-C ) :   1.0697
B( 49-C , 84-H ) :   0.9590 B( 50-C , 51-C ) :   1.2102 B( 50-C , 55-C ) :   1.3822
B( 51-C , 52-C ) :   1.4675 B( 51-C , 85-H ) :   1.0007 B( 52-C , 53-C ) :   1.2350
B( 52-C , 55-C ) :   0.1031 B( 52-C , 86-H ) :   1.0050 B( 53-C , 54-C ) :   1.2389
B( 53-C , 59-N ) :   1.4327 B( 54-C , 55-C ) :   1.2431 B( 54-C , 56-N ) :   1.4334
B( 55-C , 87-H ) :   1.0062 B( 56-N , 57-C ) :   1.6787 B( 57-C , 58-C ) :   1.2242
B( 57-C , 88-H ) :   0.9737 B( 58-C , 59-N ) :   1.6719 B( 58-C , 89-H ) :   0.9740

-----------------------------------------------------------------------------
         ABSORPTION SPECTRUM VIA TRANSITION ELECTRIC DIPOLE MOMENTS
-----------------------------------------------------------------------------
State   Energy  Wavelength   fosc         T2         TX        TY        TZ
        (cm-1)    (nm)                  (au**2)     (au)      (au)      (au)
-----------------------------------------------------------------------------
   0   13464.5    742.7   1.129958067  27.62799  -2.68828  -3.16471   3.22269
   1   21355.4    468.3   0.015477885   0.23861   0.31861   0.30144   0.21500
   2   23894.5    418.5   0.592923960   8.16914  -2.31514  -1.66925   0.15121
   3   24540.1    407.5   0.113902967   1.52804   0.90308   0.12650   0.83455
   4   25667.5    389.6   0.385766431   4.94785  -1.90906  -1.09414   0.32589
   5   25951.6    385.3   0.305186603   3.87148   1.55481   1.02150  -0.64077
   6   26189.1    381.8   0.011628532   0.14618   0.22213  -0.03959   0.30866
   7   28012.7    357.0   0.003681069   0.04326  -0.13963  -0.15115  -0.03029
   8   29624.3    337.6   0.003223782   0.03583  -0.09503   0.07161   0.14720
   9   29653.6    337.2   0.004953895   0.05500   0.13635  -0.17601  -0.07367
  10   29951.2    333.9   0.003621062   0.03980  -0.06202   0.15782   0.10511
  11   29986.8    333.5   0.000668293   0.00734  -0.01847   0.07407   0.03885
  12   30112.8    332.1   0.439913315   4.80941   1.85944   1.00125   0.59108
  13   31054.4    322.0   0.022286073   0.23626   0.42724   0.18071  -0.14515
  14   31487.7    317.6   0.000545440   0.00570  -0.05326  -0.05266   0.00961
  15   31873.5    313.7   0.006065159   0.06265  -0.21439  -0.12868   0.01120
  16   32242.0    310.2   0.054022171   0.55160  -0.43452  -0.45140   0.39879
  17   32655.3    306.2   0.043440206   0.43794   0.56150   0.30031  -0.18020
  18   33812.3    295.8   0.053432125   0.52024  -0.65994  -0.27585  -0.09284
  19   33831.8    295.6   0.073304488   0.71332   0.75825   0.31784   0.19327
  20   34017.9    294.0   0.149923865   1.45090  -0.90043  -0.66092   0.45091
  21   34312.1    291.4   0.009408733   0.09027  -0.05001   0.19748  -0.22085
  22   34696.5    288.2   0.030647085   0.29079  -0.43179  -0.08076  -0.31278
  23   34912.6    286.4   0.017729076   0.16718  -0.22567  -0.24792   0.23407
  24   35871.8    278.8   0.000950543   0.00872   0.04865  -0.07790   0.01697
  25   36311.1    275.4   0.025787521   0.23380   0.37376   0.28706  -0.10816
  26   36572.6    273.4   0.018991823   0.17096   0.26219   0.22200  -0.23006
  27   37143.6    269.2   0.008455929   0.07495   0.10898   0.22972  -0.10149
  28   37287.3    268.2   0.000449160   0.00397  -0.00864   0.05198   0.03448
  29   37681.2    265.4   0.001229670   0.01074  -0.05482   0.08187   0.03217
  30   37778.8    264.7   0.027272636   0.23766  -0.03755   0.24337  -0.42074
  31   37882.8    264.0   0.028767765   0.25000  -0.38101  -0.30687   0.10327
  32   38133.2    262.2   0.001994328   0.01722   0.03995   0.08442  -0.09217
  33   38376.5    260.6   0.078303022   0.67172   0.74253   0.31746   0.13997
  34   38693.6    258.4   0.062157743   0.52885  -0.46889  -0.11894  -0.54300
  35   39496.6    253.2   0.117807478   0.98195   0.77446   0.09621   0.61066
  36   39684.0    252.0   0.033971841   0.28182  -0.45957  -0.23604  -0.12210
  37   40107.6    249.3   0.105117595   0.86283   0.80167   0.46275   0.07759
  38   40179.3    248.9   0.000061722   0.00051   0.01350   0.01776  -0.00280

FINAL SINGLE POINT ENERGY     -3343.830461858864

DIPOLE MOMENT
-------------
                                X             Y             Z
Electronic contribution:      6.70852       5.77305      -5.34124
Nuclear contribution   :     -6.83404      -6.06976       5.50602
                        -----------------------------------------
Total Dipole Moment    :     -0.12553      -0.29672       0.16478
                        -----------------------------------------
Magnitude (a.u.)       :      0.36187
Magnitude (Debye)      :      0.91980

Rotational constants in cm-1:     0.003763     0.000300     0.000279
Rotational constants in MHz :   112.810216     8.998760     8.378309

                             ****ORCA TERMINATED NORMALLY****
TOTAL RUN TIME: 0 days 0 hours 6 minutes 35 seconds 100 msec
