                         Program Version 4.2.0 -  RELEASE  -
|  1> # ORCA input file
|  2> # SCF done       -127.986329090951          0.000286162352
|  3> ! CAM-B3LYP def2-SVP def2/J RIJCOSX Grid4 TightSCF
|  4> %maxcore 5000
|  5> %tddft
|  6>     Mode sTDDFT
|  7>     Ethresh 5.0
|  8>     maxcore 5000
|  9> end
| 10>
| 11> %pal
| 12>   nprocs 6
| 13>   end
| 14> * xyz 0 1
| 15>    C        0.03997         6.10102        -3.41832
| 16>    C        1.28970         6.24090        -3.85735
| 17>    C        2.26175         5.18037        -3.89532
| 18>    C        2.10708         3.85479        -3.49799
| 19>    C        3.30873         3.20406        -3.71880
| 20>    C        4.19979         4.13430        -4.26110
| 21>    C        5.53450         3.85652        -4.67165
| 22>    S        6.41645         4.77010        -5.86722
| 23>    C        7.79067         3.70474        -5.80855
| 24>    C        8.90637         3.99508        -6.63588
| 25>    C       10.01682         3.23162        -6.76849
| 26>    C       11.08121         3.61993        -7.61419
| 27>    C       12.23890         2.98290        -7.89413
| 28>    C       13.10018         3.69405        -8.79411
| 29>    C       14.33482         3.52495        -9.38917
| 30>    N       14.58332         4.61910       -10.15538
| 31>    C       13.53633         5.50761       -10.07675
| 32>    C       13.45452         6.76791       -10.73772
| 33>    S       12.05248         7.75590       -10.49001
| 34>    C       12.68089         9.00894       -11.53373
| 35>    C       11.90550        10.18160       -11.73295
| 36>    C       12.28056        11.23811       -12.49480
| 37>    C       11.51111        12.41277       -12.69316
| 38>    C       10.27413        12.77634       -12.15977
| 39>    C        9.95024        14.03325       -12.66373
| 40>    C       10.98622        14.41289       -13.49036
| 41>    N       11.92606        13.44627       -13.50155
| 42>    C       13.12036        13.48188       -14.30801
| 43>    C       12.94953        12.68968       -15.60302
| 44>    C       13.92595         8.65328       -12.04573
| 45>    C       14.71181         9.41525       -12.92019
| 46>    N       15.38363        10.00838       -13.63965
| 47>    C       14.36265         7.37593       -11.58843
| 48>    C       15.58187         6.79082       -11.95563
| 49>    N       16.57074         6.27394       -12.22935
| 50>    C       12.60444         4.94415        -9.23347
| 51>    S       11.01106         5.20722        -8.50265
| 52>    O        9.97773         5.21240        -9.50478
| 53>    O       11.03147         6.32294        -7.59393
| 54>    C        7.56616         2.68391        -4.89631
| 55>    C        8.47147         1.65543        -4.58880
| 56>    N        9.18709         0.80058        -4.31651
| 57>    C        6.29857         2.76972        -4.25485
| 58>    C        5.93886         1.84984        -3.25622
| 59>    N        5.70462         1.08339        -2.43505
| 60>    N        3.53877         5.33560        -4.35645
| 61>    C        4.09084         6.58220        -4.82545
| 62>    C        3.75431         6.83496        -6.29397
| 63>    H       -0.64633         6.92923        -3.41527
| 64>    H       -0.33754         5.16353        -3.05111
| 65>    H        1.60555         7.21001        -4.21792
| 66>    H        1.21650         3.41600        -3.09731
| 67>    H        3.51757         2.17005        -3.53564
| 68>    H        8.83975         4.90887        -7.21141
| 69>    H       10.12228         2.30013        -6.22820
| 70>    H       12.50833         2.02280        -7.48320
| 71>    H       15.03824         2.71964        -9.32228
| 72>    H       15.41633         4.76894       -10.70642
| 73>    H       10.95402        10.19685       -11.22217
| 74>    H       13.23667        11.19408       -12.99342
| 75>    H        9.68721        12.19175       -11.48037
| 76>    H        9.06768        14.60356       -12.45305
| 77>    H       11.10809        15.31353       -14.06072
| 78>    H       13.96214        13.08298       -13.73582
| 79>    H       13.33418        14.52831       -14.54080
| 80>    H       12.74458        11.64416       -15.38795
| 81>    H       13.85970        12.74805       -16.19266
| 82>    H       12.12455        13.09175       -16.18682
| 83>    H        5.17367         6.56446        -4.68662
| 84>    H        3.69732         7.39276        -4.20588
| 85>    H        4.14936         6.03819        -6.91890
| 86>    H        4.19067         7.77597        -6.61635
| 87>    H        2.67702         6.87887        -6.43556
| 88> *
| 89>
| 90>                          ****END OF INPUT****

CARTESIAN COORDINATES (ANGSTROEM)
---------------------------------
  C      0.039970    6.101020   -3.418320
  C      1.289700    6.240900   -3.857350
  C      2.261750    5.180370   -3.895320
  C      2.107080    3.854790   -3.497990
  C      3.308730    3.204060   -3.718800
  C      4.199790    4.134300   -4.261100
  C      5.534500    3.856520   -4.671650
  S      6.416450    4.770100   -5.867220
  C      7.790670    3.704740   -5.808550
  C      8.906370    3.995080   -6.635880
  C     10.016820    3.231620   -6.768490
  C     11.081210    3.619930   -7.614190
  C     12.238900    2.982900   -7.894130
  C     13.100180    3.694050   -8.794110
  C     14.334820    3.524950   -9.389170
  N     14.583320    4.619100  -10.155380
  C     13.536330    5.507610  -10.076750
  C     13.454520    6.767910  -10.737720
  S     12.052480    7.755900  -10.490010
  C     12.680890    9.008940  -11.533730
  C     11.905500   10.181600  -11.732950
  C     12.280560   11.238110  -12.494800
  C     11.511110   12.412770  -12.693160
  C     10.274130   12.776340  -12.159770
  C      9.950240   14.033250  -12.663730
  C     10.986220   14.412890  -13.490360
  N     11.926060   13.446270  -13.501550
  C     13.120360   13.481880  -14.308010
  C     12.949530   12.689680  -15.603020
  C     13.925950    8.653280  -12.045730
  C     14.711810    9.415250  -12.920190
  N     15.383630   10.008380  -13.639650
  C     14.362650    7.375930  -11.588430
  C     15.581870    6.790820  -11.955630
  N     16.570740    6.273940  -12.229350
  C     12.604440    4.944150   -9.233470
  S     11.011060    5.207220   -8.502650
  O      9.977730    5.212400   -9.504780
  O     11.031470    6.322940   -7.593930
  C      7.566160    2.683910   -4.896310
  C      8.471470    1.655430   -4.588800
  N      9.187090    0.800580   -4.316510
  C      6.298570    2.769720   -4.254850
  C      5.938860    1.849840   -3.256220
  N      5.704620    1.083390   -2.435050
  N      3.538770    5.335600   -4.356450
  C      4.090840    6.582200   -4.825450
  C      3.754310    6.834960   -6.293970
  H     -0.646330    6.929230   -3.415270
  H     -0.337540    5.163530   -3.051110
  H      1.605550    7.210010   -4.217920
  H      1.216500    3.416000   -3.097310
  H      3.517570    2.170050   -3.535640
  H      8.839750    4.908870   -7.211410
  H     10.122280    2.300130   -6.228200
  H     12.508330    2.022800   -7.483200
  H     15.038240    2.719640   -9.322280
  H     15.416330    4.768940  -10.706420
  H     10.954020   10.196850  -11.222170
  H     13.236670   11.194080  -12.993420
  H      9.687210   12.191750  -11.480370
  H      9.067680   14.603560  -12.453050
  H     11.108090   15.313530  -14.060720
  H     13.962140   13.082980  -13.735820
  H     13.334180   14.528310  -14.540800
  H     12.744580   11.644160  -15.387950
  H     13.859700   12.748050  -16.192660
  H     12.124550   13.091750  -16.186820
  H      5.173670    6.564460   -4.686620
  H      3.697320    7.392760   -4.205880
  H      4.149360    6.038190   -6.918900
  H      4.190670    7.775970   -6.616350
  H      2.677020    6.878870   -6.435560

 Total Charge           Charge          ....    0
 Multiplicity           Mult            ....    1
 Number of Electrons    NEL             ....  354
 Basis Dimension        Dim             ....  809

ORBITAL ENERGIES
----------------

  NO   OCC          E(Eh)            E(eV)
   0   2.0000     -89.151933     -2425.9474
   1   2.0000     -88.987638     -2421.4767
   2   2.0000     -88.986334     -2421.4412
   3   2.0000     -19.199960      -522.4575
   4   2.0000     -19.199739      -522.4515
   5   2.0000     -14.494570      -394.4173
   6   2.0000     -14.473997      -393.8575
   7   2.0000     -14.467530      -393.6815
   8   2.0000     -14.429846      -392.6561
   9   2.0000     -14.417508      -392.3203
  10   2.0000     -14.413253      -392.2046
  11   2.0000     -14.404185      -391.9578
  12   2.0000     -10.349962      -281.6368
  13   2.0000     -10.346135      -281.5326
  14   2.0000     -10.341849      -281.4160
  15   2.0000     -10.341799      -281.4147
  16   2.0000     -10.335824      -281.2521
  17   2.0000     -10.333341      -281.1845
  18   2.0000     -10.332168      -281.1526
  19   2.0000     -10.330662      -281.1116
  20   2.0000     -10.326778      -281.0059
  21   2.0000     -10.326112      -280.9878
  22   2.0000     -10.325827      -280.9800
  23   2.0000     -10.321908      -280.8734
  24   2.0000     -10.319577      -280.8100
  25   2.0000     -10.318979      -280.7937
  26   2.0000     -10.313059      -280.6326
  27   2.0000     -10.312567      -280.6192
  28   2.0000     -10.312263      -280.6110
  29   2.0000     -10.311803      -280.5984
  30   2.0000     -10.305383      -280.4237
  31   2.0000     -10.304812      -280.4082
  32   2.0000     -10.300718      -280.2968
  33   2.0000     -10.299438      -280.2620
  34   2.0000     -10.298684      -280.2414
  35   2.0000     -10.298406      -280.2339
  36   2.0000     -10.297375      -280.2058
  37   2.0000     -10.296008      -280.1686
  38   2.0000     -10.295483      -280.1543
  39   2.0000     -10.289216      -279.9838
  40   2.0000     -10.284509      -279.8557
  41   2.0000     -10.276116      -279.6273
  42   2.0000     -10.270939      -279.4865
  43   2.0000     -10.268195      -279.4118
  44   2.0000     -10.263203      -279.2759
  45   2.0000     -10.261792      -279.2376
  46   2.0000     -10.257539      -279.1218
  47   2.0000     -10.256919      -279.1049
  48   2.0000      -8.215816      -223.5637
  49   2.0000      -8.082853      -219.9456
  50   2.0000      -8.081207      -219.9008
  51   2.0000      -6.184987      -168.3020
  52   2.0000      -6.184561      -168.2905
  53   2.0000      -6.184097      -168.2778
  54   2.0000      -6.052247      -164.6900
  55   2.0000      -6.050573      -164.6444
  56   2.0000      -6.047893      -164.5715
  57   2.0000      -6.046197      -164.5254
  58   2.0000      -6.044819      -164.4879
  59   2.0000      -6.043406      -164.4494
  60   2.0000      -1.205477       -32.8027
  61   2.0000      -1.111073       -30.2338
  62   2.0000      -1.097267       -29.8581
  63   2.0000      -1.091771       -29.7086
  64   2.0000      -1.081432       -29.4273
  65   2.0000      -1.031985       -28.0817
  66   2.0000      -1.023871       -27.8609
  67   2.0000      -1.008618       -27.4459
  68   2.0000      -0.996685       -27.1212
  69   2.0000      -0.992237       -27.0001
  70   2.0000      -0.984861       -26.7994
  71   2.0000      -0.972400       -26.4603
  72   2.0000      -0.926728       -25.2175
  73   2.0000      -0.926024       -25.1984
  74   2.0000      -0.919922       -25.0324
  75   2.0000      -0.912521       -24.8310
  76   2.0000      -0.901359       -24.5272
  77   2.0000      -0.896269       -24.3887
  78   2.0000      -0.883745       -24.0479
  79   2.0000      -0.881742       -23.9934
  80   2.0000      -0.875787       -23.8314
  81   2.0000      -0.847657       -23.0659
  82   2.0000      -0.839768       -22.8512
  83   2.0000      -0.831186       -22.6177
  84   2.0000      -0.825284       -22.4571
  85   2.0000      -0.808899       -22.0113
  86   2.0000      -0.802324       -21.8323
  87   2.0000      -0.789057       -21.4713
  88   2.0000      -0.767317       -20.8798
  89   2.0000      -0.749863       -20.4048
  90   2.0000      -0.738993       -20.1090
  91   2.0000      -0.731321       -19.9003
  92   2.0000      -0.728094       -19.8124
  93   2.0000      -0.723276       -19.6813
  94   2.0000      -0.713326       -19.4106
  95   2.0000      -0.710075       -19.3221
  96   2.0000      -0.698870       -19.0172
  97   2.0000      -0.686368       -18.6770
  98   2.0000      -0.681556       -18.5461
  99   2.0000      -0.679195       -18.4818
 100   2.0000      -0.648723       -17.6526
 101   2.0000      -0.646616       -17.5953
 102   2.0000      -0.637478       -17.3467
 103   2.0000      -0.630915       -17.1681
 104   2.0000      -0.629923       -17.1411
 105   2.0000      -0.626024       -17.0350
 106   2.0000      -0.621025       -16.8990
 107   2.0000      -0.611074       -16.6282
 108   2.0000      -0.595975       -16.2173
 109   2.0000      -0.588377       -16.0105
 110   2.0000      -0.579958       -15.7815
 111   2.0000      -0.566966       -15.4279
 112   2.0000      -0.566061       -15.4033
 113   2.0000      -0.558779       -15.2051
 114   2.0000      -0.557886       -15.1808
 115   2.0000      -0.555283       -15.1100
 116   2.0000      -0.551285       -15.0012
 117   2.0000      -0.549373       -14.9492
 118   2.0000      -0.545774       -14.8513
 119   2.0000      -0.543002       -14.7758
 120   2.0000      -0.535454       -14.5704
 121   2.0000      -0.531054       -14.4507
 122   2.0000      -0.530038       -14.4231
 123   2.0000      -0.528758       -14.3882
 124   2.0000      -0.525564       -14.3013
 125   2.0000      -0.520344       -14.1593
 126   2.0000      -0.516798       -14.0628
 127   2.0000      -0.514107       -13.9896
 128   2.0000      -0.507749       -13.8165
 129   2.0000      -0.500572       -13.6212
 130   2.0000      -0.496773       -13.5179
 131   2.0000      -0.490638       -13.3509
 132   2.0000      -0.490003       -13.3337
 133   2.0000      -0.485778       -13.2187
 134   2.0000      -0.478287       -13.0149
 135   2.0000      -0.473823       -12.8934
 136   2.0000      -0.469762       -12.7829
 137   2.0000      -0.468927       -12.7602
 138   2.0000      -0.467725       -12.7275
 139   2.0000      -0.465301       -12.6615
 140   2.0000      -0.463557       -12.6140
 141   2.0000      -0.460367       -12.5272
 142   2.0000      -0.459593       -12.5062
 143   2.0000      -0.456744       -12.4286
 144   2.0000      -0.454765       -12.3748
 145   2.0000      -0.454349       -12.3635
 146   2.0000      -0.451441       -12.2843
 147   2.0000      -0.447851       -12.1866
 148   2.0000      -0.445878       -12.1330
 149   2.0000      -0.444804       -12.1037
 150   2.0000      -0.441043       -12.0014
 151   2.0000      -0.439161       -11.9502
 152   2.0000      -0.435756       -11.8575
 153   2.0000      -0.435088       -11.8394
 154   2.0000      -0.432632       -11.7725
 155   2.0000      -0.432061       -11.7570
 156   2.0000      -0.430688       -11.7196
 157   2.0000      -0.413306       -11.2466
 158   2.0000      -0.412626       -11.2281
 159   2.0000      -0.410457       -11.1691
 160   2.0000      -0.409486       -11.1427
 161   2.0000      -0.405930       -11.0459
 162   2.0000      -0.404524       -11.0076
 163   2.0000      -0.395922       -10.7736
 164   2.0000      -0.377136       -10.2624
 165   2.0000      -0.372797       -10.1443
 166   2.0000      -0.362892        -9.8748
 167   2.0000      -0.354718        -9.6524
 168   2.0000      -0.342430        -9.3180
 169   2.0000      -0.341077        -9.2812
 170   2.0000      -0.335440        -9.1278
 171   2.0000      -0.322946        -8.7878
 172   2.0000      -0.318889        -8.6774
 173   2.0000      -0.307117        -8.3571
 174   2.0000      -0.286232        -7.7888
 175   2.0000      -0.251509        -6.8439
 176   2.0000      -0.243530        -6.6268
 177   0.0000      -0.073473        -1.9993
 178   0.0000      -0.061448        -1.6721
 179   0.0000      -0.037062        -1.0085
 180   0.0000      -0.028755        -0.7825
 181   0.0000       0.006566         0.1787

MULLIKEN ATOMIC CHARGES
-----------------------
   0 C :   -0.018412
   1 C :   -0.006454
   2 C :    0.104265
   3 C :   -0.035680
   4 C :   -0.036099
   5 C :    0.038780
   6 C :   -0.055255
   7 S :    0.153809
   8 C :   -0.084606
   9 C :    0.058684
  10 C :   -0.001866
  11 C :   -0.020080
  12 C :    0.037542
  13 C :    0.068920
  14 C :    0.006171
  15 N :   -0.026125
  16 C :    0.015175
  17 C :   -0.140156
  18 S :    0.215830
  19 C :   -0.061662
  20 C :    0.022877
  21 C :    0.021537
  22 C :    0.095076
  23 C :   -0.053785
  24 C :    0.011964
  25 C :    0.058946
  26 N :   -0.156803
  27 C :    0.077256
  28 C :    0.012939
  29 C :   -0.061931
  30 C :   -0.251186
  31 N :    0.171807
  32 C :    0.027567
  33 C :   -0.305622
  34 N :    0.203173
  35 C :   -0.094829
  36 S :    0.783397
  37 O :   -0.457224
  38 O :   -0.456624
  39 C :   -0.026934
  40 C :   -0.253353
  41 N :    0.189285
  42 C :   -0.013928
  43 C :   -0.281505
  44 N :    0.210471
  45 N :   -0.161264
  46 C :    0.048386
  47 C :    0.019186
  48 H :    0.025484
  49 H :    0.020848
  50 H :   -0.016661
  51 H :   -0.026430
  52 H :   -0.001370
  53 H :    0.004276
  54 H :    0.005838
  55 H :    0.001548
  56 H :    0.014095
  57 H :    0.140583
  58 H :   -0.023766
  59 H :   -0.009911
  60 H :   -0.019952
  61 H :   -0.018815
  62 H :   -0.001392
  63 H :    0.046863
  64 H :    0.023819
  65 H :    0.027529
  66 H :    0.032778
  67 H :    0.020058
  68 H :    0.041384
  69 H :    0.037915
  70 H :    0.028035
  71 H :    0.028911
  72 H :    0.026676
Sum of atomic charges:   -0.0000000

LOEWDIN ATOMIC CHARGES
----------------------
   0 C :   -0.030882
   1 C :   -0.039382
   2 C :   -0.004380
   3 C :   -0.056479
   4 C :   -0.032412
   5 C :   -0.051680
   6 C :   -0.128357
   7 S :    0.489965
   8 C :   -0.144615
   9 C :   -0.040785
  10 C :   -0.016866
  11 C :   -0.154184
  12 C :    0.005842
  13 C :   -0.085112
  14 C :    0.022110
  15 N :    0.111174
  16 C :   -0.022149
  17 C :   -0.148845
  18 S :    0.509986
  19 C :   -0.112646
  20 C :   -0.075996
  21 C :    0.014542
  22 C :   -0.038125
  23 C :   -0.045775
  24 C :   -0.075043
  25 C :   -0.000358
  26 N :    0.076062
  27 C :    0.041145
  28 C :   -0.057153
  29 C :   -0.111052
  30 C :   -0.028142
  31 N :   -0.059637
  32 C :   -0.093413
  33 C :   -0.025750
  34 N :   -0.054192
  35 C :   -0.220821
  36 S :    1.168972
  37 O :   -0.501543
  38 O :   -0.500823
  39 C :   -0.082616
  40 C :   -0.025507
  41 N :   -0.043110
  42 C :   -0.095709
  43 C :   -0.031180
  44 N :   -0.044821
  45 N :    0.068758
  46 C :    0.028039
  47 C :   -0.062206
  48 H :    0.027020
  49 H :    0.024013
  50 H :    0.027586
  51 H :    0.026515
  52 H :    0.034070
  53 H :    0.025156
  54 H :    0.044830
  55 H :    0.042329
  56 H :    0.031862
  57 H :    0.096681
  58 H :    0.029236
  59 H :    0.035200
  60 H :    0.023714
  61 H :    0.025398
  62 H :    0.020893
  63 H :    0.033224
  64 H :    0.032217
  65 H :    0.028756
  66 H :    0.034850
  67 H :    0.027260
  68 H :    0.018594
  69 H :    0.032400
  70 H :    0.020902
  71 H :    0.033433
  72 H :    0.029008

  Mayer bond orders larger than 0.100000
B(  0-C ,  1-C ) :   1.9446 B(  0-C , 48-H ) :   0.9473 B(  0-C , 49-H ) :   0.9558
B(  1-C ,  2-C ) :   1.0742 B(  1-C , 50-H ) :   0.9520 B(  2-C ,  3-C ) :   1.4096
B(  2-C ,  5-C ) :   0.1089 B(  2-C , 45-N ) :   1.1957 B(  3-C ,  4-C ) :   1.3601
B(  3-C , 51-H ) :   1.0040 B(  4-C ,  5-C ) :   1.4124 B(  4-C , 52-H ) :   1.0000
B(  5-C ,  6-C ) :   1.0988 B(  5-C , 45-N ) :   1.1785 B(  6-C ,  7-S ) :   1.1219
B(  6-C , 42-C ) :   1.4931 B(  7-S ,  8-C ) :   1.1103 B(  8-C ,  9-C ) :   1.1539
B(  8-C , 39-C ) :   1.4866 B(  9-C , 10-C ) :   1.6535 B(  9-C , 53-H ) :   0.9200
B( 10-C , 11-C ) :   1.1937 B( 10-C , 54-H ) :   0.9729 B( 11-C , 12-C ) :   1.6677
B( 11-C , 36-S ) :   0.8118 B( 12-C , 13-C ) :   1.0375 B( 12-C , 55-H ) :   0.9996
B( 13-C , 14-C ) :   1.4184 B( 13-C , 35-C ) :   1.3403 B( 14-C , 15-N ) :   1.2303
B( 14-C , 56-H ) :   0.9889 B( 15-N , 16-C ) :   1.2963 B( 15-N , 57-H ) :   0.9074
B( 16-C , 17-C ) :   1.1425 B( 16-C , 35-C ) :   1.4871 B( 17-C , 18-S ) :   1.1664
B( 17-C , 32-C ) :   1.4837 B( 18-S , 19-C ) :   1.1181 B( 19-C , 20-C ) :   1.1626
B( 19-C , 29-C ) :   1.4687 B( 20-C , 21-C ) :   1.6576 B( 20-C , 58-H ) :   0.9482
B( 21-C , 22-C ) :   1.1347 B( 21-C , 59-H ) :   0.9404 B( 22-C , 23-C ) :   1.4130
B( 22-C , 26-N ) :   1.1612 B( 23-C , 24-C ) :   1.3583 B( 23-C , 60-H ) :   1.0070
B( 24-C , 25-C ) :   1.4174 B( 24-C , 61-H ) :   1.0053 B( 25-C , 26-N ) :   1.2511
B( 25-C , 62-H ) :   0.9903 B( 26-N , 27-C ) :   0.9595 B( 27-C , 28-C ) :   1.1108
B( 27-C , 63-H ) :   0.9451 B( 27-C , 64-H ) :   0.9472 B( 28-C , 65-H ) :   0.9669
B( 28-C , 66-H ) :   0.9667 B( 28-C , 67-H ) :   0.9643 B( 29-C , 30-C ) :   1.1689
B( 29-C , 32-C ) :   1.3082 B( 30-C , 31-N ) :   2.9354 B( 32-C , 33-C ) :   1.1425
B( 33-C , 34-N ) :   2.9365 B( 35-C , 36-S ) :   0.7920 B( 36-S , 37-O ) :   1.6979
B( 36-S , 38-O ) :   1.7055 B( 39-C , 40-C ) :   1.1664 B( 39-C , 42-C ) :   1.3127
B( 40-C , 41-N ) :   2.9426 B( 42-C , 43-C ) :   1.1590 B( 43-C , 44-N ) :   2.9782
B( 45-N , 46-C ) :   0.9609 B( 46-C , 47-C ) :   1.1066 B( 46-C , 68-H ) :   0.9378
B( 46-C , 69-H ) :   0.9422 B( 47-C , 70-H ) :   0.9604 B( 47-C , 71-H ) :   0.9658
B( 47-C , 72-H ) :   0.9634

-----------------------------------------------------------------------------
         ABSORPTION SPECTRUM VIA TRANSITION ELECTRIC DIPOLE MOMENTS
-----------------------------------------------------------------------------
State   Energy  Wavelength   fosc         T2         TX        TY        TZ
        (cm-1)    (nm)                  (au**2)     (au)      (au)      (au)
-----------------------------------------------------------------------------
   0   21564.1    463.7   1.199676881  18.31508   2.98089   1.74648  -2.52570
   1   24499.6    408.2   1.252365078  16.82858   2.80456  -2.98994   0.15253
   2   27117.8    368.8   0.152840142   1.85549  -0.82097   1.08428  -0.07636
   3   28162.5    355.1   0.018988511   0.22197  -0.43288  -0.07376   0.17073
   4   30249.7    330.6   0.129692684   1.41147   1.05963  -0.29193  -0.45104
   5   30637.3    326.4   0.415050177   4.45991  -1.90024   0.86899   0.30636
   6   31755.7    314.9   0.169579934   1.75804  -0.29700  -0.89198   0.93499
   7   34365.2    291.0   0.023625601   0.22633  -0.38624   0.05672   0.27191
   8   34856.0    286.9   0.004366977   0.04125  -0.14047   0.14351  -0.03034
   9   36552.9    273.6   0.006977339   0.06284   0.00452   0.20676  -0.14168
  10   37735.1    265.0   0.043191958   0.37682  -0.28914  -0.36009   0.40442
  11   38593.1    259.1   0.064887595   0.55351  -0.63475   0.31681   0.22413
  12   38735.9    258.2   0.058509736   0.49727   0.63369   0.05591  -0.30426
  13   39052.7    256.1   0.008842336   0.07454   0.26431  -0.02178   0.06484
  14   39540.5    252.9   0.078604875   0.65446  -0.47869  -0.40895   0.50801
  15   40190.4    248.8   0.064162264   0.52557   0.27284   0.54019  -0.39915

FINAL SINGLE POINT ENERGY     -3112.181131062567

DIPOLE MOMENT
-------------
                                X             Y             Z
Electronic contribution:     31.11891     -37.89638      11.24200
Nuclear contribution   :    -32.04541      40.69342     -12.77209
                        -----------------------------------------
Total Dipole Moment    :     -0.92651       2.79705      -1.53009
                        -----------------------------------------
Magnitude (a.u.)       :      3.32010
Magnitude (Debye)      :      8.43902

Rotational constants in cm-1:     0.002602     0.000727     0.000573
Rotational constants in MHz :    77.993204    21.791844    17.170035

                             ****ORCA TERMINATED NORMALLY****
TOTAL RUN TIME: 0 days 0 hours 4 minutes 34 seconds 955 msec
