                         Program Version 4.2.0 -  RELEASE  -
|  1> # ORCA input file
|  2> # SCF done       -148.425762056180          0.000274172480
|  3> ! CAM-B3LYP def2-SVP def2/J RIJCOSX Grid4 TightSCF
|  4> %maxcore 5000
|  5> %tddft
|  6>     Mode sTDDFT
|  7>     Ethresh 5.0
|  8>     maxcore 5000
|  9> end
| 10>
| 11> %pal
| 12>   nprocs 6
| 13>   end
| 14> * xyz 0 1
| 15>    C        1.99545        -2.21579        -1.60300
| 16>    N        3.23886        -1.69552        -1.70541
| 17>    C        4.11052        -1.89576        -2.83326
| 18>    C        4.03046        -0.73233        -3.82159
| 19>    C        3.48673        -0.91208        -0.60177
| 20>    C        2.35437        -0.96971         0.20680
| 21>    C        1.42100        -1.78891        -0.42804
| 22>    C        4.70747        -0.21296        -0.39959
| 23>    C        4.99723         0.53731         0.68970
| 24>    C        6.23342         1.21288         0.86367
| 25>    O        7.19057         1.19995        -0.08643
| 26>    C        8.25895         1.90685         0.37998
| 27>    C        7.98847         2.38337         1.64378
| 28>    C        6.68422         1.94775         1.96379
| 29>    C        5.96655         2.18768         3.14040
| 30>    N        5.37296         2.38443         4.10293
| 31>    C        9.42951         2.06876        -0.41317
| 32>    C        9.55742         1.64441        -1.68777
| 33>    C       10.76885         1.82742        -2.42018
| 34>    N       10.91168         1.53886        -3.75737
| 35>    C       12.17345         1.82143        -4.18377
| 36>    C       12.88064         2.30138        -3.10184
| 37>    C       11.99133         2.30349        -1.99901
| 38>    S       12.88172         2.86784        -0.57567
| 39>    O       12.36314         4.11904        -0.08253
| 40>    O       13.02518         1.81792         0.40132
| 41>    C       14.41370         3.10414        -1.52901
| 42>    C       14.21138         2.75838        -2.81651
| 43>    C       15.58149         3.57297        -0.87896
| 44>    C       15.60443         3.81536         0.44879
| 45>    C       16.77365         4.27057         1.12530
| 46>    N       16.83088         4.47372         2.48446
| 47>    C       18.06449         4.89533         2.86186
| 48>    C       18.84307         4.97563         1.72359
| 49>    C       18.02503         4.58157         0.63765
| 50>    S       18.98546         4.68532        -0.85041
| 51>    O       19.18825         3.38514        -1.43356
| 52>    O       18.48275         5.71391        -1.72190
| 53>    C       20.46327         5.24683         0.05751
| 54>    C       20.18690         5.33463         1.37572
| 55>    C       21.67535         5.52617        -0.62353
| 56>    C       21.77449         5.40650        -1.96475
| 57>    C       22.93255         5.66019        -2.77903
| 58>    C       24.19062         6.04860        -2.34625
| 59>    F       24.44541         6.22939        -1.03723
| 60>    C       25.26867         6.27443        -3.22904
| 61>    F       26.44153         6.64710        -2.69082
| 62>    C       25.16685         6.13170        -4.58510
| 63>    C       23.91534         5.73975        -5.08368
| 64>    C       22.81095         5.50553        -4.18978
| 65>    N       21.71299         5.14300        -4.84632
| 66>    S       22.03391         5.10110        -6.41608
| 67>    N       23.57875         5.53885        -6.35819
| 68>    H        1.60023        -2.86100        -2.36383
| 69>    H        3.80928        -2.82166        -3.33076
| 70>    H        5.13803        -2.02209        -2.48010
| 71>    H        3.01245        -0.62075        -4.18706
| 72>    H        4.68690        -0.91589        -4.66813
| 73>    H        4.32511         0.19796        -3.34225
| 74>    H        2.22894        -0.47202         1.14711
| 75>    H        0.44234        -2.04300        -0.07280
| 76>    H        5.46453        -0.28961        -1.16815
| 77>    H        4.29201         0.64689         1.49893
| 78>    H        8.64085         2.97134         2.25590
| 79>    H       10.25289         2.57920         0.06516
| 80>    H        8.73381         1.15516        -2.18936
| 81>    H       10.17347         1.17852        -4.34080
| 82>    H       12.47187         1.66226        -5.20048
| 83>    H       14.97605         2.80846        -3.57550
| 84>    H       16.47428         3.72634        -1.47354
| 85>    H       14.71391         3.65374         1.03942
| 86>    H       16.05119         4.32068         3.10515
| 87>    H       18.30095         5.10487         3.88594
| 88>    H       20.90326         5.64788         2.11969
| 89>    H       22.50950         5.84202        -0.01187
| 90>    H       20.90331         5.09286        -2.52316
| 91>    H       26.00393         6.31068        -5.23733
| 92> *
| 93>
| 94>                          ****END OF INPUT****

CARTESIAN COORDINATES (ANGSTROEM)
---------------------------------
  C      1.995450   -2.215790   -1.603000
  N      3.238860   -1.695520   -1.705410
  C      4.110520   -1.895760   -2.833260
  C      4.030460   -0.732330   -3.821590
  C      3.486730   -0.912080   -0.601770
  C      2.354370   -0.969710    0.206800
  C      1.421000   -1.788910   -0.428040
  C      4.707470   -0.212960   -0.399590
  C      4.997230    0.537310    0.689700
  C      6.233420    1.212880    0.863670
  O      7.190570    1.199950   -0.086430
  C      8.258950    1.906850    0.379980
  C      7.988470    2.383370    1.643780
  C      6.684220    1.947750    1.963790
  C      5.966550    2.187680    3.140400
  N      5.372960    2.384430    4.102930
  C      9.429510    2.068760   -0.413170
  C      9.557420    1.644410   -1.687770
  C     10.768850    1.827420   -2.420180
  N     10.911680    1.538860   -3.757370
  C     12.173450    1.821430   -4.183770
  C     12.880640    2.301380   -3.101840
  C     11.991330    2.303490   -1.999010
  S     12.881720    2.867840   -0.575670
  O     12.363140    4.119040   -0.082530
  O     13.025180    1.817920    0.401320
  C     14.413700    3.104140   -1.529010
  C     14.211380    2.758380   -2.816510
  C     15.581490    3.572970   -0.878960
  C     15.604430    3.815360    0.448790
  C     16.773650    4.270570    1.125300
  N     16.830880    4.473720    2.484460
  C     18.064490    4.895330    2.861860
  C     18.843070    4.975630    1.723590
  C     18.025030    4.581570    0.637650
  S     18.985460    4.685320   -0.850410
  O     19.188250    3.385140   -1.433560
  O     18.482750    5.713910   -1.721900
  C     20.463270    5.246830    0.057510
  C     20.186900    5.334630    1.375720
  C     21.675350    5.526170   -0.623530
  C     21.774490    5.406500   -1.964750
  C     22.932550    5.660190   -2.779030
  C     24.190620    6.048600   -2.346250
  F     24.445410    6.229390   -1.037230
  C     25.268670    6.274430   -3.229040
  F     26.441530    6.647100   -2.690820
  C     25.166850    6.131700   -4.585100
  C     23.915340    5.739750   -5.083680
  C     22.810950    5.505530   -4.189780
  N     21.712990    5.143000   -4.846320
  S     22.033910    5.101100   -6.416080
  N     23.578750    5.538850   -6.358190
  H      1.600230   -2.861000   -2.363830
  H      3.809280   -2.821660   -3.330760
  H      5.138030   -2.022090   -2.480100
  H      3.012450   -0.620750   -4.187060
  H      4.686900   -0.915890   -4.668130
  H      4.325110    0.197960   -3.342250
  H      2.228940   -0.472020    1.147110
  H      0.442340   -2.043000   -0.072800
  H      5.464530   -0.289610   -1.168150
  H      4.292010    0.646890    1.498930
  H      8.640850    2.971340    2.255900
  H     10.252890    2.579200    0.065160
  H      8.733810    1.155160   -2.189360
  H     10.173470    1.178520   -4.340800
  H     12.471870    1.662260   -5.200480
  H     14.976050    2.808460   -3.575500
  H     16.474280    3.726340   -1.473540
  H     14.713910    3.653740    1.039420
  H     16.051190    4.320680    3.105150
  H     18.300950    5.104870    3.885940
  H     20.903260    5.647880    2.119690
  H     22.509500    5.842020   -0.011870
  H     20.903310    5.092860   -2.523160
  H     26.003930    6.310680   -5.237330

 Total Charge           Charge          ....    0
 Multiplicity           Mult            ....    1
 Number of Electrons    NEL             ....  394
 Basis Dimension        Dim             ....  874

ORBITAL ENERGIES
----------------

  NO   OCC          E(Eh)            E(eV)
   0   2.0000     -89.139142     -2425.5994
   1   2.0000     -89.136214     -2425.5197
   2   2.0000     -89.018213     -2422.3087
   3   2.0000     -24.798461      -674.8004
   4   2.0000     -24.789673      -674.5613
   5   2.0000     -19.300283      -525.1874
   6   2.0000     -19.189302      -522.1675
   7   2.0000     -19.187076      -522.1069
   8   2.0000     -19.185384      -522.0608
   9   2.0000     -19.184610      -522.0398
  10   2.0000     -14.483921      -394.1275
  11   2.0000     -14.480998      -394.0480
  12   2.0000     -14.463178      -393.5631
  13   2.0000     -14.433203      -392.7474
  14   2.0000     -14.431547      -392.7024
  15   2.0000     -14.394728      -391.7005
  16   2.0000     -10.375635      -282.3354
  17   2.0000     -10.375296      -282.3262
  18   2.0000     -10.350355      -281.6475
  19   2.0000     -10.335264      -281.2368
  20   2.0000     -10.328834      -281.0619
  21   2.0000     -10.324697      -280.9493
  22   2.0000     -10.324236      -280.9367
  23   2.0000     -10.323238      -280.9096
  24   2.0000     -10.322878      -280.8998
  25   2.0000     -10.317562      -280.7551
  26   2.0000     -10.316941      -280.7382
  27   2.0000     -10.304371      -280.3962
  28   2.0000     -10.300404      -280.2882
  29   2.0000     -10.299946      -280.2758
  30   2.0000     -10.299485      -280.2632
  31   2.0000     -10.298780      -280.2440
  32   2.0000     -10.298423      -280.2343
  33   2.0000     -10.297454      -280.2080
  34   2.0000     -10.293428      -280.0984
  35   2.0000     -10.291286      -280.0401
  36   2.0000     -10.291023      -280.0330
  37   2.0000     -10.291004      -280.0325
  38   2.0000     -10.289664      -279.9960
  39   2.0000     -10.288820      -279.9730
  40   2.0000     -10.286287      -279.9041
  41   2.0000     -10.286005      -279.8964
  42   2.0000     -10.285623      -279.8860
  43   2.0000     -10.284340      -279.8511
  44   2.0000     -10.282571      -279.8030
  45   2.0000     -10.281099      -279.7629
  46   2.0000     -10.280933      -279.7584
  47   2.0000     -10.279608      -279.7223
  48   2.0000     -10.277062      -279.6531
  49   2.0000     -10.276402      -279.6351
  50   2.0000     -10.275909      -279.6217
  51   2.0000     -10.253839      -279.0212
  52   2.0000     -10.251216      -278.9498
  53   2.0000      -8.202996      -223.2149
  54   2.0000      -8.200017      -223.1338
  55   2.0000      -8.110214      -220.6902
  56   2.0000      -6.171989      -167.9483
  57   2.0000      -6.171856      -167.9448
  58   2.0000      -6.171316      -167.9300
  59   2.0000      -6.169032      -167.8679
  60   2.0000      -6.168842      -167.8627
  61   2.0000      -6.168345      -167.8492
  62   2.0000      -6.081380      -165.4828
  63   2.0000      -6.073687      -165.2734
  64   2.0000      -6.072594      -165.2437
  65   2.0000      -1.317414       -35.8487
  66   2.0000      -1.298828       -35.3429
  67   2.0000      -1.217074       -33.1183
  68   2.0000      -1.192765       -32.4568
  69   2.0000      -1.189907       -32.3790
  70   2.0000      -1.120638       -30.4941
  71   2.0000      -1.096601       -29.8400
  72   2.0000      -1.094624       -29.7862
  73   2.0000      -1.087375       -29.5890
  74   2.0000      -1.068363       -29.0716
  75   2.0000      -1.066570       -29.0228
  76   2.0000      -0.980611       -26.6838
  77   2.0000      -0.976293       -26.5663
  78   2.0000      -0.967326       -26.3223
  79   2.0000      -0.959525       -26.1100
  80   2.0000      -0.957258       -26.0483
  81   2.0000      -0.926891       -25.2220
  82   2.0000      -0.915460       -24.9109
  83   2.0000      -0.912514       -24.8308
  84   2.0000      -0.910923       -24.7875
  85   2.0000      -0.903193       -24.5771
  86   2.0000      -0.900043       -24.4914
  87   2.0000      -0.868271       -23.6268
  88   2.0000      -0.864389       -23.5212
  89   2.0000      -0.859903       -23.3992
  90   2.0000      -0.855032       -23.2666
  91   2.0000      -0.826604       -22.4930
  92   2.0000      -0.826308       -22.4850
  93   2.0000      -0.825168       -22.4540
  94   2.0000      -0.818583       -22.2748
  95   2.0000      -0.794177       -21.6107
  96   2.0000      -0.777008       -21.1435
  97   2.0000      -0.772436       -21.0190
  98   2.0000      -0.764434       -20.8013
  99   2.0000      -0.737858       -20.0781
 100   2.0000      -0.734182       -19.9781
 101   2.0000      -0.733649       -19.9636
 102   2.0000      -0.728792       -19.8314
 103   2.0000      -0.728235       -19.8163
 104   2.0000      -0.712029       -19.3753
 105   2.0000      -0.694781       -18.9059
 106   2.0000      -0.686537       -18.6816
 107   2.0000      -0.684187       -18.6177
 108   2.0000      -0.675743       -18.3879
 109   2.0000      -0.672006       -18.2862
 110   2.0000      -0.667399       -18.1608
 111   2.0000      -0.662858       -18.0373
 112   2.0000      -0.654635       -17.8135
 113   2.0000      -0.634775       -17.2731
 114   2.0000      -0.631616       -17.1871
 115   2.0000      -0.629893       -17.1403
 116   2.0000      -0.624873       -17.0037
 117   2.0000      -0.620621       -16.8880
 118   2.0000      -0.615117       -16.7382
 119   2.0000      -0.611942       -16.6518
 120   2.0000      -0.604879       -16.4596
 121   2.0000      -0.602823       -16.4037
 122   2.0000      -0.593846       -16.1594
 123   2.0000      -0.582528       -15.8514
 124   2.0000      -0.578115       -15.7313
 125   2.0000      -0.577383       -15.7114
 126   2.0000      -0.566094       -15.4042
 127   2.0000      -0.564749       -15.3676
 128   2.0000      -0.559338       -15.2204
 129   2.0000      -0.553775       -15.0690
 130   2.0000      -0.551913       -15.0183
 131   2.0000      -0.548805       -14.9337
 132   2.0000      -0.545027       -14.8310
 133   2.0000      -0.544354       -14.8126
 134   2.0000      -0.541819       -14.7436
 135   2.0000      -0.541464       -14.7340
 136   2.0000      -0.539184       -14.6719
 137   2.0000      -0.538695       -14.6586
 138   2.0000      -0.538185       -14.6448
 139   2.0000      -0.535597       -14.5743
 140   2.0000      -0.533733       -14.5236
 141   2.0000      -0.525195       -14.2913
 142   2.0000      -0.524150       -14.2629
 143   2.0000      -0.522663       -14.2224
 144   2.0000      -0.513134       -13.9631
 145   2.0000      -0.509447       -13.8628
 146   2.0000      -0.507038       -13.7972
 147   2.0000      -0.505688       -13.7605
 148   2.0000      -0.501156       -13.6372
 149   2.0000      -0.493134       -13.4189
 150   2.0000      -0.492464       -13.4006
 151   2.0000      -0.490492       -13.3470
 152   2.0000      -0.486780       -13.2460
 153   2.0000      -0.483951       -13.1690
 154   2.0000      -0.479372       -13.0444
 155   2.0000      -0.477033       -12.9807
 156   2.0000      -0.472385       -12.8542
 157   2.0000      -0.468735       -12.7549
 158   2.0000      -0.465622       -12.6702
 159   2.0000      -0.463767       -12.6197
 160   2.0000      -0.458748       -12.4832
 161   2.0000      -0.457179       -12.4405
 162   2.0000      -0.452546       -12.3144
 163   2.0000      -0.452190       -12.3047
 164   2.0000      -0.447098       -12.1662
 165   2.0000      -0.445245       -12.1157
 166   2.0000      -0.441544       -12.0150
 167   2.0000      -0.441074       -12.0022
 168   2.0000      -0.438588       -11.9346
 169   2.0000      -0.428272       -11.6539
 170   2.0000      -0.425566       -11.5802
 171   2.0000      -0.416436       -11.3318
 172   2.0000      -0.413209       -11.2440
 173   2.0000      -0.400373       -10.8947
 174   2.0000      -0.397676       -10.8213
 175   2.0000      -0.397364       -10.8128
 176   2.0000      -0.395700       -10.7675
 177   2.0000      -0.395236       -10.7549
 178   2.0000      -0.391405       -10.6507
 179   2.0000      -0.389826       -10.6077
 180   2.0000      -0.378261       -10.2930
 181   2.0000      -0.364424        -9.9165
 182   2.0000      -0.363760        -9.8984
 183   2.0000      -0.360753        -9.8166
 184   2.0000      -0.354254        -9.6397
 185   2.0000      -0.352828        -9.6009
 186   2.0000      -0.350477        -9.5370
 187   2.0000      -0.347327        -9.4512
 188   2.0000      -0.326044        -8.8721
 189   2.0000      -0.322471        -8.7749
 190   2.0000      -0.320860        -8.7310
 191   2.0000      -0.315531        -8.5860
 192   2.0000      -0.314017        -8.5448
 193   2.0000      -0.282658        -7.6915
 194   2.0000      -0.268331        -7.3017
 195   2.0000      -0.250493        -6.8163
 196   2.0000      -0.232973        -6.3395
 197   0.0000      -0.067304        -1.8314
 198   0.0000      -0.051721        -1.4074
 199   0.0000      -0.041797        -1.1374
 200   0.0000      -0.020757        -0.5648
 201   0.0000      -0.009358        -0.2546

MULLIKEN ATOMIC CHARGES
-----------------------
   0 C :    0.051975
   1 N :   -0.161584
   2 C :    0.082288
   3 C :    0.012911
   4 C :    0.098687
   5 C :   -0.050814
   6 C :    0.014931
   7 C :    0.023821
   8 C :   -0.077580
   9 C :    0.167588
  10 O :   -0.208955
  11 C :    0.183785
  12 C :   -0.030838
  13 C :   -0.086817
  14 C :   -0.193835
  15 N :    0.137383
  16 C :   -0.007039
  17 C :   -0.002349
  18 C :    0.015754
  19 N :   -0.039705
  20 C :   -0.009791
  21 C :    0.076788
  22 C :   -0.071326
  23 S :    0.794990
  24 O :   -0.465430
  25 O :   -0.467599
  26 C :   -0.024781
  27 C :    0.031783
  28 C :    0.018696
  29 C :    0.021955
  30 C :    0.005040
  31 N :   -0.031350
  32 C :   -0.003239
  33 C :    0.072589
  34 C :   -0.067540
  35 S :    0.807961
  36 O :   -0.460703
  37 O :   -0.459040
  38 C :   -0.021964
  39 C :    0.026848
  40 C :    0.026412
  41 C :   -0.035163
  42 C :    0.067804
  43 C :    0.140618
  44 F :   -0.176923
  45 C :    0.270926
  46 F :   -0.180115
  47 C :   -0.125619
  48 C :    0.070518
  49 C :   -0.016469
  50 N :   -0.267649
  51 S :    0.505051
  52 N :   -0.273588
  53 H :   -0.005804
  54 H :    0.024734
  55 H :    0.031181
  56 H :    0.025471
  57 H :    0.019060
  58 H :    0.025083
  59 H :   -0.019541
  60 H :   -0.020315
  61 H :   -0.017134
  62 H :    0.009919
  63 H :    0.000034
  64 H :   -0.000148
  65 H :   -0.032033
  66 H :    0.128527
  67 H :    0.001025
  68 H :    0.000358
  69 H :   -0.010345
  70 H :   -0.012668
  71 H :    0.137097
  72 H :    0.002645
  73 H :   -0.010223
  74 H :   -0.002719
  75 H :    0.023685
  76 H :   -0.007182
Sum of atomic charges:   -0.0000000

LOEWDIN ATOMIC CHARGES
----------------------
   0 C :   -0.009646
   1 N :    0.068882
   2 C :    0.040579
   3 C :   -0.059888
   4 C :   -0.036631
   5 C :   -0.049788
   6 C :   -0.074420
   7 C :   -0.002421
   8 C :   -0.057500
   9 C :    0.074957
  10 O :    0.009881
  11 C :    0.028436
  12 C :   -0.019226
  13 C :   -0.122367
  14 C :   -0.034388
  15 N :   -0.063614
  16 C :   -0.009976
  17 C :   -0.047150
  18 C :    0.003192
  19 N :    0.099899
  20 C :    0.000060
  21 C :   -0.082550
  22 C :   -0.225014
  23 S :    1.177422
  24 O :   -0.507612
  25 O :   -0.508269
  26 C :   -0.151746
  27 C :    0.001738
  28 C :   -0.014464
  29 C :   -0.029915
  30 C :    0.001599
  31 N :    0.108354
  32 C :    0.004754
  33 C :   -0.086046
  34 C :   -0.217613
  35 S :    1.175237
  36 O :   -0.501063
  37 O :   -0.499583
  38 C :   -0.154013
  39 C :    0.000428
  40 C :   -0.021017
  41 C :   -0.010231
  42 C :   -0.047790
  43 C :    0.068846
  44 F :   -0.047017
  45 C :    0.070441
  46 F :   -0.054185
  47 C :   -0.047941
  48 C :   -0.055469
  49 C :   -0.047315
  50 N :   -0.277126
  51 S :    0.644699
  52 N :   -0.290910
  53 H :    0.018570
  54 H :    0.031948
  55 H :    0.027659
  56 H :    0.030215
  57 H :    0.028267
  58 H :    0.027549
  59 H :    0.024905
  60 H :    0.025019
  61 H :    0.027220
  62 H :    0.041869
  63 H :    0.042553
  64 H :    0.035974
  65 H :    0.026135
  66 H :    0.094334
  67 H :    0.025580
  68 H :    0.041609
  69 H :    0.034274
  70 H :    0.023823
  71 H :    0.099676
  72 H :    0.026346
  73 H :    0.037082
  74 H :    0.033382
  75 H :    0.031398
  76 H :    0.049117

  Mayer bond orders larger than 0.100000
B(  0-C ,  1-N ) :   1.2302 B(  0-C ,  6-C ) :   1.4348 B(  0-C , 53-H ) :   0.9896
B(  1-N ,  2-C ) :   0.9706 B(  1-N ,  4-C ) :   1.1615 B(  2-C ,  3-C ) :   1.1101
B(  2-C , 54-H ) :   0.9490 B(  2-C , 55-H ) :   0.9476 B(  3-C , 56-H ) :   0.9642
B(  3-C , 57-H ) :   0.9665 B(  3-C , 58-H ) :   0.9676 B(  4-C ,  5-C ) :   1.4348
B(  4-C ,  7-C ) :   1.0886 B(  5-C ,  6-C ) :   1.3458 B(  5-C , 59-H ) :   1.0057
B(  6-C , 60-H ) :   1.0055 B(  7-C ,  8-C ) :   1.6374 B(  7-C , 61-H ) :   0.9686
B(  8-C ,  9-C ) :   1.1999 B(  8-C , 62-H ) :   0.9577 B(  9-C , 10-O ) :   1.1736
B(  9-C , 13-C ) :   1.3936 B( 10-O , 11-C ) :   1.1013 B( 11-C , 12-C ) :   1.4570
B( 11-C , 16-C ) :   1.1472 B( 12-C , 13-C ) :   1.2156 B( 12-C , 63-H ) :   1.0258
B( 13-C , 14-C ) :   1.1083 B( 14-C , 15-N ) :   3.0306 B( 16-C , 17-C ) :   1.6584
B( 16-C , 64-H ) :   0.9469 B( 17-C , 18-C ) :   1.0997 B( 17-C , 65-H ) :   0.9707
B( 18-C , 19-N ) :   1.2260 B( 18-C , 22-C ) :   1.4917 B( 19-N , 20-C ) :   1.2127
B( 19-N , 66-H ) :   0.9333 B( 20-C , 21-C ) :   1.4378 B( 20-C , 67-H ) :   0.9867
B( 21-C , 22-C ) :   1.3380 B( 21-C , 27-C ) :   1.0347 B( 22-C , 23-S ) :   0.8114
B( 23-S , 24-O ) :   1.6579 B( 23-S , 25-O ) :   1.6821 B( 23-S , 26-C ) :   0.8011
B( 26-C , 27-C ) :   1.6747 B( 26-C , 28-C ) :   1.1804 B( 27-C , 68-H ) :   1.0014
B( 28-C , 29-C ) :   1.6619 B( 28-C , 69-H ) :   0.9724 B( 29-C , 30-C ) :   1.1170
B( 29-C , 70-H ) :   0.9370 B( 30-C , 31-N ) :   1.2346 B( 30-C , 34-C ) :   1.4986
B( 31-N , 32-C ) :   1.2282 B( 31-N , 71-H ) :   0.9296 B( 32-C , 33-C ) :   1.4225
B( 32-C , 72-H ) :   0.9881 B( 33-C , 34-C ) :   1.3432 B( 33-C , 39-C ) :   1.0373
B( 34-C , 35-S ) :   0.8116 B( 35-S , 36-O ) :   1.6765 B( 35-S , 37-O ) :   1.6860
B( 35-S , 38-C ) :   0.7955 B( 38-C , 39-C ) :   1.6733 B( 38-C , 40-C ) :   1.1703
B( 39-C , 73-H ) :   0.9979 B( 40-C , 41-C ) :   1.6391 B( 40-C , 74-H ) :   0.9798
B( 41-C , 42-C ) :   1.1349 B( 41-C , 75-H ) :   0.9535 B( 42-C , 43-C ) :   1.3810
B( 42-C , 47-C ) :   0.1282 B( 42-C , 49-C ) :   1.1566 B( 43-C , 44-F ) :   1.1216
B( 43-C , 45-C ) :   1.1529 B( 45-C , 46-F ) :   1.1050 B( 45-C , 47-C ) :   1.4552
B( 47-C , 48-C ) :   1.1431 B( 47-C , 76-H ) :   1.0457 B( 48-C , 49-C ) :   1.1552
B( 48-C , 52-N ) :   1.5184 B( 49-C , 50-N ) :   1.5643 B( 50-N , 51-S ) :   1.2664
B( 50-N , 52-N ) :   0.1499 B( 51-S , 52-N ) :   1.2701

-----------------------------------------------------------------------------
         ABSORPTION SPECTRUM VIA TRANSITION ELECTRIC DIPOLE MOMENTS
-----------------------------------------------------------------------------
State   Energy  Wavelength   fosc         T2         TX        TY        TZ
        (cm-1)    (nm)                  (au**2)     (au)      (au)      (au)
-----------------------------------------------------------------------------
   0   23137.9    432.2   1.894533145  26.95590  -4.84593  -1.79878   0.48714
   1   24738.5    404.2   0.136702243   1.81919   0.43118  -0.25205  -1.25289
   2   27641.3    361.8   0.222319737   2.64786   0.94641   0.47063  -1.23720
   3   28494.0    351.0   0.055635227   0.64279  -0.75388  -0.00573   0.27280
   4   29070.8    344.0   0.137152342   1.55318   0.49763   0.28370   1.10682
   5   30703.6    325.7   0.006917450   0.07417  -0.22388  -0.01272   0.15456
   6   31071.6    321.8   0.117912146   1.24931  -0.85983  -0.52002  -0.48947
   7   32691.4    305.9   0.128761698   1.29667  -0.11912  -0.63075  -0.94055
   8   34114.1    293.1   0.365154350   3.52386   1.35142   0.57316   1.17005
   9   35207.7    284.0   1.226232033  11.46596   0.48150  -0.81600  -3.25089
  10   35314.7    283.2   0.063001170   0.58731  -0.50825  -0.57033   0.06102
  11   37065.6    269.8   0.033596419   0.29840  -0.34962  -0.36214  -0.21217
  12   37388.9    267.5   0.102628654   0.90365  -0.43287   0.05539   0.84451
  13   38086.3    262.6   0.005873641   0.05077   0.02607  -0.01283  -0.22344
  14   38709.3    258.3   0.005600492   0.04763   0.21719  -0.01812  -0.01136
  15   39029.5    256.2   0.010246983   0.08643  -0.12950  -0.02344   0.26289
  16   39411.4    253.7   0.407287550   3.40217   1.22663   0.44492   1.30369
  17   39857.5    250.9   0.131792318   1.08857   0.85971   0.31398   0.50088

FINAL SINGLE POINT ENERGY     -3519.798744823415

DIPOLE MOMENT
-------------
                                X             Y             Z
Electronic contribution:    105.23750      37.47986      -3.08941
Nuclear contribution   :   -106.16184     -38.99066       0.85267
                        -----------------------------------------
Total Dipole Moment    :     -0.92434      -1.51080      -2.23674
                        -----------------------------------------
Magnitude (a.u.)       :      2.85306
Magnitude (Debye)      :      7.25190

Rotational constants in cm-1:     0.004054     0.000366     0.000338
Rotational constants in MHz :   121.525880    10.965726    10.147079

                             ****ORCA TERMINATED NORMALLY****
TOTAL RUN TIME: 0 days 0 hours 4 minutes 48 seconds 609 msec
