                         Program Version 4.2.0 -  RELEASE  -
|  1> # ORCA input file
|  2> # SCF done       -155.843906085448          0.000718609089
|  3> ! CAM-B3LYP def2-SVP def2/J RIJCOSX Grid4 TightSCF
|  4> %maxcore 5000
|  5> %tddft
|  6>     Mode sTDDFT
|  7>     Ethresh 5.0
|  8>     maxcore 5000
|  9> end
| 10>
| 11> %pal
| 12>   nprocs 6
| 13>   end
| 14> * xyz 0 1
| 15>    C        1.53526        -0.70283        -5.01993
| 16>    C        1.40399         0.09385        -3.90941
| 17>    N        1.34073         1.51157        -4.04867
| 18>    O        1.59692         1.96560        -5.14570
| 19>    O        1.03164         2.17700        -3.08298
| 20>    C        1.34151        -0.63019        -2.68229
| 21>    C        1.28678        -0.00395        -1.33377
| 22>    C        1.40875        -1.98543        -2.91696
| 23>    S        1.57105        -2.34799        -4.62083
| 24>    C        1.35285        -3.07220        -1.98366
| 25>    S        2.12168        -4.58849        -2.35765
| 26>    C        1.59012        -5.30087        -0.86565
| 27>    C        0.85005        -4.37429        -0.12649
| 28>    C        0.72039        -3.12582        -0.76512
| 29>    C        0.27305        -4.61182         1.13121
| 30>    N       -0.21077        -4.75837         2.16220
| 31>    C        1.93359        -6.64628        -0.59169
| 32>    C        1.54910        -7.34127         0.51300
| 33>    C        1.90954        -8.69187         0.72449
| 34>    N        1.51879        -9.41792         1.82201
| 35>    C        0.76001        -8.93649         2.95247
| 36>    C        1.62214        -8.11771         3.90932
| 37>    C        1.99634       -10.74005         1.77704
| 38>    O        1.77193       -11.56362         2.63935
| 39>    C        2.73762       -10.81107         0.53466
| 40>    C        2.66815        -9.54402        -0.08514
| 41>    C        3.40424        -9.61347        -1.32887
| 42>    O        3.61905        -8.78578        -2.19396
| 43>    N        3.87091       -10.93386        -1.38292
| 44>    C        4.70677       -11.38509        -2.46946
| 45>    C        6.18204       -11.41429        -2.07718
| 46>    C        3.48631       -11.66755        -0.28074
| 47>    C        3.80611       -13.02697        -0.09287
| 48>    C        3.40803       -13.73824         1.00335
| 49>    C        3.70025       -15.10184         1.22127
| 50>    C        3.28497       -15.84817         2.30916
| 51>    C        3.75082       -17.18344         2.17197
| 52>    C        4.52231       -17.21798         0.91263
| 53>    C        4.48369       -15.98035         0.35872
| 54>    C        5.23701       -18.29977         0.38319
| 55>    N        5.86652       -19.14178        -0.07913
| 56>    C        3.52585       -18.24984         3.01255
| 57>    C        3.91856       -19.60716         2.80741
| 58>    C        3.49930       -20.35927         3.87670
| 59>    C        2.83751       -19.47271         4.82098
| 60>    C        2.82689       -18.21449         4.30715
| 61>    C        2.26672       -17.09776         4.93664
| 62>    N        1.79919       -16.20585         5.48892
| 63>    C        3.68625       -21.75202         4.13127
| 64>    C        3.93830       -22.81212         3.27081
| 65>    N        3.83337       -22.72759         1.85149
| 66>    O        3.05653       -21.91715         1.38803
| 67>    O        4.49917       -23.49842         1.19287
| 68>    C        4.18772       -24.04843         3.93608
| 69>    C        4.48148       -25.34143         3.26143
| 70>    C        4.09746       -23.90314         5.28702
| 71>    S        3.73422       -22.29981         5.77629
| 72>    H        1.59856        -0.36858        -6.03695
| 73>    H        1.82405         0.94108        -1.33408
| 74>    H        1.71852        -0.66576        -0.58736
| 75>    H        0.25548         0.21757        -1.05936
| 76>    H        0.14446        -2.32054        -0.34814
| 77>    H        2.54354        -7.13897        -1.33868
| 78>    H        0.93627        -6.86525         1.26260
| 79>    H        0.38723        -9.82733         3.46543
| 80>    H       -0.09116        -8.34799         2.60010
| 81>    H        2.44620        -8.72277         4.27959
| 82>    H        1.02076        -7.79338         4.75335
| 83>    H        2.02811        -7.23794         3.41518
| 84>    H        4.55810       -10.66856        -3.28212
| 85>    H        4.37139       -12.37028        -2.80541
| 86>    H        6.51066       -10.41664        -1.79657
| 87>    H        6.78008       -11.75281        -2.91866
| 88>    H        6.35090       -12.08223        -1.23530
| 89>    H        4.38488       -13.51249        -0.86495
| 90>    H        2.82484       -13.24473         1.76989
| 91>    H        2.68559       -15.48340         3.12027
| 92>    H        4.96075       -15.69370        -0.55990
| 93>    H        4.44950       -19.95467         1.94441
| 94>    H        2.41424       -19.78759         5.75737
| 95>    H        5.43882       -25.28621         2.74599
| 96>    H        3.72528       -25.56495         2.51057
| 97>    H        4.51115       -26.14660         3.99095
| 98>    H        4.22710       -24.66247         6.03241
| 99> *
|100>
|101>                          ****END OF INPUT****

CARTESIAN COORDINATES (ANGSTROEM)
---------------------------------
  C      1.535260   -0.702830   -5.019930
  C      1.403990    0.093850   -3.909410
  N      1.340730    1.511570   -4.048670
  O      1.596920    1.965600   -5.145700
  O      1.031640    2.177000   -3.082980
  C      1.341510   -0.630190   -2.682290
  C      1.286780   -0.003950   -1.333770
  C      1.408750   -1.985430   -2.916960
  S      1.571050   -2.347990   -4.620830
  C      1.352850   -3.072200   -1.983660
  S      2.121680   -4.588490   -2.357650
  C      1.590120   -5.300870   -0.865650
  C      0.850050   -4.374290   -0.126490
  C      0.720390   -3.125820   -0.765120
  C      0.273050   -4.611820    1.131210
  N     -0.210770   -4.758370    2.162200
  C      1.933590   -6.646280   -0.591690
  C      1.549100   -7.341270    0.513000
  C      1.909540   -8.691870    0.724490
  N      1.518790   -9.417920    1.822010
  C      0.760010   -8.936490    2.952470
  C      1.622140   -8.117710    3.909320
  C      1.996340  -10.740050    1.777040
  O      1.771930  -11.563620    2.639350
  C      2.737620  -10.811070    0.534660
  C      2.668150   -9.544020   -0.085140
  C      3.404240   -9.613470   -1.328870
  O      3.619050   -8.785780   -2.193960
  N      3.870910  -10.933860   -1.382920
  C      4.706770  -11.385090   -2.469460
  C      6.182040  -11.414290   -2.077180
  C      3.486310  -11.667550   -0.280740
  C      3.806110  -13.026970   -0.092870
  C      3.408030  -13.738240    1.003350
  C      3.700250  -15.101840    1.221270
  C      3.284970  -15.848170    2.309160
  C      3.750820  -17.183440    2.171970
  C      4.522310  -17.217980    0.912630
  C      4.483690  -15.980350    0.358720
  C      5.237010  -18.299770    0.383190
  N      5.866520  -19.141780   -0.079130
  C      3.525850  -18.249840    3.012550
  C      3.918560  -19.607160    2.807410
  C      3.499300  -20.359270    3.876700
  C      2.837510  -19.472710    4.820980
  C      2.826890  -18.214490    4.307150
  C      2.266720  -17.097760    4.936640
  N      1.799190  -16.205850    5.488920
  C      3.686250  -21.752020    4.131270
  C      3.938300  -22.812120    3.270810
  N      3.833370  -22.727590    1.851490
  O      3.056530  -21.917150    1.388030
  O      4.499170  -23.498420    1.192870
  C      4.187720  -24.048430    3.936080
  C      4.481480  -25.341430    3.261430
  C      4.097460  -23.903140    5.287020
  S      3.734220  -22.299810    5.776290
  H      1.598560   -0.368580   -6.036950
  H      1.824050    0.941080   -1.334080
  H      1.718520   -0.665760   -0.587360
  H      0.255480    0.217570   -1.059360
  H      0.144460   -2.320540   -0.348140
  H      2.543540   -7.138970   -1.338680
  H      0.936270   -6.865250    1.262600
  H      0.387230   -9.827330    3.465430
  H     -0.091160   -8.347990    2.600100
  H      2.446200   -8.722770    4.279590
  H      1.020760   -7.793380    4.753350
  H      2.028110   -7.237940    3.415180
  H      4.558100  -10.668560   -3.282120
  H      4.371390  -12.370280   -2.805410
  H      6.510660  -10.416640   -1.796570
  H      6.780080  -11.752810   -2.918660
  H      6.350900  -12.082230   -1.235300
  H      4.384880  -13.512490   -0.864950
  H      2.824840  -13.244730    1.769890
  H      2.685590  -15.483400    3.120270
  H      4.960750  -15.693700   -0.559900
  H      4.449500  -19.954670    1.944410
  H      2.414240  -19.787590    5.757370
  H      5.438820  -25.286210    2.745990
  H      3.725280  -25.564950    2.510570
  H      4.511150  -26.146600    3.990950
  H      4.227100  -24.662470    6.032410

 Total Charge           Charge          ....    0
 Multiplicity           Mult            ....    1
 Number of Electrons    NEL             ....  418
 Basis Dimension        Dim             ....  945

ORBITAL ENERGIES
----------------

  NO   OCC          E(Eh)            E(eV)
   0   2.0000     -88.991019     -2421.5687
   1   2.0000     -88.987944     -2421.4851
   2   2.0000     -88.982545     -2421.3381
   3   2.0000     -19.247893      -523.7618
   4   2.0000     -19.244463      -523.6685
   5   2.0000     -19.243385      -523.6391
   6   2.0000     -19.239665      -523.5379
   7   2.0000     -19.198616      -522.4209
   8   2.0000     -19.197925      -522.4021
   9   2.0000     -14.655452      -398.7951
  10   2.0000     -14.649986      -398.6464
  11   2.0000     -14.460065      -393.4784
  12   2.0000     -14.459052      -393.4508
  13   2.0000     -14.422131      -392.4461
  14   2.0000     -14.408936      -392.0871
  15   2.0000     -14.405577      -391.9957
  16   2.0000     -10.380692      -282.4730
  17   2.0000     -10.380428      -282.4658
  18   2.0000     -10.346773      -281.5500
  19   2.0000     -10.344713      -281.4939
  20   2.0000     -10.339972      -281.3649
  21   2.0000     -10.338333      -281.3203
  22   2.0000     -10.337575      -281.2997
  23   2.0000     -10.337006      -281.2842
  24   2.0000     -10.332106      -281.1509
  25   2.0000     -10.331908      -281.1455
  26   2.0000     -10.331700      -281.1399
  27   2.0000     -10.329484      -281.0795
  28   2.0000     -10.325349      -280.9670
  29   2.0000     -10.323050      -280.9045
  30   2.0000     -10.322209      -280.8816
  31   2.0000     -10.319192      -280.7995
  32   2.0000     -10.317193      -280.7451
  33   2.0000     -10.315463      -280.6980
  34   2.0000     -10.314191      -280.6634
  35   2.0000     -10.311951      -280.6025
  36   2.0000     -10.310385      -280.5598
  37   2.0000     -10.310000      -280.5494
  38   2.0000     -10.309780      -280.5434
  39   2.0000     -10.309676      -280.5405
  40   2.0000     -10.308555      -280.5100
  41   2.0000     -10.307918      -280.4927
  42   2.0000     -10.307627      -280.4848
  43   2.0000     -10.307545      -280.4826
  44   2.0000     -10.305823      -280.4357
  45   2.0000     -10.304007      -280.3863
  46   2.0000     -10.302907      -280.3563
  47   2.0000     -10.301178      -280.3093
  48   2.0000     -10.298137      -280.2265
  49   2.0000     -10.286939      -279.9218
  50   2.0000     -10.286365      -279.9062
  51   2.0000     -10.279253      -279.7127
  52   2.0000     -10.272777      -279.5365
  53   2.0000     -10.270989      -279.4878
  54   2.0000     -10.270588      -279.4769
  55   2.0000     -10.269067      -279.4355
  56   2.0000     -10.260972      -279.2152
  57   2.0000      -8.087050      -220.0598
  58   2.0000      -8.083655      -219.9674
  59   2.0000      -8.078243      -219.8202
  60   2.0000      -6.056169      -164.7967
  61   2.0000      -6.052816      -164.7055
  62   2.0000      -6.051903      -164.6806
  63   2.0000      -6.049483      -164.6148
  64   2.0000      -6.048662      -164.5925
  65   2.0000      -6.047439      -164.5592
  66   2.0000      -6.045914      -164.5177
  67   2.0000      -6.043085      -164.4407
  68   2.0000      -6.040737      -164.3768
  69   2.0000      -1.328459       -36.1492
  70   2.0000      -1.323503       -36.0143
  71   2.0000      -1.146444       -31.1963
  72   2.0000      -1.141288       -31.0560
  73   2.0000      -1.140765       -31.0418
  74   2.0000      -1.134176       -30.8625
  75   2.0000      -1.070774       -29.1372
  76   2.0000      -1.062330       -28.9075
  77   2.0000      -1.032019       -28.0827
  78   2.0000      -1.021463       -27.7954
  79   2.0000      -1.016733       -27.6667
  80   2.0000      -1.012095       -27.5405
  81   2.0000      -0.998815       -27.1791
  82   2.0000      -0.998370       -27.1670
  83   2.0000      -0.985053       -26.8047
  84   2.0000      -0.979240       -26.6465
  85   2.0000      -0.935873       -25.4664
  86   2.0000      -0.929103       -25.2822
  87   2.0000      -0.917966       -24.9791
  88   2.0000      -0.912083       -24.8190
  89   2.0000      -0.905576       -24.6420
  90   2.0000      -0.893464       -24.3124
  91   2.0000      -0.891983       -24.2721
  92   2.0000      -0.879778       -23.9400
  93   2.0000      -0.877134       -23.8680
  94   2.0000      -0.863605       -23.4999
  95   2.0000      -0.856073       -23.2949
  96   2.0000      -0.854019       -23.2390
  97   2.0000      -0.844319       -22.9751
  98   2.0000      -0.824719       -22.4417
  99   2.0000      -0.814168       -22.1546
 100   2.0000      -0.804235       -21.8843
 101   2.0000      -0.787634       -21.4326
 102   2.0000      -0.780372       -21.2350
 103   2.0000      -0.771320       -20.9887
 104   2.0000      -0.765249       -20.8235
 105   2.0000      -0.764607       -20.8060
 106   2.0000      -0.758716       -20.6457
 107   2.0000      -0.736417       -20.0389
 108   2.0000      -0.723504       -19.6876
 109   2.0000      -0.718441       -19.5498
 110   2.0000      -0.716438       -19.4953
 111   2.0000      -0.712006       -19.3747
 112   2.0000      -0.704670       -19.1751
 113   2.0000      -0.694853       -18.9079
 114   2.0000      -0.680712       -18.5231
 115   2.0000      -0.674048       -18.3418
 116   2.0000      -0.656590       -17.8667
 117   2.0000      -0.656139       -17.8545
 118   2.0000      -0.652961       -17.7680
 119   2.0000      -0.645549       -17.5663
 120   2.0000      -0.639309       -17.3965
 121   2.0000      -0.638294       -17.3689
 122   2.0000      -0.632041       -17.1987
 123   2.0000      -0.631652       -17.1881
 124   2.0000      -0.623247       -16.9594
 125   2.0000      -0.622247       -16.9322
 126   2.0000      -0.617059       -16.7910
 127   2.0000      -0.607303       -16.5256
 128   2.0000      -0.594743       -16.1838
 129   2.0000      -0.593251       -16.1432
 130   2.0000      -0.585095       -15.9212
 131   2.0000      -0.583952       -15.8901
 132   2.0000      -0.582646       -15.8546
 133   2.0000      -0.578830       -15.7508
 134   2.0000      -0.563719       -15.3396
 135   2.0000      -0.559952       -15.2371
 136   2.0000      -0.555863       -15.1258
 137   2.0000      -0.555424       -15.1138
 138   2.0000      -0.546280       -14.8650
 139   2.0000      -0.544437       -14.8149
 140   2.0000      -0.538983       -14.6665
 141   2.0000      -0.537121       -14.6158
 142   2.0000      -0.536376       -14.5955
 143   2.0000      -0.532129       -14.4800
 144   2.0000      -0.526205       -14.3188
 145   2.0000      -0.525097       -14.2886
 146   2.0000      -0.519366       -14.1327
 147   2.0000      -0.518756       -14.1161
 148   2.0000      -0.517344       -14.0776
 149   2.0000      -0.515079       -14.0160
 150   2.0000      -0.514742       -14.0068
 151   2.0000      -0.511875       -13.9288
 152   2.0000      -0.510782       -13.8991
 153   2.0000      -0.506867       -13.7925
 154   2.0000      -0.503631       -13.7045
 155   2.0000      -0.500300       -13.6139
 156   2.0000      -0.496469       -13.5096
 157   2.0000      -0.495537       -13.4842
 158   2.0000      -0.490617       -13.3504
 159   2.0000      -0.483949       -13.1689
 160   2.0000      -0.481429       -13.1004
 161   2.0000      -0.480007       -13.0616
 162   2.0000      -0.477573       -12.9954
 163   2.0000      -0.472150       -12.8478
 164   2.0000      -0.470579       -12.8051
 165   2.0000      -0.468549       -12.7499
 166   2.0000      -0.468356       -12.7446
 167   2.0000      -0.464562       -12.6414
 168   2.0000      -0.462763       -12.5924
 169   2.0000      -0.462299       -12.5798
 170   2.0000      -0.460974       -12.5437
 171   2.0000      -0.454482       -12.3671
 172   2.0000      -0.450511       -12.2590
 173   2.0000      -0.449928       -12.2432
 174   2.0000      -0.447464       -12.1761
 175   2.0000      -0.447185       -12.1685
 176   2.0000      -0.442080       -12.0296
 177   2.0000      -0.438869       -11.9422
 178   2.0000      -0.438326       -11.9275
 179   2.0000      -0.437217       -11.8973
 180   2.0000      -0.436531       -11.8786
 181   2.0000      -0.434720       -11.8293
 182   2.0000      -0.429091       -11.6762
 183   2.0000      -0.426107       -11.5950
 184   2.0000      -0.422654       -11.5010
 185   2.0000      -0.416073       -11.3219
 186   2.0000      -0.415072       -11.2947
 187   2.0000      -0.399580       -10.8731
 188   2.0000      -0.397248       -10.8097
 189   2.0000      -0.390193       -10.6177
 190   2.0000      -0.386162       -10.5080
 191   2.0000      -0.384833       -10.4718
 192   2.0000      -0.380427       -10.3519
 193   2.0000      -0.378335       -10.2950
 194   2.0000      -0.373877       -10.1737
 195   2.0000      -0.373107       -10.1528
 196   2.0000      -0.355066        -9.6618
 197   2.0000      -0.350775        -9.5451
 198   2.0000      -0.347786        -9.4637
 199   2.0000      -0.345995        -9.4150
 200   2.0000      -0.344633        -9.3779
 201   2.0000      -0.339216        -9.2305
 202   2.0000      -0.337764        -9.1910
 203   2.0000      -0.323491        -8.8026
 204   2.0000      -0.322362        -8.7719
 205   2.0000      -0.305763        -8.3202
 206   2.0000      -0.294572        -8.0157
 207   2.0000      -0.284471        -7.7409
 208   2.0000      -0.238191        -6.4815
 209   0.0000      -0.130586        -3.5534
 210   0.0000      -0.090248        -2.4558
 211   0.0000      -0.053040        -1.4433
 212   0.0000      -0.047663        -1.2970
 213   0.0000      -0.040855        -1.1117

MULLIKEN ATOMIC CHARGES
-----------------------
   0 C :   -0.086435
   1 C :    0.106333
   2 N :    0.262918
   3 O :   -0.244143
   4 O :   -0.239147
   5 C :   -0.065274
   6 C :    0.137345
   7 C :   -0.147284
   8 S :    0.179594
   9 C :   -0.076615
  10 S :    0.182091
  11 C :   -0.065624
  12 C :   -0.085764
  13 C :    0.011813
  14 C :   -0.162882
  15 N :    0.121254
  16 C :    0.060796
  17 C :   -0.040187
  18 C :    0.140987
  19 N :   -0.254872
  20 C :    0.092018
  21 C :    0.010121
  22 C :    0.164026
  23 O :   -0.195930
  24 C :   -0.055637
  25 C :   -0.067471
  26 C :    0.165232
  27 O :   -0.216937
  28 N :   -0.257941
  29 C :    0.100717
  30 C :    0.004549
  31 C :    0.143377
  32 C :   -0.026581
  33 C :    0.007394
  34 C :    0.110039
  35 C :   -0.102102
  36 C :    0.119717
  37 C :   -0.086409
  38 C :   -0.010537
  39 C :   -0.173830
  40 N :    0.139398
  41 C :    0.084911
  42 C :   -0.083021
  43 C :    0.101651
  44 C :   -0.025351
  45 C :   -0.087972
  46 C :   -0.185406
  47 N :    0.144305
  48 C :   -0.147531
  49 C :    0.164241
  50 N :    0.242357
  51 O :   -0.232630
  52 O :   -0.232840
  53 C :   -0.082495
  54 C :    0.145944
  55 C :   -0.123838
  56 S :    0.157195
  57 H :    0.048338
  58 H :    0.037664
  59 H :    0.022588
  60 H :    0.040461
  61 H :    0.000863
  62 H :    0.005500
  63 H :   -0.012733
  64 H :    0.046274
  65 H :    0.036551
  66 H :    0.025490
  67 H :    0.030608
  68 H :    0.016747
  69 H :    0.044160
  70 H :    0.023217
  71 H :    0.030014
  72 H :    0.025982
  73 H :    0.015107
  74 H :   -0.030684
  75 H :    0.018108
  76 H :    0.018565
  77 H :   -0.001555
  78 H :    0.003546
  79 H :    0.004485
  80 H :    0.047499
  81 H :    0.031163
  82 H :    0.005055
  83 H :    0.029350
Sum of atomic charges:    0.0000000

LOEWDIN ATOMIC CHARGES
----------------------
   0 C :   -0.148142
   1 C :   -0.076820
   2 N :    0.286045
   3 O :   -0.207153
   4 O :   -0.197511
   5 C :   -0.031724
   6 C :   -0.048435
   7 C :   -0.199543
   8 S :    0.482287
   9 C :   -0.180053
  10 S :    0.477793
  11 C :   -0.142641
  12 C :   -0.101372
  13 C :   -0.025284
  14 C :   -0.025837
  15 N :   -0.057419
  16 C :    0.000308
  17 C :   -0.032368
  18 C :    0.078319
  19 N :    0.004466
  20 C :    0.037052
  21 C :   -0.058411
  22 C :    0.081608
  23 O :   -0.185739
  24 C :   -0.108871
  25 C :   -0.119291
  26 C :    0.079015
  27 O :   -0.206123
  28 N :    0.000381
  29 C :    0.036731
  30 C :   -0.060668
  31 C :    0.069379
  32 C :   -0.037521
  33 C :    0.031966
  34 C :   -0.016759
  35 C :   -0.010971
  36 C :    0.041174
  37 C :   -0.072793
  38 C :    0.051583
  39 C :   -0.032673
  40 N :   -0.054038
  41 C :    0.035325
  42 C :   -0.001806
  43 C :   -0.043230
  44 C :    0.042686
  45 C :   -0.082152
  46 C :   -0.033505
  47 N :   -0.059046
  48 C :   -0.145131
  49 C :   -0.065742
  50 N :    0.283644
  51 O :   -0.196053
  52 O :   -0.190041
  53 C :   -0.041121
  54 C :   -0.044256
  55 C :   -0.188292
  56 S :    0.479015
  57 H :    0.040396
  58 H :    0.039710
  59 H :    0.032719
  60 H :    0.045449
  61 H :    0.041820
  62 H :    0.037039
  63 H :    0.036219
  64 H :    0.039136
  65 H :    0.027954
  66 H :    0.030416
  67 H :    0.034689
  68 H :    0.022869
  69 H :    0.038263
  70 H :    0.022723
  71 H :    0.032710
  72 H :    0.031712
  73 H :    0.021705
  74 H :    0.027428
  75 H :    0.043248
  76 H :    0.041131
  77 H :    0.034427
  78 H :    0.032220
  79 H :    0.032349
  80 H :    0.045338
  81 H :    0.039804
  82 H :    0.030176
  83 H :    0.028106

  Mayer bond orders larger than 0.100000
B(  0-C ,  1-C ) :   1.5253 B(  0-C ,  8-S ) :   1.2084 B(  0-C , 57-H ) :   0.9562
B(  1-C ,  2-N ) :   0.9148 B(  1-C ,  5-C ) :   1.2437 B(  2-N ,  3-O ) :   1.5480
B(  2-N ,  4-O ) :   1.5244 B(  3-O ,  4-O ) :   0.2666 B(  5-C ,  6-C ) :   1.1306
B(  5-C ,  7-C ) :   1.5670 B(  6-C , 58-H ) :   0.9255 B(  6-C , 59-H ) :   0.9324
B(  6-C , 60-H ) :   0.9300 B(  7-C ,  8-S ) :   1.1286 B(  7-C ,  9-C ) :   1.0606
B(  9-C , 10-S ) :   1.1345 B(  9-C , 13-C ) :   1.5081 B( 10-S , 11-C ) :   1.1412
B( 11-C , 12-C ) :   1.4368 B( 11-C , 16-C ) :   1.1607 B( 12-C , 13-C ) :   1.2827
B( 12-C , 14-C ) :   1.1202 B( 13-C , 61-H ) :   1.0060 B( 14-C , 15-N ) :   2.9664
B( 16-C , 17-C ) :   1.6064 B( 16-C , 62-H ) :   0.9195 B( 17-C , 18-C ) :   1.1803
B( 17-C , 63-H ) :   0.9470 B( 18-C , 19-N ) :   1.1741 B( 18-C , 25-C ) :   1.3057
B( 19-N , 20-C ) :   0.9368 B( 19-N , 22-C ) :   1.0566 B( 20-C , 21-C ) :   1.1249
B( 20-C , 64-H ) :   0.9273 B( 20-C , 65-H ) :   0.9477 B( 21-C , 66-H ) :   0.9632
B( 21-C , 67-H ) :   0.9673 B( 21-C , 68-H ) :   0.9674 B( 22-C , 23-O ) :   2.0394
B( 22-C , 24-C ) :   0.9783 B( 23-O , 75-H ) :   0.1081 B( 24-C , 25-C ) :   1.2738
B( 24-C , 31-C ) :   1.3246 B( 25-C , 26-C ) :   0.9882 B( 26-C , 27-O ) :   2.0136
B( 26-C , 28-N ) :   1.0701 B( 27-O , 62-H ) :   0.1191 B( 28-N , 29-C ) :   0.9459
B( 28-N , 31-C ) :   1.1505 B( 29-C , 30-C ) :   1.1195 B( 29-C , 69-H ) :   0.9274
B( 29-C , 70-H ) :   0.9496 B( 30-C , 71-H ) :   0.9636 B( 30-C , 72-H ) :   0.9681
B( 30-C , 73-H ) :   0.9686 B( 31-C , 32-C ) :   1.1731 B( 32-C , 33-C ) :   1.5363
B( 32-C , 74-H ) :   0.9620 B( 33-C , 34-C ) :   1.1376 B( 33-C , 75-H ) :   0.9598
B( 34-C , 35-C ) :   1.4960 B( 34-C , 38-C ) :   1.0278 B( 35-C , 36-C ) :   1.1173
B( 35-C , 76-H ) :   1.0123 B( 36-C , 37-C ) :   1.0961 B( 36-C , 41-C ) :   1.4010
B( 37-C , 38-C ) :   1.6989 B( 37-C , 39-C ) :   1.0846 B( 38-C , 77-H ) :   1.0148
B( 39-C , 40-N ) :   2.9710 B( 41-C , 42-C ) :   1.1297 B( 41-C , 45-C ) :   1.1129
B( 42-C , 43-C ) :   1.5907 B( 42-C , 78-H ) :   0.9894 B( 43-C , 44-C ) :   1.0501
B( 43-C , 48-C ) :   1.0610 B( 44-C , 45-C ) :   1.6685 B( 44-C , 79-H ) :   1.0134
B( 45-C , 46-C ) :   1.0834 B( 46-C , 47-N ) :   2.9757 B( 48-C , 49-C ) :   1.4731
B( 48-C , 56-S ) :   1.1988 B( 49-C , 50-N ) :   0.9166 B( 49-C , 53-C ) :   1.2650
B( 50-N , 51-O ) :   1.5294 B( 50-N , 52-O ) :   1.5171 B( 51-O , 52-O ) :   0.2690
B( 53-C , 54-C ) :   1.0979 B( 53-C , 55-C ) :   1.5848 B( 54-C , 80-H ) :   0.9385
B( 54-C , 81-H ) :   0.9405 B( 54-C , 82-H ) :   0.9417 B( 55-C , 56-S ) :   1.1320
B( 55-C , 83-H ) :   0.9660

-----------------------------------------------------------------------------
         ABSORPTION SPECTRUM VIA TRANSITION ELECTRIC DIPOLE MOMENTS
-----------------------------------------------------------------------------
State   Energy  Wavelength   fosc         T2         TX        TY        TZ
        (cm-1)    (nm)                  (au**2)     (au)      (au)      (au)
-----------------------------------------------------------------------------
   0    9871.1   1013.1   0.814426815  27.16197  -0.73179   4.96924  -1.39036
   1   16153.2    619.1   0.047118503   0.96030  -0.40455  -0.48774   0.74750
   2   17054.4    586.4   0.314964896   6.07996   0.98952  -2.24344  -0.26043
   3   19527.1    512.1   0.010117176   0.17057  -0.14000  -0.19423   0.33652
   4   24270.6    412.0   0.404330059   5.48442   0.25437  -2.16296   0.86100
   5   24829.1    402.8   0.030267286   0.40132   0.00067  -0.51861   0.36381
   6   24972.6    400.4   0.514168020   6.77823   0.19414   2.29634  -1.21135
   7   26798.9    373.1   0.010533114   0.12939  -0.00185  -0.21228   0.29039
   8   27116.5    368.8   0.140389071   1.70442   0.29668   0.78137  -1.00293
   9   28585.3    349.8   0.071147103   0.81939  -0.07586   0.80504  -0.40687
  10   28868.7    346.4   0.066405576   0.75727  -0.09037   0.70558   0.50126
  11   29454.1    339.5   0.014439940   0.16140  -0.03011  -0.04029   0.39858
  12   29976.1    333.6   0.048581679   0.53355  -0.04620  -0.55313   0.47483
  13   30221.8    330.9   0.254254231   2.76964  -0.04127  -1.36388   0.95277
  14   30463.9    328.3   0.022359339   0.24163   0.05254   0.38894  -0.29597
  15   30934.7    323.3   0.052763483   0.56152   0.29762  -0.66914  -0.15872
  16   32114.3    311.4   0.000823955   0.00845  -0.00923  -0.01045   0.09084
  17   32516.7    307.5   0.015031709   0.15219  -0.04723   0.37411   0.09999
  18   33071.0    302.4   0.033339887   0.33189   0.04706   0.39910  -0.41279
  19   33938.3    294.7   0.006486476   0.06292   0.04990   0.08817  -0.22947
  20   34529.1    289.6   0.220033272   2.09787   0.06896   1.25625  -0.71761
  21   35272.5    283.5   0.000771450   0.00720  -0.00077  -0.02518   0.08103
  22   35586.3    281.0   0.006052785   0.05599  -0.14577   0.17851  -0.05369
  23   35806.3    279.3   0.003211798   0.02953  -0.10581  -0.03988   0.12940
  24   36120.6    276.9   0.021454947   0.19555   0.10762  -0.34112   0.26000
  25   36205.4    276.2   0.019955431   0.18145   0.13627   0.33894  -0.21909
  26   36535.6    273.7   0.305955065   2.75687   0.44386   0.86025  -1.34901
  27   37016.1    270.2   0.003596378   0.03199   0.06907  -0.14004  -0.08719
  28   37634.0    265.7   0.033095797   0.28951   0.07861  -0.51023   0.15165
  29   38230.0    261.6   0.002806174   0.02416  -0.02895  -0.05326   0.14314
  30   38366.1    260.6   0.004109814   0.03527  -0.14351  -0.07742   0.09316
  31   38453.7    260.1   0.027557468   0.23593   0.24722   0.17925  -0.37773
  32   38785.5    257.8   0.043573336   0.36985  -0.08198   0.46022   0.38901
  33   38874.4    257.2   0.133911348   1.13404  -0.05469   0.74193  -0.76196
  34   39699.6    251.9   0.092796954   0.76953  -0.26118  -0.11037   0.83014
  35   40310.3    248.1   0.085083775   0.69487   0.14687  -0.81380  -0.10503

FINAL SINGLE POINT ENERGY     -3604.160150946687

DIPOLE MOMENT
-------------
                                X             Y             Z
Electronic contribution:     -7.91219       2.48402      -8.56668
Nuclear contribution   :      8.48152      -3.20588       8.61129
                        -----------------------------------------
Total Dipole Moment    :      0.56932      -0.72186       0.04461
                        -----------------------------------------
Magnitude (a.u.)       :      0.92043
Magnitude (Debye)      :      2.33956

Rotational constants in cm-1:     0.004962     0.000293     0.000279
Rotational constants in MHz :   148.751694     8.771609     8.360678

                             ****ORCA TERMINATED NORMALLY****
TOTAL RUN TIME: 0 days 0 hours 7 minutes 19 seconds 564 msec
