                         Program Version 4.2.0 -  RELEASE  -
|  1> # ORCA input file
|  2> # SCF done       -192.484822774926          0.000703756218
|  3> ! CAM-B3LYP def2-SVP def2/J RIJCOSX Grid4 TightSCF
|  4> %maxcore 5000
|  5> %tddft
|  6>     Mode sTDDFT
|  7>     Ethresh 5.0
|  8>     maxcore 5000
|  9> end
| 10>
| 11> %pal
| 12>   nprocs 6
| 13>   end
| 14> * xyz 0 1
| 15>    C        1.15757         0.93179        -0.76573
| 16>    C        0.42330         0.59653        -1.88019
| 17>    N       -0.25782         1.60370        -2.62398
| 18>    O       -0.28514         2.71769        -2.14034
| 19>    O       -0.75858         1.30302        -3.68735
| 20>    C        0.43615        -0.79496        -2.17896
| 21>    C       -0.38365        -1.41738        -3.24926
| 22>    C        1.21890        -1.47844        -1.26870
| 23>    S        1.85917        -0.41822        -0.03175
| 24>    C        1.56482        -2.87044        -1.20320
| 25>    C        1.74344        -3.50337         0.04602
| 26>    C        2.03647        -4.90472         0.14716
| 27>    N        2.36243        -5.42241         1.33609
| 28>    C        2.17446        -4.71344         2.41918
| 29>    C        1.68979        -3.36555         2.33187
| 30>    N        1.56368        -2.78694         1.16732
| 31>    C        1.41230        -2.62890         3.51058
| 32>    N        1.19999        -2.06236         4.48255
| 33>    C        2.45734        -5.31391         3.66993
| 34>    N        2.62878        -5.82475         4.68067
| 35>    C        2.04190        -5.76601        -0.98056
| 36>    C        1.97933        -5.12084        -2.23035
| 37>    C        1.76033        -3.68899        -2.33195
| 38>    N        1.75709        -3.28811        -3.60639
| 39>    S        1.96542        -4.54902        -4.56500
| 40>    N        2.07668        -5.68077        -3.43592
| 41>    C        1.99652        -7.16494        -0.69206
| 42>    N        2.55989        -8.21542        -1.34722
| 43>    C        3.37415        -8.21081        -2.54276
| 44>    C        2.58777        -8.69621        -3.75591
| 45>    C        2.34862        -9.43437        -0.65507
| 46>    O        2.79649       -10.50086        -1.00926
| 47>    C        1.54878        -9.05631         0.49053
| 48>    C        1.34199        -7.67260         0.44973
| 49>    C        0.42607        -7.33995         1.53151
| 50>    O       -0.08985        -6.29478         1.87060
| 51>    N        0.17447        -8.56677         2.17596
| 52>    C       -0.60275        -8.60648         3.39356
| 53>    C        0.28078        -8.80865         4.62052
| 54>    C        0.82706        -9.60432         1.56316
| 55>    C        0.76175       -10.99423         1.74861
| 56>    C       -0.01848       -11.76023         2.57645
| 57>    C       -0.11851       -13.15280         2.41578
| 58>    C       -0.41510       -14.11531         3.38634
| 59>    N       -0.83982       -13.89264         4.70593
| 60>    O       -1.01712       -12.73950         5.07141
| 61>    O       -1.02193       -14.86891         5.41083
| 62>    C       -0.15383       -15.40971         2.84988
| 63>    C        0.31511       -15.27740         1.57028
| 64>    C        0.28539       -13.89999         1.21032
| 65>    C        0.40531       -13.34258        -0.05412
| 66>    C       -0.36327       -12.23753        -0.54165
| 67>    C       -0.04821       -12.03215        -1.84607
| 68>    C        0.97222       -12.96255        -2.23718
| 69>    N        1.49848       -12.90549        -3.54158
| 70>    O        2.04200       -13.88727        -4.01319
| 71>    O        1.34003       -11.85768        -4.14534
| 72>    C        1.27139       -13.79868        -1.16251
| 73>    C        2.29324       -14.74299        -0.92317
| 74>    C        3.26214       -15.18768        -1.77295
| 75>    C        4.19542       -16.17897        -1.39045
| 76>    C        5.30030       -16.65620        -2.09776
| 77>    N        5.74895       -16.07517        -3.31858
| 78>    O        5.45425       -14.91880        -3.53912
| 79>    O        6.41648       -16.76994        -4.05824
| 80>    C        5.96930       -17.74099        -1.46781
| 81>    C        7.17229       -18.43926        -1.99296
| 82>    C        5.37001       -18.06069        -0.28335
| 83>    S        4.00515       -17.09321         0.08067
| 84>    H        1.28067         1.92061        -0.36800
| 85>    H       -1.33999        -0.90596        -3.33214
| 86>    H       -0.55133        -2.47028        -3.04508
| 87>    H        0.11872        -1.32159        -4.21052
| 88>    H        4.21109        -8.89087        -2.35896
| 89>    H        3.75293        -7.20236        -2.70543
| 90>    H        2.24702        -9.71815        -3.61422
| 91>    H        3.22785        -8.66985        -4.63228
| 92>    H        1.73013        -8.05326        -3.93019
| 93>    H       -1.36018        -9.39095         3.31834
| 94>    H       -1.10798        -7.63865         3.45719
| 95>    H        0.84121        -9.73779         4.55180
| 96>    H       -0.33930        -8.84610         5.51113
| 97>    H        0.98360        -7.98401         4.71915
| 98>    H        1.42236       -11.51327         1.06452
| 99>    H       -0.54300       -11.33730         3.42172
|100>    H       -0.31233       -16.32280         3.39216
|101>    H        0.51839       -16.08698         0.89587
|102>    H       -1.13223       -11.73920         0.01574
|103>    H       -0.47483       -11.31127        -2.51769
|104>    H        2.31233       -15.13753         0.08600
|105>    H        3.34520       -14.80077        -2.77996
|106>    H        7.95003       -17.72293        -2.25183
|107>    H        6.92253       -18.98081        -2.90385
|108>    H        7.55565       -19.13677        -1.25276
|109>    H        5.66582       -18.82876         0.40396
|110> *
|111>
|112>                          ****END OF INPUT****

CARTESIAN COORDINATES (ANGSTROEM)
---------------------------------
  C      1.157570    0.931790   -0.765730
  C      0.423300    0.596530   -1.880190
  N     -0.257820    1.603700   -2.623980
  O     -0.285140    2.717690   -2.140340
  O     -0.758580    1.303020   -3.687350
  C      0.436150   -0.794960   -2.178960
  C     -0.383650   -1.417380   -3.249260
  C      1.218900   -1.478440   -1.268700
  S      1.859170   -0.418220   -0.031750
  C      1.564820   -2.870440   -1.203200
  C      1.743440   -3.503370    0.046020
  C      2.036470   -4.904720    0.147160
  N      2.362430   -5.422410    1.336090
  C      2.174460   -4.713440    2.419180
  C      1.689790   -3.365550    2.331870
  N      1.563680   -2.786940    1.167320
  C      1.412300   -2.628900    3.510580
  N      1.199990   -2.062360    4.482550
  C      2.457340   -5.313910    3.669930
  N      2.628780   -5.824750    4.680670
  C      2.041900   -5.766010   -0.980560
  C      1.979330   -5.120840   -2.230350
  C      1.760330   -3.688990   -2.331950
  N      1.757090   -3.288110   -3.606390
  S      1.965420   -4.549020   -4.565000
  N      2.076680   -5.680770   -3.435920
  C      1.996520   -7.164940   -0.692060
  N      2.559890   -8.215420   -1.347220
  C      3.374150   -8.210810   -2.542760
  C      2.587770   -8.696210   -3.755910
  C      2.348620   -9.434370   -0.655070
  O      2.796490  -10.500860   -1.009260
  C      1.548780   -9.056310    0.490530
  C      1.341990   -7.672600    0.449730
  C      0.426070   -7.339950    1.531510
  O     -0.089850   -6.294780    1.870600
  N      0.174470   -8.566770    2.175960
  C     -0.602750   -8.606480    3.393560
  C      0.280780   -8.808650    4.620520
  C      0.827060   -9.604320    1.563160
  C      0.761750  -10.994230    1.748610
  C     -0.018480  -11.760230    2.576450
  C     -0.118510  -13.152800    2.415780
  C     -0.415100  -14.115310    3.386340
  N     -0.839820  -13.892640    4.705930
  O     -1.017120  -12.739500    5.071410
  O     -1.021930  -14.868910    5.410830
  C     -0.153830  -15.409710    2.849880
  C      0.315110  -15.277400    1.570280
  C      0.285390  -13.899990    1.210320
  C      0.405310  -13.342580   -0.054120
  C     -0.363270  -12.237530   -0.541650
  C     -0.048210  -12.032150   -1.846070
  C      0.972220  -12.962550   -2.237180
  N      1.498480  -12.905490   -3.541580
  O      2.042000  -13.887270   -4.013190
  O      1.340030  -11.857680   -4.145340
  C      1.271390  -13.798680   -1.162510
  C      2.293240  -14.742990   -0.923170
  C      3.262140  -15.187680   -1.772950
  C      4.195420  -16.178970   -1.390450
  C      5.300300  -16.656200   -2.097760
  N      5.748950  -16.075170   -3.318580
  O      5.454250  -14.918800   -3.539120
  O      6.416480  -16.769940   -4.058240
  C      5.969300  -17.740990   -1.467810
  C      7.172290  -18.439260   -1.992960
  C      5.370010  -18.060690   -0.283350
  S      4.005150  -17.093210    0.080670
  H      1.280670    1.920610   -0.368000
  H     -1.339990   -0.905960   -3.332140
  H     -0.551330   -2.470280   -3.045080
  H      0.118720   -1.321590   -4.210520
  H      4.211090   -8.890870   -2.358960
  H      3.752930   -7.202360   -2.705430
  H      2.247020   -9.718150   -3.614220
  H      3.227850   -8.669850   -4.632280
  H      1.730130   -8.053260   -3.930190
  H     -1.360180   -9.390950    3.318340
  H     -1.107980   -7.638650    3.457190
  H      0.841210   -9.737790    4.551800
  H     -0.339300   -8.846100    5.511130
  H      0.983600   -7.984010    4.719150
  H      1.422360  -11.513270    1.064520
  H     -0.543000  -11.337300    3.421720
  H     -0.312330  -16.322800    3.392160
  H      0.518390  -16.086980    0.895870
  H     -1.132230  -11.739200    0.015740
  H     -0.474830  -11.311270   -2.517690
  H      2.312330  -15.137530    0.086000
  H      3.345200  -14.800770   -2.779960
  H      7.950030  -17.722930   -2.251830
  H      6.922530  -18.980810   -2.903850
  H      7.555650  -19.136770   -1.252760
  H      5.665820  -18.828760    0.403960

 Total Charge           Charge          ....    0
 Multiplicity           Mult            ....    1
 Number of Electrons    NEL             ....  502
 Basis Dimension        Dim             .... 1108

ORBITAL ENERGIES
----------------

  NO   OCC          E(Eh)            E(eV)
   0   2.0000     -89.062972     -2423.5267
   1   2.0000     -88.987135     -2421.4630
   2   2.0000     -88.983726     -2421.3703
   3   2.0000     -19.243510      -523.6425
   4   2.0000     -19.243467      -523.6413
   5   2.0000     -19.242556      -523.6166
   6   2.0000     -19.242346      -523.6108
   7   2.0000     -19.241373      -523.5844
   8   2.0000     -19.240105      -523.5499
   9   2.0000     -19.240091      -523.5495
  10   2.0000     -19.239177      -523.5246
  11   2.0000     -19.215576      -522.8824
  12   2.0000     -19.212462      -522.7977
  13   2.0000     -14.651984      -398.7008
  14   2.0000     -14.651431      -398.6857
  15   2.0000     -14.649594      -398.6357
  16   2.0000     -14.649226      -398.6257
  17   2.0000     -14.475615      -393.9015
  18   2.0000     -14.472734      -393.8231
  19   2.0000     -14.472048      -393.8045
  20   2.0000     -14.470697      -393.7677
  21   2.0000     -14.467666      -393.6852
  22   2.0000     -14.466874      -393.6637
  23   2.0000     -14.437630      -392.8679
  24   2.0000     -14.437520      -392.8649
  25   2.0000     -10.396326      -282.8984
  26   2.0000     -10.394649      -282.8528
  27   2.0000     -10.392516      -282.7947
  28   2.0000     -10.388409      -282.6830
  29   2.0000     -10.371263      -282.2164
  30   2.0000     -10.365779      -282.0672
  31   2.0000     -10.365673      -282.0643
  32   2.0000     -10.362278      -281.9719
  33   2.0000     -10.361960      -281.9633
  34   2.0000     -10.358103      -281.8583
  35   2.0000     -10.344246      -281.4812
  36   2.0000     -10.337003      -281.2841
  37   2.0000     -10.336674      -281.2752
  38   2.0000     -10.335882      -281.2536
  39   2.0000     -10.335260      -281.2367
  40   2.0000     -10.332456      -281.1604
  41   2.0000     -10.332272      -281.1554
  42   2.0000     -10.331461      -281.1333
  43   2.0000     -10.331316      -281.1294
  44   2.0000     -10.330964      -281.1198
  45   2.0000     -10.330430      -281.1053
  46   2.0000     -10.328778      -281.0603
  47   2.0000     -10.328445      -281.0513
  48   2.0000     -10.326721      -281.0044
  49   2.0000     -10.324696      -280.9493
  50   2.0000     -10.319528      -280.8086
  51   2.0000     -10.317161      -280.7442
  52   2.0000     -10.315178      -280.6903
  53   2.0000     -10.314823      -280.6806
  54   2.0000     -10.314574      -280.6738
  55   2.0000     -10.310576      -280.5650
  56   2.0000     -10.308508      -280.5088
  57   2.0000     -10.308178      -280.4998
  58   2.0000     -10.302737      -280.3517
  59   2.0000     -10.302082      -280.3339
  60   2.0000     -10.299076      -280.2521
  61   2.0000     -10.295123      -280.1445
  62   2.0000     -10.289562      -279.9932
  63   2.0000     -10.288561      -279.9660
  64   2.0000     -10.286890      -279.9205
  65   2.0000     -10.274592      -279.5859
  66   2.0000     -10.273366      -279.5525
  67   2.0000     -10.262092      -279.2457
  68   2.0000     -10.249309      -278.8979
  69   2.0000      -8.154067      -221.8834
  70   2.0000      -8.082045      -219.9236
  71   2.0000      -8.079307      -219.8491
  72   2.0000      -6.125017      -166.6702
  73   2.0000      -6.117246      -166.4587
  74   2.0000      -6.117130      -166.4556
  75   2.0000      -6.051217      -164.6620
  76   2.0000      -6.048458      -164.5869
  77   2.0000      -6.046669      -164.5382
  78   2.0000      -6.044714      -164.4850
  79   2.0000      -6.044231      -164.4719
  80   2.0000      -6.041789      -164.4054
  81   2.0000      -1.325182       -36.0600
  82   2.0000      -1.324161       -36.0322
  83   2.0000      -1.321065       -35.9480
  84   2.0000      -1.318677       -35.8830
  85   2.0000      -1.160691       -31.5840
  86   2.0000      -1.155860       -31.4525
  87   2.0000      -1.149194       -31.2712
  88   2.0000      -1.143169       -31.1072
  89   2.0000      -1.142059       -31.0770
  90   2.0000      -1.138527       -30.9809
  91   2.0000      -1.136149       -30.9162
  92   2.0000      -1.132570       -30.8188
  93   2.0000      -1.086197       -29.5569
  94   2.0000      -1.076096       -29.2821
  95   2.0000      -1.058631       -28.8068
  96   2.0000      -1.026176       -27.9237
  97   2.0000      -1.023979       -27.8639
  98   2.0000      -1.019898       -27.7528
  99   2.0000      -1.016560       -27.6620
 100   2.0000      -1.011740       -27.5308
 101   2.0000      -1.010292       -27.4914
 102   2.0000      -1.001170       -27.2432
 103   2.0000      -0.991013       -26.9668
 104   2.0000      -0.946408       -25.7531
 105   2.0000      -0.931017       -25.3343
 106   2.0000      -0.924583       -25.1592
 107   2.0000      -0.921361       -25.0715
 108   2.0000      -0.920712       -25.0539
 109   2.0000      -0.913641       -24.8614
 110   2.0000      -0.906968       -24.6799
 111   2.0000      -0.902783       -24.5660
 112   2.0000      -0.885708       -24.1013
 113   2.0000      -0.883801       -24.0494
 114   2.0000      -0.875662       -23.8280
 115   2.0000      -0.872743       -23.7486
 116   2.0000      -0.856543       -23.3077
 117   2.0000      -0.851186       -23.1620
 118   2.0000      -0.834636       -22.7116
 119   2.0000      -0.828529       -22.5454
 120   2.0000      -0.824711       -22.4415
 121   2.0000      -0.813727       -22.1426
 122   2.0000      -0.810287       -22.0490
 123   2.0000      -0.785620       -21.3778
 124   2.0000      -0.773177       -21.0392
 125   2.0000      -0.769113       -20.9286
 126   2.0000      -0.767498       -20.8847
 127   2.0000      -0.765108       -20.8196
 128   2.0000      -0.764626       -20.8065
 129   2.0000      -0.752757       -20.4835
 130   2.0000      -0.736960       -20.0537
 131   2.0000      -0.726099       -19.7582
 132   2.0000      -0.721873       -19.6432
 133   2.0000      -0.720569       -19.6077
 134   2.0000      -0.718299       -19.5459
 135   2.0000      -0.709645       -19.3104
 136   2.0000      -0.707172       -19.2431
 137   2.0000      -0.694002       -18.8848
 138   2.0000      -0.679565       -18.4919
 139   2.0000      -0.669234       -18.2108
 140   2.0000      -0.668951       -18.2031
 141   2.0000      -0.665593       -18.1117
 142   2.0000      -0.661772       -18.0077
 143   2.0000      -0.659421       -17.9438
 144   2.0000      -0.648450       -17.6452
 145   2.0000      -0.644207       -17.5298
 146   2.0000      -0.640449       -17.4275
 147   2.0000      -0.638554       -17.3759
 148   2.0000      -0.637079       -17.3358
 149   2.0000      -0.632900       -17.2221
 150   2.0000      -0.630589       -17.1592
 151   2.0000      -0.630186       -17.1482
 152   2.0000      -0.629220       -17.1219
 153   2.0000      -0.623025       -16.9534
 154   2.0000      -0.621703       -16.9174
 155   2.0000      -0.617138       -16.7932
 156   2.0000      -0.609800       -16.5935
 157   2.0000      -0.605530       -16.4773
 158   2.0000      -0.601189       -16.3592
 159   2.0000      -0.599990       -16.3266
 160   2.0000      -0.597288       -16.2530
 161   2.0000      -0.591103       -16.0847
 162   2.0000      -0.586975       -15.9724
 163   2.0000      -0.585772       -15.9397
 164   2.0000      -0.582479       -15.8500
 165   2.0000      -0.580693       -15.8014
 166   2.0000      -0.578470       -15.7410
 167   2.0000      -0.577749       -15.7214
 168   2.0000      -0.572244       -15.5715
 169   2.0000      -0.560674       -15.2567
 170   2.0000      -0.555923       -15.1274
 171   2.0000      -0.553748       -15.0682
 172   2.0000      -0.548078       -14.9140
 173   2.0000      -0.545611       -14.8468
 174   2.0000      -0.543123       -14.7791
 175   2.0000      -0.539957       -14.6930
 176   2.0000      -0.534528       -14.5452
 177   2.0000      -0.529427       -14.4064
 178   2.0000      -0.527018       -14.3409
 179   2.0000      -0.526523       -14.3274
 180   2.0000      -0.524593       -14.2749
 181   2.0000      -0.523143       -14.2354
 182   2.0000      -0.520572       -14.1655
 183   2.0000      -0.518250       -14.1023
 184   2.0000      -0.517424       -14.0798
 185   2.0000      -0.514669       -14.0048
 186   2.0000      -0.508246       -13.8301
 187   2.0000      -0.506189       -13.7741
 188   2.0000      -0.501797       -13.6546
 189   2.0000      -0.499267       -13.5857
 190   2.0000      -0.496320       -13.5056
 191   2.0000      -0.495823       -13.4920
 192   2.0000      -0.491266       -13.3680
 193   2.0000      -0.489140       -13.3102
 194   2.0000      -0.485420       -13.2089
 195   2.0000      -0.482717       -13.1354
 196   2.0000      -0.478878       -13.0309
 197   2.0000      -0.476961       -12.9788
 198   2.0000      -0.474281       -12.9058
 199   2.0000      -0.473241       -12.8775
 200   2.0000      -0.471726       -12.8363
 201   2.0000      -0.469950       -12.7880
 202   2.0000      -0.467077       -12.7098
 203   2.0000      -0.465909       -12.6780
 204   2.0000      -0.465493       -12.6667
 205   2.0000      -0.462097       -12.5743
 206   2.0000      -0.457807       -12.4576
 207   2.0000      -0.453348       -12.3362
 208   2.0000      -0.452546       -12.3144
 209   2.0000      -0.451204       -12.2779
 210   2.0000      -0.450494       -12.2586
 211   2.0000      -0.447173       -12.1682
 212   2.0000      -0.446310       -12.1447
 213   2.0000      -0.440622       -11.9899
 214   2.0000      -0.436306       -11.8725
 215   2.0000      -0.435211       -11.8427
 216   2.0000      -0.431418       -11.7395
 217   2.0000      -0.427919       -11.6443
 218   2.0000      -0.426596       -11.6083
 219   2.0000      -0.421261       -11.4631
 220   2.0000      -0.418487       -11.3876
 221   2.0000      -0.411974       -11.2104
 222   2.0000      -0.404952       -11.0193
 223   2.0000      -0.394675       -10.7397
 224   2.0000      -0.390447       -10.6246
 225   2.0000      -0.388900       -10.5825
 226   2.0000      -0.386211       -10.5093
 227   2.0000      -0.386012       -10.5039
 228   2.0000      -0.384546       -10.4640
 229   2.0000      -0.380963       -10.3665
 230   2.0000      -0.380649       -10.3580
 231   2.0000      -0.378531       -10.3003
 232   2.0000      -0.378216       -10.2918
 233   2.0000      -0.377015       -10.2591
 234   2.0000      -0.374375       -10.1873
 235   2.0000      -0.368773       -10.0348
 236   2.0000      -0.367171        -9.9912
 237   2.0000      -0.365986        -9.9590
 238   2.0000      -0.365805        -9.9541
 239   2.0000      -0.360940        -9.8217
 240   2.0000      -0.353279        -9.6132
 241   2.0000      -0.352704        -9.5976
 242   2.0000      -0.344275        -9.3682
 243   2.0000      -0.337749        -9.1906
 244   2.0000      -0.336692        -9.1618
 245   2.0000      -0.336049        -9.1444
 246   2.0000      -0.331078        -9.0091
 247   2.0000      -0.312859        -8.5133
 248   2.0000      -0.303430        -8.2567
 249   2.0000      -0.272913        -7.4263
 250   2.0000      -0.251416        -6.8414
 251   0.0000      -0.151999        -4.1361
 252   0.0000      -0.130323        -3.5463
 253   0.0000      -0.091007        -2.4764
 254   0.0000      -0.065607        -1.7852
 255   0.0000      -0.058989        -1.6052

MULLIKEN ATOMIC CHARGES
-----------------------
   0 C :   -0.072968
   1 C :    0.088137
   2 N :    0.265180
   3 O :   -0.246996
   4 O :   -0.242178
   5 C :   -0.040512
   6 C :    0.204463
   7 C :   -0.277955
   8 S :    0.225752
   9 C :    0.141820
  10 C :   -0.052339
  11 C :   -0.065269
  12 N :    0.042044
  13 C :   -0.117261
  14 C :   -0.091376
  15 N :    0.025589
  16 C :   -0.222354
  17 N :    0.240880
  18 C :   -0.175732
  19 N :    0.214545
  20 C :    0.058204
  21 C :    0.052180
  22 C :   -0.043769
  23 N :   -0.263312
  24 S :    0.562522
  25 N :   -0.292063
  26 C :    0.063910
  27 N :   -0.246296
  28 C :    0.138925
  29 C :    0.003300
  30 C :    0.169638
  31 O :   -0.176734
  32 C :   -0.056201
  33 C :   -0.027653
  34 C :    0.145648
  35 O :   -0.203906
  36 N :   -0.249733
  37 C :    0.095171
  38 C :   -0.004717
  39 C :    0.113183
  40 C :   -0.028572
  41 C :   -0.026192
  42 C :    0.026118
  43 C :    0.089673
  44 N :    0.274350
  45 O :   -0.261322
  46 O :   -0.247283
  47 C :    0.014146
  48 C :    0.000775
  49 C :    0.024273
  50 C :   -0.015865
  51 C :    0.013040
  52 C :    0.034557
  53 C :    0.073409
  54 N :    0.280212
  55 O :   -0.237073
  56 O :   -0.239902
  57 C :    0.120905
  58 C :   -0.080695
  59 C :    0.037445
  60 C :   -0.142657
  61 C :    0.152863
  62 N :    0.253662
  63 O :   -0.229037
  64 O :   -0.242199
  65 C :   -0.077903
  66 C :    0.151918
  67 C :   -0.118448
  68 S :    0.136380
  69 H :    0.047234
  70 H :    0.030895
  71 H :   -0.002953
  72 H :    0.032600
  73 H :    0.031966
  74 H :    0.016951
  75 H :    0.031036
  76 H :    0.012811
  77 H :    0.010071
  78 H :    0.028239
  79 H :    0.046480
  80 H :    0.022404
  81 H :    0.033407
  82 H :    0.033049
  83 H :    0.037468
  84 H :    0.026826
  85 H :    0.006752
  86 H :   -0.003815
  87 H :   -0.004706
  88 H :   -0.000559
  89 H :   -0.005880
  90 H :    0.040539
  91 H :    0.030456
  92 H :    0.045916
  93 H :    0.003631
  94 H :    0.030834
Sum of atomic charges:   -0.0000000

LOEWDIN ATOMIC CHARGES
----------------------
   0 C :   -0.142793
   1 C :   -0.086191
   2 N :    0.285820
   3 O :   -0.210079
   4 O :   -0.200174
   5 C :   -0.007215
   6 C :   -0.047403
   7 C :   -0.181639
   8 S :    0.530168
   9 C :   -0.017153
  10 C :   -0.013247
  11 C :    0.022424
  12 N :    0.014839
  13 C :   -0.020508
  14 C :   -0.011129
  15 N :   -0.019030
  16 C :   -0.035074
  17 N :    0.001339
  18 C :   -0.028284
  19 N :   -0.009629
  20 C :   -0.054192
  21 C :   -0.033508
  22 C :   -0.047303
  23 N :   -0.262765
  24 S :    0.692853
  25 N :   -0.275484
  26 C :    0.097857
  27 N :    0.015250
  28 C :    0.040267
  29 C :   -0.063919
  30 C :    0.089103
  31 O :   -0.173167
  32 C :   -0.094098
  33 C :   -0.099338
  34 C :    0.082404
  35 O :   -0.196272
  36 N :    0.007719
  37 C :    0.036325
  38 C :   -0.061155
  39 C :    0.066907
  40 C :    0.000457
  41 C :    0.002902
  42 C :    0.009679
  43 C :   -0.059520
  44 N :    0.286158
  45 O :   -0.226358
  46 O :   -0.211777
  47 C :    0.026437
  48 C :   -0.051751
  49 C :    0.028741
  50 C :    0.055518
  51 C :   -0.046183
  52 C :    0.015877
  53 C :   -0.034430
  54 N :    0.290143
  55 O :   -0.196504
  56 O :   -0.204383
  57 C :    0.007633
  58 C :   -0.033427
  59 C :    0.010129
  60 C :   -0.146697
  61 C :   -0.059946
  62 N :    0.284589
  63 O :   -0.193382
  64 O :   -0.197902
  65 C :   -0.043719
  66 C :   -0.043856
  67 C :   -0.181046
  68 S :    0.470606
  69 H :    0.040631
  70 H :    0.036457
  71 H :    0.024114
  72 H :    0.045497
  73 H :    0.033524
  74 H :    0.021200
  75 H :    0.023472
  76 H :    0.029438
  77 H :    0.014044
  78 H :    0.023707
  79 H :    0.038199
  80 H :    0.023627
  81 H :    0.036857
  82 H :    0.032527
  83 H :    0.049376
  84 H :    0.039604
  85 H :    0.040031
  86 H :    0.029936
  87 H :    0.029972
  88 H :    0.036398
  89 H :    0.022454
  90 H :    0.035140
  91 H :    0.039916
  92 H :    0.045022
  93 H :    0.029613
  94 H :    0.028728

  Mayer bond orders larger than 0.100000
B(  0-C ,  1-C ) :   1.4852 B(  0-C ,  8-S ) :   1.2446 B(  0-C , 69-H ) :   0.9567
B(  1-C ,  2-N ) :   0.9185 B(  1-C ,  5-C ) :   1.2597 B(  2-N ,  3-O ) :   1.5456
B(  2-N ,  4-O ) :   1.5235 B(  3-O ,  4-O ) :   0.2641 B(  5-C ,  6-C ) :   1.1526
B(  5-C ,  7-C ) :   1.5101 B(  6-C , 70-H ) :   0.9208 B(  6-C , 71-H ) :   0.9281
B(  6-C , 72-H ) :   0.9120 B(  7-C ,  8-S ) :   1.1306 B(  7-C ,  9-C ) :   1.0959
B(  9-C , 10-C ) :   1.2797 B(  9-C , 20-C ) :   0.1223 B(  9-C , 22-C ) :   1.2335
B( 10-C , 11-C ) :   1.1187 B( 10-C , 15-N ) :   1.3978 B( 11-C , 12-N ) :   1.4409
B( 11-C , 20-C ) :   1.2861 B( 12-N , 13-C ) :   1.6990 B( 13-C , 14-C ) :   1.1895
B( 13-C , 18-C ) :   1.1687 B( 14-C , 15-N ) :   1.7354 B( 14-C , 16-C ) :   1.1605
B( 16-C , 17-N ) :   3.0430 B( 18-C , 19-N ) :   2.9706 B( 20-C , 21-C ) :   1.2022
B( 20-C , 26-C ) :   1.0737 B( 21-C , 22-C ) :   1.0960 B( 21-C , 25-N ) :   1.5024
B( 22-C , 23-N ) :   1.5149 B( 23-N , 24-S ) :   1.3020 B( 23-N , 25-N ) :   0.1495
B( 24-S , 25-N ) :   1.2688 B( 26-C , 27-N ) :   1.2770 B( 26-C , 33-C ) :   1.3156
B( 27-N , 28-C ) :   0.9242 B( 27-N , 30-C ) :   1.0168 B( 28-C , 29-C ) :   1.1136
B( 28-C , 73-H ) :   0.9334 B( 28-C , 74-H ) :   0.9435 B( 29-C , 75-H ) :   0.9546
B( 29-C , 76-H ) :   0.9633 B( 29-C , 77-H ) :   0.9600 B( 30-C , 31-O ) :   2.1054
B( 30-C , 32-C ) :   0.9712 B( 32-C , 33-C ) :   1.2966 B( 32-C , 39-C ) :   1.3000
B( 33-C , 34-C ) :   0.9586 B( 34-C , 35-O ) :   2.0776 B( 34-C , 36-N ) :   1.0599
B( 36-N , 37-C ) :   0.9293 B( 36-N , 39-C ) :   1.1815 B( 37-C , 38-C ) :   1.1182
B( 37-C , 78-H ) :   0.9491 B( 37-C , 79-H ) :   0.9257 B( 38-C , 80-H ) :   0.9657
B( 38-C , 81-H ) :   0.9662 B( 38-C , 82-H ) :   0.9564 B( 39-C , 40-C ) :   1.2610
B( 40-C , 41-C ) :   1.4433 B( 40-C , 83-H ) :   0.9163 B( 41-C , 42-C ) :   1.2399
B( 41-C , 84-H ) :   0.9553 B( 42-C , 43-C ) :   1.4294 B( 42-C , 49-C ) :   1.0236
B( 43-C , 44-N ) :   0.9562 B( 43-C , 47-C ) :   1.1824 B( 44-N , 45-O ) :   1.4887
B( 44-N , 46-O ) :   1.5335 B( 45-O , 46-O ) :   0.2558 B( 47-C , 48-C ) :   1.5066
B( 47-C , 85-H ) :   1.0102 B( 48-C , 49-C ) :   1.1810 B( 48-C , 86-H ) :   1.0028
B( 49-C , 50-C ) :   1.4297 B( 50-C , 51-C ) :   1.1488 B( 50-C , 57-C ) :   1.0310
B( 51-C , 52-C ) :   1.5718 B( 51-C , 87-H ) :   0.9912 B( 52-C , 53-C ) :   1.1428
B( 52-C , 88-H ) :   1.0090 B( 53-C , 54-N ) :   0.9476 B( 53-C , 57-C ) :   1.4727
B( 54-N , 55-O ) :   1.4887 B( 54-N , 56-O ) :   1.5085 B( 55-O , 56-O ) :   0.2503
B( 57-C , 58-C ) :   1.1802 B( 58-C , 59-C ) :   1.5906 B( 58-C , 89-H ) :   0.9486
B( 59-C , 60-C ) :   1.1703 B( 59-C , 90-H ) :   0.9410 B( 60-C , 61-C ) :   1.4222
B( 60-C , 68-S ) :   1.1585 B( 61-C , 62-N ) :   0.9270 B( 61-C , 65-C ) :   1.2721
B( 62-N , 63-O ) :   1.5195 B( 62-N , 64-O ) :   1.5138 B( 63-O , 64-O ) :   0.2650
B( 65-C , 66-C ) :   1.1002 B( 65-C , 67-C ) :   1.5694 B( 66-C , 91-H ) :   0.9401
B( 66-C , 92-H ) :   0.9378 B( 66-C , 93-H ) :   0.9403 B( 67-C , 68-S ) :   1.1444
B( 67-C , 94-H ) :   0.9645

-----------------------------------------------------------------------------
         ABSORPTION SPECTRUM VIA TRANSITION ELECTRIC DIPOLE MOMENTS
-----------------------------------------------------------------------------
State   Energy  Wavelength   fosc         T2         TX        TY        TZ
        (cm-1)    (nm)                  (au**2)     (au)      (au)      (au)
-----------------------------------------------------------------------------
   0    5694.0   1756.2   0.259974416  15.03100  -0.16543  -3.86057   0.31569
   1    9182.1   1089.1   0.056060527   2.00997  -1.24121  -0.14572   0.66943
   2   10640.6    939.8   0.127675419   3.95019   0.26651   1.71037  -0.97662
   3   17077.7    585.6   0.057359369   1.10574  -0.20719   0.80505  -0.64397
   4   17768.5    562.8   0.133262350   2.46907   0.85081   1.18060  -0.59276
   5   18016.0    555.1   0.194231314   3.54924  -0.63731   1.76304  -0.18644
   6   18900.0    529.1   0.083740778   1.45865  -0.91544  -0.34860   0.70647
   7   20730.9    482.4   0.003203871   0.05088   0.12660   0.13663  -0.12721
   8   22510.0    444.2   0.305427824   4.46692   1.49093  -1.02910  -1.08859
   9   22899.6    436.7   0.026629751   0.38284   0.49695   0.14888  -0.33721
  10   23238.5    430.3   0.099178666   1.40503  -0.44218   0.84415  -0.70492
  11   23380.6    427.7   0.009918346   0.13966  -0.34744   0.11222  -0.07965
  12   23635.6    423.1   0.017358460   0.24178   0.02947  -0.48787  -0.05381
  13   23974.9    417.1   0.026638179   0.36578  -0.08856  -0.01705  -0.59804
  14   24490.5    408.3   0.045874824   0.61667   0.22159   0.09559  -0.74728
  15   24870.1    402.1   0.062950445   0.83329   0.09736   0.69382  -0.58517
  16   25546.9    391.4   0.024920711   0.32114   0.26565   0.48204   0.13497
  17   25614.8    390.4   0.007632602   0.09810   0.00408   0.30238  -0.08152
  18   25906.6    386.0   0.041378536   0.52582   0.68201  -0.24630  -0.00492
  19   26010.8    384.5   0.001231539   0.01559   0.05732  -0.11026  -0.01205
  20   26902.4    371.7   0.002832813   0.03467   0.13808  -0.08623   0.09036
  21   26960.0    370.9   0.005877114   0.07177  -0.05703   0.24531  -0.09132
  22   27135.2    368.5   0.069977585   0.84899  -0.71119   0.08790   0.57919
  23   27776.5    360.0   0.206657436   2.44934  -0.43692   1.40318  -0.53807
  24   28297.4    353.4   0.069122009   0.80417   0.12520  -0.27252   0.84512
  25   28717.0    348.2   0.195937881   2.24624  -0.11502   0.38615  -1.44357
  26   29709.6    336.6   0.085004520   0.94194  -0.14419   0.06879  -0.95729
  27   30003.0    333.3   0.086587300   0.95009  -0.04935  -0.03678   0.97278
  28   30478.9    328.1   0.050444348   0.54486   0.02705  -0.22374   0.70290
  29   30744.0    325.3   0.014040464   0.15035  -0.08308  -0.33136  -0.18342
  30   30868.9    324.0   0.024390720   0.26012  -0.13900  -0.41105   0.26804
  31   31102.7    321.5   0.018709721   0.19804  -0.04312  -0.41674   0.15002
  32   31293.6    319.6   0.059478276   0.62572  -0.35348  -0.10314   0.70009
  33   31397.3    318.5   0.049762014   0.52177  -0.02190   0.17902   0.69946
  34   31471.9    317.7   0.154516535   1.61632  -0.10303   1.19748   0.41441
  35   31635.9    316.1   0.039072060   0.40659  -0.14489   0.55540  -0.27772
  36   31942.7    313.1   0.006222996   0.06414   0.15370   0.17741  -0.09508
  37   31984.2    312.7   0.023357358   0.24042  -0.12112   0.27259   0.38916
  38   32156.8    311.0   0.018674593   0.19119  -0.13674   0.39165  -0.13819
  39   32223.1    310.3   0.449389226   4.59125  -0.37323  -1.02288   1.84545
  40   32338.4    309.2   0.112244534   1.14267   0.03014  -0.81178  -0.69482
  41   32561.3    307.1   0.009355010   0.09458   0.06319   0.25697  -0.15671
  42   32841.7    304.5   0.044783418   0.44892  -0.24489  -0.21130   0.58677
  43   33172.9    301.5   0.002543598   0.02524   0.03860   0.05021  -0.14571
  44   33529.3    298.2   0.024626342   0.24180   0.14713   0.34509  -0.31790
  45   34033.6    293.8   0.004753103   0.04598   0.12581  -0.14106  -0.10126
  46   34062.4    293.6   0.035607997   0.34415   0.19720   0.15552  -0.53016
  47   34728.0    288.0   0.031200766   0.29577  -0.04359   0.52712  -0.12656
  48   34759.1    287.7   0.010673899   0.10110  -0.05175   0.05724  -0.30845
  49   34947.4    286.1   0.002132147   0.02009   0.13645  -0.01482  -0.03532
  50   35089.5    285.0   0.009730222   0.09129  -0.04131   0.00568   0.29925
  51   35221.1    283.9   0.015803759   0.14772  -0.10137  -0.11592  -0.35214
  52   35612.1    280.8   0.125714826   1.16216   0.30366  -0.70914   0.75303
  53   35786.2    279.4   0.099526727   0.91559   0.01884  -0.39196   0.87270
  54   35856.2    278.9   0.067706865   0.62165  -0.18647  -0.04989   0.76445
  55   35892.9    278.6   0.017698514   0.16233   0.12658  -0.34164  -0.17203
  56   36104.8    277.0   0.018804070   0.17146   0.04733  -0.40723   0.05816
  57   36380.4    274.9   0.011338681   0.10261   0.26342   0.08245  -0.16254
  58   36511.5    273.9   0.019992798   0.18027   0.09160  -0.26114  -0.32200
  59   36718.5    272.3   0.005020362   0.04501   0.10694   0.11167  -0.14527
  60   37041.5    270.0   0.009796972   0.08707  -0.09655   0.18499   0.20864
  61   37118.8    269.4   0.535539467   4.74977  -0.05911   0.13988  -2.17410
  62   37365.4    267.6   0.014130482   0.12450  -0.08026   0.32105   0.12240
  63   37502.6    266.6   0.023273757   0.20431   0.07118  -0.44145  -0.06601
  64   37562.8    266.2   0.048993017   0.42939  -0.01120  -0.01692  -0.65496
  65   37851.3    264.2   0.014559751   0.12663  -0.12933   0.13996  -0.30053
  66   37975.4    263.3   0.013322786   0.11550  -0.01490   0.33854  -0.02579
  67   38201.5    261.8   0.011195812   0.09648   0.22451  -0.21251   0.03030
  68   38363.8    260.7   0.012949574   0.11112  -0.18945   0.19869   0.18909
  69   38563.8    259.3   0.038630291   0.32978  -0.02278  -0.24973   0.51662
  70   38630.7    258.9   0.060685862   0.51717   0.21202   0.13966  -0.67284
  71   38872.5    257.3   0.000556448   0.00471  -0.01767  -0.04172   0.05157
  72   38984.3    256.5   0.028559118   0.24117  -0.29742   0.37449  -0.11167
  73   39254.3    254.7   0.039857818   0.33427  -0.05913   0.40358   0.40976
  74   39593.2    252.6   0.013334315   0.11087  -0.13574   0.25284   0.16888
  75   39807.0    251.2   0.011074418   0.09159   0.13633  -0.11956   0.24230
  76   39900.4    250.6   0.072613925   0.59913  -0.66553   0.31334  -0.24086
  77   40112.8    249.3   0.057177916   0.46927  -0.27202   0.51986   0.35357
  78   40211.1    248.7   0.137314836   1.12421   0.12915  -1.05223  -0.01856

FINAL SINGLE POINT ENERGY     -4291.476527406137

DIPOLE MOMENT
-------------
                                X             Y             Z
Electronic contribution:     -0.92770      39.90720      -0.00653
Nuclear contribution   :      1.76320     -41.62505      -0.92823
                        -----------------------------------------
Total Dipole Moment    :      0.83550      -1.71785      -0.93476
                        -----------------------------------------
Magnitude (a.u.)       :      2.12669
Magnitude (Debye)      :      5.40562

Rotational constants in cm-1:     0.001677     0.000470     0.000401
Rotational constants in MHz :    50.261079    14.087780    12.026643

                             ****ORCA TERMINATED NORMALLY****
TOTAL RUN TIME: 0 days 0 hours 11 minutes 2 seconds 789 msec
