                         Program Version 4.2.0 -  RELEASE  -
|  1> # ORCA input file
|  2> # SCF done       -189.818910631855          0.000953626124
|  3> ! CAM-B3LYP def2-SVP def2/J RIJCOSX Grid4 TightSCF
|  4> %maxcore 5000
|  5> %tddft
|  6>     Mode sTDDFT
|  7>     Ethresh 5.0
|  8>     maxcore 5000
|  9> end
| 10>
| 11> %pal
| 12>   nprocs 6
| 13>   end
| 14> * xyz 0 1
| 15>    C        4.32198        -0.18905        -6.25552
| 16>    C        4.21267         0.40392        -7.47461
| 17>    S        5.71272         0.34021        -8.32700
| 18>    C        6.51808        -0.50213        -7.02796
| 19>    C        7.94262        -0.89216        -7.10479
| 20>    C        5.63736        -0.70337        -6.00858
| 21>    C        5.67548        -1.32634        -4.69074
| 22>    O        6.62068        -1.87723        -4.15533
| 23>    C        4.31747        -1.14649        -4.12792
| 24>    C        3.48346        -0.46006        -5.10620
| 25>    C        2.15865        -0.12248        -5.01489
| 26>    C        1.50252         0.54121        -6.07335
| 27>    N        0.95615         1.08171        -6.92513
| 28>    C        1.30847        -0.37806        -3.92177
| 29>    N        0.56459        -0.55717        -3.06499
| 30>    C        3.91812        -1.52984        -2.87971
| 31>    C        4.63220        -2.19465        -1.85992
| 32>    S        6.26642        -2.79487        -1.91930
| 33>    C        6.15744        -3.39907        -0.29867
| 34>    C        4.89492        -3.13009         0.26293
| 35>    C        4.05229        -2.46381        -0.62270
| 36>    C        4.48187        -3.48135         1.55959
| 37>    N        4.11385        -3.75105         2.61305
| 38>    C        7.27684        -4.06160         0.25300
| 39>    C        7.36476        -4.53063         1.52980
| 40>    C        8.50246        -5.21217         2.01383
| 41>    N        8.62869        -5.66017         3.30559
| 42>    C        7.69493        -5.44793         4.38640
| 43>    C        7.78212        -4.02902         4.94193
| 44>    C        9.84880        -6.33510         3.51499
| 45>    O       10.18357        -6.81623         4.57525
| 46>    C       10.49908        -6.28856         2.22192
| 47>    C        9.66356        -5.59493         1.32822
| 48>    C       10.33052        -5.56722         0.04419
| 49>    O       10.02002        -5.07118        -1.01999
| 50>    N       11.53583        -6.26570         0.25091
| 51>    C       12.44474        -6.44867        -0.85608
| 52>    C       12.25344        -7.80581        -1.52958
| 53>    C       11.65131        -6.71362         1.54782
| 54>    C       12.67158        -7.44858         2.18631
| 55>    C       13.79434        -8.02296         1.66474
| 56>    C       14.74027        -8.74395         2.42610
| 57>    C       15.85208        -9.38601         1.90828
| 58>    C       16.57134       -10.00915         2.95868
| 59>    C       15.82817        -9.69923         4.19710
| 60>    C       14.74199        -8.95389         3.86854
| 61>    C       16.16612       -10.09226         5.49742
| 62>    N       16.41980       -10.39551         6.57596
| 63>    C       17.72042       -10.76695         2.85963
| 64>    C       18.44153       -11.39760         3.90888
| 65>    C       19.52586       -12.07285         3.37983
| 66>    C       19.50756       -11.87656         1.93688
| 67>    C       18.44056       -11.09906         1.61636
| 68>    C       18.10580       -10.69326         0.31988
| 69>    N       17.85897       -10.36000        -0.75180
| 70>    C       20.46480       -12.82924         4.11858
| 71>    C       21.52015       -13.50247         3.58049
| 72>    C       22.40278       -14.27109         4.36699
| 73>    C       23.38935       -15.11365         3.94324
| 74>    C       24.44051       -15.53956         4.92014
| 75>    O       24.40653       -15.38763         6.12081
| 76>    C       25.50366       -16.11320         4.09511
| 77>    C       26.75193       -16.61287         4.30532
| 78>    S       27.43862       -17.11579         2.78055
| 79>    C       26.02986       -16.65384         1.89481
| 80>    C       25.08523       -16.13494         2.72289
| 81>    C       23.72896       -15.62635         2.63023
| 82>    C       22.91994       -15.80218         1.53591
| 83>    C       23.42519       -16.36006         0.34259
| 84>    N       23.82687       -16.79325        -0.64136
| 85>    C       21.53298       -15.56632         1.47827
| 86>    N       20.39810       -15.42932         1.36711
| 87>    C       27.48642       -16.75178         5.58200
| 88>    H        3.36727         0.87358        -7.93612
| 89>    H        8.12711        -1.50797        -7.98435
| 90>    H        8.21146        -1.44958        -6.21023
| 91>    H        8.57744        -0.00910        -7.17949
| 92>    H        2.89871        -1.29420        -2.59684
| 93>    H        3.04292        -2.17870        -0.37959
| 94>    H        8.11890        -4.19167        -0.41583
| 95>    H        6.54047        -4.39038         2.21180
| 96>    H        7.96858        -6.16520         5.16504
| 97>    H        6.67968        -5.66630         4.04475
| 98>    H        8.78561        -3.83349         5.31236
| 99>    H        7.07923        -3.91543         5.76191
|100>    H        7.54333        -3.29454         4.17606
|101>    H       13.47153        -6.30763        -0.51174
|102>    H       12.20642        -5.65705        -1.57314
|103>    H       12.37027        -8.62115        -0.81903
|104>    H       12.98123        -7.92763        -2.32696
|105>    H       11.25589        -7.86487        -1.95786
|106>    H       12.47916        -7.56985         3.24472
|107>    H       14.01133        -7.97017         0.60893
|108>    H       16.12868        -9.41710         0.87268
|109>    H       14.00742        -8.57703         4.55513
|110>    H       18.17915       -11.35258         4.94784
|111>    H       20.21059       -12.29378         1.24134
|112>    H       20.29348       -12.89248         5.18626
|113>    H       21.70200       -13.44119         2.51873
|114>    H       22.34335       -14.14562         5.44386
|115>    H       26.01107       -16.79231         0.83240
|116>    H       26.87762       -16.35255         6.39009
|117>    H       28.43294       -16.21352         5.54263
|118>    H       27.70801       -17.79931         5.78504
|119> *
|120>
|121>                          ****END OF INPUT****

CARTESIAN COORDINATES (ANGSTROEM)
---------------------------------
  C      4.321980   -0.189050   -6.255520
  C      4.212670    0.403920   -7.474610
  S      5.712720    0.340210   -8.327000
  C      6.518080   -0.502130   -7.027960
  C      7.942620   -0.892160   -7.104790
  C      5.637360   -0.703370   -6.008580
  C      5.675480   -1.326340   -4.690740
  O      6.620680   -1.877230   -4.155330
  C      4.317470   -1.146490   -4.127920
  C      3.483460   -0.460060   -5.106200
  C      2.158650   -0.122480   -5.014890
  C      1.502520    0.541210   -6.073350
  N      0.956150    1.081710   -6.925130
  C      1.308470   -0.378060   -3.921770
  N      0.564590   -0.557170   -3.064990
  C      3.918120   -1.529840   -2.879710
  C      4.632200   -2.194650   -1.859920
  S      6.266420   -2.794870   -1.919300
  C      6.157440   -3.399070   -0.298670
  C      4.894920   -3.130090    0.262930
  C      4.052290   -2.463810   -0.622700
  C      4.481870   -3.481350    1.559590
  N      4.113850   -3.751050    2.613050
  C      7.276840   -4.061600    0.253000
  C      7.364760   -4.530630    1.529800
  C      8.502460   -5.212170    2.013830
  N      8.628690   -5.660170    3.305590
  C      7.694930   -5.447930    4.386400
  C      7.782120   -4.029020    4.941930
  C      9.848800   -6.335100    3.514990
  O     10.183570   -6.816230    4.575250
  C     10.499080   -6.288560    2.221920
  C      9.663560   -5.594930    1.328220
  C     10.330520   -5.567220    0.044190
  O     10.020020   -5.071180   -1.019990
  N     11.535830   -6.265700    0.250910
  C     12.444740   -6.448670   -0.856080
  C     12.253440   -7.805810   -1.529580
  C     11.651310   -6.713620    1.547820
  C     12.671580   -7.448580    2.186310
  C     13.794340   -8.022960    1.664740
  C     14.740270   -8.743950    2.426100
  C     15.852080   -9.386010    1.908280
  C     16.571340  -10.009150    2.958680
  C     15.828170   -9.699230    4.197100
  C     14.741990   -8.953890    3.868540
  C     16.166120  -10.092260    5.497420
  N     16.419800  -10.395510    6.575960
  C     17.720420  -10.766950    2.859630
  C     18.441530  -11.397600    3.908880
  C     19.525860  -12.072850    3.379830
  C     19.507560  -11.876560    1.936880
  C     18.440560  -11.099060    1.616360
  C     18.105800  -10.693260    0.319880
  N     17.858970  -10.360000   -0.751800
  C     20.464800  -12.829240    4.118580
  C     21.520150  -13.502470    3.580490
  C     22.402780  -14.271090    4.366990
  C     23.389350  -15.113650    3.943240
  C     24.440510  -15.539560    4.920140
  O     24.406530  -15.387630    6.120810
  C     25.503660  -16.113200    4.095110
  C     26.751930  -16.612870    4.305320
  S     27.438620  -17.115790    2.780550
  C     26.029860  -16.653840    1.894810
  C     25.085230  -16.134940    2.722890
  C     23.728960  -15.626350    2.630230
  C     22.919940  -15.802180    1.535910
  C     23.425190  -16.360060    0.342590
  N     23.826870  -16.793250   -0.641360
  C     21.532980  -15.566320    1.478270
  N     20.398100  -15.429320    1.367110
  C     27.486420  -16.751780    5.582000
  H      3.367270    0.873580   -7.936120
  H      8.127110   -1.507970   -7.984350
  H      8.211460   -1.449580   -6.210230
  H      8.577440   -0.009100   -7.179490
  H      2.898710   -1.294200   -2.596840
  H      3.042920   -2.178700   -0.379590
  H      8.118900   -4.191670   -0.415830
  H      6.540470   -4.390380    2.211800
  H      7.968580   -6.165200    5.165040
  H      6.679680   -5.666300    4.044750
  H      8.785610   -3.833490    5.312360
  H      7.079230   -3.915430    5.761910
  H      7.543330   -3.294540    4.176060
  H     13.471530   -6.307630   -0.511740
  H     12.206420   -5.657050   -1.573140
  H     12.370270   -8.621150   -0.819030
  H     12.981230   -7.927630   -2.326960
  H     11.255890   -7.864870   -1.957860
  H     12.479160   -7.569850    3.244720
  H     14.011330   -7.970170    0.608930
  H     16.128680   -9.417100    0.872680
  H     14.007420   -8.577030    4.555130
  H     18.179150  -11.352580    4.947840
  H     20.210590  -12.293780    1.241340
  H     20.293480  -12.892480    5.186260
  H     21.702000  -13.441190    2.518730
  H     22.343350  -14.145620    5.443860
  H     26.011070  -16.792310    0.832400
  H     26.877620  -16.352550    6.390090
  H     28.432940  -16.213520    5.542630
  H     27.708010  -17.799310    5.785040

 Total Charge           Charge          ....    0
 Multiplicity           Mult            ....    1
 Number of Electrons    NEL             ....  516
 Basis Dimension        Dim             .... 1189

ORBITAL ENERGIES
----------------

  NO   OCC          E(Eh)            E(eV)
   0   2.0000     -88.988028     -2421.4874
   1   2.0000     -88.986328     -2421.4411
   2   2.0000     -88.979450     -2421.2539
   3   2.0000     -19.234514      -523.3977
   4   2.0000     -19.217201      -522.9266
   5   2.0000     -19.203693      -522.5591
   6   2.0000     -19.203462      -522.5528
   7   2.0000     -14.465006      -393.6128
   8   2.0000     -14.464412      -393.5967
   9   2.0000     -14.426254      -392.5583
  10   2.0000     -14.424190      -392.5022
  11   2.0000     -14.421501      -392.4290
  12   2.0000     -14.419593      -392.3771
  13   2.0000     -14.418254      -392.3406
  14   2.0000     -14.414444      -392.2370
  15   2.0000     -14.411179      -392.1481
  16   2.0000     -10.386348      -282.6269
  17   2.0000     -10.385845      -282.6132
  18   2.0000     -10.385609      -282.6068
  19   2.0000     -10.371095      -282.2118
  20   2.0000     -10.355297      -281.7820
  21   2.0000     -10.352399      -281.7031
  22   2.0000     -10.350374      -281.6480
  23   2.0000     -10.349839      -281.6334
  24   2.0000     -10.347849      -281.5793
  25   2.0000     -10.347032      -281.5571
  26   2.0000     -10.339335      -281.3476
  27   2.0000     -10.338428      -281.3229
  28   2.0000     -10.336898      -281.2813
  29   2.0000     -10.335823      -281.2521
  30   2.0000     -10.331487      -281.1340
  31   2.0000     -10.330747      -281.1139
  32   2.0000     -10.330139      -281.0974
  33   2.0000     -10.328595      -281.0554
  34   2.0000     -10.327368      -281.0220
  35   2.0000     -10.326781      -281.0060
  36   2.0000     -10.325111      -280.9606
  37   2.0000     -10.323748      -280.9235
  38   2.0000     -10.323694      -280.9220
  39   2.0000     -10.322437      -280.8878
  40   2.0000     -10.320605      -280.8380
  41   2.0000     -10.320320      -280.8302
  42   2.0000     -10.320070      -280.8234
  43   2.0000     -10.318703      -280.7862
  44   2.0000     -10.318162      -280.7714
  45   2.0000     -10.316042      -280.7138
  46   2.0000     -10.315774      -280.7065
  47   2.0000     -10.315711      -280.7048
  48   2.0000     -10.314354      -280.6678
  49   2.0000     -10.313335      -280.6401
  50   2.0000     -10.313208      -280.6367
  51   2.0000     -10.312931      -280.6291
  52   2.0000     -10.312789      -280.6253
  53   2.0000     -10.311128      -280.5801
  54   2.0000     -10.311071      -280.5785
  55   2.0000     -10.309762      -280.5429
  56   2.0000     -10.309597      -280.5384
  57   2.0000     -10.309020      -280.5227
  58   2.0000     -10.308929      -280.5202
  59   2.0000     -10.306997      -280.4676
  60   2.0000     -10.303746      -280.3792
  61   2.0000     -10.303681      -280.3774
  62   2.0000     -10.302012      -280.3320
  63   2.0000     -10.295282      -280.1489
  64   2.0000     -10.294135      -280.1177
  65   2.0000     -10.292270      -280.0669
  66   2.0000     -10.289639      -279.9953
  67   2.0000     -10.286833      -279.9189
  68   2.0000     -10.286212      -279.9020
  69   2.0000     -10.277609      -279.6680
  70   2.0000     -10.275462      -279.6095
  71   2.0000     -10.269436      -279.4455
  72   2.0000     -10.266410      -279.3632
  73   2.0000      -8.082257      -219.9294
  74   2.0000      -8.081279      -219.9028
  75   2.0000      -8.075349      -219.7414
  76   2.0000      -6.051494      -164.6695
  77   2.0000      -6.050517      -164.6429
  78   2.0000      -6.046875      -164.5438
  79   2.0000      -6.045977      -164.5194
  80   2.0000      -6.044845      -164.4886
  81   2.0000      -6.044590      -164.4816
  82   2.0000      -6.043793      -164.4600
  83   2.0000      -6.039993      -164.3566
  84   2.0000      -6.037945      -164.3008
  85   2.0000      -1.150331       -31.3021
  86   2.0000      -1.145713       -31.1764
  87   2.0000      -1.139092       -30.9963
  88   2.0000      -1.132426       -30.8149
  89   2.0000      -1.075679       -29.2707
  90   2.0000      -1.066239       -29.0138
  91   2.0000      -1.031928       -28.0802
  92   2.0000      -1.026301       -27.9271
  93   2.0000      -1.025114       -27.8948
  94   2.0000      -1.021514       -27.7968
  95   2.0000      -1.015306       -27.6279
  96   2.0000      -1.009062       -27.4580
  97   2.0000      -1.005094       -27.3500
  98   2.0000      -1.002592       -27.2819
  99   2.0000      -1.001870       -27.2623
 100   2.0000      -0.997297       -27.1378
 101   2.0000      -0.990525       -26.9536
 102   2.0000      -0.986631       -26.8476
 103   2.0000      -0.973490       -26.4900
 104   2.0000      -0.966869       -26.3099
 105   2.0000      -0.941095       -25.6085
 106   2.0000      -0.934286       -25.4232
 107   2.0000      -0.931219       -25.3398
 108   2.0000      -0.921656       -25.0795
 109   2.0000      -0.913021       -24.8446
 110   2.0000      -0.902502       -24.5583
 111   2.0000      -0.900630       -24.5074
 112   2.0000      -0.884480       -24.0679
 113   2.0000      -0.881978       -23.9999
 114   2.0000      -0.879844       -23.9418
 115   2.0000      -0.876747       -23.8575
 116   2.0000      -0.873467       -23.7682
 117   2.0000      -0.864405       -23.5217
 118   2.0000      -0.856503       -23.3066
 119   2.0000      -0.851521       -23.1711
 120   2.0000      -0.838804       -22.8250
 121   2.0000      -0.828408       -22.5421
 122   2.0000      -0.816168       -22.2091
 123   2.0000      -0.806442       -21.9444
 124   2.0000      -0.803413       -21.8620
 125   2.0000      -0.798078       -21.7168
 126   2.0000      -0.785520       -21.3751
 127   2.0000      -0.774696       -21.0806
 128   2.0000      -0.767936       -20.8966
 129   2.0000      -0.765110       -20.8197
 130   2.0000      -0.750636       -20.4259
 131   2.0000      -0.746287       -20.3075
 132   2.0000      -0.738475       -20.0949
 133   2.0000      -0.729930       -19.8624
 134   2.0000      -0.724761       -19.7217
 135   2.0000      -0.716676       -19.5017
 136   2.0000      -0.711953       -19.3732
 137   2.0000      -0.705536       -19.1986
 138   2.0000      -0.702430       -19.1141
 139   2.0000      -0.692327       -18.8392
 140   2.0000      -0.684179       -18.6175
 141   2.0000      -0.682601       -18.5745
 142   2.0000      -0.678827       -18.4718
 143   2.0000      -0.676133       -18.3985
 144   2.0000      -0.668873       -18.2010
 145   2.0000      -0.661331       -17.9957
 146   2.0000      -0.655724       -17.8432
 147   2.0000      -0.653246       -17.7757
 148   2.0000      -0.647808       -17.6278
 149   2.0000      -0.640566       -17.4307
 150   2.0000      -0.632078       -17.1997
 151   2.0000      -0.618113       -16.8197
 152   2.0000      -0.615403       -16.7460
 153   2.0000      -0.609568       -16.5872
 154   2.0000      -0.607687       -16.5360
 155   2.0000      -0.605097       -16.4655
 156   2.0000      -0.598993       -16.2994
 157   2.0000      -0.595968       -16.2171
 158   2.0000      -0.590484       -16.0679
 159   2.0000      -0.581526       -15.8241
 160   2.0000      -0.576778       -15.6949
 161   2.0000      -0.574977       -15.6459
 162   2.0000      -0.574294       -15.6273
 163   2.0000      -0.567189       -15.4340
 164   2.0000      -0.556915       -15.1544
 165   2.0000      -0.556362       -15.1394
 166   2.0000      -0.549874       -14.9628
 167   2.0000      -0.548737       -14.9319
 168   2.0000      -0.544234       -14.8094
 169   2.0000      -0.543499       -14.7894
 170   2.0000      -0.541631       -14.7385
 171   2.0000      -0.539653       -14.6847
 172   2.0000      -0.539286       -14.6747
 173   2.0000      -0.537653       -14.6303
 174   2.0000      -0.529512       -14.4088
 175   2.0000      -0.528795       -14.3892
 176   2.0000      -0.527916       -14.3653
 177   2.0000      -0.526647       -14.3308
 178   2.0000      -0.526373       -14.3233
 179   2.0000      -0.522834       -14.2270
 180   2.0000      -0.521643       -14.1946
 181   2.0000      -0.520741       -14.1701
 182   2.0000      -0.519866       -14.1463
 183   2.0000      -0.518538       -14.1101
 184   2.0000      -0.516177       -14.0459
 185   2.0000      -0.514371       -13.9968
 186   2.0000      -0.513374       -13.9696
 187   2.0000      -0.510280       -13.8854
 188   2.0000      -0.505391       -13.7524
 189   2.0000      -0.503979       -13.7140
 190   2.0000      -0.501326       -13.6418
 191   2.0000      -0.497264       -13.5312
 192   2.0000      -0.495995       -13.4967
 193   2.0000      -0.494666       -13.4606
 194   2.0000      -0.488426       -13.2907
 195   2.0000      -0.486297       -13.2328
 196   2.0000      -0.484361       -13.1801
 197   2.0000      -0.480636       -13.0788
 198   2.0000      -0.477261       -12.9869
 199   2.0000      -0.476189       -12.9578
 200   2.0000      -0.474846       -12.9212
 201   2.0000      -0.471763       -12.8373
 202   2.0000      -0.470417       -12.8007
 203   2.0000      -0.466966       -12.7068
 204   2.0000      -0.464021       -12.6266
 205   2.0000      -0.463190       -12.6040
 206   2.0000      -0.459515       -12.5040
 207   2.0000      -0.458850       -12.4859
 208   2.0000      -0.458351       -12.4724
 209   2.0000      -0.457540       -12.4503
 210   2.0000      -0.456212       -12.4142
 211   2.0000      -0.455162       -12.3856
 212   2.0000      -0.454095       -12.3565
 213   2.0000      -0.453027       -12.3275
 214   2.0000      -0.452525       -12.3138
 215   2.0000      -0.452397       -12.3104
 216   2.0000      -0.451410       -12.2835
 217   2.0000      -0.449879       -12.2418
 218   2.0000      -0.447149       -12.1675
 219   2.0000      -0.446748       -12.1566
 220   2.0000      -0.443357       -12.0643
 221   2.0000      -0.440822       -11.9954
 222   2.0000      -0.440320       -11.9817
 223   2.0000      -0.438480       -11.9317
 224   2.0000      -0.436790       -11.8857
 225   2.0000      -0.435513       -11.8509
 226   2.0000      -0.433079       -11.7847
 227   2.0000      -0.432411       -11.7665
 228   2.0000      -0.430277       -11.7084
 229   2.0000      -0.429497       -11.6872
 230   2.0000      -0.428160       -11.6508
 231   2.0000      -0.425815       -11.5870
 232   2.0000      -0.424919       -11.5626
 233   2.0000      -0.420329       -11.4377
 234   2.0000      -0.419797       -11.4232
 235   2.0000      -0.415228       -11.2989
 236   2.0000      -0.412925       -11.2363
 237   2.0000      -0.402482       -10.9521
 238   2.0000      -0.401668       -10.9299
 239   2.0000      -0.398147       -10.8341
 240   2.0000      -0.379646       -10.3307
 241   2.0000      -0.361072        -9.8253
 242   2.0000      -0.360078        -9.7982
 243   2.0000      -0.350606        -9.5405
 244   2.0000      -0.347922        -9.4674
 245   2.0000      -0.347182        -9.4473
 246   2.0000      -0.344129        -9.3642
 247   2.0000      -0.340091        -9.2544
 248   2.0000      -0.338658        -9.2153
 249   2.0000      -0.331825        -9.0294
 250   2.0000      -0.328151        -8.9295
 251   2.0000      -0.327453        -8.9104
 252   2.0000      -0.319397        -8.6912
 253   2.0000      -0.311336        -8.4719
 254   2.0000      -0.309562        -8.4236
 255   2.0000      -0.297886        -8.1059
 256   2.0000      -0.283043        -7.7020
 257   2.0000      -0.242917        -6.6101
 258   0.0000      -0.140935        -3.8350
 259   0.0000      -0.112507        -3.0615
 260   0.0000      -0.088215        -2.4005
 261   0.0000      -0.078883        -2.1465
 262   0.0000      -0.055979        -1.5233

MULLIKEN ATOMIC CHARGES
-----------------------
   0 C :    0.037390
   1 C :   -0.138964
   2 S :    0.162347
   3 C :   -0.311566
   4 C :    0.113031
   5 C :    0.053221
   6 C :    0.170351
   7 O :   -0.181676
   8 C :   -0.098236
   9 C :    0.306356
  10 C :   -0.337408
  11 C :   -0.192231
  12 N :    0.157705
  13 C :   -0.182070
  14 N :    0.149514
  15 C :   -0.019292
  16 C :   -0.047625
  17 S :    0.241969
  18 C :   -0.055416
  19 C :   -0.052500
  20 C :    0.007369
  21 C :   -0.154726
  22 N :    0.121356
  23 C :    0.052883
  24 C :   -0.034359
  25 C :    0.148915
  26 N :   -0.261969
  27 C :    0.090581
  28 C :    0.006691
  29 C :    0.153447
  30 O :   -0.182409
  31 C :   -0.042172
  32 C :   -0.059775
  33 C :    0.163647
  34 O :   -0.206821
  35 N :   -0.264774
  36 C :    0.098960
  37 C :    0.001343
  38 C :    0.130100
  39 C :   -0.039475
  40 C :    0.006729
  41 C :    0.113618
  42 C :   -0.118438
  43 C :    0.129847
  44 C :   -0.098126
  45 C :   -0.002721
  46 C :   -0.172900
  47 N :    0.139211
  48 C :    0.112227
  49 C :   -0.096931
  50 C :    0.111165
  51 C :    0.017836
  52 C :   -0.102336
  53 C :   -0.172179
  54 N :    0.130764
  55 C :    0.014538
  56 C :    0.017871
  57 C :    0.021913
  58 C :   -0.113468
  59 C :    0.136464
  60 O :   -0.147333
  61 C :    0.057206
  62 C :   -0.314995
  63 S :    0.155270
  64 C :   -0.138842
  65 C :    0.027025
  66 C :    0.284566
  67 C :   -0.332690
  68 C :   -0.186375
  69 N :    0.153153
  70 C :   -0.213287
  71 N :    0.170694
  72 C :    0.117631
  73 H :    0.051328
  74 H :    0.039697
  75 H :    0.050688
  76 H :    0.043726
  77 H :    0.014054
  78 H :    0.018677
  79 H :    0.011628
  80 H :   -0.010075
  81 H :    0.045457
  82 H :    0.040831
  83 H :    0.025753
  84 H :    0.032807
  85 H :    0.016590
  86 H :    0.027364
  87 H :    0.044594
  88 H :    0.022618
  89 H :    0.030148
  90 H :    0.029166
  91 H :    0.007663
  92 H :   -0.010224
  93 H :    0.002217
  94 H :    0.016791
  95 H :    0.006643
  96 H :    0.004617
  97 H :    0.009171
  98 H :    0.018627
  99 H :    0.021934
 100 H :    0.050472
 101 H :    0.048780
 102 H :    0.036736
 103 H :    0.040708
Sum of atomic charges:   -0.0000000

LOEWDIN ATOMIC CHARGES
----------------------
   0 C :   -0.062473
   1 C :   -0.147535
   2 S :    0.472683
   3 C :   -0.125443
   4 C :   -0.057582
   5 C :   -0.105099
   6 C :    0.087436
   7 O :   -0.165432
   8 C :   -0.092147
   9 C :    0.076551
  10 C :   -0.139237
  11 C :   -0.014888
  12 N :   -0.050794
  13 C :   -0.022911
  14 N :   -0.049212
  15 C :    0.054410
  16 C :   -0.183752
  17 S :    0.554564
  18 C :   -0.140228
  19 C :   -0.108254
  20 C :    0.013275
  21 C :   -0.026176
  22 N :   -0.056349
  23 C :    0.003952
  24 C :   -0.025257
  25 C :    0.083972
  26 N :    0.000896
  27 C :    0.036828
  28 C :   -0.058773
  29 C :    0.080786
  30 O :   -0.185406
  31 C :   -0.098834
  32 C :   -0.119241
  33 C :    0.081751
  34 O :   -0.196305
  35 N :   -0.000464
  36 C :    0.035447
  37 C :   -0.062318
  38 C :    0.064657
  39 C :   -0.015632
  40 C :   -0.003738
  41 C :   -0.009445
  42 C :   -0.026369
  43 C :    0.042043
  44 C :   -0.074111
  45 C :    0.057265
  46 C :   -0.029949
  47 N :   -0.058023
  48 C :    0.029528
  49 C :   -0.001905
  50 C :   -0.022580
  51 C :    0.062177
  52 C :   -0.080490
  53 C :   -0.027149
  54 N :   -0.064701
  55 C :    0.036563
  56 C :   -0.020601
  57 C :    0.065292
  58 C :   -0.082797
  59 C :    0.082589
  60 O :   -0.147167
  61 C :   -0.105573
  62 C :   -0.128280
  63 S :    0.466524
  64 C :   -0.152580
  65 C :   -0.061375
  66 C :    0.071835
  67 C :   -0.140827
  68 C :   -0.015298
  69 N :   -0.051416
  70 C :   -0.025988
  71 N :   -0.050931
  72 C :   -0.057438
  73 H :    0.036023
  74 H :    0.044139
  75 H :    0.049065
  76 H :    0.045759
  77 H :    0.052562
  78 H :    0.047783
  79 H :    0.038697
  80 H :    0.037392
  81 H :    0.038995
  82 H :    0.029322
  83 H :    0.030379
  84 H :    0.035222
  85 H :    0.022878
  86 H :    0.023396
  87 H :    0.038200
  88 H :    0.022648
  89 H :    0.033843
  90 H :    0.033343
  91 H :    0.045867
  92 H :    0.036656
  93 H :    0.035355
  94 H :    0.041599
  95 H :    0.037069
  96 H :    0.038506
  97 H :    0.042490
  98 H :    0.032328
  99 H :    0.046955
 100 H :    0.034935
 101 H :    0.048899
 102 H :    0.042814
 103 H :    0.044333

  Mayer bond orders larger than 0.100000
B(  0-C ,  1-C ) :   1.5467 B(  0-C ,  5-C ) :   1.2021 B(  0-C ,  9-C ) :   0.9926
B(  1-C ,  2-S ) :   1.1604 B(  1-C , 73-H ) :   0.9561 B(  2-S ,  3-C ) :   1.1711
B(  3-C ,  4-C ) :   1.0882 B(  3-C ,  5-C ) :   1.5355 B(  4-C , 74-H ) :   0.9419
B(  4-C , 75-H ) :   0.9459 B(  4-C , 76-H ) :   0.9423 B(  5-C ,  6-C ) :   0.9912
B(  6-C ,  7-O ) :   2.0924 B(  6-C ,  8-C ) :   0.9752 B(  8-C ,  9-C ) :   1.0749
B(  8-C , 15-C ) :   1.5623 B(  9-C , 10-C ) :   1.6425 B( 10-C , 11-C ) :   1.1512
B( 10-C , 13-C ) :   1.1381 B( 11-C , 12-N ) :   2.9910 B( 13-C , 14-N ) :   2.9595
B( 15-C , 16-C ) :   1.2122 B( 15-C , 77-H ) :   0.9389 B( 16-C , 17-S ) :   1.1071
B( 16-C , 20-C ) :   1.3647 B( 17-S , 18-C ) :   1.1462 B( 18-C , 19-C ) :   1.3609
B( 18-C , 23-C ) :   1.1761 B( 19-C , 20-C ) :   1.3491 B( 19-C , 21-C ) :   1.1014
B( 20-C , 78-H ) :   1.0136 B( 21-C , 22-N ) :   2.9720 B( 23-C , 24-C ) :   1.5872
B( 23-C , 79-H ) :   0.9233 B( 24-C , 25-C ) :   1.1853 B( 24-C , 80-H ) :   0.9450
B( 25-C , 26-N ) :   1.1789 B( 25-C , 32-C ) :   1.2947 B( 26-N , 27-C ) :   0.9353
B( 26-N , 29-C ) :   1.0343 B( 27-C , 28-C ) :   1.1234 B( 27-C , 81-H ) :   0.9277
B( 27-C , 82-H ) :   0.9478 B( 28-C , 83-H ) :   0.9638 B( 28-C , 84-H ) :   0.9675
B( 28-C , 85-H ) :   0.9678 B( 29-C , 30-O ) :   2.1354 B( 29-C , 31-C ) :   0.9714
B( 31-C , 32-C ) :   1.2741 B( 31-C , 38-C ) :   1.3180 B( 32-C , 33-C ) :   0.9859
B( 33-C , 34-O ) :   2.0260 B( 33-C , 35-N ) :   1.0640 B( 34-O , 79-H ) :   0.1099
B( 35-N , 36-C ) :   0.9383 B( 35-N , 38-C ) :   1.1636 B( 36-C , 37-C ) :   1.1186
B( 36-C , 86-H ) :   0.9510 B( 36-C , 87-H ) :   0.9251 B( 37-C , 88-H ) :   0.9680
B( 37-C , 89-H ) :   0.9685 B( 37-C , 90-H ) :   0.9607 B( 38-C , 39-C ) :   1.2002
B( 39-C , 40-C ) :   1.5143 B( 39-C , 91-H ) :   0.9483 B( 40-C , 41-C ) :   1.1446
B( 40-C , 92-H ) :   0.9813 B( 41-C , 42-C ) :   1.4810 B( 41-C , 45-C ) :   1.0362
B( 42-C , 43-C ) :   1.1368 B( 42-C , 93-H ) :   1.0076 B( 43-C , 44-C ) :   1.0989
B( 43-C , 48-C ) :   1.3871 B( 44-C , 45-C ) :   1.6937 B( 44-C , 46-C ) :   1.0906
B( 45-C , 94-H ) :   1.0143 B( 46-C , 47-N ) :   2.9672 B( 48-C , 49-C ) :   1.1221
B( 48-C , 52-C ) :   1.1124 B( 49-C , 50-C ) :   1.4939 B( 49-C , 95-H ) :   1.0083
B( 50-C , 51-C ) :   1.0514 B( 50-C , 55-C ) :   1.1093 B( 51-C , 52-C ) :   1.6798
B( 51-C , 96-H ) :   1.0106 B( 52-C , 53-C ) :   1.0935 B( 53-C , 54-N ) :   2.9613
B( 55-C , 56-C ) :   1.6088 B( 55-C , 97-H ) :   0.9878 B( 56-C , 57-C ) :   1.1373
B( 56-C , 98-H ) :   0.9598 B( 57-C , 58-C ) :   1.6119 B( 57-C , 99-H ) :   0.9555
B( 58-C , 59-C ) :   0.9464 B( 58-C , 66-C ) :   1.0467 B( 59-C , 60-O ) :   2.2245
B( 59-C , 61-C ) :   0.9512 B( 61-C , 62-C ) :   1.5526 B( 61-C , 65-C ) :   1.1997
B( 62-C , 63-S ) :   1.1680 B( 62-C , 72-C ) :   1.0865 B( 63-S , 64-C ) :   1.1569
B( 64-C , 65-C ) :   1.5517 B( 64-C ,100-H ) :   0.9565 B( 65-C , 66-C ) :   1.0081
B( 66-C , 67-C ) :   1.6368 B( 67-C , 68-C ) :   1.1389 B( 67-C , 70-C ) :   1.1575
B( 68-C , 69-N ) :   2.9963 B( 70-C , 71-N ) :   3.0032 B( 72-C ,101-H ) :   0.9455
B( 72-C ,102-H ) :   0.9425 B( 72-C ,103-H ) :   0.9429

-----------------------------------------------------------------------------
         ABSORPTION SPECTRUM VIA TRANSITION ELECTRIC DIPOLE MOMENTS
-----------------------------------------------------------------------------
State   Energy  Wavelength   fosc         T2         TX        TY        TZ
        (cm-1)    (nm)                  (au**2)     (au)      (au)      (au)
-----------------------------------------------------------------------------
   0    9234.7   1082.9   1.285822024  45.83895   5.60354  -3.68799   0.91544
   1   15107.7    661.9   0.197958712   4.31372  -1.31320   0.88734  -1.34233
   2   15958.4    626.6   0.174937307   3.60884  -1.45687   1.16215   0.36845
   3   19271.2    518.9   0.003612981   0.06172  -0.22738   0.09910  -0.01415
   4   22437.1    445.7   0.178287162   2.61594   0.58265   0.19486  -1.49616
   5   22570.6    443.1   0.574084590   8.37354  -2.09007   1.99449   0.16488
   6   22836.2    437.9   0.710409526  10.24144   1.62307  -1.53097   2.29417
   7   23223.5    430.6   0.111140470   1.57550   0.93940  -0.59221  -0.58509
   8   24352.3    410.6   0.001486197   0.02009  -0.08263   0.02789  -0.11174
   9   25329.3    394.8   0.358712448   4.66228   1.86555  -1.03945   0.31869
  10   26546.7    376.7   0.001349146   0.01673   0.11727  -0.05285  -0.01360
  11   26953.1    371.0   0.051343281   0.62712  -0.32327   0.47897   0.54149
  12   27097.2    369.0   0.031145231   0.37839   0.45175  -0.38070  -0.17142
  13   27266.1    366.8   0.029008529   0.35025  -0.26475   0.51960  -0.10085
  14   27657.4    361.6   0.007702155   0.09168   0.07859   0.00963   0.29225
  15   27876.8    358.7   0.058605954   0.69211   0.10540  -0.22738   0.79328
  16   28223.2    354.3   0.096264653   1.12289  -0.78726   0.52633  -0.47549
  17   28821.3    347.0   0.112526106   1.28533   0.24409   0.37033  -1.04336
  18   28943.3    345.5   0.056825195   0.64635   0.46469  -0.25365   0.60504
  19   29347.8    340.7   0.067040161   0.75203  -0.43821  -0.08686   0.74327
  20   29852.9    335.0   0.000161344   0.00178  -0.01752   0.03519   0.01529
  21   30412.1    328.8   0.026532485   0.28722   0.48462  -0.12498  -0.19168
  22   30880.1    323.8   0.004015003   0.04280  -0.18128  -0.04791   0.08744
  23   31026.8    322.3   0.065637589   0.69645  -0.66916   0.44332  -0.22834
  24   31337.6    319.1   0.018459080   0.19392  -0.19195   0.20137  -0.34135
  25   32111.6    311.4   0.011279940   0.11564  -0.28661  -0.18264   0.01186
  26   32420.4    308.4   0.028027573   0.28461  -0.39725  -0.06730   0.34967
  27   32947.7    303.5   0.006710897   0.06705   0.23655  -0.01574  -0.10416
  28   33201.3    301.2   0.564947582   5.60181   1.89843  -0.87792   1.10771
  29   33370.9    299.7   0.063812305   0.62952  -0.50226  -0.08991   0.60760
  30   34393.7    290.8   0.000193345   0.00185  -0.02841  -0.00322  -0.03214
  31   35082.7    285.0   0.025831499   0.24240   0.18618  -0.03491   0.45444
  32   35278.8    283.5   0.010220481   0.09537  -0.28867  -0.05781   0.09328
  33   35375.8    282.7   0.053443464   0.49735   0.31675  -0.37507   0.50631
  34   35526.3    281.5   0.197960912   1.83445  -0.99930  -0.10291   0.90844
  35   35690.1    280.2   0.025183456   0.23230   0.14359  -0.15161   0.43439
  36   35997.8    277.8   0.026209605   0.23970   0.38626  -0.01424  -0.30049
  37   36249.6    275.9   0.002226516   0.02022   0.11274  -0.01630  -0.08512
  38   36326.8    275.3   0.010632525   0.09636  -0.21489   0.18977   0.11901
  39   36400.5    274.7   0.082650281   0.74750   0.79975  -0.15247  -0.29095
  40   36541.1    273.7   0.027234381   0.24536  -0.32530   0.19642  -0.31775
  41   36726.7    272.3   0.035732154   0.32030  -0.55892   0.05173   0.07233
  42   36891.8    271.1   0.241782150   2.15759  -1.16282  -0.07974   0.89391
  43   37009.4    270.2   0.055424961   0.49303  -0.35156   0.13950  -0.59158
  44   37233.0    268.6   0.103743941   0.91730  -0.80567  -0.00119   0.51787
  45   37288.9    268.2   0.039809938   0.35147  -0.50024   0.23798  -0.21117
  46   37538.6    266.4   0.438108362   3.84219   1.52421  -0.83171   0.90952
  47   37689.4    265.3   0.001759309   0.01537  -0.06623   0.10473  -0.00341
  48   37735.1    265.0   0.010586502   0.09236   0.21568   0.15993  -0.14235
  49   38312.4    261.0   0.037544505   0.32261  -0.41810   0.09911  -0.37146
  50   38505.2    259.7   0.109024994   0.93214  -0.96002   0.09920   0.02591
  51   38564.8    259.3   0.065873220   0.56233  -0.72389   0.19562  -0.00718
  52   38834.5    257.5   0.165062522   1.39929   0.70968  -0.31693   0.89174
  53   38978.3    256.6   0.189561423   1.60104   1.05932  -0.22863   0.65315
  54   39492.2    253.2   0.029896254   0.24922  -0.20281  -0.35268   0.28932
  55   39673.1    252.1   0.037563427   0.31171  -0.48691   0.19942   0.18670

FINAL SINGLE POINT ENERGY     -4174.627413013214

DIPOLE MOMENT
-------------
                                X             Y             Z
Electronic contribution:    -10.16990       2.84459     -22.21045
Nuclear contribution   :     12.62796      -1.63322      21.54013
                        -----------------------------------------
Total Dipole Moment    :      2.45806       1.21137      -0.67033
                        -----------------------------------------
Magnitude (a.u.)       :      2.82113
Magnitude (Debye)      :      7.17075

Rotational constants in cm-1:     0.002017     0.000160     0.000150
Rotational constants in MHz :    60.479420     4.793294     4.484596

                             ****ORCA TERMINATED NORMALLY****
TOTAL RUN TIME: 0 days 0 hours 12 minutes 8 seconds 50 msec
