                         Program Version 4.2.0 -  RELEASE  -
|  1> # ORCA input file
|  2> # SCF done       -210.913811119530          0.000974215526
|  3> ! CAM-B3LYP def2-SVP def2/J RIJCOSX Grid4 TightSCF
|  4> %maxcore 5000
|  5> %tddft
|  6>     Mode sTDDFT
|  7>     Ethresh 5.0
|  8>     maxcore 5000
|  9> end
| 10>
| 11> %pal
| 12>   nprocs 6
| 13>   end
| 14> * xyz 0 1
| 15>    C        6.32671       -13.85397        -2.99795
| 16>    C        6.80655       -15.12335        -2.88918
| 17>    S        7.65263       -15.58577        -4.31894
| 18>    C        7.36274       -14.04929        -5.09481
| 19>    C        7.85721       -13.74857        -6.45600
| 20>    C        6.64974       -13.24824        -4.25533
| 21>    C        6.10319       -11.89272        -4.31808
| 22>    O        6.14596       -11.12931        -5.25358
| 23>    C        5.40715       -11.70064        -2.99607
| 24>    C        5.57397       -12.91485        -2.19730
| 25>    C        5.16237       -13.14280        -0.91269
| 26>    C        5.42404       -14.37506        -0.27473
| 27>    N        5.62871       -15.37234         0.25416
| 28>    C        4.48187       -12.23425        -0.07661
| 29>    N        3.94196       -11.55010         0.67016
| 30>    C        4.64122       -10.64256        -2.63709
| 31>    C        4.49597        -9.39445        -3.31605
| 32>    O        5.41475        -8.92711        -4.20241
| 33>    C        4.94228        -7.73713        -4.60264
| 34>    C        3.70924        -7.51064        -3.91284
| 35>    N        3.49467        -8.58657        -3.10553
| 36>    C        2.94968        -6.36694        -4.11564
| 37>    C        3.48331        -5.47597        -5.03184
| 38>    C        4.72357        -5.72510        -5.69877
| 39>    C        5.49451        -6.85281        -5.51010
| 40>    O        4.95437        -4.68270        -6.52254
| 41>    C        3.87283        -3.85348        -6.34851
| 42>    N        3.00446        -4.28327        -5.48737
| 43>    C        3.73894        -2.64815        -7.09885
| 44>    N        4.67205        -2.15082        -7.97460
| 45>    C        5.94932        -2.71738        -8.33898
| 46>    C        5.80170        -3.78762        -9.41687
| 47>    C        4.21949        -0.96971        -8.58913
| 48>    O        4.88732        -0.32768        -9.37697
| 49>    C        2.90318        -0.75708        -8.03545
| 50>    C        2.64644        -1.79306        -7.09927
| 51>    C        1.32820        -1.56410        -6.52851
| 52>    O        0.67444        -2.13940        -5.69648
| 53>    N        0.87876        -0.38909        -7.18588
| 54>    C       -0.42392         0.16636        -6.90763
| 55>    C       -1.46222        -0.28811        -7.93058
| 56>    C        1.78857         0.07715        -8.09219
| 57>    C        1.56569         1.19662        -8.94684
| 58>    C        2.46967         1.53932        -9.88759
| 59>    C        2.37472         2.62901       -10.82118
| 60>    C        2.82828         2.47438       -12.14675
| 61>    C        3.20843         1.14996       -12.68124
| 62>    O        3.08223         0.08326       -12.16164
| 63>    S        3.83386         1.35814       -14.34481
| 64>    C        3.45562         3.10811       -14.36856
| 65>    O        3.69943         3.77774       -15.32911
| 66>    C        2.86676         3.51565       -13.06694
| 67>    C        2.40678         4.82764       -12.76581
| 68>    C        1.99323         4.99379       -11.42177
| 69>    C        1.95761         3.93272       -10.51428
| 70>    C        1.49258         4.46169        -9.21049
| 71>    O        1.29179         3.91412        -8.17117
| 72>    O        1.30474         5.80797        -9.37175
| 73>    C        1.60206         6.20390       -10.64462
| 74>    O        1.57010         7.36044       -10.93952
| 75>    C        2.31547         5.78723       -13.82886
| 76>    C        1.76336         7.02133       -13.79781
| 77>    C        1.59393         7.79483       -14.97982
| 78>    C        0.73819         8.83834       -15.11405
| 79>    C        0.87665         9.78274       -16.27211
| 80>    O        1.53068         9.59826       -17.27147
| 81>    C        0.10181        10.95723       -15.87588
| 82>    C       -0.13146        12.19770       -16.38742
| 83>    S       -1.19066        13.07599       -15.31406
| 84>    C       -1.30806        11.75798       -14.20643
| 85>    C       -0.56764        10.69958       -14.63173
| 86>    C       -0.28449         9.34258       -14.20905
| 87>    C       -0.99701         8.65831       -13.26058
| 88>    C       -1.99665         9.30557       -12.50082
| 89>    N       -2.80824         9.82349       -11.87742
| 90>    C       -0.92176         7.27728       -12.99004
| 91>    N       -0.95373         6.15604       -12.74312
| 92>    C        0.38651        12.78820       -17.64070
| 93>    H        6.72338       -15.82086        -2.08006
| 94>    H        8.94531       -13.79922        -6.49001
| 95>    H        7.53541       -12.74912        -6.74005
| 96>    H        7.46882       -14.47001        -7.17432
| 97>    H        4.02702       -10.69829        -1.74802
| 98>    H        2.01830        -6.18675        -3.61001
| 99>    H        6.42115        -7.03802        -6.02443
|100>    H        6.43646        -3.12473        -7.45165
|101>    H        6.54418        -1.88657        -8.72945
|102>    H        5.20472        -4.62084        -9.05504
|103>    H        6.78245        -4.15903        -9.69992
|104>    H        5.32085        -3.36443       -10.29552
|105>    H       -0.35273         1.25640        -6.87615
|106>    H       -0.70500        -0.20068        -5.91665
|107>    H       -1.18324         0.02065        -8.93573
|108>    H       -2.42961         0.14236        -7.68801
|109>    H       -1.54970        -1.37159        -7.91265
|110>    H        0.63259         1.72880        -8.84907
|111>    H        3.35505         0.92303       -10.00101
|112>    H        2.64536         5.42840       -14.79324
|113>    H        1.43284         7.46756       -12.87584
|114>    H        2.21432         7.56735       -15.84032
|115>    H       -1.90323        11.86602       -13.32186
|116>    H        1.00651        12.05569       -18.15259
|117>    H        0.98098        13.67681       -17.42962
|118>    H       -0.43335        13.08508       -18.29393
|119> *
|120>
|121>                          ****END OF INPUT****

CARTESIAN COORDINATES (ANGSTROEM)
---------------------------------
  C      6.326710  -13.853970   -2.997950
  C      6.806550  -15.123350   -2.889180
  S      7.652630  -15.585770   -4.318940
  C      7.362740  -14.049290   -5.094810
  C      7.857210  -13.748570   -6.456000
  C      6.649740  -13.248240   -4.255330
  C      6.103190  -11.892720   -4.318080
  O      6.145960  -11.129310   -5.253580
  C      5.407150  -11.700640   -2.996070
  C      5.573970  -12.914850   -2.197300
  C      5.162370  -13.142800   -0.912690
  C      5.424040  -14.375060   -0.274730
  N      5.628710  -15.372340    0.254160
  C      4.481870  -12.234250   -0.076610
  N      3.941960  -11.550100    0.670160
  C      4.641220  -10.642560   -2.637090
  C      4.495970   -9.394450   -3.316050
  O      5.414750   -8.927110   -4.202410
  C      4.942280   -7.737130   -4.602640
  C      3.709240   -7.510640   -3.912840
  N      3.494670   -8.586570   -3.105530
  C      2.949680   -6.366940   -4.115640
  C      3.483310   -5.475970   -5.031840
  C      4.723570   -5.725100   -5.698770
  C      5.494510   -6.852810   -5.510100
  O      4.954370   -4.682700   -6.522540
  C      3.872830   -3.853480   -6.348510
  N      3.004460   -4.283270   -5.487370
  C      3.738940   -2.648150   -7.098850
  N      4.672050   -2.150820   -7.974600
  C      5.949320   -2.717380   -8.338980
  C      5.801700   -3.787620   -9.416870
  C      4.219490   -0.969710   -8.589130
  O      4.887320   -0.327680   -9.376970
  C      2.903180   -0.757080   -8.035450
  C      2.646440   -1.793060   -7.099270
  C      1.328200   -1.564100   -6.528510
  O      0.674440   -2.139400   -5.696480
  N      0.878760   -0.389090   -7.185880
  C     -0.423920    0.166360   -6.907630
  C     -1.462220   -0.288110   -7.930580
  C      1.788570    0.077150   -8.092190
  C      1.565690    1.196620   -8.946840
  C      2.469670    1.539320   -9.887590
  C      2.374720    2.629010  -10.821180
  C      2.828280    2.474380  -12.146750
  C      3.208430    1.149960  -12.681240
  O      3.082230    0.083260  -12.161640
  S      3.833860    1.358140  -14.344810
  C      3.455620    3.108110  -14.368560
  O      3.699430    3.777740  -15.329110
  C      2.866760    3.515650  -13.066940
  C      2.406780    4.827640  -12.765810
  C      1.993230    4.993790  -11.421770
  C      1.957610    3.932720  -10.514280
  C      1.492580    4.461690   -9.210490
  O      1.291790    3.914120   -8.171170
  O      1.304740    5.807970   -9.371750
  C      1.602060    6.203900  -10.644620
  O      1.570100    7.360440  -10.939520
  C      2.315470    5.787230  -13.828860
  C      1.763360    7.021330  -13.797810
  C      1.593930    7.794830  -14.979820
  C      0.738190    8.838340  -15.114050
  C      0.876650    9.782740  -16.272110
  O      1.530680    9.598260  -17.271470
  C      0.101810   10.957230  -15.875880
  C     -0.131460   12.197700  -16.387420
  S     -1.190660   13.075990  -15.314060
  C     -1.308060   11.757980  -14.206430
  C     -0.567640   10.699580  -14.631730
  C     -0.284490    9.342580  -14.209050
  C     -0.997010    8.658310  -13.260580
  C     -1.996650    9.305570  -12.500820
  N     -2.808240    9.823490  -11.877420
  C     -0.921760    7.277280  -12.990040
  N     -0.953730    6.156040  -12.743120
  C      0.386510   12.788200  -17.640700
  H      6.723380  -15.820860   -2.080060
  H      8.945310  -13.799220   -6.490010
  H      7.535410  -12.749120   -6.740050
  H      7.468820  -14.470010   -7.174320
  H      4.027020  -10.698290   -1.748020
  H      2.018300   -6.186750   -3.610010
  H      6.421150   -7.038020   -6.024430
  H      6.436460   -3.124730   -7.451650
  H      6.544180   -1.886570   -8.729450
  H      5.204720   -4.620840   -9.055040
  H      6.782450   -4.159030   -9.699920
  H      5.320850   -3.364430  -10.295520
  H     -0.352730    1.256400   -6.876150
  H     -0.705000   -0.200680   -5.916650
  H     -1.183240    0.020650   -8.935730
  H     -2.429610    0.142360   -7.688010
  H     -1.549700   -1.371590   -7.912650
  H      0.632590    1.728800   -8.849070
  H      3.355050    0.923030  -10.001010
  H      2.645360    5.428400  -14.793240
  H      1.432840    7.467560  -12.875840
  H      2.214320    7.567350  -15.840320
  H     -1.903230   11.866020  -13.321860
  H      1.006510   12.055690  -18.152590
  H      0.980980   13.676810  -17.429620
  H     -0.433350   13.085080  -18.293930

 Total Charge           Charge          ....    0
 Multiplicity           Mult            ....    1
 Number of Electrons    NEL             ....  554
 Basis Dimension        Dim             .... 1234

ORBITAL ENERGIES
----------------

  NO   OCC          E(Eh)            E(eV)
   0   2.0000     -88.984263     -2421.3849
   1   2.0000     -88.984044     -2421.3789
   2   2.0000     -88.961333     -2420.7609
   3   2.0000     -19.312972      -525.5327
   4   2.0000     -19.305752      -525.3362
   5   2.0000     -19.304158      -525.2928
   6   2.0000     -19.255747      -523.9755
   7   2.0000     -19.252272      -523.8809
   8   2.0000     -19.252016      -523.8740
   9   2.0000     -19.250420      -523.8306
  10   2.0000     -19.222778      -523.0784
  11   2.0000     -19.222163      -523.0617
  12   2.0000     -19.193111      -522.2711
  13   2.0000     -19.192621      -522.2578
  14   2.0000     -14.459044      -393.4506
  15   2.0000     -14.456124      -393.3711
  16   2.0000     -14.425040      -392.5253
  17   2.0000     -14.424374      -392.5072
  18   2.0000     -14.422174      -392.4473
  19   2.0000     -14.421657      -392.4332
  20   2.0000     -14.421438      -392.4273
  21   2.0000     -14.417574      -392.3221
  22   2.0000     -10.448281      -284.3122
  23   2.0000     -10.444671      -284.2139
  24   2.0000     -10.419517      -283.5295
  25   2.0000     -10.413703      -283.3713
  26   2.0000     -10.385301      -282.5984
  27   2.0000     -10.382220      -282.5146
  28   2.0000     -10.378986      -282.4266
  29   2.0000     -10.377571      -282.3881
  30   2.0000     -10.376434      -282.3571
  31   2.0000     -10.376004      -282.3454
  32   2.0000     -10.355415      -281.7852
  33   2.0000     -10.353280      -281.7271
  34   2.0000     -10.352702      -281.7113
  35   2.0000     -10.351801      -281.6868
  36   2.0000     -10.351348      -281.6745
  37   2.0000     -10.351051      -281.6664
  38   2.0000     -10.349957      -281.6366
  39   2.0000     -10.348646      -281.6010
  40   2.0000     -10.347030      -281.5570
  41   2.0000     -10.345875      -281.5256
  42   2.0000     -10.344480      -281.4876
  43   2.0000     -10.342769      -281.4410
  44   2.0000     -10.341080      -281.3951
  45   2.0000     -10.338736      -281.3313
  46   2.0000     -10.334829      -281.2250
  47   2.0000     -10.334385      -281.2129
  48   2.0000     -10.329179      -281.0712
  49   2.0000     -10.328633      -281.0564
  50   2.0000     -10.324868      -280.9539
  51   2.0000     -10.324783      -280.9516
  52   2.0000     -10.323532      -280.9176
  53   2.0000     -10.323343      -280.9125
  54   2.0000     -10.323118      -280.9063
  55   2.0000     -10.320305      -280.8298
  56   2.0000     -10.318930      -280.7924
  57   2.0000     -10.315757      -280.7060
  58   2.0000     -10.315426      -280.6970
  59   2.0000     -10.310044      -280.5506
  60   2.0000     -10.307993      -280.4947
  61   2.0000     -10.307787      -280.4891
  62   2.0000     -10.307167      -280.4723
  63   2.0000     -10.305795      -280.4349
  64   2.0000     -10.304821      -280.4084
  65   2.0000     -10.304273      -280.3935
  66   2.0000     -10.301806      -280.3264
  67   2.0000     -10.301692      -280.3233
  68   2.0000     -10.301281      -280.3121
  69   2.0000     -10.291812      -280.0544
  70   2.0000     -10.291240      -280.0389
  71   2.0000     -10.290306      -280.0135
  72   2.0000     -10.289313      -279.9864
  73   2.0000     -10.289218      -279.9839
  74   2.0000     -10.273921      -279.5676
  75   2.0000     -10.265765      -279.3457
  76   2.0000     -10.263322      -279.2792
  77   2.0000     -10.259204      -279.1671
  78   2.0000      -8.080166      -219.8725
  79   2.0000      -8.079864      -219.8643
  80   2.0000      -8.060676      -219.3422
  81   2.0000      -6.049359      -164.6114
  82   2.0000      -6.049075      -164.6037
  83   2.0000      -6.044769      -164.4865
  84   2.0000      -6.044485      -164.4788
  85   2.0000      -6.042836      -164.4339
  86   2.0000      -6.042535      -164.4257
  87   2.0000      -6.029577      -164.0731
  88   2.0000      -6.026234      -163.9822
  89   2.0000      -6.021688      -163.8585
  90   2.0000      -1.257616       -34.2215
  91   2.0000      -1.241620       -33.7862
  92   2.0000      -1.240461       -33.7547
  93   2.0000      -1.181024       -32.1373
  94   2.0000      -1.180300       -32.1176
  95   2.0000      -1.175095       -31.9760
  96   2.0000      -1.141538       -31.0628
  97   2.0000      -1.139287       -31.0016
  98   2.0000      -1.138371       -30.9767
  99   2.0000      -1.137120       -30.9426
 100   2.0000      -1.130315       -30.7574
 101   2.0000      -1.068393       -29.0725
 102   2.0000      -1.059899       -28.8413
 103   2.0000      -1.035639       -28.1812
 104   2.0000      -1.030549       -28.0427
 105   2.0000      -1.029808       -28.0225
 106   2.0000      -1.028417       -27.9846
 107   2.0000      -1.027878       -27.9700
 108   2.0000      -1.013733       -27.5851
 109   2.0000      -1.012193       -27.5432
 110   2.0000      -1.001564       -27.2539
 111   2.0000      -0.999917       -27.2091
 112   2.0000      -0.973359       -26.4865
 113   2.0000      -0.972211       -26.4552
 114   2.0000      -0.964332       -26.2408
 115   2.0000      -0.963494       -26.2180
 116   2.0000      -0.951197       -25.8834
 117   2.0000      -0.931601       -25.3502
 118   2.0000      -0.923170       -25.1207
 119   2.0000      -0.914663       -24.8892
 120   2.0000      -0.907830       -24.7033
 121   2.0000      -0.898495       -24.4493
 122   2.0000      -0.895830       -24.3768
 123   2.0000      -0.889866       -24.2145
 124   2.0000      -0.878786       -23.9130
 125   2.0000      -0.878103       -23.8944
 126   2.0000      -0.875304       -23.8182
 127   2.0000      -0.865049       -23.5392
 128   2.0000      -0.858873       -23.3711
 129   2.0000      -0.849981       -23.1292
 130   2.0000      -0.824368       -22.4322
 131   2.0000      -0.821436       -22.3524
 132   2.0000      -0.811625       -22.0854
 133   2.0000      -0.810787       -22.0626
 134   2.0000      -0.802141       -21.8274
 135   2.0000      -0.801342       -21.8056
 136   2.0000      -0.789758       -21.4904
 137   2.0000      -0.781869       -21.2757
 138   2.0000      -0.773990       -21.0613
 139   2.0000      -0.767858       -20.8945
 140   2.0000      -0.761131       -20.7114
 141   2.0000      -0.749803       -20.4032
 142   2.0000      -0.748341       -20.3634
 143   2.0000      -0.743740       -20.2382
 144   2.0000      -0.735280       -20.0080
 145   2.0000      -0.723495       -19.6873
 146   2.0000      -0.719504       -19.5787
 147   2.0000      -0.712424       -19.3860
 148   2.0000      -0.709627       -19.3099
 149   2.0000      -0.700268       -19.0553
 150   2.0000      -0.696792       -18.9607
 151   2.0000      -0.688215       -18.7273
 152   2.0000      -0.678525       -18.4636
 153   2.0000      -0.675125       -18.3711
 154   2.0000      -0.673793       -18.3348
 155   2.0000      -0.673274       -18.3207
 156   2.0000      -0.669500       -18.2180
 157   2.0000      -0.657958       -17.9040
 158   2.0000      -0.654091       -17.7987
 159   2.0000      -0.648829       -17.6555
 160   2.0000      -0.645478       -17.5643
 161   2.0000      -0.639711       -17.4074
 162   2.0000      -0.634306       -17.2603
 163   2.0000      -0.627854       -17.0848
 164   2.0000      -0.625895       -17.0315
 165   2.0000      -0.615939       -16.7605
 166   2.0000      -0.608982       -16.5712
 167   2.0000      -0.608034       -16.5455
 168   2.0000      -0.606779       -16.5113
 169   2.0000      -0.603947       -16.4342
 170   2.0000      -0.601954       -16.3800
 171   2.0000      -0.597246       -16.2519
 172   2.0000      -0.591283       -16.0896
 173   2.0000      -0.588778       -16.0215
 174   2.0000      -0.585316       -15.9273
 175   2.0000      -0.584419       -15.9028
 176   2.0000      -0.575888       -15.6707
 177   2.0000      -0.575489       -15.6599
 178   2.0000      -0.573280       -15.5997
 179   2.0000      -0.567592       -15.4450
 180   2.0000      -0.564468       -15.3599
 181   2.0000      -0.559777       -15.2323
 182   2.0000      -0.556142       -15.1334
 183   2.0000      -0.552049       -15.0220
 184   2.0000      -0.551671       -15.0117
 185   2.0000      -0.550965       -14.9925
 186   2.0000      -0.550285       -14.9740
 187   2.0000      -0.549732       -14.9590
 188   2.0000      -0.548707       -14.9311
 189   2.0000      -0.545569       -14.8457
 190   2.0000      -0.545022       -14.8308
 191   2.0000      -0.542727       -14.7684
 192   2.0000      -0.533968       -14.5300
 193   2.0000      -0.533783       -14.5250
 194   2.0000      -0.531650       -14.4669
 195   2.0000      -0.529232       -14.4011
 196   2.0000      -0.525695       -14.3049
 197   2.0000      -0.524645       -14.2763
 198   2.0000      -0.522001       -14.2044
 199   2.0000      -0.520278       -14.1575
 200   2.0000      -0.520038       -14.1510
 201   2.0000      -0.518291       -14.1034
 202   2.0000      -0.517425       -14.0799
 203   2.0000      -0.515511       -14.0278
 204   2.0000      -0.514038       -13.9877
 205   2.0000      -0.512115       -13.9354
 206   2.0000      -0.511183       -13.9100
 207   2.0000      -0.509115       -13.8537
 208   2.0000      -0.505168       -13.7463
 209   2.0000      -0.503260       -13.6944
 210   2.0000      -0.501744       -13.6531
 211   2.0000      -0.498893       -13.5756
 212   2.0000      -0.498487       -13.5645
 213   2.0000      -0.495572       -13.4852
 214   2.0000      -0.485802       -13.2193
 215   2.0000      -0.485285       -13.2053
 216   2.0000      -0.484700       -13.1894
 217   2.0000      -0.481554       -13.1038
 218   2.0000      -0.475745       -12.9457
 219   2.0000      -0.473858       -12.8943
 220   2.0000      -0.470332       -12.7984
 221   2.0000      -0.466753       -12.7010
 222   2.0000      -0.466221       -12.6865
 223   2.0000      -0.464058       -12.6277
 224   2.0000      -0.463540       -12.6136
 225   2.0000      -0.461890       -12.5687
 226   2.0000      -0.461540       -12.5591
 227   2.0000      -0.459515       -12.5041
 228   2.0000      -0.455178       -12.3860
 229   2.0000      -0.454486       -12.3672
 230   2.0000      -0.453982       -12.3535
 231   2.0000      -0.453614       -12.3435
 232   2.0000      -0.451973       -12.2988
 233   2.0000      -0.450060       -12.2468
 234   2.0000      -0.449245       -12.2246
 235   2.0000      -0.447831       -12.1861
 236   2.0000      -0.444347       -12.0913
 237   2.0000      -0.442257       -12.0344
 238   2.0000      -0.441661       -12.0182
 239   2.0000      -0.439334       -11.9549
 240   2.0000      -0.435669       -11.8552
 241   2.0000      -0.433541       -11.7973
 242   2.0000      -0.432485       -11.7685
 243   2.0000      -0.431341       -11.7374
 244   2.0000      -0.429906       -11.6983
 245   2.0000      -0.426837       -11.6148
 246   2.0000      -0.425287       -11.5726
 247   2.0000      -0.423583       -11.5263
 248   2.0000      -0.418025       -11.3750
 249   2.0000      -0.417190       -11.3523
 250   2.0000      -0.412143       -11.2150
 251   2.0000      -0.410846       -11.1797
 252   2.0000      -0.404093       -10.9959
 253   2.0000      -0.399602       -10.8737
 254   2.0000      -0.387435       -10.5426
 255   2.0000      -0.386250       -10.5104
 256   2.0000      -0.381557       -10.3827
 257   2.0000      -0.380351       -10.3499
 258   2.0000      -0.375210       -10.2100
 259   2.0000      -0.373684       -10.1685
 260   2.0000      -0.362813        -9.8726
 261   2.0000      -0.360692        -9.8149
 262   2.0000      -0.355340        -9.6693
 263   2.0000      -0.347535        -9.4569
 264   2.0000      -0.344899        -9.3852
 265   2.0000      -0.341818        -9.3013
 266   2.0000      -0.340415        -9.2632
 267   2.0000      -0.335278        -9.1234
 268   2.0000      -0.335213        -9.1216
 269   2.0000      -0.332317        -9.0428
 270   2.0000      -0.319293        -8.6884
 271   2.0000      -0.317433        -8.6378
 272   2.0000      -0.315672        -8.5899
 273   2.0000      -0.311790        -8.4842
 274   2.0000      -0.301248        -8.1974
 275   2.0000      -0.296166        -8.0591
 276   2.0000      -0.247053        -6.7226
 277   0.0000      -0.116631        -3.1737
 278   0.0000      -0.104950        -2.8558
 279   0.0000      -0.103424        -2.8143
 280   0.0000      -0.086160        -2.3445
 281   0.0000      -0.060044        -1.6339

MULLIKEN ATOMIC CHARGES
-----------------------
   0 C :    0.041226
   1 C :   -0.138046
   2 S :    0.162929
   3 C :   -0.314224
   4 C :    0.115894
   5 C :    0.043778
   6 C :    0.143658
   7 O :   -0.126556
   8 C :   -0.058839
   9 C :    0.290265
  10 C :   -0.332031
  11 C :   -0.191336
  12 N :    0.157281
  13 C :   -0.190149
  14 N :    0.176548
  15 C :   -0.042751
  16 C :    0.093439
  17 O :   -0.161524
  18 C :    0.217305
  19 C :    0.008361
  20 N :   -0.026719
  21 C :   -0.068629
  22 C :    0.020816
  23 C :    0.243327
  24 C :   -0.158300
  25 O :   -0.216308
  26 C :   -0.009111
  27 N :    0.018875
  28 C :    0.140607
  29 N :   -0.254595
  30 C :    0.117315
  31 C :    0.004594
  32 C :    0.177060
  33 O :   -0.218853
  34 C :   -0.077796
  35 C :   -0.038168
  36 C :    0.141849
  37 O :   -0.142663
  38 N :   -0.269216
  39 C :    0.094062
  40 C :    0.003119
  41 C :    0.119247
  42 C :    0.044654
  43 C :   -0.053616
  44 C :    0.041989
  45 C :    0.013625
  46 C :    0.048573
  47 O :   -0.113236
  48 S :    0.041691
  49 C :    0.045567
  50 O :   -0.130010
  51 C :    0.032188
  52 C :    0.078863
  53 C :   -0.049351
  54 C :   -0.076779
  55 C :    0.235025
  56 O :   -0.097048
  57 O :   -0.210588
  58 C :    0.256272
  59 O :   -0.111860
  60 C :   -0.042777
  61 C :    0.020352
  62 C :    0.012463
  63 C :   -0.107309
  64 C :    0.139018
  65 O :   -0.139683
  66 C :    0.050092
  67 C :   -0.312388
  68 S :    0.160915
  69 C :   -0.133890
  70 C :    0.028608
  71 C :    0.280116
  72 C :   -0.310931
  73 C :   -0.192485
  74 N :    0.157629
  75 C :   -0.192313
  76 N :    0.149147
  77 C :    0.115668
  78 H :    0.051395
  79 H :    0.041055
  80 H :    0.048258
  81 H :    0.039187
  82 H :    0.048615
  83 H :   -0.007937
  84 H :   -0.007493
  85 H :    0.025764
  86 H :    0.038231
  87 H :    0.014461
  88 H :    0.018059
  89 H :    0.029119
  90 H :    0.038284
  91 H :    0.044310
  92 H :    0.012687
  93 H :    0.025779
  94 H :    0.032715
  95 H :   -0.011160
  96 H :    0.059235
  97 H :    0.020797
  98 H :    0.054648
  99 H :    0.027054
 100 H :    0.051331
 101 H :    0.050533
 102 H :    0.041075
 103 H :    0.040072
Sum of atomic charges:   -0.0000000

LOEWDIN ATOMIC CHARGES
----------------------
   0 C :   -0.064259
   1 C :   -0.150051
   2 S :    0.474542
   3 C :   -0.128359
   4 C :   -0.058289
   5 C :   -0.105045
   6 C :    0.077757
   7 O :   -0.128442
   8 C :   -0.058707
   9 C :    0.072100
  10 C :   -0.128286
  11 C :   -0.013092
  12 N :   -0.047539
  13 C :   -0.027215
  14 N :   -0.035220
  15 C :    0.045768
  16 C :    0.046411
  17 O :    0.024132
  18 C :    0.046342
  19 C :   -0.040340
  20 N :   -0.069659
  21 C :   -0.000235
  22 C :   -0.035167
  23 C :    0.045171
  24 C :   -0.062025
  25 O :   -0.005029
  26 C :    0.052168
  27 N :   -0.060213
  28 C :    0.039686
  29 N :    0.007321
  30 C :    0.034436
  31 C :   -0.061162
  32 C :    0.080657
  33 O :   -0.202098
  34 C :   -0.123647
  35 C :   -0.087427
  36 C :    0.086669
  37 O :   -0.152596
  38 N :   -0.001411
  39 C :    0.036653
  40 C :   -0.060704
  41 C :    0.090731
  42 C :   -0.007918
  43 C :    0.018063
  44 C :    0.028097
  45 C :   -0.044501
  46 C :   -0.044120
  47 O :   -0.092321
  48 S :    0.321732
  49 C :   -0.040699
  50 O :   -0.111479
  51 C :   -0.044054
  52 C :    0.029941
  53 C :   -0.031128
  54 C :   -0.040161
  55 C :    0.109025
  56 O :   -0.093555
  57 O :   -0.039397
  58 C :    0.120032
  59 O :   -0.096641
  60 C :   -0.004654
  61 C :    0.009738
  62 C :    0.065341
  63 C :   -0.068588
  64 C :    0.083251
  65 O :   -0.139729
  66 C :   -0.106086
  67 C :   -0.127636
  68 S :    0.473053
  69 C :   -0.150129
  70 C :   -0.061179
  71 C :    0.074003
  72 C :   -0.129759
  73 C :   -0.013744
  74 N :   -0.046129
  75 C :   -0.012908
  76 N :   -0.063903
  77 C :   -0.057519
  78 H :    0.035499
  79 H :    0.044227
  80 H :    0.047983
  81 H :    0.043826
  82 H :    0.061835
  83 H :    0.049612
  84 H :    0.046770
  85 H :    0.022162
  86 H :    0.034662
  87 H :    0.018961
  88 H :    0.029283
  89 H :    0.030925
  90 H :    0.028808
  91 H :    0.038694
  92 H :    0.020791
  93 H :    0.031892
  94 H :    0.033128
  95 H :    0.030589
  96 H :    0.043462
  97 H :    0.036545
  98 H :    0.028416
  99 H :    0.049198
 100 H :    0.035910
 101 H :    0.049337
 102 H :    0.044574
 103 H :    0.044246

  Mayer bond orders larger than 0.100000
B(  0-C ,  1-C ) :   1.5397 B(  0-C ,  5-C ) :   1.1999 B(  0-C ,  9-C ) :   1.0002
B(  1-C ,  2-S ) :   1.1658 B(  1-C , 78-H ) :   0.9555 B(  2-S ,  3-C ) :   1.1723
B(  3-C ,  4-C ) :   1.0877 B(  3-C ,  5-C ) :   1.5444 B(  4-C , 79-H ) :   0.9426
B(  4-C , 80-H ) :   0.9442 B(  4-C , 81-H ) :   0.9418 B(  5-C ,  6-C ) :   0.9705
B(  6-C ,  7-O ) :   2.2352 B(  6-C ,  8-C ) :   0.9160 B(  8-C ,  9-C ) :   1.0539
B(  8-C , 15-C ) :   1.6576 B(  9-C , 10-C ) :   1.6676 B( 10-C , 11-C ) :   1.1473
B( 10-C , 13-C ) :   1.1312 B( 11-C , 12-N ) :   2.9920 B( 13-C , 14-N ) :   2.9861
B( 15-C , 16-C ) :   1.0911 B( 15-C , 82-H ) :   0.9391 B( 16-C , 17-O ) :   1.1414
B( 16-C , 20-N ) :   1.7116 B( 17-O , 18-C ) :   1.1407 B( 18-C , 19-C ) :   1.2312
B( 18-C , 24-C ) :   1.3034 B( 19-C , 20-N ) :   1.3172 B( 19-C , 21-C ) :   1.2604
B( 21-C , 22-C ) :   1.2933 B( 21-C , 24-C ) :   0.1487 B( 21-C , 83-H ) :   1.0530
B( 22-C , 23-C ) :   1.2189 B( 22-C , 27-N ) :   1.2853 B( 23-C , 24-C ) :   1.3167
B( 23-C , 25-O ) :   1.0951 B( 24-C , 84-H ) :   1.0470 B( 25-O , 26-C ) :   1.1147
B( 26-C , 27-N ) :   1.8311 B( 26-C , 28-C ) :   0.9980 B( 28-C , 29-N ) :   1.1918
B( 28-C , 35-C ) :   1.4321 B( 29-N , 30-C ) :   0.9403 B( 29-N , 32-C ) :   1.0595
B( 30-C , 31-C ) :   1.1225 B( 30-C , 85-H ) :   0.9460 B( 30-C , 86-H ) :   0.9271
B( 31-C , 87-H ) :   0.9682 B( 31-C , 88-H ) :   0.9675 B( 31-C , 89-H ) :   0.9652
B( 32-C , 33-O ) :   1.9992 B( 32-C , 34-C ) :   0.9961 B( 33-O , 96-H ) :   0.1241
B( 34-C , 35-C ) :   1.2437 B( 34-C , 41-C ) :   1.3244 B( 35-C , 36-C ) :   0.9350
B( 36-C , 37-O ) :   2.2065 B( 36-C , 38-N ) :   1.0067 B( 38-N , 39-C ) :   0.9411
B( 38-N , 41-C ) :   1.1915 B( 39-C , 40-C ) :   1.1193 B( 39-C , 90-H ) :   0.9511
B( 39-C , 91-H ) :   0.9280 B( 40-C , 92-H ) :   0.9688 B( 40-C , 93-H ) :   0.9683
B( 40-C , 94-H ) :   0.9637 B( 41-C , 42-C ) :   1.1566 B( 42-C , 43-C ) :   1.6816
B( 42-C , 95-H ) :   0.9540 B( 43-C , 44-C ) :   1.0786 B( 43-C , 96-H ) :   0.9023
B( 44-C , 45-C ) :   1.3609 B( 44-C , 54-C ) :   1.3302 B( 45-C , 46-C ) :   0.8492
B( 45-C , 51-C ) :   1.3401 B( 46-C , 47-O ) :   2.1746 B( 46-C , 48-S ) :   1.0229
B( 47-O , 48-S ) :   0.1059 B( 48-S , 49-C ) :   1.0472 B( 48-S , 50-O ) :   0.1038
B( 49-C , 50-O ) :   2.1286 B( 49-C , 51-C ) :   0.8495 B( 51-C , 52-C ) :   1.3400
B( 52-C , 53-C ) :   1.2718 B( 52-C , 60-C ) :   1.1339 B( 53-C , 54-C ) :   1.3874
B( 53-C , 58-C ) :   0.9050 B( 54-C , 55-C ) :   0.9027 B( 55-C , 56-O ) :   2.2490
B( 55-C , 57-O ) :   1.0573 B( 57-O , 58-C ) :   1.0751 B( 58-C , 59-O ) :   2.1665
B( 60-C , 61-C ) :   1.6653 B( 60-C , 97-H ) :   0.9613 B( 61-C , 62-C ) :   1.0926
B( 61-C , 98-H ) :   0.9157 B( 62-C , 63-C ) :   1.6660 B( 62-C , 99-H ) :   0.9637
B( 63-C , 64-C ) :   0.9367 B( 63-C , 71-C ) :   1.0281 B( 64-C , 65-O ) :   2.2388
B( 64-C , 66-C ) :   0.9486 B( 66-C , 67-C ) :   1.5502 B( 66-C , 70-C ) :   1.1996
B( 67-C , 68-S ) :   1.1714 B( 67-C , 77-C ) :   1.0867 B( 68-S , 69-C ) :   1.1610
B( 69-C , 70-C ) :   1.5498 B( 69-C ,100-H ) :   0.9566 B( 70-C , 71-C ) :   1.0110
B( 71-C , 72-C ) :   1.6574 B( 72-C , 73-C ) :   1.1385 B( 72-C , 75-C ) :   1.1579
B( 73-C , 74-N ) :   3.0005 B( 75-C , 76-N ) :   2.9794 B( 77-C ,101-H ) :   0.9455
B( 77-C ,102-H ) :   0.9421 B( 77-C ,103-H ) :   0.9424

-----------------------------------------------------------------------------
         ABSORPTION SPECTRUM VIA TRANSITION ELECTRIC DIPOLE MOMENTS
-----------------------------------------------------------------------------
State   Energy  Wavelength   fosc         T2         TX        TY        TZ
        (cm-1)    (nm)                  (au**2)     (au)      (au)      (au)
-----------------------------------------------------------------------------
   0   14534.2    688.0   0.703210144  15.92827   1.27586  -3.23906   1.95165
   1   15522.5    644.2   0.202802879   4.30118  -0.75179   1.84401  -0.57932
   2   19636.7    509.3   0.198288145   3.32433   0.52370  -1.63855   0.60433
   3   21632.4    462.3   0.070243435   1.06899   0.28976   0.80486  -0.58072
   4   23328.6    428.7   0.292482871   4.12751  -1.02100   1.47511  -0.95348
   5   24716.4    404.6   0.346221256   4.61152  -0.93084   1.92917  -0.15282
   6   25434.4    393.2   0.487418407   6.30893   0.36182  -2.15498   1.23857
   7   25908.6    386.0   0.040108154   0.50964  -0.30314   0.62575  -0.16182
   8   26668.0    375.0   0.259271246   3.20066  -0.51090   1.60559  -0.60143
   9   26874.7    372.1   0.199674649   2.44599  -0.38243   1.39326  -0.59880
  10   27242.9    367.1   0.007240404   0.08750  -0.28451   0.02983   0.07523
  11   27277.5    366.6   0.016217587   0.19573   0.30967   0.17347  -0.26409
  12   27768.9    360.1   0.069750887   0.82693   0.35661   0.50470  -0.66710
  13   28109.5    355.8   0.007827221   0.09167   0.12239  -0.27586   0.02432
  14   28335.9    352.9   0.175727368   2.04163  -0.57452   1.29296   0.19951
  15   29258.0    341.8   0.084752791   0.95364  -0.30206  -0.72333   0.58240
  16   30133.0    331.9   0.049728721   0.54330   0.39785   0.16093  -0.59927
  17   30381.1    329.2   0.097190897   1.05317   0.51489   0.34921  -0.81615
  18   30626.3    326.5   0.033732310   0.36260  -0.20845  -0.41037   0.38825
  19   30853.2    324.1   0.001403991   0.01498  -0.11087   0.01363   0.05002
  20   31242.0    320.1   0.014089393   0.14847   0.14330  -0.28837   0.21160
  21   31373.6    318.7   0.165953401   1.74139   0.09630   1.10217  -0.71926
  22   31661.8    315.8   0.080033135   0.83217  -0.11029  -0.74467   0.51524
  23   31788.9    314.6   0.026482897   0.27426   0.17950   0.30925  -0.38263
  24   31833.8    314.1   0.144393526   1.49326  -0.65856  -0.15333   1.01786
  25   31950.1    313.0   0.011046234   0.11382  -0.09370   0.20042   0.25470
  26   32359.9    309.0   0.066160407   0.67308   0.21638  -0.72291  -0.32196
  27   32658.0    306.2   0.032104848   0.32364   0.24700   0.41023  -0.30714
  28   33116.8    302.0   0.010105601   0.10046   0.17183  -0.16199  -0.21141
  29   33580.7    297.8   0.012593742   0.12346   0.09720   0.14684  -0.30406
  30   33724.1    296.5   0.018509457   0.18069  -0.17866   0.36947  -0.11071
  31   33854.9    295.4   0.032044122   0.31160  -0.35613   0.33663   0.26731
  32   34633.5    288.7   0.008114984   0.07714   0.22306  -0.05123  -0.15734
  33   34684.7    288.3   0.046065349   0.43723   0.30201   0.01015  -0.58815
  34   34794.7    287.4   0.007122917   0.06739  -0.09931   0.01194   0.23956
  35   35143.5    284.5   0.003660312   0.03429  -0.10823   0.13454   0.06687
  36   35379.6    282.6   0.098636242   0.91782   0.25925  -0.85653   0.34200
  37   35438.9    282.2   0.049349556   0.45844  -0.13267   0.63397  -0.19727
  38   35583.2    281.0   0.028431692   0.26305  -0.08713   0.41053  -0.29483
  39   35739.4    279.8   0.007828432   0.07211   0.02386   0.14238   0.22643
  40   35763.3    279.6   0.126925227   1.16838   0.17905   0.93488  -0.51218
  41   35922.6    278.4   0.082485748   0.75594  -0.39753  -0.09382   0.76754
  42   36266.3    275.7   0.045512317   0.41314  -0.33835   0.09602   0.53800
  43   36424.4    274.5   0.169177336   1.52906  -0.54299   0.82948   0.73905
  44   36987.6    270.4   0.024898702   0.22161   0.05572   0.37736  -0.27588
  45   37144.6    269.2   0.019186248   0.17005  -0.11523  -0.32129   0.23140
  46   37228.0    268.6   0.182185792   1.61109   0.16387   1.02798  -0.72629
  47   37461.9    266.9   0.003097733   0.02722  -0.08409  -0.09581   0.10474
  48   37572.3    266.2   0.006418608   0.05624   0.01010   0.00743   0.23682
  49   37648.9    265.6   0.146396340   1.28013   0.38611   0.78153  -0.72128
  50   37698.6    265.3   0.056864303   0.49658   0.16511  -0.64057  -0.24287
  51   37893.6    263.9   0.006070298   0.05274  -0.19179  -0.03588   0.12111
  52   38312.4    261.0   0.007973968   0.06852   0.11722   0.12122  -0.20020
  53   38480.4    259.9   0.005495865   0.04702   0.00910   0.19774  -0.08852
  54   38555.8    259.4   0.316325710   2.70097   0.79531  -0.45050  -1.36584
  55   38679.2    258.5   0.076718814   0.65298  -0.13452  -0.14247   0.78396
  56   39018.4    256.3   0.148007870   1.24880  -0.02466   0.99918  -0.49983
  57   39480.6    253.3   0.009279945   0.07738   0.03521  -0.26554   0.07502
  58   39570.6    252.7   0.012193336   0.10144  -0.09029  -0.21720   0.21475
  59   39665.5    252.1   0.018854971   0.15649   0.10526  -0.37119   0.08736
  60   39882.4    250.7   0.031581619   0.26069  -0.19231   0.23904   0.40813
  61   40124.0    249.2   0.052722626   0.43258   0.42871   0.14695  -0.47665
  62   40181.1    248.9   0.025383923   0.20798  -0.27193  -0.13527   0.34019

FINAL SINGLE POINT ENERGY     -4605.066040365948

DIPOLE MOMENT
-------------
                                X             Y             Z
Electronic contribution:      0.55456       1.11922      10.74503
Nuclear contribution   :      1.30623      -0.19404     -14.27265
                        -----------------------------------------
Total Dipole Moment    :      1.86079       0.92518      -3.52762
                        -----------------------------------------
Magnitude (a.u.)       :      4.09421
Magnitude (Debye)      :     10.40666

Rotational constants in cm-1:     0.003000     0.000162     0.000156
Rotational constants in MHz :    89.923800     4.864635     4.673178

                             ****ORCA TERMINATED NORMALLY****
TOTAL RUN TIME: 0 days 0 hours 10 minutes 24 seconds 301 msec
