                         Program Version 4.2.0 -  RELEASE  -
|  1> # ORCA input file
|  2> # SCF done       -159.724205767999          0.000768524120
|  3> ! CAM-B3LYP def2-SVP def2/J RIJCOSX Grid4 TightSCF
|  4> %maxcore 5000
|  5> %tddft
|  6>     Mode sTDDFT
|  7>     Ethresh 5.0
|  8>     maxcore 5000
|  9> end
| 10>
| 11> %pal
| 12>   nprocs 6
| 13>   end
| 14> * xyz 0 1
| 15>    C       -1.65583        -0.82521         0.53196
| 16>    C       -2.01903        -1.67757        -0.47825
| 17>    C       -3.12709        -2.54801        -0.47250
| 18>    N       -4.04141        -3.22938        -0.61203
| 19>    C       -1.38350        -1.72312        -1.73768
| 20>    N       -0.90362        -1.83119        -2.77552
| 21>    C       -0.69574         0.27367         0.40929
| 22>    C       -0.81540         1.11623         1.53073
| 23>    C       -0.04610         2.25766         1.65268
| 24>    C        0.85748         2.55386         0.64501
| 25>    C        1.00023         1.72558        -0.46705
| 26>    C        0.21668         0.57847        -0.58570
| 27>    C        2.00891         2.05271        -1.52168
| 28>    C       -1.80747         0.55736         2.46428
| 29>    O       -2.18772         1.01091         3.52036
| 30>    C       -2.22121        -0.73845         1.85908
| 31>    C       -2.84741        -1.66602         2.63849
| 32>    C       -3.06867        -2.98565         2.32829
| 33>    C       -3.22762        -4.17615         2.09422
| 34>    C       -3.39328        -5.44469         1.71892
| 35>    C       -3.52678        -6.59184         1.31989
| 36>    C       -3.66841        -7.86343         0.80899
| 37>    N       -3.93580        -8.09637        -0.52563
| 38>    C       -4.10340        -7.07009        -1.52451
| 39>    C       -2.76861        -6.47304        -1.96082
| 40>    C       -4.00964        -9.46317        -0.80644
| 41>    O       -4.25245        -9.89998        -1.92343
| 42>    C       -3.76808       -10.10736         0.46302
| 43>    C       -3.56778        -9.09542         1.43674
| 44>    C       -3.32637        -9.73000         2.71724
| 45>    O       -3.09866        -9.28351         3.81891
| 46>    N       -3.39349       -11.10732         2.42742
| 47>    C       -3.35750       -12.09145         3.48204
| 48>    C       -4.76894       -12.46606         3.92947
| 49>    C       -3.66228       -11.34885         1.10404
| 50>    C       -3.83316       -12.64328         0.55952
| 51>    C       -4.23216       -12.80161        -0.72902
| 52>    C       -4.57753       -14.04482        -1.32881
| 53>    C       -5.40234       -14.09010        -2.42470
| 54>    O       -5.66557       -15.23308        -3.12657
| 55>    C       -5.15422       -16.36995        -2.56770
| 56>    C       -4.37581       -16.34059        -1.37237
| 57>    C       -3.98319       -17.57550        -0.97488
| 58>    S       -4.55479       -18.79322        -2.05466
| 59>    C       -5.33278       -17.62407        -3.05138
| 60>    O       -4.05348       -15.17562        -0.74264
| 61>    C       -6.03063       -12.91481        -2.96744
| 62>    S       -5.98230       -12.70483        -4.68639
| 63>    C       -6.57432       -11.12008        -4.57534
| 64>    C       -6.84384       -10.74397        -3.27610
| 65>    C       -6.59185       -11.80641        -2.34085
| 66>    C       -6.93138       -11.58164        -0.97239
| 67>    N       -6.97736       -12.61457        -0.01363
| 68>    O       -7.05340       -13.77124        -0.40645
| 69>    O       -6.96646       -12.30942         1.17231
| 70>    C       -7.31317       -10.31558        -0.56915
| 71>    C       -7.44846        -9.26366        -1.46119
| 72>    C       -7.25167        -9.45116        -2.82088
| 73>    N       -7.47143        -8.44964        -3.70385
| 74>    H       -0.15588         2.89443         2.51705
| 75>    H        1.46875         3.44144         0.71962
| 76>    H        0.33906        -0.05879        -1.44708
| 77>    H        2.07722         3.12751        -1.67324
| 78>    H        1.75640         1.57403        -2.46422
| 79>    H        2.99232         1.69589        -1.21331
| 80>    H       -3.13021        -1.33776         3.63524
| 81>    H       -4.74574        -6.28059        -1.12248
| 82>    H       -4.59494        -7.55127        -2.37498
| 83>    H       -2.26510        -6.01413        -1.11315
| 84>    H       -2.93690        -5.70801        -2.71350
| 85>    H       -2.12739        -7.24566        -2.37846
| 86>    H       -2.81284       -11.63318         4.31245
| 87>    H       -2.80526       -12.97040         3.14061
| 88>    H       -5.24977       -11.60637         4.38937
| 89>    H       -4.72754       -13.27250         4.65628
| 90>    H       -5.37655       -12.77851         3.08273
| 91>    H       -3.72952       -13.50535         1.20001
| 92>    H       -4.34748       -11.92615        -1.35098
| 93>    H       -3.39726       -17.83774        -0.11920
| 94>    H       -5.87285       -17.92199        -3.92546
| 95>    H       -6.68220       -10.54334        -5.47257
| 96>    H       -7.53139       -10.16617         0.47801
| 97>    H       -7.73755        -8.28946        -1.09779
| 98>    H       -7.62174        -7.52060        -3.34978
| 99>    H       -7.15799        -8.54020        -4.65298
|100> *
|101>
|102>                          ****END OF INPUT****

CARTESIAN COORDINATES (ANGSTROEM)
---------------------------------
  C     -1.655830   -0.825210    0.531960
  C     -2.019030   -1.677570   -0.478250
  C     -3.127090   -2.548010   -0.472500
  N     -4.041410   -3.229380   -0.612030
  C     -1.383500   -1.723120   -1.737680
  N     -0.903620   -1.831190   -2.775520
  C     -0.695740    0.273670    0.409290
  C     -0.815400    1.116230    1.530730
  C     -0.046100    2.257660    1.652680
  C      0.857480    2.553860    0.645010
  C      1.000230    1.725580   -0.467050
  C      0.216680    0.578470   -0.585700
  C      2.008910    2.052710   -1.521680
  C     -1.807470    0.557360    2.464280
  O     -2.187720    1.010910    3.520360
  C     -2.221210   -0.738450    1.859080
  C     -2.847410   -1.666020    2.638490
  C     -3.068670   -2.985650    2.328290
  C     -3.227620   -4.176150    2.094220
  C     -3.393280   -5.444690    1.718920
  C     -3.526780   -6.591840    1.319890
  C     -3.668410   -7.863430    0.808990
  N     -3.935800   -8.096370   -0.525630
  C     -4.103400   -7.070090   -1.524510
  C     -2.768610   -6.473040   -1.960820
  C     -4.009640   -9.463170   -0.806440
  O     -4.252450   -9.899980   -1.923430
  C     -3.768080  -10.107360    0.463020
  C     -3.567780   -9.095420    1.436740
  C     -3.326370   -9.730000    2.717240
  O     -3.098660   -9.283510    3.818910
  N     -3.393490  -11.107320    2.427420
  C     -3.357500  -12.091450    3.482040
  C     -4.768940  -12.466060    3.929470
  C     -3.662280  -11.348850    1.104040
  C     -3.833160  -12.643280    0.559520
  C     -4.232160  -12.801610   -0.729020
  C     -4.577530  -14.044820   -1.328810
  C     -5.402340  -14.090100   -2.424700
  O     -5.665570  -15.233080   -3.126570
  C     -5.154220  -16.369950   -2.567700
  C     -4.375810  -16.340590   -1.372370
  C     -3.983190  -17.575500   -0.974880
  S     -4.554790  -18.793220   -2.054660
  C     -5.332780  -17.624070   -3.051380
  O     -4.053480  -15.175620   -0.742640
  C     -6.030630  -12.914810   -2.967440
  S     -5.982300  -12.704830   -4.686390
  C     -6.574320  -11.120080   -4.575340
  C     -6.843840  -10.743970   -3.276100
  C     -6.591850  -11.806410   -2.340850
  C     -6.931380  -11.581640   -0.972390
  N     -6.977360  -12.614570   -0.013630
  O     -7.053400  -13.771240   -0.406450
  O     -6.966460  -12.309420    1.172310
  C     -7.313170  -10.315580   -0.569150
  C     -7.448460   -9.263660   -1.461190
  C     -7.251670   -9.451160   -2.820880
  N     -7.471430   -8.449640   -3.703850
  H     -0.155880    2.894430    2.517050
  H      1.468750    3.441440    0.719620
  H      0.339060   -0.058790   -1.447080
  H      2.077220    3.127510   -1.673240
  H      1.756400    1.574030   -2.464220
  H      2.992320    1.695890   -1.213310
  H     -3.130210   -1.337760    3.635240
  H     -4.745740   -6.280590   -1.122480
  H     -4.594940   -7.551270   -2.374980
  H     -2.265100   -6.014130   -1.113150
  H     -2.936900   -5.708010   -2.713500
  H     -2.127390   -7.245660   -2.378460
  H     -2.812840  -11.633180    4.312450
  H     -2.805260  -12.970400    3.140610
  H     -5.249770  -11.606370    4.389370
  H     -4.727540  -13.272500    4.656280
  H     -5.376550  -12.778510    3.082730
  H     -3.729520  -13.505350    1.200010
  H     -4.347480  -11.926150   -1.350980
  H     -3.397260  -17.837740   -0.119200
  H     -5.872850  -17.921990   -3.925460
  H     -6.682200  -10.543340   -5.472570
  H     -7.531390  -10.166170    0.478010
  H     -7.737550   -8.289460   -1.097790
  H     -7.621740   -7.520600   -3.349780
  H     -7.157990   -8.540200   -4.652980

 Total Charge           Charge          ....    0
 Multiplicity           Mult            ....    1
 Number of Electrons    NEL             ....  420
 Basis Dimension        Dim             ....  964

ORBITAL ENERGIES
----------------

  NO   OCC          E(Eh)            E(eV)
   0   2.0000     -88.975978     -2421.1595
   1   2.0000     -88.954421     -2420.5728
   2   2.0000     -19.280433      -524.6473
   3   2.0000     -19.268349      -524.3184
   4   2.0000     -19.218845      -522.9714
   5   2.0000     -19.217258      -522.9282
   6   2.0000     -19.213392      -522.8230
   7   2.0000     -19.191708      -522.2329
   8   2.0000     -19.175733      -521.7982
   9   2.0000     -14.622533      -397.8993
  10   2.0000     -14.449649      -393.1950
  11   2.0000     -14.448817      -393.1723
  12   2.0000     -14.445337      -393.0776
  13   2.0000     -14.419218      -392.3669
  14   2.0000     -14.415905      -392.2767
  15   2.0000     -10.373985      -282.2905
  16   2.0000     -10.367125      -282.1038
  17   2.0000     -10.362972      -281.9908
  18   2.0000     -10.355957      -281.7999
  19   2.0000     -10.348306      -281.5917
  20   2.0000     -10.345396      -281.5125
  21   2.0000     -10.343899      -281.4718
  22   2.0000     -10.342302      -281.4283
  23   2.0000     -10.338433      -281.3231
  24   2.0000     -10.337151      -281.2882
  25   2.0000     -10.336303      -281.2651
  26   2.0000     -10.334411      -281.2136
  27   2.0000     -10.329138      -281.0701
  28   2.0000     -10.321669      -280.8669
  29   2.0000     -10.319100      -280.7970
  30   2.0000     -10.314959      -280.6843
  31   2.0000     -10.309909      -280.5469
  32   2.0000     -10.308085      -280.4972
  33   2.0000     -10.307597      -280.4840
  34   2.0000     -10.305294      -280.4213
  35   2.0000     -10.302883      -280.3557
  36   2.0000     -10.301964      -280.3307
  37   2.0000     -10.300957      -280.3033
  38   2.0000     -10.299686      -280.2687
  39   2.0000     -10.298573      -280.2384
  40   2.0000     -10.298050      -280.2242
  41   2.0000     -10.297795      -280.2172
  42   2.0000     -10.297066      -280.1974
  43   2.0000     -10.295576      -280.1569
  44   2.0000     -10.294262      -280.1211
  45   2.0000     -10.292510      -280.0734
  46   2.0000     -10.292375      -280.0698
  47   2.0000     -10.291446      -280.0445
  48   2.0000     -10.291277      -280.0399
  49   2.0000     -10.290272      -280.0125
  50   2.0000     -10.289547      -279.9928
  51   2.0000     -10.288557      -279.9659
  52   2.0000     -10.278804      -279.7005
  53   2.0000     -10.276253      -279.6311
  54   2.0000     -10.269712      -279.4531
  55   2.0000     -10.268363      -279.4164
  56   2.0000     -10.254043      -279.0267
  57   2.0000     -10.249467      -278.9022
  58   2.0000     -10.245273      -278.7881
  59   2.0000      -8.071500      -219.6367
  60   2.0000      -8.050281      -219.0593
  61   2.0000      -6.040371      -164.3668
  62   2.0000      -6.036102      -164.2507
  63   2.0000      -6.034575      -164.2091
  64   2.0000      -6.019795      -163.8070
  65   2.0000      -6.015595      -163.6927
  66   2.0000      -6.011953      -163.5936
  67   2.0000      -1.292805       -35.1790
  68   2.0000      -1.202541       -32.7228
  69   2.0000      -1.164163       -31.6785
  70   2.0000      -1.131294       -30.7841
  71   2.0000      -1.130020       -30.7494
  72   2.0000      -1.116527       -30.3822
  73   2.0000      -1.109714       -30.1969
  74   2.0000      -1.059382       -28.8273
  75   2.0000      -1.048007       -28.5177
  76   2.0000      -1.042396       -28.3650
  77   2.0000      -1.020534       -27.7701
  78   2.0000      -1.000629       -27.2285
  79   2.0000      -0.998478       -27.1700
  80   2.0000      -0.995084       -27.0776
  81   2.0000      -0.981876       -26.7182
  82   2.0000      -0.955209       -25.9926
  83   2.0000      -0.943741       -25.6805
  84   2.0000      -0.924621       -25.1602
  85   2.0000      -0.918162       -24.9845
  86   2.0000      -0.917029       -24.9536
  87   2.0000      -0.904654       -24.6169
  88   2.0000      -0.891374       -24.2555
  89   2.0000      -0.886702       -24.1284
  90   2.0000      -0.871559       -23.7163
  91   2.0000      -0.866170       -23.5697
  92   2.0000      -0.862457       -23.4686
  93   2.0000      -0.850686       -23.1483
  94   2.0000      -0.844813       -22.9885
  95   2.0000      -0.837376       -22.7862
  96   2.0000      -0.823153       -22.3991
  97   2.0000      -0.819831       -22.3087
  98   2.0000      -0.809619       -22.0308
  99   2.0000      -0.806783       -21.9537
 100   2.0000      -0.795197       -21.6384
 101   2.0000      -0.782587       -21.2953
 102   2.0000      -0.775243       -21.0954
 103   2.0000      -0.763854       -20.7855
 104   2.0000      -0.749704       -20.4005
 105   2.0000      -0.749437       -20.3932
 106   2.0000      -0.733086       -19.9483
 107   2.0000      -0.716863       -19.5068
 108   2.0000      -0.704949       -19.1826
 109   2.0000      -0.702480       -19.1154
 110   2.0000      -0.699488       -19.0340
 111   2.0000      -0.696703       -18.9582
 112   2.0000      -0.690602       -18.7922
 113   2.0000      -0.682692       -18.5770
 114   2.0000      -0.678109       -18.4523
 115   2.0000      -0.674900       -18.3650
 116   2.0000      -0.669184       -18.2094
 117   2.0000      -0.657256       -17.8849
 118   2.0000      -0.648166       -17.6375
 119   2.0000      -0.644744       -17.5444
 120   2.0000      -0.642324       -17.4785
 121   2.0000      -0.639894       -17.4124
 122   2.0000      -0.627479       -17.0746
 123   2.0000      -0.618900       -16.8411
 124   2.0000      -0.616845       -16.7852
 125   2.0000      -0.610945       -16.6247
 126   2.0000      -0.604276       -16.4432
 127   2.0000      -0.595565       -16.2061
 128   2.0000      -0.592076       -16.1112
 129   2.0000      -0.582841       -15.8599
 130   2.0000      -0.575555       -15.6617
 131   2.0000      -0.573863       -15.6156
 132   2.0000      -0.569552       -15.4983
 133   2.0000      -0.565041       -15.3756
 134   2.0000      -0.561842       -15.2885
 135   2.0000      -0.559880       -15.2351
 136   2.0000      -0.558012       -15.1843
 137   2.0000      -0.553497       -15.0614
 138   2.0000      -0.547816       -14.9068
 139   2.0000      -0.543992       -14.8028
 140   2.0000      -0.539075       -14.6690
 141   2.0000      -0.534322       -14.5396
 142   2.0000      -0.527113       -14.3435
 143   2.0000      -0.524314       -14.2673
 144   2.0000      -0.522217       -14.2103
 145   2.0000      -0.520961       -14.1761
 146   2.0000      -0.518153       -14.0997
 147   2.0000      -0.515171       -14.0185
 148   2.0000      -0.514186       -13.9917
 149   2.0000      -0.512750       -13.9526
 150   2.0000      -0.512204       -13.9378
 151   2.0000      -0.509784       -13.8719
 152   2.0000      -0.504169       -13.7191
 153   2.0000      -0.501600       -13.6492
 154   2.0000      -0.500985       -13.6325
 155   2.0000      -0.499845       -13.6015
 156   2.0000      -0.496864       -13.5203
 157   2.0000      -0.492867       -13.4116
 158   2.0000      -0.489596       -13.3226
 159   2.0000      -0.484082       -13.1725
 160   2.0000      -0.477164       -12.9843
 161   2.0000      -0.474624       -12.9152
 162   2.0000      -0.470256       -12.7963
 163   2.0000      -0.469072       -12.7641
 164   2.0000      -0.463247       -12.6056
 165   2.0000      -0.461361       -12.5543
 166   2.0000      -0.455817       -12.4034
 167   2.0000      -0.453874       -12.3505
 168   2.0000      -0.453038       -12.3278
 169   2.0000      -0.452897       -12.3240
 170   2.0000      -0.450713       -12.2645
 171   2.0000      -0.449901       -12.2424
 172   2.0000      -0.448144       -12.1946
 173   2.0000      -0.446095       -12.1389
 174   2.0000      -0.445563       -12.1244
 175   2.0000      -0.442588       -12.0434
 176   2.0000      -0.441517       -12.0143
 177   2.0000      -0.438747       -11.9389
 178   2.0000      -0.435564       -11.8523
 179   2.0000      -0.429517       -11.6877
 180   2.0000      -0.429308       -11.6821
 181   2.0000      -0.425186       -11.5699
 182   2.0000      -0.424390       -11.5482
 183   2.0000      -0.416400       -11.3308
 184   2.0000      -0.415877       -11.3166
 185   2.0000      -0.413196       -11.2436
 186   2.0000      -0.411265       -11.1911
 187   2.0000      -0.406589       -11.0638
 188   2.0000      -0.404215       -10.9993
 189   2.0000      -0.397887       -10.8271
 190   2.0000      -0.377954       -10.2847
 191   2.0000      -0.370677       -10.0866
 192   2.0000      -0.368421       -10.0252
 193   2.0000      -0.355291        -9.6680
 194   2.0000      -0.348981        -9.4963
 195   2.0000      -0.342977        -9.3329
 196   2.0000      -0.342675        -9.3247
 197   2.0000      -0.336692        -9.1619
 198   2.0000      -0.333445        -9.0735
 199   2.0000      -0.328269        -8.9326
 200   2.0000      -0.323766        -8.8101
 201   2.0000      -0.319802        -8.7023
 202   2.0000      -0.316789        -8.6203
 203   2.0000      -0.309333        -8.4174
 204   2.0000      -0.307620        -8.3708
 205   2.0000      -0.301911        -8.2154
 206   2.0000      -0.300752        -8.1839
 207   2.0000      -0.267313        -7.2740
 208   2.0000      -0.253673        -6.9028
 209   2.0000      -0.227491        -6.1903
 210   0.0000      -0.102006        -2.7757
 211   0.0000      -0.072895        -1.9836
 212   0.0000      -0.059274        -1.6129
 213   0.0000      -0.051301        -1.3960
 214   0.0000      -0.019285        -0.5248

MULLIKEN ATOMIC CHARGES
-----------------------
   0 C :    0.300530
   1 C :   -0.326614
   2 C :   -0.193854
   3 N :    0.171379
   4 C :   -0.191113
   5 N :    0.148524
   6 C :    0.037270
   7 C :   -0.017656
   8 C :   -0.019058
   9 C :    0.006519
  10 C :   -0.036259
  11 C :   -0.066527
  12 C :    0.084278
  13 C :    0.135212
  14 O :   -0.137969
  15 C :   -0.122842
  16 C :   -0.081468
  17 C :    0.037224
  18 C :    0.018379
  19 C :   -0.096251
  20 C :    0.159807
  21 C :   -0.023971
  22 N :   -0.258984
  23 C :    0.110743
  24 C :    0.006632
  25 C :    0.176148
  26 O :   -0.249140
  27 C :   -0.094793
  28 C :    0.030417
  29 C :    0.129066
  30 O :   -0.160996
  31 N :   -0.261490
  32 C :    0.094212
  33 C :   -0.004529
  34 C :    0.175645
  35 C :   -0.033012
  36 C :   -0.076486
  37 C :    0.151301
  38 C :    0.185215
  39 O :   -0.235789
  40 C :    0.218703
  41 C :    0.232645
  42 C :   -0.174962
  43 S :    0.109755
  44 C :   -0.170311
  45 O :   -0.251576
  46 C :   -0.275311
  47 S :    0.208354
  48 C :   -0.168433
  49 C :    0.073602
  50 C :    0.197334
  51 C :    0.036305
  52 N :    0.257091
  53 O :   -0.252823
  54 O :   -0.271112
  55 C :    0.018203
  56 C :   -0.064576
  57 C :    0.094096
  58 N :   -0.025794
  59 H :   -0.002647
  60 H :   -0.014576
  61 H :   -0.009696
  62 H :    0.026849
  63 H :    0.029783
  64 H :    0.043410
  65 H :    0.054011
  66 H :    0.031451
  67 H :    0.020083
  68 H :    0.023778
  69 H :    0.023366
  70 H :    0.019480
  71 H :    0.039020
  72 H :    0.023304
  73 H :    0.025835
  74 H :    0.017440
  75 H :    0.039373
  76 H :   -0.014665
  77 H :    0.077745
  78 H :    0.024507
  79 H :    0.025166
  80 H :    0.019960
  81 H :    0.008342
  82 H :   -0.038739
  83 H :    0.126942
  84 H :    0.119591
Sum of atomic charges:   -0.0000000

LOEWDIN ATOMIC CHARGES
----------------------
   0 C :    0.069958
   1 C :   -0.126349
   2 C :   -0.010902
   3 N :   -0.049888
   4 C :   -0.016561
   5 N :   -0.051535
   6 C :   -0.006794
   7 C :   -0.054064
   8 C :    0.018606
   9 C :   -0.008258
  10 C :    0.003154
  11 C :   -0.009732
  12 C :   -0.042964
  13 C :    0.081670
  14 O :   -0.137985
  15 C :   -0.068472
  16 C :    0.044593
  17 C :   -0.017346
  18 C :    0.010005
  19 C :   -0.034721
  20 C :    0.022772
  21 C :    0.015051
  22 N :    0.011987
  23 C :    0.036610
  24 C :   -0.059122
  25 C :    0.072599
  26 O :   -0.234438
  27 C :   -0.140541
  28 C :   -0.074082
  29 C :    0.088658
  30 O :   -0.166705
  31 N :    0.001110
  32 C :    0.036472
  33 C :   -0.063486
  34 C :    0.111261
  35 C :   -0.055872
  36 C :    0.032488
  37 C :    0.000826
  38 C :    0.033436
  39 O :   -0.043080
  40 C :   -0.006141
  41 C :    0.000000
  42 C :   -0.209612
  43 S :    0.437494
  44 C :   -0.205951
  45 O :   -0.053739
  46 C :   -0.204662
  47 S :    0.523386
  48 C :   -0.177148
  49 C :   -0.060510
  50 C :   -0.018620
  51 C :   -0.091485
  52 N :    0.290952
  53 O :   -0.216440
  54 O :   -0.243103
  55 C :    0.046843
  56 C :   -0.102685
  57 C :    0.084362
  58 N :    0.021694
  59 H :    0.040496
  60 H :    0.031746
  61 H :    0.036334
  62 H :    0.035840
  63 H :    0.036876
  64 H :    0.044308
  65 H :    0.063658
  66 H :    0.028808
  67 H :    0.026046
  68 H :    0.025806
  69 H :    0.030905
  70 H :    0.027168
  71 H :    0.035527
  72 H :    0.023569
  73 H :    0.030974
  74 H :    0.028036
  75 H :    0.027380
  76 H :    0.033194
  77 H :    0.045360
  78 H :    0.029281
  79 H :    0.029801
  80 H :    0.021357
  81 H :    0.044148
  82 H :    0.027142
  83 H :    0.084832
  84 H :    0.078409

  Mayer bond orders larger than 0.100000
B(  0-C ,  1-C ) :   1.6382 B(  0-C ,  6-C ) :   1.0029 B(  0-C , 15-C ) :   1.0372
B(  1-C ,  2-C ) :   1.1748 B(  1-C ,  4-C ) :   1.1313 B(  2-C ,  3-N ) :   2.9596
B(  4-C ,  5-N ) :   2.9762 B(  6-C ,  7-C ) :   1.3277 B(  6-C , 11-C ) :   1.3719
B(  7-C ,  8-C ) :   1.3775 B(  7-C , 13-C ) :   0.9330 B(  8-C ,  9-C ) :   1.3567
B(  8-C , 59-H ) :   1.0070 B(  9-C , 10-C ) :   1.3797 B(  9-C , 60-H ) :   0.9935
B( 10-C , 11-C ) :   1.3578 B( 10-C , 12-C ) :   1.0522 B( 11-C , 61-H ) :   0.9842
B( 12-C , 62-H ) :   0.9578 B( 12-C , 63-H ) :   0.9593 B( 12-C , 64-H ) :   0.9516
B( 13-C , 14-O ) :   2.2676 B( 13-C , 15-C ) :   0.9354 B( 15-C , 16-C ) :   1.6771
B( 16-C , 17-C ) :   0.9586 B( 16-C , 65-H ) :   0.9497 B( 17-C , 18-C ) :   2.0313
B( 17-C , 20-C ) :   0.1716 B( 18-C , 19-C ) :   0.9195 B( 19-C , 20-C ) :   2.0068
B( 20-C , 21-C ) :   0.8216 B( 21-C , 22-N ) :   1.1787 B( 21-C , 28-C ) :   1.4125
B( 22-N , 23-C ) :   0.9444 B( 22-N , 25-C ) :   1.0859 B( 23-C , 24-C ) :   1.1238
B( 23-C , 66-H ) :   0.9441 B( 23-C , 67-H ) :   0.9317 B( 24-C , 68-H ) :   0.9687
B( 24-C , 69-H ) :   0.9662 B( 24-C , 70-H ) :   0.9641 B( 25-C , 26-O ) :   1.9485
B( 25-C , 27-C ) :   1.0184 B( 26-O , 77-H ) :   0.1290 B( 27-C , 28-C ) :   1.2571
B( 27-C , 34-C ) :   1.2693 B( 28-C , 29-C ) :   0.9179 B( 29-C , 30-O ) :   2.2013
B( 29-C , 31-N ) :   1.0281 B( 31-N , 32-C ) :   0.9438 B( 31-N , 34-C ) :   1.1854
B( 32-C , 33-C ) :   1.1202 B( 32-C , 71-H ) :   0.9301 B( 32-C , 72-H ) :   0.9493
B( 33-C , 73-H ) :   0.9624 B( 33-C , 74-H ) :   0.9658 B( 33-C , 75-H ) :   0.9601
B( 34-C , 35-C ) :   1.1633 B( 35-C , 36-C ) :   1.5588 B( 35-C , 76-H ) :   0.9808
B( 36-C , 37-C ) :   1.2040 B( 36-C , 77-H ) :   0.9109 B( 37-C , 38-C ) :   1.4984
B( 37-C , 45-O ) :   1.0629 B( 38-C , 39-O ) :   1.1113 B( 38-C , 46-C ) :   1.0837
B( 39-O , 40-C ) :   1.0395 B( 40-C , 41-C ) :   1.2005 B( 40-C , 44-C ) :   1.5759
B( 41-C , 42-C ) :   1.5756 B( 41-C , 45-O ) :   1.0581 B( 42-C , 43-S ) :   1.1377
B( 42-C , 78-H ) :   0.9718 B( 43-S , 44-C ) :   1.1465 B( 44-C , 79-H ) :   0.9713
B( 46-C , 47-S ) :   1.1484 B( 46-C , 48-C ) :   0.1118 B( 46-C , 50-C ) :   1.4493
B( 47-S , 48-C ) :   1.2454 B( 48-C , 49-C ) :   1.4142 B( 48-C , 80-H ) :   0.9704
B( 49-C , 50-C ) :   1.2305 B( 49-C , 57-C ) :   1.1155 B( 50-C , 51-C ) :   1.1282
B( 51-C , 52-N ) :   0.9497 B( 51-C , 55-C ) :   1.4581 B( 52-N , 53-O ) :   1.5026
B( 52-N , 54-O ) :   1.4899 B( 53-O , 54-O ) :   0.2254 B( 55-C , 56-C ) :   1.2499
B( 55-C , 81-H ) :   0.9751 B( 56-C , 57-C ) :   1.3750 B( 56-C , 82-H ) :   0.9972
B( 57-C , 58-N ) :   1.3554 B( 58-N , 83-H ) :   0.9387 B( 58-N , 84-H ) :   0.9434

-----------------------------------------------------------------------------
         ABSORPTION SPECTRUM VIA TRANSITION ELECTRIC DIPOLE MOMENTS
-----------------------------------------------------------------------------
State   Energy  Wavelength   fosc         T2         TX        TY        TZ
        (cm-1)    (nm)                  (au**2)     (au)      (au)      (au)
-----------------------------------------------------------------------------
   0   12309.0    812.4   0.662541860  17.72004   1.23142   3.97944   0.60635
   1   17222.4    580.6   0.120746376   2.30811  -0.32089   1.15116  -0.93807
   2   19008.7    526.1   0.004147706   0.07183   0.25845   0.01826  -0.06857
   3   20109.3    497.3   0.069542456   1.13849   0.09234   1.04056  -0.21724
   4   22040.4    453.7   0.087790792   1.31131  -0.36851  -0.46354  -0.98012
   5   23760.7    420.9   0.029681368   0.41124   0.22897  -0.32057  -0.50602
   6   24488.0    408.4   0.119198915   1.60249   0.03296   1.22583  -0.31423
   7   24809.1    403.1   0.039267550   0.52107  -0.60311  -0.34963  -0.18732
   8   25562.4    391.2   0.077033533   0.99210  -0.06190   0.47613  -0.87268
   9   26123.7    382.8   0.036945078   0.46558   0.04641  -0.65476   0.18634
  10   27096.3    369.1   0.054132773   0.65770  -0.19061  -0.62750   0.47709
  11   27457.5    364.2   0.015330533   0.18381   0.26231  -0.02871  -0.33790
  12   27920.4    358.2   0.253807909   2.99267  -0.18636   1.56119  -0.72155
  13   28243.4    354.1   0.076673691   0.89373   0.18079  -0.92019   0.11955
  14   28915.5    345.8   0.060091762   0.68416  -0.25096   0.39584  -0.68154
  15   29212.6    342.3   0.145371115   1.63826  -0.64594  -1.10480  -0.02110
  16   30286.2    330.2   0.013146695   0.14291  -0.29294  -0.23768  -0.02441
  17   30831.5    324.3   0.101514531   1.08395   0.44701   0.38954   0.85580
  18   31242.4    320.1   0.033351730   0.35144   0.32346   0.49434  -0.04937
  19   31620.2    316.3   0.026707887   0.27807  -0.47488   0.03481  -0.22660
  20   31677.5    315.7   0.098905402   1.02789   0.10467   0.84759   0.54637
  21   32061.7    311.9   0.003236259   0.03323  -0.07022  -0.16393   0.03774
  22   32202.3    310.5   0.111775704   1.14271  -0.40396   0.55581  -0.81890
  23   32538.1    307.3   0.007726976   0.07818   0.11931   0.17190   0.18546
  24   32779.0    305.1   0.111787730   1.12273   0.17898   0.69979   0.77523
  25   33488.6    298.6   0.006192254   0.06087   0.17312   0.13784   0.10910
  26   34018.3    294.0   0.005487762   0.05311   0.15500  -0.05614   0.16103
  27   34184.2    292.5   0.055140384   0.53103   0.21061   0.56538   0.40867
  28   34301.3    291.5   0.016906276   0.16226   0.16188   0.36797   0.02560
  29   34555.0    289.4   0.031761230   0.30260  -0.13864  -0.45175  -0.28159
  30   35523.5    281.5   0.020208152   0.18728  -0.17494   0.31514  -0.23950
  31   35728.6    279.9   0.091740566   0.84532   0.30495   0.85486  -0.14678
  32   35963.3    278.1   0.218076857   1.99630   0.50372   1.29470  -0.25752
  33   36428.5    274.5   0.057818568   0.52252   0.05780  -0.31940  -0.64588
  34   36670.5    272.7   0.008352757   0.07499   0.08348  -0.25169  -0.06835
  35   37025.1    270.1   0.741772945   6.59554   0.97343   2.03920   1.22051
  36   37297.2    268.1   0.016104772   0.14215   0.10933   0.24056  -0.26894
  37   37547.2    266.3   0.002789413   0.02446  -0.01754  -0.14283  -0.06123
  38   37685.1    265.4   0.060237480   0.52623  -0.26604  -0.59706   0.31460
  39   37896.9    263.9   0.002605147   0.02263  -0.07898   0.08003  -0.09995
  40   37982.9    263.3   0.020147749   0.17463  -0.01080   0.39015  -0.14931
  41   38123.4    262.3   0.028259020   0.24403   0.06393  -0.45787   0.17406
  42   38798.0    257.7   0.062513919   0.53045  -0.27549   0.65397   0.16394
  43   38888.7    257.1   0.016008366   0.13552  -0.16694   0.12831  -0.30198
  44   39114.6    255.7   0.171552273   1.44389   0.05133  -1.06353  -0.55692
  45   39242.6    254.8   0.002452741   0.02058   0.06220   0.11840   0.05184
  46   39389.9    253.9   0.071031109   0.59366   0.23305  -0.64007   0.36007
  47   39508.2    253.1   0.079862058   0.66547   0.05619   0.37247   0.72359
  48   39714.9    251.8   0.005768430   0.04782   0.20574   0.02405  -0.07008
  49   39980.9    250.1   0.002122547   0.01748   0.07470  -0.08070  -0.07338
  50   40070.4    249.6   0.043049763   0.35369  -0.33121  -0.24195   0.43064

FINAL SINGLE POINT ENERGY     -3340.127483524801

DIPOLE MOMENT
-------------
                                X             Y             Z
Electronic contribution:    -13.80844     -27.16276      -5.04730
Nuclear contribution   :     14.40007      28.37215       2.82946
                        -----------------------------------------
Total Dipole Moment    :      0.59162       1.20939      -2.21784
                        -----------------------------------------
Magnitude (a.u.)       :      2.59450
Magnitude (Debye)      :      6.59470

Rotational constants in cm-1:     0.003263     0.000491     0.000466
Rotational constants in MHz :    97.815246    14.724464    13.957274

                             ****ORCA TERMINATED NORMALLY****
TOTAL RUN TIME: 0 days 0 hours 8 minutes 31 seconds 301 msec
