                         Program Version 4.2.0 -  RELEASE  -
|  1> # ORCA input file
|  2> # SCF done       -191.585426429105          0.000515650912
|  3> ! CAM-B3LYP def2-SVP def2/J RIJCOSX Grid4 TightSCF
|  4> %maxcore 5000
|  5> %tddft
|  6>     Mode sTDDFT
|  7>     Ethresh 5.0
|  8>     maxcore 5000
|  9> end
| 10>
| 11> %pal
| 12>   nprocs 6
| 13>   end
| 14> * xyz 0 1
| 15>    C       -6.19889         0.30581         0.86862
| 16>    C       -5.58422        -0.60657         1.68045
| 17>    C       -4.49918        -1.41381         1.27775
| 18>    N       -3.59334        -2.06750         1.01582
| 19>    C       -5.91667        -0.79580         3.03884
| 20>    N       -6.16361        -1.00031         4.14050
| 21>    C       -7.15719         1.31813         1.30398
| 22>    C       -7.18018         2.36081         0.35787
| 23>    C       -7.97679         3.47522         0.54701
| 24>    C       -8.76078         3.53791         1.68688
| 25>    C       -8.76383         2.50667         2.62655
| 26>    C       -7.95417         1.38897         2.43338
| 27>    C       -9.64980         2.58921         3.82763
| 28>    C       -6.28662         2.03296        -0.76388
| 29>    O       -6.00016         2.70774        -1.72308
| 30>    C       -5.83629         0.62641        -0.50201
| 31>    C       -5.31016        -0.09443        -1.51469
| 32>    C       -5.11412        -1.52033        -1.62068
| 33>    C       -4.10298        -2.01127        -2.44432
| 34>    C       -3.89648        -3.37308        -2.57123
| 35>    N       -2.76349        -3.80790        -3.34958
| 36>    O       -2.30249        -3.02020        -4.14736
| 37>    O       -2.32638        -4.91954        -3.14389
| 38>    C       -4.71687        -4.30950        -1.91986
| 39>    C       -5.74349        -3.79993        -1.11482
| 40>    C       -5.93794        -2.44747        -0.96514
| 41>    C       -4.58156        -5.73302        -2.12610
| 42>    C       -4.67939        -6.64334        -1.13647
| 43>    C       -4.57497        -8.04188        -1.39009
| 44>    N       -4.44870        -8.99641        -0.41014
| 45>    C       -4.44046        -8.77739         1.01576
| 46>    C       -5.85447        -8.63036         1.57319
| 47>    C       -4.34385       -10.29312        -0.94672
| 48>    O       -4.18166       -11.28521        -0.26317
| 49>    C       -4.44402       -10.09692        -2.37560
| 50>    C       -4.56856        -8.70044        -2.61279
| 51>    C       -4.64122        -8.49585        -4.04002
| 52>    O       -4.76530        -7.49362        -4.71753
| 53>    N       -4.53345        -9.78882        -4.58140
| 54>    C       -4.62199       -10.01063        -6.00322
| 55>    C       -6.00789       -10.50010        -6.41709
| 56>    C       -4.43176       -10.75099        -3.60258
| 57>    C       -4.32174       -12.14502        -3.87031
| 58>    C       -4.37906       -13.05486        -2.87425
| 59>    C       -4.22545       -14.47482        -3.01515
| 60>    C       -3.75117       -15.14821        -4.11207
| 61>    S       -3.59512       -16.83304        -3.84756
| 62>    C       -4.15295       -16.67406        -2.23682
| 63>    C       -4.46410       -15.38396        -1.92580
| 64>    C       -5.03150       -14.96596        -0.63618
| 65>    O       -5.85911       -14.11412        -0.46966
| 66>    O       -4.49648       -15.70279         0.38448
| 67>    C       -4.78744       -15.33642         1.65131
| 68>    C       -4.28440       -16.01057         2.70015
| 69>    C       -4.53978       -15.58609         4.03206
| 70>    C       -4.04568       -16.19107         5.14599
| 71>    C       -4.23842       -15.77382         6.52642
| 72>    C       -4.98420       -14.71677         6.97329
| 73>    C       -5.71533       -13.81876         6.16589
| 74>    N       -6.33648       -13.04128         5.59294
| 75>    C       -5.13456       -14.36891         8.33337
| 76>    N       -5.30367       -14.02884         9.41659
| 77>    C       -3.48373       -16.69448         7.37333
| 78>    C       -2.86362       -17.65985         6.56142
| 79>    C       -3.18262       -17.40542         5.14721
| 80>    O       -2.81450       -18.05739         4.19331
| 81>    C       -2.08127       -18.66084         7.10723
| 82>    C       -1.91619       -18.69171         8.48118
| 83>    C       -2.51890       -17.74049         9.30491
| 84>    C       -3.30769       -16.73723         8.74732
| 85>    C       -2.30223       -17.79371        10.78371
| 86>    H       -7.97663         4.27055        -0.18215
| 87>    H       -9.38744         4.40119         1.85620
| 88>    H       -7.96655         0.59063         3.15873
| 89>    H       -9.71741         3.61221         4.19011
| 90>    H       -9.28347         1.95023         4.62672
| 91>    H      -10.65628         2.26124         3.56522
| 92>    H       -5.05037         0.48154        -2.39807
| 93>    H       -3.43917        -1.33503        -2.96292
| 94>    H       -6.41084        -4.49496        -0.62883
| 95>    H       -6.76366        -2.09288        -0.36585
| 96>    H       -4.39475        -6.07195        -3.13772
| 97>    H       -4.78111        -6.31908        -0.11012
| 98>    H       -3.83344        -7.89808         1.24724
| 99>    H       -3.96691        -9.65948         1.45591
|100>    H       -6.36874        -7.78685         1.11731
|101>    H       -5.81314        -8.47698         2.64792
|102>    H       -6.42605        -9.53326         1.37321
|103>    H       -3.84958       -10.72038        -6.31321
|104>    H       -4.41847        -9.04356        -6.47179
|105>    H       -6.25326       -11.43779        -5.92287
|106>    H       -6.04104       -10.64979        -7.49278
|107>    H       -6.75707        -9.76044        -6.14574
|108>    H       -4.19775       -12.45398        -4.89815
|109>    H       -4.55023       -12.70581        -1.86613
|110>    H       -3.45969       -14.74104        -5.05919
|111>    H       -4.24954       -17.53976        -1.61237
|112>    H       -5.42342       -14.46194         1.75300
|113>    H       -3.66162       -16.87743         2.53925
|114>    H       -5.15894       -14.70490         4.13905
|115>    H       -1.61605       -19.39286         6.46513
|116>    H       -1.30884       -19.46357         8.93102
|117>    H       -3.76808       -16.00777         9.39376
|118>    H       -2.45888       -18.80357        11.15806
|119>    H       -2.97387       -17.11506        11.30216
|120>    H       -1.27654       -17.50912        11.01858
|121> *
|122>
|123>                          ****END OF INPUT****

CARTESIAN COORDINATES (ANGSTROEM)
---------------------------------
  C     -6.198890    0.305810    0.868620
  C     -5.584220   -0.606570    1.680450
  C     -4.499180   -1.413810    1.277750
  N     -3.593340   -2.067500    1.015820
  C     -5.916670   -0.795800    3.038840
  N     -6.163610   -1.000310    4.140500
  C     -7.157190    1.318130    1.303980
  C     -7.180180    2.360810    0.357870
  C     -7.976790    3.475220    0.547010
  C     -8.760780    3.537910    1.686880
  C     -8.763830    2.506670    2.626550
  C     -7.954170    1.388970    2.433380
  C     -9.649800    2.589210    3.827630
  C     -6.286620    2.032960   -0.763880
  O     -6.000160    2.707740   -1.723080
  C     -5.836290    0.626410   -0.502010
  C     -5.310160   -0.094430   -1.514690
  C     -5.114120   -1.520330   -1.620680
  C     -4.102980   -2.011270   -2.444320
  C     -3.896480   -3.373080   -2.571230
  N     -2.763490   -3.807900   -3.349580
  O     -2.302490   -3.020200   -4.147360
  O     -2.326380   -4.919540   -3.143890
  C     -4.716870   -4.309500   -1.919860
  C     -5.743490   -3.799930   -1.114820
  C     -5.937940   -2.447470   -0.965140
  C     -4.581560   -5.733020   -2.126100
  C     -4.679390   -6.643340   -1.136470
  C     -4.574970   -8.041880   -1.390090
  N     -4.448700   -8.996410   -0.410140
  C     -4.440460   -8.777390    1.015760
  C     -5.854470   -8.630360    1.573190
  C     -4.343850  -10.293120   -0.946720
  O     -4.181660  -11.285210   -0.263170
  C     -4.444020  -10.096920   -2.375600
  C     -4.568560   -8.700440   -2.612790
  C     -4.641220   -8.495850   -4.040020
  O     -4.765300   -7.493620   -4.717530
  N     -4.533450   -9.788820   -4.581400
  C     -4.621990  -10.010630   -6.003220
  C     -6.007890  -10.500100   -6.417090
  C     -4.431760  -10.750990   -3.602580
  C     -4.321740  -12.145020   -3.870310
  C     -4.379060  -13.054860   -2.874250
  C     -4.225450  -14.474820   -3.015150
  C     -3.751170  -15.148210   -4.112070
  S     -3.595120  -16.833040   -3.847560
  C     -4.152950  -16.674060   -2.236820
  C     -4.464100  -15.383960   -1.925800
  C     -5.031500  -14.965960   -0.636180
  O     -5.859110  -14.114120   -0.469660
  O     -4.496480  -15.702790    0.384480
  C     -4.787440  -15.336420    1.651310
  C     -4.284400  -16.010570    2.700150
  C     -4.539780  -15.586090    4.032060
  C     -4.045680  -16.191070    5.145990
  C     -4.238420  -15.773820    6.526420
  C     -4.984200  -14.716770    6.973290
  C     -5.715330  -13.818760    6.165890
  N     -6.336480  -13.041280    5.592940
  C     -5.134560  -14.368910    8.333370
  N     -5.303670  -14.028840    9.416590
  C     -3.483730  -16.694480    7.373330
  C     -2.863620  -17.659850    6.561420
  C     -3.182620  -17.405420    5.147210
  O     -2.814500  -18.057390    4.193310
  C     -2.081270  -18.660840    7.107230
  C     -1.916190  -18.691710    8.481180
  C     -2.518900  -17.740490    9.304910
  C     -3.307690  -16.737230    8.747320
  C     -2.302230  -17.793710   10.783710
  H     -7.976630    4.270550   -0.182150
  H     -9.387440    4.401190    1.856200
  H     -7.966550    0.590630    3.158730
  H     -9.717410    3.612210    4.190110
  H     -9.283470    1.950230    4.626720
  H    -10.656280    2.261240    3.565220
  H     -5.050370    0.481540   -2.398070
  H     -3.439170   -1.335030   -2.962920
  H     -6.410840   -4.494960   -0.628830
  H     -6.763660   -2.092880   -0.365850
  H     -4.394750   -6.071950   -3.137720
  H     -4.781110   -6.319080   -0.110120
  H     -3.833440   -7.898080    1.247240
  H     -3.966910   -9.659480    1.455910
  H     -6.368740   -7.786850    1.117310
  H     -5.813140   -8.476980    2.647920
  H     -6.426050   -9.533260    1.373210
  H     -3.849580  -10.720380   -6.313210
  H     -4.418470   -9.043560   -6.471790
  H     -6.253260  -11.437790   -5.922870
  H     -6.041040  -10.649790   -7.492780
  H     -6.757070   -9.760440   -6.145740
  H     -4.197750  -12.453980   -4.898150
  H     -4.550230  -12.705810   -1.866130
  H     -3.459690  -14.741040   -5.059190
  H     -4.249540  -17.539760   -1.612370
  H     -5.423420  -14.461940    1.753000
  H     -3.661620  -16.877430    2.539250
  H     -5.158940  -14.704900    4.139050
  H     -1.616050  -19.392860    6.465130
  H     -1.308840  -19.463570    8.931020
  H     -3.768080  -16.007770    9.393760
  H     -2.458880  -18.803570   11.158060
  H     -2.973870  -17.115060   11.302160
  H     -1.276540  -17.509120   11.018580

 Total Charge           Charge          ....    0
 Multiplicity           Mult            ....    1
 Number of Electrons    NEL             ....  494
 Basis Dimension        Dim             .... 1173

ORBITAL ENERGIES
----------------

  NO   OCC          E(Eh)            E(eV)
   0   2.0000     -88.977362     -2421.1971
   1   2.0000     -19.295873      -525.0674
   2   2.0000     -19.241407      -523.5853
   3   2.0000     -19.238865      -523.5161
   4   2.0000     -19.227265      -523.2005
   5   2.0000     -19.221670      -523.0482
   6   2.0000     -19.212028      -522.7859
   7   2.0000     -19.183243      -522.0026
   8   2.0000     -19.181502      -521.9552
   9   2.0000     -14.645857      -398.5340
  10   2.0000     -14.446444      -393.1077
  11   2.0000     -14.444821      -393.0636
  12   2.0000     -14.423526      -392.4841
  13   2.0000     -14.422133      -392.4462
  14   2.0000     -14.413591      -392.2137
  15   2.0000     -14.410855      -392.1393
  16   2.0000     -10.423437      -283.6361
  17   2.0000     -10.372498      -282.2500
  18   2.0000     -10.365919      -282.0710
  19   2.0000     -10.364797      -282.0405
  20   2.0000     -10.362561      -281.9796
  21   2.0000     -10.357431      -281.8400
  22   2.0000     -10.353702      -281.7386
  23   2.0000     -10.350380      -281.6482
  24   2.0000     -10.338912      -281.3361
  25   2.0000     -10.337158      -281.2884
  26   2.0000     -10.333404      -281.1862
  27   2.0000     -10.331591      -281.1369
  28   2.0000     -10.329807      -281.0883
  29   2.0000     -10.325598      -280.9738
  30   2.0000     -10.323174      -280.9078
  31   2.0000     -10.321533      -280.8632
  32   2.0000     -10.316829      -280.7352
  33   2.0000     -10.316262      -280.7198
  34   2.0000     -10.315072      -280.6874
  35   2.0000     -10.314075      -280.6602
  36   2.0000     -10.313363      -280.6409
  37   2.0000     -10.313117      -280.6342
  38   2.0000     -10.309721      -280.5418
  39   2.0000     -10.308030      -280.4958
  40   2.0000     -10.307271      -280.4751
  41   2.0000     -10.306536      -280.4551
  42   2.0000     -10.304843      -280.4090
  43   2.0000     -10.304221      -280.3921
  44   2.0000     -10.303723      -280.3786
  45   2.0000     -10.300908      -280.3020
  46   2.0000     -10.300820      -280.2996
  47   2.0000     -10.299971      -280.2765
  48   2.0000     -10.299382      -280.2604
  49   2.0000     -10.298120      -280.2261
  50   2.0000     -10.297447      -280.2078
  51   2.0000     -10.296801      -280.1902
  52   2.0000     -10.296394      -280.1791
  53   2.0000     -10.296390      -280.1790
  54   2.0000     -10.296243      -280.1750
  55   2.0000     -10.291221      -280.0384
  56   2.0000     -10.290495      -280.0186
  57   2.0000     -10.287860      -279.9469
  58   2.0000     -10.287204      -279.9291
  59   2.0000     -10.286401      -279.9072
  60   2.0000     -10.286017      -279.8968
  61   2.0000     -10.285669      -279.8873
  62   2.0000     -10.284695      -279.8608
  63   2.0000     -10.284297      -279.8499
  64   2.0000     -10.279917      -279.7308
  65   2.0000     -10.279131      -279.7094
  66   2.0000     -10.272075      -279.5174
  67   2.0000     -10.260728      -279.2086
  68   2.0000     -10.255942      -279.0784
  69   2.0000     -10.251235      -278.9503
  70   2.0000     -10.250909      -278.9414
  71   2.0000      -8.073587      -219.6935
  72   2.0000      -6.042706      -164.4304
  73   2.0000      -6.038208      -164.3080
  74   2.0000      -6.036300      -164.2561
  75   2.0000      -1.321771       -35.9672
  76   2.0000      -1.224377       -33.3170
  77   2.0000      -1.140692       -31.0398
  78   2.0000      -1.137367       -30.9493
  79   2.0000      -1.128809       -30.7165
  80   2.0000      -1.126547       -30.6549
  81   2.0000      -1.125322       -30.6216
  82   2.0000      -1.118501       -30.4360
  83   2.0000      -1.055692       -28.7268
  84   2.0000      -1.047625       -28.5073
  85   2.0000      -1.026280       -27.9265
  86   2.0000      -1.014522       -27.6066
  87   2.0000      -1.003393       -27.3037
  88   2.0000      -1.002529       -27.2802
  89   2.0000      -1.002041       -27.2669
  90   2.0000      -0.994237       -27.0546
  91   2.0000      -0.992812       -27.0158
  92   2.0000      -0.990076       -26.9413
  93   2.0000      -0.959578       -26.1114
  94   2.0000      -0.949168       -25.8282
  95   2.0000      -0.928520       -25.2663
  96   2.0000      -0.921283       -25.0694
  97   2.0000      -0.918020       -24.9806
  98   2.0000      -0.910872       -24.7861
  99   2.0000      -0.907955       -24.7067
 100   2.0000      -0.903522       -24.5861
 101   2.0000      -0.898662       -24.4538
 102   2.0000      -0.885633       -24.0993
 103   2.0000      -0.877948       -23.8902
 104   2.0000      -0.871381       -23.7115
 105   2.0000      -0.866784       -23.5864
 106   2.0000      -0.860502       -23.4154
 107   2.0000      -0.854772       -23.2595
 108   2.0000      -0.849013       -23.1028
 109   2.0000      -0.838721       -22.8228
 110   2.0000      -0.819140       -22.2899
 111   2.0000      -0.813758       -22.1435
 112   2.0000      -0.808412       -21.9980
 113   2.0000      -0.803861       -21.8742
 114   2.0000      -0.787103       -21.4182
 115   2.0000      -0.780205       -21.2305
 116   2.0000      -0.776297       -21.1241
 117   2.0000      -0.764687       -20.8082
 118   2.0000      -0.754374       -20.5275
 119   2.0000      -0.752990       -20.4899
 120   2.0000      -0.745829       -20.2950
 121   2.0000      -0.731157       -19.8958
 122   2.0000      -0.725068       -19.7301
 123   2.0000      -0.715852       -19.4793
 124   2.0000      -0.706824       -19.2336
 125   2.0000      -0.703105       -19.1325
 126   2.0000      -0.696958       -18.9652
 127   2.0000      -0.693019       -18.8580
 128   2.0000      -0.686725       -18.6867
 129   2.0000      -0.683270       -18.5927
 130   2.0000      -0.682331       -18.5672
 131   2.0000      -0.673901       -18.3378
 132   2.0000      -0.665492       -18.1090
 133   2.0000      -0.662851       -18.0371
 134   2.0000      -0.658314       -17.9136
 135   2.0000      -0.656626       -17.8677
 136   2.0000      -0.647134       -17.6094
 137   2.0000      -0.642860       -17.4931
 138   2.0000      -0.636133       -17.3101
 139   2.0000      -0.632131       -17.2012
 140   2.0000      -0.626215       -17.0402
 141   2.0000      -0.623994       -16.9797
 142   2.0000      -0.614571       -16.7233
 143   2.0000      -0.606379       -16.5004
 144   2.0000      -0.606212       -16.4959
 145   2.0000      -0.602026       -16.3820
 146   2.0000      -0.593471       -16.1492
 147   2.0000      -0.587293       -15.9811
 148   2.0000      -0.582965       -15.8633
 149   2.0000      -0.580929       -15.8079
 150   2.0000      -0.579986       -15.7822
 151   2.0000      -0.576406       -15.6848
 152   2.0000      -0.572699       -15.5839
 153   2.0000      -0.569523       -15.4975
 154   2.0000      -0.568185       -15.4611
 155   2.0000      -0.563835       -15.3427
 156   2.0000      -0.558708       -15.2032
 157   2.0000      -0.557022       -15.1573
 158   2.0000      -0.549214       -14.9449
 159   2.0000      -0.548328       -14.9208
 160   2.0000      -0.542071       -14.7505
 161   2.0000      -0.541622       -14.7383
 162   2.0000      -0.541012       -14.7217
 163   2.0000      -0.535788       -14.5795
 164   2.0000      -0.534370       -14.5409
 165   2.0000      -0.533484       -14.5168
 166   2.0000      -0.533163       -14.5081
 167   2.0000      -0.526726       -14.3329
 168   2.0000      -0.525705       -14.3052
 169   2.0000      -0.525140       -14.2898
 170   2.0000      -0.518504       -14.1092
 171   2.0000      -0.516856       -14.0644
 172   2.0000      -0.516536       -14.0557
 173   2.0000      -0.514750       -14.0071
 174   2.0000      -0.513257       -13.9664
 175   2.0000      -0.508694       -13.8423
 176   2.0000      -0.508179       -13.8282
 177   2.0000      -0.507744       -13.8164
 178   2.0000      -0.505054       -13.7432
 179   2.0000      -0.500765       -13.6265
 180   2.0000      -0.495328       -13.4786
 181   2.0000      -0.493461       -13.4278
 182   2.0000      -0.492820       -13.4103
 183   2.0000      -0.491311       -13.3693
 184   2.0000      -0.491025       -13.3615
 185   2.0000      -0.489116       -13.3095
 186   2.0000      -0.484852       -13.1935
 187   2.0000      -0.479873       -13.0580
 188   2.0000      -0.479205       -13.0398
 189   2.0000      -0.477015       -12.9802
 190   2.0000      -0.471275       -12.8240
 191   2.0000      -0.470087       -12.7917
 192   2.0000      -0.469441       -12.7741
 193   2.0000      -0.460734       -12.5372
 194   2.0000      -0.458012       -12.4631
 195   2.0000      -0.456568       -12.4238
 196   2.0000      -0.455153       -12.3853
 197   2.0000      -0.454096       -12.3566
 198   2.0000      -0.454047       -12.3553
 199   2.0000      -0.453622       -12.3437
 200   2.0000      -0.453128       -12.3303
 201   2.0000      -0.449728       -12.2377
 202   2.0000      -0.449584       -12.2338
 203   2.0000      -0.447429       -12.1752
 204   2.0000      -0.446326       -12.1452
 205   2.0000      -0.446051       -12.1377
 206   2.0000      -0.445617       -12.1258
 207   2.0000      -0.444411       -12.0930
 208   2.0000      -0.441556       -12.0154
 209   2.0000      -0.441285       -12.0080
 210   2.0000      -0.438737       -11.9386
 211   2.0000      -0.435101       -11.8397
 212   2.0000      -0.433755       -11.8031
 213   2.0000      -0.432755       -11.7759
 214   2.0000      -0.429454       -11.6860
 215   2.0000      -0.426723       -11.6117
 216   2.0000      -0.424030       -11.5384
 217   2.0000      -0.423203       -11.5159
 218   2.0000      -0.419923       -11.4267
 219   2.0000      -0.418728       -11.3942
 220   2.0000      -0.416541       -11.3346
 221   2.0000      -0.415095       -11.2953
 222   2.0000      -0.411831       -11.2065
 223   2.0000      -0.403309       -10.9746
 224   2.0000      -0.391555       -10.6548
 225   2.0000      -0.382766       -10.4156
 226   2.0000      -0.379580       -10.3289
 227   2.0000      -0.378676       -10.3043
 228   2.0000      -0.377465       -10.2713
 229   2.0000      -0.371508       -10.1093
 230   2.0000      -0.367689       -10.0053
 231   2.0000      -0.350904        -9.5486
 232   2.0000      -0.345671        -9.4062
 233   2.0000      -0.343694        -9.3524
 234   2.0000      -0.339379        -9.2350
 235   2.0000      -0.337508        -9.1841
 236   2.0000      -0.335123        -9.1192
 237   2.0000      -0.332612        -9.0508
 238   2.0000      -0.330777        -9.0009
 239   2.0000      -0.324066        -8.8183
 240   2.0000      -0.321354        -8.7445
 241   2.0000      -0.313878        -8.5410
 242   2.0000      -0.308091        -8.3836
 243   2.0000      -0.305531        -8.3139
 244   2.0000      -0.304176        -8.2770
 245   2.0000      -0.289534        -7.8786
 246   2.0000      -0.231906        -6.3105
 247   0.0000      -0.094521        -2.5721
 248   0.0000      -0.081148        -2.2082
 249   0.0000      -0.071972        -1.9585
 250   0.0000      -0.058047        -1.5795
 251   0.0000      -0.053363        -1.4521

MULLIKEN ATOMIC CHARGES
-----------------------
   0 C :    0.250287
   1 C :   -0.324864
   2 C :   -0.200819
   3 N :    0.182333
   4 C :   -0.178331
   5 N :    0.162315
   6 C :    0.027565
   7 C :   -0.004023
   8 C :   -0.021441
   9 C :    0.009056
  10 C :   -0.038801
  11 C :   -0.063215
  12 C :    0.084049
  13 C :    0.136938
  14 O :   -0.134022
  15 C :   -0.111343
  16 C :    0.031877
  17 C :    0.062025
  18 C :   -0.049393
  19 C :    0.165954
  20 N :    0.244896
  21 O :   -0.232804
  22 O :   -0.217124
  23 C :    0.057512
  24 C :   -0.024949
  25 C :    0.042667
  26 C :    0.024239
  27 C :   -0.036900
  28 C :    0.122905
  29 N :   -0.255561
  30 C :    0.101311
  31 C :    0.003053
  32 C :    0.163925
  33 O :   -0.215716
  34 C :   -0.062804
  35 C :   -0.065169
  36 C :    0.165488
  37 O :   -0.212519
  38 N :   -0.256693
  39 C :    0.099901
  40 C :    0.001677
  41 C :    0.117760
  42 C :   -0.015141
  43 C :    0.007431
  44 C :    0.123829
  45 C :   -0.144504
  46 S :    0.151462
  47 C :   -0.091142
  48 C :    0.012428
  49 C :    0.206164
  50 O :   -0.167219
  51 O :   -0.230572
  52 C :    0.185621
  53 C :   -0.003451
  54 C :   -0.046400
  55 C :   -0.075510
  56 C :    0.331247
  57 C :   -0.351901
  58 C :   -0.193651
  59 N :    0.149623
  60 C :   -0.184783
  61 N :    0.148132
  62 C :    0.040214
  63 C :   -0.023824
  64 C :    0.144259
  65 O :   -0.153043
  66 C :   -0.018441
  67 C :    0.005485
  68 C :   -0.037428
  69 C :   -0.063084
  70 C :    0.086567
  71 H :    0.000557
  72 H :   -0.011877
  73 H :   -0.005729
  74 H :    0.028688
  75 H :    0.032420
  76 H :    0.043706
  77 H :    0.029885
  78 H :    0.009887
  79 H :   -0.008037
  80 H :    0.000622
  81 H :    0.045127
  82 H :   -0.015334
  83 H :    0.026365
  84 H :    0.041299
  85 H :    0.006657
  86 H :    0.028914
  87 H :    0.033791
  88 H :    0.019400
  89 H :    0.044729
  90 H :    0.017255
  91 H :    0.021704
  92 H :    0.029844
  93 H :   -0.039535
  94 H :    0.037870
  95 H :    0.031286
  96 H :    0.040619
  97 H :    0.054718
  98 H :    0.036569
  99 H :    0.013850
 100 H :   -0.006622
 101 H :   -0.016730
 102 H :   -0.011669
 103 H :    0.029343
 104 H :    0.027492
 105 H :    0.039328
Sum of atomic charges:   -0.0000000

LOEWDIN ATOMIC CHARGES
----------------------
   0 C :    0.066286
   1 C :   -0.130366
   2 C :   -0.020078
   3 N :   -0.036241
   4 C :   -0.020123
   5 N :   -0.044364
   6 C :   -0.008654
   7 C :   -0.053439
   8 C :    0.019802
   9 C :   -0.006021
  10 C :    0.004530
  11 C :   -0.008438
  12 C :   -0.042696
  13 C :    0.085170
  14 O :   -0.133328
  15 C :   -0.080243
  16 C :    0.072808
  17 C :   -0.040006
  18 C :    0.029781
  19 C :   -0.018688
  20 N :    0.286067
  21 O :   -0.200324
  22 O :   -0.177392
  23 C :    0.012646
  24 C :   -0.003039
  25 C :    0.021215
  26 C :    0.033498
  27 C :   -0.041853
  28 C :    0.075687
  29 N :    0.001505
  30 C :    0.036897
  31 C :   -0.060945
  32 C :    0.080968
  33 O :   -0.204691
  34 C :   -0.125427
  35 C :   -0.121422
  36 C :    0.081504
  37 O :   -0.201956
  38 N :   -0.001029
  39 C :    0.036124
  40 C :   -0.062028
  41 C :    0.078609
  42 C :   -0.048279
  43 C :    0.035399
  44 C :   -0.050544
  45 C :   -0.173882
  46 S :    0.479862
  47 C :   -0.152760
  48 C :   -0.097324
  49 C :    0.112979
  50 O :   -0.126147
  51 O :   -0.034172
  52 C :    0.117588
  53 C :   -0.066012
  54 C :    0.075101
  55 C :   -0.100309
  56 C :    0.078657
  57 C :   -0.138857
  58 C :   -0.020332
  59 N :   -0.051917
  60 C :   -0.017220
  61 N :   -0.055164
  62 C :   -0.010542
  63 C :   -0.050683
  64 C :    0.084964
  65 O :   -0.145004
  66 C :    0.015850
  67 C :   -0.006832
  68 C :    0.000380
  69 C :   -0.008071
  70 C :   -0.043137
  71 H :    0.041441
  72 H :    0.032809
  73 H :    0.036804
  74 H :    0.036907
  75 H :    0.037961
  76 H :    0.044557
  77 H :    0.049879
  78 H :    0.044800
  79 H :    0.036483
  80 H :    0.034649
  81 H :    0.038936
  82 H :    0.030149
  83 H :    0.024710
  84 H :    0.037128
  85 H :    0.018437
  86 H :    0.032556
  87 H :    0.033805
  88 H :    0.021074
  89 H :    0.038162
  90 H :    0.022379
  91 H :    0.029490
  92 H :    0.032389
  93 H :    0.024112
  94 H :    0.039436
  95 H :    0.024849
  96 H :    0.032548
  97 H :    0.034483
  98 H :    0.041003
  99 H :    0.042505
 100 H :    0.038868
 101 H :    0.031023
 102 H :    0.036312
 103 H :    0.037405
 104 H :    0.035692
 105 H :    0.042363

  Mayer bond orders larger than 0.100000
B(  0-C ,  1-C ) :   1.6816 B(  0-C ,  6-C ) :   0.9991 B(  0-C , 15-C ) :   1.0041
B(  1-C ,  2-C ) :   1.1548 B(  1-C ,  4-C ) :   1.1267 B(  2-C ,  3-N ) :   3.0157
B(  4-C ,  5-N ) :   2.9950 B(  6-C ,  7-C ) :   1.3288 B(  6-C , 11-C ) :   1.3658
B(  7-C ,  8-C ) :   1.3753 B(  7-C , 13-C ) :   0.9306 B(  8-C ,  9-C ) :   1.3611
B(  8-C , 71-H ) :   1.0065 B(  9-C , 10-C ) :   1.3753 B(  9-C , 72-H ) :   0.9937
B( 10-C , 11-C ) :   1.3628 B( 10-C , 12-C ) :   1.0518 B( 11-C , 73-H ) :   0.9881
B( 12-C , 74-H ) :   0.9576 B( 12-C , 75-H ) :   0.9594 B( 12-C , 76-H ) :   0.9514
B( 13-C , 14-O ) :   2.2735 B( 13-C , 15-C ) :   0.9205 B( 15-C , 16-C ) :   1.7457
B( 16-C , 17-C ) :   1.0313 B( 16-C , 77-H ) :   0.9420 B( 17-C , 18-C ) :   1.2944
B( 17-C , 25-C ) :   1.3167 B( 18-C , 19-C ) :   1.3735 B( 18-C , 78-H ) :   1.0003
B( 19-C , 20-N ) :   0.8786 B( 19-C , 23-C ) :   1.3479 B( 20-N , 21-O ) :   1.5571
B( 20-N , 22-O ) :   1.5392 B( 21-O , 22-O ) :   0.2685 B( 23-C , 24-C ) :   1.3525
B( 23-C , 26-C ) :   1.0377 B( 24-C , 25-C ) :   1.4056 B( 24-C , 79-H ) :   0.9930
B( 25-C , 80-H ) :   0.9880 B( 26-C , 27-C ) :   1.7063 B( 26-C , 81-H ) :   0.9106
B( 27-C , 28-C ) :   1.1353 B( 27-C , 82-H ) :   0.9661 B( 28-C , 29-N ) :   1.1639
B( 28-C , 35-C ) :   1.3644 B( 29-N , 30-C ) :   0.9456 B( 29-N , 32-C ) :   1.0554
B( 30-C , 31-C ) :   1.1187 B( 30-C , 83-H ) :   0.9511 B( 30-C , 84-H ) :   0.9283
B( 31-C , 85-H ) :   0.9688 B( 31-C , 86-H ) :   0.9682 B( 31-C , 87-H ) :   0.9644
B( 32-C , 33-O ) :   2.0355 B( 32-C , 34-C ) :   0.9887 B( 34-C , 35-C ) :   1.2366
B( 34-C , 41-C ) :   1.3642 B( 35-C , 36-C ) :   0.9889 B( 36-C , 37-O ) :   2.0324
B( 36-C , 38-N ) :   1.0546 B( 37-O , 81-H ) :   0.1026 B( 38-N , 39-C ) :   0.9499
B( 38-N , 41-C ) :   1.1590 B( 39-C , 40-C ) :   1.1208 B( 39-C , 88-H ) :   0.9497
B( 39-C , 89-H ) :   0.9283 B( 40-C , 90-H ) :   0.9680 B( 40-C , 91-H ) :   0.9677
B( 40-C , 92-H ) :   0.9639 B( 41-C , 42-C ) :   1.1336 B( 42-C , 43-C ) :   1.6540
B( 42-C , 93-H ) :   0.9666 B( 43-C , 44-C ) :   1.0891 B( 43-C , 94-H ) :   0.9439
B( 44-C , 45-C ) :   1.5228 B( 44-C , 48-C ) :   1.2371 B( 45-C , 46-S ) :   1.1823
B( 45-C , 95-H ) :   0.9559 B( 46-S , 47-C ) :   1.1995 B( 47-C , 48-C ) :   1.5456
B( 47-C , 96-H ) :   0.9706 B( 48-C , 49-C ) :   0.9329 B( 49-C , 50-O ) :   2.1236
B( 49-C , 51-O ) :   1.0881 B( 51-O , 52-C ) :   1.0763 B( 52-C , 53-C ) :   1.6241
B( 52-C , 97-H ) :   0.9678 B( 53-C , 54-C ) :   1.1423 B( 53-C , 98-H ) :   0.9691
B( 54-C , 55-C ) :   1.6030 B( 54-C , 99-H ) :   0.9509 B( 55-C , 56-C ) :   1.0578
B( 55-C , 64-C ) :   0.9387 B( 56-C , 57-C ) :   1.6366 B( 56-C , 62-C ) :   0.9867
B( 57-C , 58-C ) :   1.1441 B( 57-C , 60-C ) :   1.1437 B( 58-C , 59-N ) :   2.9660
B( 60-C , 61-N ) :   2.9666 B( 62-C , 63-C ) :   1.3363 B( 62-C , 69-C ) :   1.3598
B( 63-C , 64-C ) :   0.9503 B( 63-C , 66-C ) :   1.3714 B( 64-C , 65-O ) :   2.2046
B( 66-C , 67-C ) :   1.3580 B( 66-C ,100-H ) :   1.0061 B( 67-C , 68-C ) :   1.3742
B( 67-C ,101-H ) :   0.9940 B( 68-C , 69-C ) :   1.3691 B( 68-C , 70-C ) :   1.0494
B( 69-C ,102-H ) :   0.9814 B( 70-C ,103-H ) :   0.9566 B( 70-C ,104-H ) :   0.9603
B( 70-C ,105-H ) :   0.9527

-----------------------------------------------------------------------------
         ABSORPTION SPECTRUM VIA TRANSITION ELECTRIC DIPOLE MOMENTS
-----------------------------------------------------------------------------
State   Energy  Wavelength   fosc         T2         TX        TY        TZ
        (cm-1)    (nm)                  (au**2)     (au)      (au)      (au)
-----------------------------------------------------------------------------
   0   16428.9    608.7   0.562052090  11.26274  -0.22045   3.10078   1.26464
   1   20455.0    488.9   0.072708141   1.17020  -0.11849  -0.96064  -0.48305
   2   21519.7    464.7   0.011700754   0.17900  -0.01388  -0.27322  -0.32273
   3   23700.0    421.9   0.059912361   0.83223   0.24223  -0.47226  -0.74197
   4   26247.8    381.0   0.007591827   0.09522  -0.15396   0.19251  -0.18563
   5   27734.9    360.6   0.379515347   4.50483   0.14230   0.05454  -2.11698
   6   27801.5    359.7   0.020566526   0.24354   0.02394  -0.06610  -0.48846
   7   28011.8    357.0   0.452244178   5.31505   0.33309  -1.52521  -1.69642
   8   28523.2    350.6   0.003107640   0.03587  -0.01289  -0.07681   0.17263
   9   30010.4    333.2   0.035924922   0.39409   0.34534  -0.42444   0.30771
  10   30200.0    331.1   0.001325412   0.01445   0.07753  -0.08699  -0.02951
  11   30235.3    330.7   0.041665061   0.45366  -0.41340   0.52974   0.04627
  12   30649.4    326.3   0.003522372   0.03783   0.13797   0.04370   0.12996
  13   30894.6    323.7   0.121106428   1.29051  -0.15375   0.12897   1.11814
  14   31546.4    317.0   0.000047102   0.00049   0.01497   0.01611  -0.00281
  15   31811.5    314.4   0.020231723   0.20937   0.45582  -0.00701  -0.03938
  16   32497.6    307.7   0.095785314   0.97034   0.17275  -0.87154   0.42534
  17   32860.2    304.3   0.025702906   0.25751   0.33219  -0.24804   0.29263
  18   33058.6    302.5   0.523359643   5.21184  -0.58304   2.16375  -0.43600
  19   33303.2    300.3   0.383494893   3.79096   0.52283  -1.80731   0.50125
  20   33785.9    296.0   0.459441880   4.47683   0.89992  -0.93152   1.67310
  21   34259.3    291.9   0.056129058   0.53937   0.02684   0.66613   0.30809
  22   34413.2    290.6   0.030746291   0.29413   0.19058  -0.42190   0.28251
  23   34674.0    288.4   0.017242897   0.16371   0.39944   0.06333  -0.01206
  24   34800.8    287.3   0.021535186   0.20372  -0.27303   0.17830   0.31206
  25   35213.7    284.0   0.368390285   3.44407   0.77512  -1.68058   0.13754
  26   35456.0    282.0   0.002001183   0.01858  -0.11977   0.04869  -0.04318
  27   35811.9    279.2   0.624052855   5.73680   1.16934  -1.47334   1.48281
  28   36766.8    272.0   0.010770046   0.09644   0.03007  -0.24881   0.18337
  29   37155.2    269.1   0.148699959   1.31755  -0.84020   0.60807   0.49179
  30   37420.1    267.2   0.008258157   0.07265  -0.15524   0.15069   0.16077
  31   37588.5    266.0   0.327879940   2.87167  -0.64166   0.54865   1.46933
  32   37658.8    265.5   0.155415157   1.35864  -0.12145   1.15473  -0.10239
  33   38118.5    262.3   0.430769561   3.72035  -1.02094   1.63377  -0.09395
  34   38414.6    260.3   0.013035857   0.11172  -0.03012  -0.30860   0.12480
  35   38566.4    259.3   0.132481378   1.13089  -0.46937   0.87972  -0.36970
  36   38676.0    258.6   0.056777246   0.48329   0.02339   0.56305   0.40709
  37   38949.0    256.7   0.071176611   0.60161  -0.33519   0.02832   0.69890
  38   39289.3    254.5   0.010173166   0.08524   0.07923  -0.00137  -0.28100
  39   39741.8    251.6   0.008014225   0.06639   0.15261  -0.20425  -0.03712

FINAL SINGLE POINT ENERGY     -3496.024050348302

DIPOLE MOMENT
-------------
                                X             Y             Z
Electronic contribution:     13.49901      -0.25581     -10.49598
Nuclear contribution   :    -14.83769      -0.66525      10.10675
                        -----------------------------------------
Total Dipole Moment    :     -1.33868      -0.92106      -0.38922
                        -----------------------------------------
Magnitude (a.u.)       :      1.67090
Magnitude (Debye)      :      4.24709

Rotational constants in cm-1:     0.001049     0.000328     0.000260
Rotational constants in MHz :    31.448050     9.826163     7.794598

                             ****ORCA TERMINATED NORMALLY****
TOTAL RUN TIME: 0 days 0 hours 10 minutes 12 seconds 880 msec
