                         Program Version 4.2.0 -  RELEASE  -
|  1> # ORCA input file
|  2> # SCF done       -112.072181625792          0.000896410310
|  3> ! CAM-B3LYP def2-SVP def2/J RIJCOSX Grid4 TightSCF
|  4> %maxcore 5000
|  5> %tddft
|  6>     Mode sTDDFT
|  7>     Ethresh 5.0
|  8>     maxcore 5000
|  9> end
| 10>
| 11> %pal
| 12>   nprocs 6
| 13>   end
| 14> * xyz 0 1
| 15>    C       -1.16302        -2.22957        -0.40752
| 16>    C       -0.80522        -3.41034        -1.00143
| 17>    C       -1.70812        -4.31083        -1.60219
| 18>    N       -2.37177        -5.04947        -2.17796
| 19>    C        0.53064        -3.82349        -1.19158
| 20>    N        1.59500        -4.22062        -1.35517
| 21>    C       -0.25074        -1.14008        -0.05733
| 22>    C       -1.00225         0.02252         0.20324
| 23>    C       -0.38259         1.21831         0.51158
| 24>    C        1.00203         1.24881         0.56659
| 25>    C        1.76212         0.10641         0.32591
| 26>    C        1.12992        -1.09692         0.01112
| 27>    C        3.25374         0.14941         0.41908
| 28>    C       -2.43784        -0.28555         0.10853
| 29>    O       -3.38157         0.45879         0.25285
| 30>    C       -2.50428        -1.75120        -0.15421
| 31>    C       -3.68725        -2.40162         0.02845
| 32>    C       -3.91428        -3.75522         0.08101
| 33>    C       -4.18497        -4.94660         0.18972
| 34>    C       -4.43161        -6.24796         0.26450
| 35>    C       -4.65584        -7.45706         0.31974
| 36>    C       -4.88883        -8.75763         0.35783
| 37>    C       -5.09990        -9.97214         0.37886
| 38>    C       -5.31866       -11.27463         0.38287
| 39>    C       -5.51490       -12.49191         0.37239
| 40>    C       -5.72115       -13.79696         0.34312
| 41>    C       -5.90571       -15.01395         0.30406
| 42>    C       -6.10418       -16.32342         0.23927
| 43>    C       -6.25276       -17.54008         0.19228
| 44>    C       -6.49041       -18.88911         0.06134
| 45>    C       -5.77509       -19.83666         0.73221
| 46>    C       -5.89608       -21.27827         0.68448
| 47>    C       -6.80652       -22.00519        -0.03611
| 48>    C       -7.80001       -21.44677        -0.86740
| 49>    N       -8.62705       -21.04860        -1.55714
| 50>    C       -6.87668       -23.41427        -0.04130
| 51>    N       -6.98869       -24.55566        -0.08924
| 52>    C       -4.86086       -21.82546         1.56047
| 53>    C       -4.13723       -20.76580         2.14151
| 54>    C       -4.67052       -19.47996         1.66228
| 55>    O       -4.30297       -18.36179         1.94856
| 56>    C       -3.09551       -21.00760         3.01541
| 57>    C       -2.77235       -22.32349         3.31012
| 58>    C       -3.47383       -23.38501         2.74446
| 59>    C       -4.52663       -23.13314         1.86348
| 60>    C       -3.12072       -24.80099         3.06998
| 61>    H       -0.97366         2.10128         0.70013
| 62>    H        1.50523         2.17506         0.80243
| 63>    H        1.72825        -1.97607        -0.16797
| 64>    H        3.62363         1.16775         0.33318
| 65>    H        3.70547        -0.46225        -0.35865
| 66>    H        3.57395        -0.24969         1.38204
| 67>    H       -4.54787        -1.76220         0.21500
| 68>    H       -7.28357       -19.16702        -0.62262
| 69>    H       -2.55258       -20.18279         3.45071
| 70>    H       -1.95992       -22.53221         3.99069
| 71>    H       -5.06064       -23.96503         1.43263
| 72>    H       -2.23552       -24.85258         3.69795
| 73>    H       -2.93924       -25.36500         2.15654
| 74>    H       -3.94745       -25.28138         3.59228
| 75> *
| 76>
| 77>                          ****END OF INPUT****

CARTESIAN COORDINATES (ANGSTROEM)
---------------------------------
  C     -1.163020   -2.229570   -0.407520
  C     -0.805220   -3.410340   -1.001430
  C     -1.708120   -4.310830   -1.602190
  N     -2.371770   -5.049470   -2.177960
  C      0.530640   -3.823490   -1.191580
  N      1.595000   -4.220620   -1.355170
  C     -0.250740   -1.140080   -0.057330
  C     -1.002250    0.022520    0.203240
  C     -0.382590    1.218310    0.511580
  C      1.002030    1.248810    0.566590
  C      1.762120    0.106410    0.325910
  C      1.129920   -1.096920    0.011120
  C      3.253740    0.149410    0.419080
  C     -2.437840   -0.285550    0.108530
  O     -3.381570    0.458790    0.252850
  C     -2.504280   -1.751200   -0.154210
  C     -3.687250   -2.401620    0.028450
  C     -3.914280   -3.755220    0.081010
  C     -4.184970   -4.946600    0.189720
  C     -4.431610   -6.247960    0.264500
  C     -4.655840   -7.457060    0.319740
  C     -4.888830   -8.757630    0.357830
  C     -5.099900   -9.972140    0.378860
  C     -5.318660  -11.274630    0.382870
  C     -5.514900  -12.491910    0.372390
  C     -5.721150  -13.796960    0.343120
  C     -5.905710  -15.013950    0.304060
  C     -6.104180  -16.323420    0.239270
  C     -6.252760  -17.540080    0.192280
  C     -6.490410  -18.889110    0.061340
  C     -5.775090  -19.836660    0.732210
  C     -5.896080  -21.278270    0.684480
  C     -6.806520  -22.005190   -0.036110
  C     -7.800010  -21.446770   -0.867400
  N     -8.627050  -21.048600   -1.557140
  C     -6.876680  -23.414270   -0.041300
  N     -6.988690  -24.555660   -0.089240
  C     -4.860860  -21.825460    1.560470
  C     -4.137230  -20.765800    2.141510
  C     -4.670520  -19.479960    1.662280
  O     -4.302970  -18.361790    1.948560
  C     -3.095510  -21.007600    3.015410
  C     -2.772350  -22.323490    3.310120
  C     -3.473830  -23.385010    2.744460
  C     -4.526630  -23.133140    1.863480
  C     -3.120720  -24.800990    3.069980
  H     -0.973660    2.101280    0.700130
  H      1.505230    2.175060    0.802430
  H      1.728250   -1.976070   -0.167970
  H      3.623630    1.167750    0.333180
  H      3.705470   -0.462250   -0.358650
  H      3.573950   -0.249690    1.382040
  H     -4.547870   -1.762200    0.215000
  H     -7.283570  -19.167020   -0.622620
  H     -2.552580  -20.182790    3.450710
  H     -1.959920  -22.532210    3.990690
  H     -5.060640  -23.965030    1.432630
  H     -2.235520  -24.852580    3.697950
  H     -2.939240  -25.365000    2.156540
  H     -3.947450  -25.281380    3.592280

 Total Charge           Charge          ....    0
 Multiplicity           Mult            ....    1
 Number of Electrons    NEL             ....  298
 Basis Dimension        Dim             ....  714

ORBITAL ENERGIES
----------------

  NO   OCC          E(Eh)            E(eV)
   0   2.0000     -19.224322      -523.1204
   1   2.0000     -19.223391      -523.0951
   2   2.0000     -14.427216      -392.5845
   3   2.0000     -14.424708      -392.5163
   4   2.0000     -14.423567      -392.4852
   5   2.0000     -14.417939      -392.3321
   6   2.0000     -10.374056      -282.2924
   7   2.0000     -10.372733      -282.2564
   8   2.0000     -10.355853      -281.7971
   9   2.0000     -10.354841      -281.7695
  10   2.0000     -10.351437      -281.6769
  11   2.0000     -10.348781      -281.6047
  12   2.0000     -10.337989      -281.3110
  13   2.0000     -10.336859      -281.2802
  14   2.0000     -10.328595      -281.0554
  15   2.0000     -10.326766      -281.0056
  16   2.0000     -10.325127      -280.9610
  17   2.0000     -10.323830      -280.9257
  18   2.0000     -10.323645      -280.9207
  19   2.0000     -10.323138      -280.9069
  20   2.0000     -10.322971      -280.9023
  21   2.0000     -10.321843      -280.8716
  22   2.0000     -10.321363      -280.8586
  23   2.0000     -10.321120      -280.8519
  24   2.0000     -10.320572      -280.8371
  25   2.0000     -10.320477      -280.8345
  26   2.0000     -10.319388      -280.8048
  27   2.0000     -10.316880      -280.7366
  28   2.0000     -10.316247      -280.7194
  29   2.0000     -10.315817      -280.7076
  30   2.0000     -10.314631      -280.6754
  31   2.0000     -10.314467      -280.6709
  32   2.0000     -10.312885      -280.6279
  33   2.0000     -10.312812      -280.6259
  34   2.0000     -10.306639      -280.4579
  35   2.0000     -10.306555      -280.4556
  36   2.0000     -10.300344      -280.2866
  37   2.0000     -10.300090      -280.2797
  38   2.0000     -10.296826      -280.1909
  39   2.0000     -10.296582      -280.1843
  40   2.0000     -10.295815      -280.1634
  41   2.0000     -10.295663      -280.1592
  42   2.0000     -10.295570      -280.1567
  43   2.0000     -10.295554      -280.1563
  44   2.0000     -10.279427      -279.7174
  45   2.0000     -10.279306      -279.7141
  46   2.0000      -1.138241       -30.9731
  47   2.0000      -1.137306       -30.9477
  48   2.0000      -1.027969       -27.9725
  49   2.0000      -1.024908       -27.8892
  50   2.0000      -1.005478       -27.3605
  51   2.0000      -1.003317       -27.3016
  52   2.0000      -1.003193       -27.2983
  53   2.0000      -0.998177       -27.1618
  54   2.0000      -0.961970       -26.1765
  55   2.0000      -0.960712       -26.1423
  56   2.0000      -0.933351       -25.3978
  57   2.0000      -0.929410       -25.2905
  58   2.0000      -0.923544       -25.1309
  59   2.0000      -0.914398       -24.8820
  60   2.0000      -0.910089       -24.7648
  61   2.0000      -0.906918       -24.6785
  62   2.0000      -0.894032       -24.3278
  63   2.0000      -0.876134       -23.8408
  64   2.0000      -0.870714       -23.6933
  65   2.0000      -0.868637       -23.6368
  66   2.0000      -0.854091       -23.2410
  67   2.0000      -0.838840       -22.8260
  68   2.0000      -0.824746       -22.4425
  69   2.0000      -0.813498       -22.1364
  70   2.0000      -0.793911       -21.6034
  71   2.0000      -0.789687       -21.4885
  72   2.0000      -0.776595       -21.1322
  73   2.0000      -0.759317       -20.6621
  74   2.0000      -0.751982       -20.4625
  75   2.0000      -0.738574       -20.0976
  76   2.0000      -0.723078       -19.6760
  77   2.0000      -0.715392       -19.4668
  78   2.0000      -0.704106       -19.1597
  79   2.0000      -0.695147       -18.9159
  80   2.0000      -0.692231       -18.8366
  81   2.0000      -0.680615       -18.5205
  82   2.0000      -0.676066       -18.3967
  83   2.0000      -0.670223       -18.2377
  84   2.0000      -0.656709       -17.8700
  85   2.0000      -0.647295       -17.6138
  86   2.0000      -0.645913       -17.5762
  87   2.0000      -0.625336       -17.0163
  88   2.0000      -0.620993       -16.8981
  89   2.0000      -0.612528       -16.6677
  90   2.0000      -0.598848       -16.2955
  91   2.0000      -0.579725       -15.7751
  92   2.0000      -0.574981       -15.6460
  93   2.0000      -0.558574       -15.1996
  94   2.0000      -0.555412       -15.1135
  95   2.0000      -0.546941       -14.8830
  96   2.0000      -0.544776       -14.8241
  97   2.0000      -0.544125       -14.8064
  98   2.0000      -0.539989       -14.6939
  99   2.0000      -0.531460       -14.4618
 100   2.0000      -0.529968       -14.4212
 101   2.0000      -0.521531       -14.1916
 102   2.0000      -0.521075       -14.1792
 103   2.0000      -0.517002       -14.0683
 104   2.0000      -0.516106       -14.0440
 105   2.0000      -0.508903       -13.8480
 106   2.0000      -0.507215       -13.8020
 107   2.0000      -0.503723       -13.7070
 108   2.0000      -0.502220       -13.6661
 109   2.0000      -0.491502       -13.3744
 110   2.0000      -0.489912       -13.3312
 111   2.0000      -0.479523       -13.0485
 112   2.0000      -0.478201       -13.0125
 113   2.0000      -0.477741       -13.0000
 114   2.0000      -0.472165       -12.8483
 115   2.0000      -0.462290       -12.5795
 116   2.0000      -0.458741       -12.4830
 117   2.0000      -0.458370       -12.4729
 118   2.0000      -0.457855       -12.4589
 119   2.0000      -0.455417       -12.3925
 120   2.0000      -0.455003       -12.3813
 121   2.0000      -0.453240       -12.3333
 122   2.0000      -0.452272       -12.3069
 123   2.0000      -0.451381       -12.2827
 124   2.0000      -0.450240       -12.2517
 125   2.0000      -0.445987       -12.1359
 126   2.0000      -0.443559       -12.0699
 127   2.0000      -0.436662       -11.8822
 128   2.0000      -0.434350       -11.8193
 129   2.0000      -0.431857       -11.7514
 130   2.0000      -0.429915       -11.6986
 131   2.0000      -0.425504       -11.5786
 132   2.0000      -0.418460       -11.3869
 133   2.0000      -0.417437       -11.3591
 134   2.0000      -0.414325       -11.2744
 135   2.0000      -0.399897       -10.8817
 136   2.0000      -0.397829       -10.8255
 137   2.0000      -0.376970       -10.2579
 138   2.0000      -0.363206        -9.8833
 139   2.0000      -0.350909        -9.5487
 140   2.0000      -0.347115        -9.4455
 141   2.0000      -0.341591        -9.2952
 142   2.0000      -0.339517        -9.2387
 143   2.0000      -0.328402        -8.9363
 144   2.0000      -0.324773        -8.8375
 145   2.0000      -0.319001        -8.6805
 146   2.0000      -0.312421        -8.5014
 147   2.0000      -0.280357        -7.6289
 148   2.0000      -0.277122        -7.5409
 149   0.0000      -0.119688        -3.2569
 150   0.0000      -0.107389        -2.9222
 151   0.0000      -0.077146        -2.0993
 152   0.0000      -0.073917        -2.0114
 153   0.0000      -0.063434        -1.7261

MULLIKEN ATOMIC CHARGES
-----------------------
   0 C :    0.284207
   1 C :   -0.315077
   2 C :   -0.202365
   3 N :    0.183270
   4 C :   -0.177933
   5 N :    0.153008
   6 C :    0.040941
   7 C :   -0.014573
   8 C :   -0.014738
   9 C :    0.007370
  10 C :   -0.038818
  11 C :   -0.068657
  12 C :    0.088863
  13 C :    0.135439
  14 O :   -0.136943
  15 C :   -0.106895
  16 C :   -0.104848
  17 C :    0.006360
  18 C :    0.061159
  19 C :    0.007352
  20 C :    0.037316
  21 C :    0.017765
  22 C :    0.020725
  23 C :    0.018060
  24 C :    0.023451
  25 C :    0.035448
  26 C :   -0.023719
  27 C :    0.075930
  28 C :    0.016254
  29 C :   -0.149310
  30 C :   -0.089272
  31 C :    0.317518
  32 C :   -0.336448
  33 C :   -0.189815
  34 N :    0.166479
  35 C :   -0.180694
  36 N :    0.159673
  37 C :    0.050134
  38 C :   -0.032643
  39 C :    0.146108
  40 O :   -0.120314
  41 C :   -0.011143
  42 C :    0.006881
  43 C :   -0.040945
  44 C :   -0.070777
  45 C :    0.093439
  46 H :   -0.002238
  47 H :   -0.012797
  48 H :   -0.008497
  49 H :    0.019320
  50 H :    0.037375
  51 H :    0.044049
  52 H :    0.058219
  53 H :    0.063224
  54 H :   -0.002299
  55 H :   -0.011449
  56 H :   -0.010461
  57 H :    0.015392
  58 H :    0.039891
  59 H :    0.043049
Sum of atomic charges:    0.0000000

LOEWDIN ATOMIC CHARGES
----------------------
   0 C :    0.064927
   1 C :   -0.116943
   2 C :   -0.019545
   3 N :   -0.031962
   4 C :   -0.016154
   5 N :   -0.042501
   6 C :   -0.006403
   7 C :   -0.055558
   8 C :    0.020927
   9 C :   -0.008821
  10 C :    0.005409
  11 C :   -0.006979
  12 C :   -0.042617
  13 C :    0.082608
  14 O :   -0.134891
  15 C :   -0.055615
  16 C :    0.037337
  17 C :    0.008353
  18 C :    0.002094
  19 C :    0.006602
  20 C :    0.005967
  21 C :    0.001618
  22 C :    0.002241
  23 C :   -0.000783
  24 C :    0.002852
  25 C :   -0.001742
  26 C :    0.008627
  27 C :   -0.003801
  28 C :    0.027719
  29 C :    0.038662
  30 C :   -0.057666
  31 C :    0.071582
  32 C :   -0.125128
  33 C :   -0.019272
  34 N :   -0.039528
  35 C :   -0.017706
  36 N :   -0.042824
  37 C :   -0.010743
  38 C :   -0.051700
  39 C :    0.079517
  40 O :   -0.119928
  41 C :    0.020399
  42 C :   -0.006680
  43 C :    0.003367
  44 C :   -0.002905
  45 C :   -0.043214
  46 H :    0.041062
  47 H :    0.032383
  48 H :    0.037099
  49 H :    0.033034
  50 H :    0.040765
  51 H :    0.045276
  52 H :    0.066522
  53 H :    0.063841
  54 H :    0.041380
  55 H :    0.032759
  56 H :    0.037248
  57 H :    0.031654
  58 H :    0.043059
  59 H :    0.044719

  Mayer bond orders larger than 0.100000
B(  0-C ,  1-C ) :   1.6575 B(  0-C ,  6-C ) :   1.0019 B(  0-C , 15-C ) :   1.0243
B(  1-C ,  2-C ) :   1.1705 B(  1-C ,  4-C ) :   1.1303 B(  2-C ,  3-N ) :   2.9811
B(  4-C ,  5-N ) :   2.9758 B(  6-C ,  7-C ) :   1.3207 B(  6-C , 11-C ) :   1.3747
B(  7-C ,  8-C ) :   1.3814 B(  7-C , 13-C ) :   0.9373 B(  8-C ,  9-C ) :   1.3517
B(  8-C , 46-H ) :   1.0068 B(  9-C , 10-C ) :   1.3855 B(  9-C , 47-H ) :   0.9917
B( 10-C , 11-C ) :   1.3515 B( 10-C , 12-C ) :   1.0525 B( 11-C , 48-H ) :   0.9871
B( 12-C , 49-H ) :   0.9594 B( 12-C , 50-H ) :   0.9566 B( 12-C , 51-H ) :   0.9511
B( 13-C , 14-O ) :   2.2658 B( 13-C , 15-C ) :   0.9289 B( 15-C , 16-C ) :   1.6972
B( 16-C , 17-C ) :   0.9489 B( 16-C , 52-H ) :   0.9494 B( 17-C , 18-C ) :   2.0014
B( 17-C , 20-C ) :   0.1725 B( 18-C , 19-C ) :   0.9000 B( 19-C , 20-C ) :   2.0206
B( 19-C , 22-C ) :   0.1656 B( 20-C , 21-C ) :   0.9244 B( 21-C , 22-C ) :   2.0013
B( 21-C , 24-C ) :   0.1646 B( 22-C , 23-C ) :   0.9361 B( 23-C , 24-C ) :   1.9988
B( 23-C , 26-C ) :   0.1644 B( 24-C , 25-C ) :   0.9186 B( 25-C , 26-C ) :   2.0398
B( 25-C , 28-C ) :   0.1698 B( 26-C , 27-C ) :   0.9263 B( 27-C , 28-C ) :   1.9745
B( 28-C , 29-C ) :   1.0402 B( 29-C , 30-C ) :   1.6527 B( 29-C , 53-H ) :   0.9340
B( 30-C , 31-C ) :   1.0354 B( 30-C , 39-C ) :   0.9167 B( 31-C , 32-C ) :   1.6555
B( 31-C , 37-C ) :   0.9935 B( 32-C , 33-C ) :   1.1486 B( 32-C , 35-C ) :   1.1409
B( 33-C , 34-N ) :   2.9702 B( 35-C , 36-N ) :   2.9667 B( 37-C , 38-C ) :   1.3200
B( 37-C , 44-C ) :   1.3701 B( 38-C , 39-C ) :   0.9498 B( 38-C , 41-C ) :   1.3885
B( 39-C , 40-O ) :   2.2630 B( 41-C , 42-C ) :   1.3423 B( 41-C , 54-H ) :   1.0068
B( 42-C , 43-C ) :   1.3877 B( 42-C , 55-H ) :   0.9902 B( 43-C , 44-C ) :   1.3523
B( 43-C , 45-C ) :   1.0536 B( 44-C , 56-H ) :   0.9873 B( 45-C , 57-H ) :   0.9594
B( 45-C , 58-H ) :   0.9534 B( 45-C , 59-H ) :   0.9521

-----------------------------------------------------------------------------
         ABSORPTION SPECTRUM VIA TRANSITION ELECTRIC DIPOLE MOMENTS
-----------------------------------------------------------------------------
State   Energy  Wavelength   fosc         T2         TX        TY        TZ
        (cm-1)    (nm)                  (au**2)     (au)      (au)      (au)
-----------------------------------------------------------------------------
   0   16232.1    616.1   0.010538977   0.21375   0.30336   0.34456  -0.05475
   1   17382.3    575.3   0.314811234   5.96237  -0.48399  -2.38639   0.18234
   2   19661.9    508.6   0.025414091   0.42552   0.64473  -0.01067  -0.09868
   3   21274.4    470.0   1.637585601  25.34086  -1.29276  -4.85043   0.37811
   4   24278.8    411.9   0.515807843   6.99417   0.34185   2.62031  -0.10614
   5   25507.0    392.0   0.309838868   3.99901  -1.15706  -1.60767   0.27498
   6   26986.2    370.6   0.225057022   2.74553   0.19109  -1.59954  -0.38794
   7   27446.7    364.3   0.033532811   0.40221   0.02104  -0.58915   0.23382
   8   28132.0    355.5   0.054272209   0.63511  -0.63923   0.33020  -0.34274
   9   28499.2    350.9   0.050709231   0.58577  -0.15745  -0.56653  -0.48992
  10   29336.4    340.9   0.005837460   0.06551   0.09773  -0.09141  -0.21818
  11   29749.2    336.1   0.137153898   1.51778   0.63794   0.93188   0.49234
  12   30166.7    331.5   0.035870113   0.39145  -0.44107   0.43706  -0.07680
  13   30309.9    329.9   0.028933555   0.31426  -0.40832   0.32067  -0.21145
  14   30856.4    324.1   0.029627527   0.31610   0.09395  -0.54432  -0.10484
  15   31066.4    321.9   0.864144218   9.15737   0.15627   3.01206  -0.24581
  16   31579.4    316.7   0.108284058   1.12885  -0.55749   0.83721  -0.34224
  17   31737.3    315.1   0.389977033   4.04524   0.64222   1.90568   0.03450
  18   32453.7    308.1   0.107484703   1.09033  -0.11922   1.03730   0.01121
  19   33162.1    301.5   0.044070781   0.43751   0.46373   0.09096   0.46281
  20   34016.1    294.0   0.164971150   1.59661  -1.03103   0.64899  -0.33526
  21   34948.4    286.1   0.710211817   6.69015   0.82560   2.44140  -0.21928
  22   35327.3    283.1   0.017897266   0.16678  -0.09363  -0.33935   0.20702
  23   35547.9    281.3   0.016246068   0.15046  -0.02204   0.19749   0.33312
  24   36246.8    275.9   0.175618631   1.59506   0.26219   1.21950   0.19783
  25   36354.2    275.1   0.816924428   7.39781   0.16451   2.71429   0.05835
  26   36758.7    272.0   0.029133265   0.26092   0.04742   0.49777   0.10438
  27   37395.2    267.4   0.717538964   6.31691   1.78090   1.12340   1.37233
  28   37536.3    266.4   0.191509197   1.67963   0.04221  -1.09371  -0.69400
  29   37929.3    263.6   0.036174613   0.31398  -0.25222   0.34467  -0.36272
  30   38743.6    258.1   0.118981827   1.01101  -0.98244   0.09366  -0.19247
  31   39103.5    255.7   0.002854482   0.02403  -0.09603  -0.12167   0.00254
  32   39393.7    253.8   0.032334155   0.27022  -0.34536  -0.02468   0.38773
  33   39923.1    250.5   0.462728116   3.81573  -0.32325  -1.92079  -0.14767
  34   40293.4    248.2   0.000276972   0.00226   0.02132  -0.04146   0.00943

FINAL SINGLE POINT ENERGY     -1899.270833047317

DIPOLE MOMENT
-------------
                                X             Y             Z
Electronic contribution:    -27.34381       2.49403     -11.70576
Nuclear contribution   :     29.54955      -1.43755      13.97676
                        -----------------------------------------
Total Dipole Moment    :      2.20574       1.05648       2.27100
                        -----------------------------------------
Magnitude (a.u.)       :      3.33749
Magnitude (Debye)      :      8.48324

Rotational constants in cm-1:     0.006010     0.000325     0.000314
Rotational constants in MHz :   180.162512     9.739060     9.407494

                             ****ORCA TERMINATED NORMALLY****
TOTAL RUN TIME: 0 days 0 hours 3 minutes 17 seconds 480 msec
