                         Program Version 4.2.0 -  RELEASE  -
|  1> # ORCA input file
|  2> # SCF done       -216.225112061151          0.000538181884
|  3> ! CAM-B3LYP def2-SVP def2/J RIJCOSX Grid4 TightSCF
|  4> %maxcore 5000
|  5> %tddft
|  6>     Mode sTDDFT
|  7>     Ethresh 5.0
|  8>     maxcore 5000
|  9> end
| 10>
| 11> %pal
| 12>   nprocs 6
| 13>   end
| 14> * xyz 0 1
| 15>    C        3.77637         2.12354        -7.35392
| 16>    C        4.66940         1.43154        -6.32221
| 17>    C        4.62761         2.86198        -8.39093
| 18>    C        2.74059         3.03635        -6.73494
| 19>    C        1.51002         2.58238        -7.07258
| 20>    C        1.68560         1.38767        -7.88223
| 21>    C        0.71580         0.60167        -8.43174
| 22>    C       -0.65794         0.86303        -8.25969
| 23>    N       -1.78518         1.03137        -8.13654
| 24>    C        1.04757        -0.53475        -9.20037
| 25>    N        1.31226        -1.46280        -9.81852
| 26>    O        2.99054         1.12689        -8.01855
| 27>    C        0.29395         3.16647        -6.67126
| 28>    N       -0.64673         3.68465        -6.27426
| 29>    C        3.06007         4.21131        -5.95071
| 30>    C        3.17793         5.49948        -6.41468
| 31>    N        2.97441         5.93061        -7.74146
| 32>    O        3.26515         7.08003        -8.00693
| 33>    O        2.53773         5.12207        -8.54178
| 34>    C        3.61387         6.36942        -5.34350
| 35>    C        3.82677         5.60937        -4.25129
| 36>    C        3.49263         4.22920        -4.56460
| 37>    C        3.51119         3.16711        -3.68094
| 38>    C        2.61435         2.06350        -3.62013
| 39>    C        2.77441         1.43716        -2.41404
| 40>    C        3.85204         2.05158        -1.70463
| 41>    N        4.33823         1.59145        -0.46845
| 42>    O        5.29684         2.17000         0.02252
| 43>    O        3.77019         0.64647         0.04429
| 44>    C        4.36889         3.09233        -2.47745
| 45>    C        5.56118         3.81057        -2.30194
| 46>    C        6.20597         4.38743        -3.36882
| 47>    C        7.25547         5.31340        -3.43897
| 48>    N        7.98242         5.95654        -2.46635
| 49>    C        7.97808         5.69254        -1.04518
| 50>    C        8.72639         4.40905        -0.70034
| 51>    C        8.81750         6.93838        -3.01249
| 52>    O        9.57166         7.63255        -2.35374
| 53>    C        8.55647         6.90500        -4.44016
| 54>    C        7.62540         5.88277        -4.66717
| 55>    C        7.28098         5.87513        -6.07327
| 56>    O        6.52701         5.17274        -6.71419
| 57>    N        8.03736         6.93122        -6.61610
| 58>    C        7.98514         7.25219        -8.02375
| 59>    C        9.21124         6.73235        -8.76839
| 60>    C        8.79450         7.55897        -5.66343
| 61>    C        9.58850         8.70933        -5.87666
| 62>    C       10.26231         9.25304        -4.82977
| 63>    C       11.00579        10.45406        -4.82070
| 64>    S       11.45610        11.31781        -6.25870
| 65>    C       12.28221        12.52125        -5.32908
| 66>    C       12.20112        12.26861        -3.97875
| 67>    C       11.46351        11.10277        -3.68354
| 68>    C       11.14869        10.66359        -2.29225
| 69>    N        9.65841        10.56917        -2.05926
| 70>    O        9.32741        10.25812        -0.94958
| 71>    O        8.91915        10.84433        -2.96925
| 72>    C       11.68795        11.64071        -1.23806
| 73>    C       13.04366        12.19576        -1.65112
| 74>    C       12.87897        13.06427        -2.89993
| 75>    N       14.22851        13.47627        -3.37684
| 76>    O       15.02664        12.60267        -3.58773
| 77>    O       14.41561        14.65926        -3.53203
| 78>    C       12.95808        13.60010        -6.02584
| 79>    C       14.20032        13.57509        -6.56476
| 80>    C       14.43299        14.86739        -7.19276
| 81>    C       15.56057        15.29451        -7.82657
| 82>    C       16.70820        14.48657        -7.95934
| 83>    N       17.65691        13.85901        -8.09782
| 84>    C       15.62936        16.58595        -8.39472
| 85>    N       15.68736        17.62993        -8.86266
| 86>    O       13.33913        15.63019        -7.06625
| 87>    C       12.30881        14.92310        -6.37120
| 88>    C       11.88517        15.73993        -5.15096
| 89>    C       11.12660        14.70595        -7.32383
| 90>    C       15.07805        12.47228        -6.54739
| 91>    N       15.70741        11.51662        -6.53380
| 92>    H        4.07163         0.93014        -5.56396
| 93>    H        5.31988         2.16046        -5.84808
| 94>    H        5.27819         0.68976        -6.83224
| 95>    H        5.25534         3.59999        -7.89874
| 96>    H        3.98597         3.35795        -9.11553
| 97>    H        5.25452         2.14103        -8.90859
| 98>    H        3.72203         7.43083        -5.45111
| 99>    H        4.08925         5.95155        -3.26991
|100>    H        1.84046         1.86286        -4.33559
|101>    H        2.20375         0.61213        -2.03026
|102>    H        5.97667         3.82207        -1.30428
|103>    H        5.84739         4.13401        -4.35913
|104>    H        6.94526         5.65247        -0.69048
|105>    H        8.47434         6.54832        -0.57876
|106>    H        8.29656         3.55134        -1.21189
|107>    H        8.67147         4.23331         0.36972
|108>    H        9.77186         4.49573        -0.98636
|109>    H        7.88450         8.33378        -8.14482
|110>    H        7.08311         6.77282        -8.41293
|111>    H       10.12437         7.17453        -8.37594
|112>    H        9.12867         6.97833        -9.82290
|113>    H        9.27913         5.65177        -8.66992
|114>    H        9.60617         9.17279        -6.85233
|115>    H       10.21857         8.73593        -3.88119
|116>    H       11.52632         9.65129        -2.10657
|117>    H       11.76288        11.13216        -0.27791
|118>    H       10.98657        12.47131        -1.11963
|119>    H       13.73741        11.38277        -1.87600
|120>    H       13.46036        12.79329        -0.83933
|121>    H       12.33227        13.98653        -2.67327
|122>    H       12.73824        15.90364        -4.49620
|123>    H       11.09417        15.22257        -4.61469
|124>    H       11.51686        16.70564        -5.48530
|125>    H       11.43450        14.11477        -8.18404
|126>    H       10.77389        15.67200        -7.67379
|127>    H       10.31932        14.19326        -6.80858
|128> *
|129>
|130>                          ****END OF INPUT****

CARTESIAN COORDINATES (ANGSTROEM)
---------------------------------
  C      3.776370    2.123540   -7.353920
  C      4.669400    1.431540   -6.322210
  C      4.627610    2.861980   -8.390930
  C      2.740590    3.036350   -6.734940
  C      1.510020    2.582380   -7.072580
  C      1.685600    1.387670   -7.882230
  C      0.715800    0.601670   -8.431740
  C     -0.657940    0.863030   -8.259690
  N     -1.785180    1.031370   -8.136540
  C      1.047570   -0.534750   -9.200370
  N      1.312260   -1.462800   -9.818520
  O      2.990540    1.126890   -8.018550
  C      0.293950    3.166470   -6.671260
  N     -0.646730    3.684650   -6.274260
  C      3.060070    4.211310   -5.950710
  C      3.177930    5.499480   -6.414680
  N      2.974410    5.930610   -7.741460
  O      3.265150    7.080030   -8.006930
  O      2.537730    5.122070   -8.541780
  C      3.613870    6.369420   -5.343500
  C      3.826770    5.609370   -4.251290
  C      3.492630    4.229200   -4.564600
  C      3.511190    3.167110   -3.680940
  C      2.614350    2.063500   -3.620130
  C      2.774410    1.437160   -2.414040
  C      3.852040    2.051580   -1.704630
  N      4.338230    1.591450   -0.468450
  O      5.296840    2.170000    0.022520
  O      3.770190    0.646470    0.044290
  C      4.368890    3.092330   -2.477450
  C      5.561180    3.810570   -2.301940
  C      6.205970    4.387430   -3.368820
  C      7.255470    5.313400   -3.438970
  N      7.982420    5.956540   -2.466350
  C      7.978080    5.692540   -1.045180
  C      8.726390    4.409050   -0.700340
  C      8.817500    6.938380   -3.012490
  O      9.571660    7.632550   -2.353740
  C      8.556470    6.905000   -4.440160
  C      7.625400    5.882770   -4.667170
  C      7.280980    5.875130   -6.073270
  O      6.527010    5.172740   -6.714190
  N      8.037360    6.931220   -6.616100
  C      7.985140    7.252190   -8.023750
  C      9.211240    6.732350   -8.768390
  C      8.794500    7.558970   -5.663430
  C      9.588500    8.709330   -5.876660
  C     10.262310    9.253040   -4.829770
  C     11.005790   10.454060   -4.820700
  S     11.456100   11.317810   -6.258700
  C     12.282210   12.521250   -5.329080
  C     12.201120   12.268610   -3.978750
  C     11.463510   11.102770   -3.683540
  C     11.148690   10.663590   -2.292250
  N      9.658410   10.569170   -2.059260
  O      9.327410   10.258120   -0.949580
  O      8.919150   10.844330   -2.969250
  C     11.687950   11.640710   -1.238060
  C     13.043660   12.195760   -1.651120
  C     12.878970   13.064270   -2.899930
  N     14.228510   13.476270   -3.376840
  O     15.026640   12.602670   -3.587730
  O     14.415610   14.659260   -3.532030
  C     12.958080   13.600100   -6.025840
  C     14.200320   13.575090   -6.564760
  C     14.432990   14.867390   -7.192760
  C     15.560570   15.294510   -7.826570
  C     16.708200   14.486570   -7.959340
  N     17.656910   13.859010   -8.097820
  C     15.629360   16.585950   -8.394720
  N     15.687360   17.629930   -8.862660
  O     13.339130   15.630190   -7.066250
  C     12.308810   14.923100   -6.371200
  C     11.885170   15.739930   -5.150960
  C     11.126600   14.705950   -7.323830
  C     15.078050   12.472280   -6.547390
  N     15.707410   11.516620   -6.533800
  H      4.071630    0.930140   -5.563960
  H      5.319880    2.160460   -5.848080
  H      5.278190    0.689760   -6.832240
  H      5.255340    3.599990   -7.898740
  H      3.985970    3.357950   -9.115530
  H      5.254520    2.141030   -8.908590
  H      3.722030    7.430830   -5.451110
  H      4.089250    5.951550   -3.269910
  H      1.840460    1.862860   -4.335590
  H      2.203750    0.612130   -2.030260
  H      5.976670    3.822070   -1.304280
  H      5.847390    4.134010   -4.359130
  H      6.945260    5.652470   -0.690480
  H      8.474340    6.548320   -0.578760
  H      8.296560    3.551340   -1.211890
  H      8.671470    4.233310    0.369720
  H      9.771860    4.495730   -0.986360
  H      7.884500    8.333780   -8.144820
  H      7.083110    6.772820   -8.412930
  H     10.124370    7.174530   -8.375940
  H      9.128670    6.978330   -9.822900
  H      9.279130    5.651770   -8.669920
  H      9.606170    9.172790   -6.852330
  H     10.218570    8.735930   -3.881190
  H     11.526320    9.651290   -2.106570
  H     11.762880   11.132160   -0.277910
  H     10.986570   12.471310   -1.119630
  H     13.737410   11.382770   -1.876000
  H     13.460360   12.793290   -0.839330
  H     12.332270   13.986530   -2.673270
  H     12.738240   15.903640   -4.496200
  H     11.094170   15.222570   -4.614690
  H     11.516860   16.705640   -5.485300
  H     11.434500   14.114770   -8.184040
  H     10.773890   15.672000   -7.673790
  H     10.319320   14.193260   -6.808580

 Total Charge           Charge          ....    0
 Multiplicity           Mult            ....    1
 Number of Electrons    NEL             ....  544
 Basis Dimension        Dim             .... 1262

ORBITAL ENERGIES
----------------

  NO   OCC          E(Eh)            E(eV)
   0   2.0000     -89.018509     -2422.3168
   1   2.0000     -19.312178      -525.5111
   2   2.0000     -19.297812      -525.1201
   3   2.0000     -19.286675      -524.8171
   4   2.0000     -19.286120      -524.8020
   5   2.0000     -19.274709      -524.4915
   6   2.0000     -19.274388      -524.4828
   7   2.0000     -19.266380      -524.2649
   8   2.0000     -19.263800      -524.1947
   9   2.0000     -19.250304      -523.8274
  10   2.0000     -19.248886      -523.7888
  11   2.0000     -19.242499      -523.6150
  12   2.0000     -19.227381      -523.2036
  13   2.0000     -14.683176      -399.5495
  14   2.0000     -14.672543      -399.2602
  15   2.0000     -14.672414      -399.2567
  16   2.0000     -14.659511      -398.9056
  17   2.0000     -14.497610      -394.5000
  18   2.0000     -14.489096      -394.2684
  19   2.0000     -14.437960      -392.8769
  20   2.0000     -14.426775      -392.5725
  21   2.0000     -14.414724      -392.2446
  22   2.0000     -14.414033      -392.2258
  23   2.0000     -14.402344      -391.9077
  24   2.0000     -14.401178      -391.8760
  25   2.0000     -10.422413      -283.6083
  26   2.0000     -10.414782      -283.4006
  27   2.0000     -10.411257      -283.3047
  28   2.0000     -10.401271      -283.0330
  29   2.0000     -10.395266      -282.8696
  30   2.0000     -10.388888      -282.6960
  31   2.0000     -10.379866      -282.4505
  32   2.0000     -10.378596      -282.4160
  33   2.0000     -10.372419      -282.2479
  34   2.0000     -10.371297      -282.2173
  35   2.0000     -10.370281      -282.1897
  36   2.0000     -10.370238      -282.1885
  37   2.0000     -10.369484      -282.1680
  38   2.0000     -10.360327      -281.9188
  39   2.0000     -10.357410      -281.8394
  40   2.0000     -10.355289      -281.7817
  41   2.0000     -10.352942      -281.7179
  42   2.0000     -10.350715      -281.6573
  43   2.0000     -10.350395      -281.6486
  44   2.0000     -10.349803      -281.6325
  45   2.0000     -10.349023      -281.6112
  46   2.0000     -10.342878      -281.4440
  47   2.0000     -10.342695      -281.4390
  48   2.0000     -10.342491      -281.4335
  49   2.0000     -10.342443      -281.4322
  50   2.0000     -10.341927      -281.4181
  51   2.0000     -10.341074      -281.3949
  52   2.0000     -10.336764      -281.2776
  53   2.0000     -10.336065      -281.2586
  54   2.0000     -10.334910      -281.2272
  55   2.0000     -10.332962      -281.1742
  56   2.0000     -10.332137      -281.1517
  57   2.0000     -10.329180      -281.0713
  58   2.0000     -10.328428      -281.0508
  59   2.0000     -10.328305      -281.0475
  60   2.0000     -10.325377      -280.9678
  61   2.0000     -10.324825      -280.9528
  62   2.0000     -10.317628      -280.7569
  63   2.0000     -10.317389      -280.7504
  64   2.0000     -10.311131      -280.5801
  65   2.0000     -10.310337      -280.5585
  66   2.0000     -10.308893      -280.5192
  67   2.0000     -10.308617      -280.5117
  68   2.0000     -10.306058      -280.4421
  69   2.0000     -10.306024      -280.4412
  70   2.0000     -10.305316      -280.4219
  71   2.0000     -10.302740      -280.3518
  72   2.0000     -10.300736      -280.2973
  73   2.0000     -10.293655      -280.1046
  74   2.0000     -10.293508      -280.1006
  75   2.0000     -10.283054      -279.8161
  76   2.0000     -10.279172      -279.7105
  77   2.0000      -8.113431      -220.7777
  78   2.0000      -6.082587      -165.5156
  79   2.0000      -6.078516      -165.4048
  80   2.0000      -6.075751      -165.3296
  81   2.0000      -1.367950       -37.2238
  82   2.0000      -1.357164       -36.9303
  83   2.0000      -1.344574       -36.5877
  84   2.0000      -1.329236       -36.1703
  85   2.0000      -1.235262       -33.6132
  86   2.0000      -1.220425       -33.2095
  87   2.0000      -1.188871       -32.3508
  88   2.0000      -1.179333       -32.0913
  89   2.0000      -1.178580       -32.0708
  90   2.0000      -1.165532       -31.7157
  91   2.0000      -1.162859       -31.6430
  92   2.0000      -1.147013       -31.2118
  93   2.0000      -1.107884       -30.1471
  94   2.0000      -1.093111       -29.7451
  95   2.0000      -1.059520       -28.8310
  96   2.0000      -1.042808       -28.3763
  97   2.0000      -1.025727       -27.9114
  98   2.0000      -1.021894       -27.8071
  99   2.0000      -1.012425       -27.5495
 100   2.0000      -1.011122       -27.5140
 101   2.0000      -0.999448       -27.1964
 102   2.0000      -0.998179       -27.1618
 103   2.0000      -0.992606       -27.0102
 104   2.0000      -0.987508       -26.8715
 105   2.0000      -0.980261       -26.6743
 106   2.0000      -0.967534       -26.3279
 107   2.0000      -0.963576       -26.2202
 108   2.0000      -0.963142       -26.2084
 109   2.0000      -0.960047       -26.1242
 110   2.0000      -0.950147       -25.8548
 111   2.0000      -0.945914       -25.7396
 112   2.0000      -0.944083       -25.6898
 113   2.0000      -0.930300       -25.3148
 114   2.0000      -0.906427       -24.6651
 115   2.0000      -0.903465       -24.5845
 116   2.0000      -0.900816       -24.5125
 117   2.0000      -0.890183       -24.2231
 118   2.0000      -0.888104       -24.1665
 119   2.0000      -0.885685       -24.1007
 120   2.0000      -0.872353       -23.7379
 121   2.0000      -0.863103       -23.4862
 122   2.0000      -0.860675       -23.4202
 123   2.0000      -0.852232       -23.1904
 124   2.0000      -0.832648       -22.6575
 125   2.0000      -0.826921       -22.5017
 126   2.0000      -0.825136       -22.4531
 127   2.0000      -0.806920       -21.9574
 128   2.0000      -0.800246       -21.7758
 129   2.0000      -0.791546       -21.5391
 130   2.0000      -0.790014       -21.4974
 131   2.0000      -0.777889       -21.1674
 132   2.0000      -0.775231       -21.0951
 133   2.0000      -0.763285       -20.7700
 134   2.0000      -0.761747       -20.7282
 135   2.0000      -0.759074       -20.6555
 136   2.0000      -0.750673       -20.4268
 137   2.0000      -0.745419       -20.2839
 138   2.0000      -0.742042       -20.1920
 139   2.0000      -0.731391       -19.9022
 140   2.0000      -0.730399       -19.8752
 141   2.0000      -0.727902       -19.8072
 142   2.0000      -0.727651       -19.8004
 143   2.0000      -0.711321       -19.3560
 144   2.0000      -0.694636       -18.9020
 145   2.0000      -0.689593       -18.7648
 146   2.0000      -0.684725       -18.6323
 147   2.0000      -0.680601       -18.5201
 148   2.0000      -0.680033       -18.5046
 149   2.0000      -0.676982       -18.4216
 150   2.0000      -0.673488       -18.3265
 151   2.0000      -0.670505       -18.2454
 152   2.0000      -0.666106       -18.1257
 153   2.0000      -0.663055       -18.0426
 154   2.0000      -0.659573       -17.9479
 155   2.0000      -0.658614       -17.9218
 156   2.0000      -0.655018       -17.8239
 157   2.0000      -0.654354       -17.8059
 158   2.0000      -0.645681       -17.5699
 159   2.0000      -0.640965       -17.4415
 160   2.0000      -0.637177       -17.3385
 161   2.0000      -0.636003       -17.3065
 162   2.0000      -0.634736       -17.2721
 163   2.0000      -0.630182       -17.1481
 164   2.0000      -0.624922       -17.0050
 165   2.0000      -0.621954       -16.9242
 166   2.0000      -0.620089       -16.8735
 167   2.0000      -0.616900       -16.7867
 168   2.0000      -0.616162       -16.7666
 169   2.0000      -0.613443       -16.6926
 170   2.0000      -0.608171       -16.5492
 171   2.0000      -0.607879       -16.5412
 172   2.0000      -0.598434       -16.2842
 173   2.0000      -0.597576       -16.2609
 174   2.0000      -0.595811       -16.2128
 175   2.0000      -0.589594       -16.0437
 176   2.0000      -0.586422       -15.9573
 177   2.0000      -0.584433       -15.9032
 178   2.0000      -0.577107       -15.7039
 179   2.0000      -0.575633       -15.6638
 180   2.0000      -0.570342       -15.5198
 181   2.0000      -0.568304       -15.4643
 182   2.0000      -0.566392       -15.4123
 183   2.0000      -0.563192       -15.3252
 184   2.0000      -0.559452       -15.2235
 185   2.0000      -0.555795       -15.1240
 186   2.0000      -0.554122       -15.0784
 187   2.0000      -0.551065       -14.9952
 188   2.0000      -0.547621       -14.9015
 189   2.0000      -0.546209       -14.8631
 190   2.0000      -0.545219       -14.8362
 191   2.0000      -0.540572       -14.7097
 192   2.0000      -0.536439       -14.5972
 193   2.0000      -0.531625       -14.4663
 194   2.0000      -0.527587       -14.3564
 195   2.0000      -0.524596       -14.2750
 196   2.0000      -0.523897       -14.2560
 197   2.0000      -0.520899       -14.1744
 198   2.0000      -0.519077       -14.1248
 199   2.0000      -0.515216       -14.0197
 200   2.0000      -0.510462       -13.8904
 201   2.0000      -0.509661       -13.8686
 202   2.0000      -0.508456       -13.8358
 203   2.0000      -0.506839       -13.7918
 204   2.0000      -0.504850       -13.7377
 205   2.0000      -0.503744       -13.7076
 206   2.0000      -0.502512       -13.6741
 207   2.0000      -0.501927       -13.6581
 208   2.0000      -0.499531       -13.5929
 209   2.0000      -0.497033       -13.5250
 210   2.0000      -0.491969       -13.3872
 211   2.0000      -0.490894       -13.3579
 212   2.0000      -0.488929       -13.3044
 213   2.0000      -0.485184       -13.2025
 214   2.0000      -0.484525       -13.1846
 215   2.0000      -0.484059       -13.1719
 216   2.0000      -0.482465       -13.1285
 217   2.0000      -0.476209       -12.9583
 218   2.0000      -0.475192       -12.9306
 219   2.0000      -0.473100       -12.8737
 220   2.0000      -0.471574       -12.8322
 221   2.0000      -0.470411       -12.8005
 222   2.0000      -0.470059       -12.7910
 223   2.0000      -0.466073       -12.6825
 224   2.0000      -0.464765       -12.6469
 225   2.0000      -0.463302       -12.6071
 226   2.0000      -0.461152       -12.5486
 227   2.0000      -0.460002       -12.5173
 228   2.0000      -0.457956       -12.4616
 229   2.0000      -0.452450       -12.3118
 230   2.0000      -0.451566       -12.2877
 231   2.0000      -0.450473       -12.2580
 232   2.0000      -0.446719       -12.1558
 233   2.0000      -0.444984       -12.1086
 234   2.0000      -0.441968       -12.0266
 235   2.0000      -0.438262       -11.9257
 236   2.0000      -0.437452       -11.9037
 237   2.0000      -0.433252       -11.7894
 238   2.0000      -0.430367       -11.7109
 239   2.0000      -0.428390       -11.6571
 240   2.0000      -0.426525       -11.6063
 241   2.0000      -0.423997       -11.5376
 242   2.0000      -0.420740       -11.4489
 243   2.0000      -0.417257       -11.3541
 244   2.0000      -0.414915       -11.2904
 245   2.0000      -0.413062       -11.2400
 246   2.0000      -0.411968       -11.2102
 247   2.0000      -0.411196       -11.1892
 248   2.0000      -0.409753       -11.1499
 249   2.0000      -0.408918       -11.1272
 250   2.0000      -0.406652       -11.0656
 251   2.0000      -0.404992       -11.0204
 252   2.0000      -0.401156       -10.9160
 253   2.0000      -0.398038       -10.8312
 254   2.0000      -0.397300       -10.8111
 255   2.0000      -0.395935       -10.7739
 256   2.0000      -0.394243       -10.7279
 257   2.0000      -0.393638       -10.7114
 258   2.0000      -0.391716       -10.6591
 259   2.0000      -0.387943       -10.5565
 260   2.0000      -0.378066       -10.2877
 261   2.0000      -0.375746       -10.2246
 262   2.0000      -0.374125       -10.1805
 263   2.0000      -0.372595       -10.1388
 264   2.0000      -0.357159        -9.7188
 265   2.0000      -0.355055        -9.6615
 266   2.0000      -0.343153        -9.3377
 267   2.0000      -0.339770        -9.2456
 268   2.0000      -0.322822        -8.7844
 269   2.0000      -0.322134        -8.7657
 270   2.0000      -0.306467        -8.3394
 271   2.0000      -0.269817        -7.3421
 272   0.0000      -0.160182        -4.3588
 273   0.0000      -0.119216        -3.2440
 274   0.0000      -0.090998        -2.4762
 275   0.0000      -0.078447        -2.1346
 276   0.0000      -0.069125        -1.8810

MULLIKEN ATOMIC CHARGES
-----------------------
   0 C :   -0.067073
   1 C :    0.120718
   2 C :    0.087462
   3 C :   -0.049427
   4 C :   -0.064481
   5 C :    0.314843
   6 C :   -0.407617
   7 C :   -0.202488
   8 N :    0.184585
   9 C :   -0.162257
  10 N :    0.163205
  11 O :   -0.238756
  12 C :   -0.272810
  13 N :    0.279408
  14 C :   -0.008652
  15 C :    0.124739
  16 N :    0.271265
  17 O :   -0.229309
  18 O :   -0.233607
  19 C :    0.008389
  20 C :    0.033646
  21 C :    0.005072
  22 C :    0.005727
  23 C :    0.001083
  24 C :    0.032473
  25 C :    0.088449
  26 N :    0.273631
  27 O :   -0.264545
  28 O :   -0.241256
  29 C :    0.032585
  30 C :   -0.031820
  31 C :   -0.043717
  32 C :    0.113687
  33 N :   -0.249386
  34 C :    0.098283
  35 C :   -0.003223
  36 C :    0.189809
  37 O :   -0.238070
  38 C :   -0.085861
  39 C :   -0.034423
  40 C :    0.176353
  41 O :   -0.180314
  42 N :   -0.257107
  43 C :    0.091497
  44 C :   -0.000839
  45 C :    0.154005
  46 C :   -0.034657
  47 C :    0.032627
  48 C :   -0.058743
  49 S :    0.211749
  50 C :   -0.234803
  51 C :    0.063201
  52 C :   -0.043073
  53 C :    0.092009
  54 N :    0.204587
  55 O :   -0.205887
  56 O :   -0.220251
  57 C :    0.075482
  58 C :    0.042447
  59 C :    0.145712
  60 N :    0.184295
  61 O :   -0.186053
  62 O :   -0.217682
  63 C :   -0.084569
  64 C :   -0.062200
  65 C :    0.324671
  66 C :   -0.397592
  67 C :   -0.194068
  68 N :    0.192034
  69 C :   -0.161914
  70 N :    0.173608
  71 O :   -0.238350
  72 C :   -0.053681
  73 C :    0.088775
  74 C :    0.105982
  75 C :   -0.240119
  76 N :    0.273836
  77 H :    0.022589
  78 H :    0.021838
  79 H :    0.041141
  80 H :    0.037281
  81 H :    0.040219
  82 H :    0.030819
  83 H :   -0.001077
  84 H :    0.000888
  85 H :    0.001649
  86 H :    0.018142
  87 H :    0.026995
  88 H :    0.044285
  89 H :    0.030764
  90 H :    0.051705
  91 H :    0.027591
  92 H :    0.039150
  93 H :    0.026920
  94 H :    0.033742
  95 H :    0.052700
  96 H :    0.019401
  97 H :    0.038104
  98 H :    0.033954
  99 H :   -0.017482
 100 H :    0.024064
 101 H :    0.077376
 102 H :    0.047395
 103 H :    0.022964
 104 H :    0.050892
 105 H :    0.038958
 106 H :    0.035333
 107 H :    0.049071
 108 H :    0.023417
 109 H :    0.042169
 110 H :    0.023989
 111 H :    0.048100
 112 H :    0.033702
Sum of atomic charges:   -0.0000000

LOEWDIN ATOMIC CHARGES
----------------------
   0 C :    0.064010
   1 C :   -0.039411
   2 C :   -0.044338
   3 C :    0.054195
   4 C :   -0.075315
   5 C :    0.135072
   6 C :   -0.177761
   7 C :   -0.035253
   8 N :   -0.037382
   9 C :   -0.023109
  10 N :   -0.047040
  11 O :   -0.038199
  12 C :   -0.039586
  13 N :   -0.006310
  14 C :   -0.016353
  15 C :    0.000577
  16 N :    0.287462
  17 O :   -0.192725
  18 O :   -0.196688
  19 C :   -0.013677
  20 C :   -0.016842
  21 C :    0.026408
  22 C :    0.052528
  23 C :   -0.053251
  24 C :    0.048349
  25 C :   -0.064362
  26 N :    0.285424
  27 O :   -0.229114
  28 O :   -0.206078
  29 C :    0.015240
  30 C :   -0.005343
  31 C :    0.006284
  32 C :    0.049311
  33 N :    0.010111
  34 C :    0.038607
  35 C :   -0.059533
  36 C :    0.085267
  37 O :   -0.214549
  38 C :   -0.128481
  39 C :   -0.080597
  40 C :    0.096132
  41 O :   -0.181997
  42 N :    0.005426
  43 C :    0.038983
  44 C :   -0.059068
  45 C :    0.103873
  46 C :   -0.052599
  47 C :    0.037995
  48 C :   -0.159436
  49 S :    0.497867
  50 C :   -0.170757
  51 C :   -0.053002
  52 C :   -0.048998
  53 C :    0.016297
  54 N :    0.274099
  55 O :   -0.174259
  56 O :   -0.190808
  57 C :   -0.018562
  58 C :   -0.020660
  59 C :    0.018542
  60 N :    0.271310
  61 O :   -0.163012
  62 O :   -0.187463
  63 C :    0.004647
  64 C :   -0.058432
  65 C :    0.132602
  66 C :   -0.164411
  67 C :   -0.034475
  68 N :   -0.027933
  69 C :   -0.023033
  70 N :   -0.037352
  71 O :   -0.037676
  72 C :    0.060060
  73 C :   -0.043985
  74 C :   -0.038503
  75 C :   -0.044362
  76 N :    0.008277
  77 H :    0.030592
  78 H :    0.032353
  79 H :    0.042469
  80 H :    0.032525
  81 H :    0.032169
  82 H :    0.036335
  83 H :    0.038204
  84 H :    0.033295
  85 H :    0.033489
  86 H :    0.045307
  87 H :    0.040588
  88 H :    0.045535
  89 H :    0.026172
  90 H :    0.040740
  91 H :    0.025062
  92 H :    0.038647
  93 H :    0.031657
  94 H :    0.027800
  95 H :    0.040922
  96 H :    0.023506
  97 H :    0.036997
  98 H :    0.033846
  99 H :    0.028270
 100 H :    0.037406
 101 H :    0.058369
 102 H :    0.045932
 103 H :    0.033456
 104 H :    0.039259
 105 H :    0.041569
 106 H :    0.042611
 107 H :    0.031855
 108 H :    0.030925
 109 H :    0.042037
 110 H :    0.031086
 111 H :    0.043545
 112 H :    0.032587

  Mayer bond orders larger than 0.100000
B(  0-C ,  1-C ) :   1.0598 B(  0-C ,  2-C ) :   1.0504 B(  0-C ,  3-C ) :   0.9846
B(  0-C , 11-O ) :   0.9030 B(  1-C , 77-H ) :   0.9441 B(  1-C , 78-H ) :   0.9526
B(  1-C , 79-H ) :   0.9458 B(  2-C , 80-H ) :   0.9441 B(  2-C , 81-H ) :   0.9405
B(  2-C , 82-H ) :   0.9496 B(  3-C ,  4-C ) :   1.8144 B(  3-C , 14-C ) :   0.9449
B(  4-C ,  5-C ) :   0.9926 B(  4-C , 12-C ) :   1.1539 B(  5-C ,  6-C ) :   1.6411
B(  5-C , 11-O ) :   1.2668 B(  6-C ,  7-C ) :   1.1754 B(  6-C ,  9-C ) :   1.1029
B(  7-C ,  8-N ) :   3.0190 B(  9-C , 10-N ) :   3.0577 B( 12-C , 13-N ) :   3.0401
B( 14-C , 15-C ) :   1.6437 B( 14-C , 21-C ) :   1.1308 B( 15-C , 16-N ) :   0.9213
B( 15-C , 19-C ) :   1.1171 B( 16-N , 17-O ) :   1.5422 B( 16-N , 18-O ) :   1.5020
B( 17-O , 18-O ) :   0.2715 B( 19-C , 20-C ) :   1.6190 B( 19-C , 83-H ) :   1.0166
B( 20-C , 21-C ) :   1.0990 B( 20-C , 84-H ) :   0.9874 B( 21-C , 22-C ) :   1.4286
B( 22-C , 23-C ) :   1.1998 B( 22-C , 29-C ) :   0.9921 B( 23-C , 24-C ) :   1.4884
B( 23-C , 85-H ) :   1.0114 B( 24-C , 25-C ) :   1.1685 B( 24-C , 86-H ) :   1.0131
B( 25-C , 26-N ) :   0.9570 B( 25-C , 29-C ) :   1.4324 B( 26-N , 27-O ) :   1.4852
B( 26-N , 28-O ) :   1.5380 B( 27-O , 28-O ) :   0.2557 B( 29-C , 30-C ) :   1.2615
B( 30-C , 31-C ) :   1.4139 B( 30-C , 87-H ) :   0.9573 B( 31-C , 32-C ) :   1.2689
B( 31-C , 88-H ) :   0.9170 B( 32-C , 33-N ) :   1.1630 B( 32-C , 39-C ) :   1.3093
B( 33-N , 34-C ) :   0.9283 B( 33-N , 36-C ) :   1.0964 B( 34-C , 35-C ) :   1.1187
B( 34-C , 89-H ) :   0.9498 B( 34-C , 90-H ) :   0.9275 B( 35-C , 91-H ) :   0.9674
B( 35-C , 92-H ) :   0.9684 B( 35-C , 93-H ) :   0.9627 B( 36-C , 37-O ) :   1.9522
B( 36-C , 38-C ) :   1.0005 B( 37-O ,100-H ) :   0.1328 B( 38-C , 39-C ) :   1.2939
B( 38-C , 45-C ) :   1.2775 B( 39-C , 40-C ) :   0.9725 B( 40-C , 41-O ) :   2.0427
B( 40-C , 42-N ) :   1.0491 B( 42-N , 43-C ) :   0.9304 B( 42-N , 45-C ) :   1.1829
B( 43-C , 44-C ) :   1.1188 B( 43-C , 94-H ) :   0.9501 B( 43-C , 95-H ) :   0.9304
B( 44-C , 96-H ) :   0.9691 B( 44-C , 97-H ) :   0.9684 B( 44-C , 98-H ) :   0.9643
B( 45-C , 46-C ) :   1.1888 B( 46-C , 47-C ) :   1.5741 B( 46-C , 99-H ) :   0.9758
B( 47-C , 48-C ) :   1.1512 B( 47-C ,100-H ) :   0.9204 B( 48-C , 49-S ) :   1.1092
B( 48-C , 50-C ) :   0.1210 B( 48-C , 52-C ) :   1.5087 B( 49-S , 50-C ) :   1.1772
B( 50-C , 51-C ) :   1.5888 B( 50-C , 63-C ) :   0.9941 B( 51-C , 52-C ) :   1.3282
B( 51-C , 59-C ) :   0.9709 B( 52-C , 53-C ) :   0.9793 B( 53-C , 54-N ) :   0.8320
B( 53-C , 57-C ) :   1.0758 B( 53-C ,101-H ) :   0.8711 B( 54-N , 55-O ) :   1.5743
B( 54-N , 56-O ) :   1.5933 B( 55-O , 56-O ) :   0.2668 B( 57-C , 58-C ) :   1.0951
B( 57-C ,102-H ) :   0.9196 B( 57-C ,103-H ) :   0.9217 B( 58-C , 59-C ) :   1.0534
B( 58-C ,104-H ) :   0.9253 B( 58-C ,105-H ) :   0.9325 B( 59-C , 60-N ) :   0.8336
B( 59-C ,106-H ) :   0.8914 B( 60-N , 61-O ) :   1.5848 B( 60-N , 62-O ) :   1.5166
B( 61-O , 62-O ) :   0.2714 B( 63-C , 64-C ) :   1.8144 B( 63-C , 72-C ) :   0.9691
B( 64-C , 65-C ) :   0.9969 B( 64-C , 75-C ) :   1.1459 B( 65-C , 66-C ) :   1.6547
B( 65-C , 71-O ) :   1.2557 B( 66-C , 67-C ) :   1.1713 B( 66-C , 69-C ) :   1.1037
B( 67-C , 68-N ) :   3.0190 B( 69-C , 70-N ) :   3.0580 B( 71-O , 72-C ) :   0.9136
B( 72-C , 73-C ) :   1.0548 B( 72-C , 74-C ) :   1.0446 B( 73-C ,107-H ) :   0.9396
B( 73-C ,108-H ) :   0.9533 B( 73-C ,109-H ) :   0.9489 B( 74-C ,110-H ) :   0.9520
B( 74-C ,111-H ) :   0.9530 B( 74-C ,112-H ) :   0.9559 B( 75-C , 76-N ) :   3.0298

-----------------------------------------------------------------------------
         ABSORPTION SPECTRUM VIA TRANSITION ELECTRIC DIPOLE MOMENTS
-----------------------------------------------------------------------------
State   Energy  Wavelength   fosc         T2         TX        TY        TZ
        (cm-1)    (nm)                  (au**2)     (au)      (au)      (au)
-----------------------------------------------------------------------------
   0    7015.8   1425.3   0.202049002   9.48097   2.54287   1.70396  -0.33364
   1   15271.9    654.8   0.039450698   0.85043  -0.35961  -0.52197   0.66981
   2   16377.5    610.6   0.193648959   3.89264   0.93074   1.42469  -0.99832
   3   16814.8    594.7   0.255432705   5.00103   1.03855   1.57117  -1.20577
   4   19406.6    515.3   0.013268464   0.22509   0.04166   0.39475  -0.25985
   5   23085.3    433.2   0.005369263   0.07657  -0.23898  -0.13795  -0.02066
   6   24442.8    409.1   0.068376567   0.92094   0.64664  -0.33296   0.62605
   7   24933.8    401.1   0.398058429   5.25573   0.97887   1.93019  -0.75626
   8   25911.9    385.9   0.039168150   0.49763   0.37101   0.57787   0.16141
   9   26286.1    380.4   0.137281565   1.71934  -0.86717  -0.49759  -0.84839
  10   26502.8    377.3   0.029341600   0.36448  -0.40178  -0.26452  -0.36479
  11   26647.5    375.3   0.025066095   0.30967   0.33974   0.39209   0.20128
  12   26689.9    374.7   0.014406144   0.17770  -0.32593  -0.18556  -0.19244
  13   27037.2    369.9   0.000529592   0.00645  -0.05361   0.00913   0.05909
  14   27450.3    364.3   0.169589851   2.03390  -0.11616   0.64698  -1.26563
  15   28316.2    353.2   0.025732125   0.29917  -0.33068  -0.06608  -0.43064
  16   28791.6    347.3   0.123585813   1.41312   0.17106   0.76862  -0.89055
  17   29460.0    339.4   0.000997540   0.01115  -0.06549  -0.05200  -0.06445
  18   29615.0    337.7   0.087806017   0.97608  -0.14788   0.38156  -0.89924
  19   30424.3    328.7   0.005864196   0.06345   0.04732  -0.22197   0.10929
  20   30850.4    324.1   0.111824197   1.19330   0.12116   0.56076  -0.92961
  21   31059.6    322.0   0.190147018   2.01544  -0.86036  -1.07450   0.34738
  22   31229.3    320.2   0.006655886   0.07016  -0.25231  -0.00701  -0.08035
  23   31441.6    318.1   0.040240120   0.42134  -0.07426   0.44838  -0.46344
  24   31672.4    315.7   0.006640004   0.06902   0.12673   0.04849   0.22496
  25   31924.8    313.2   0.432535782   4.46035  -1.83009  -0.94484   0.46732
  26   32501.8    307.7   0.124043129   1.25644   0.17861   0.09019  -1.10291
  27   32878.4    304.2   0.024011424   0.24043   0.28928   0.37922   0.11373
  28   33361.6    299.7   0.045340240   0.44742   0.60584   0.26198   0.10835
  29   33378.4    299.6   0.287979644   2.84035   1.19262   1.16160   0.26211
  30   33640.5    297.3   0.190514790   1.86441  -0.47378  -1.22224  -0.38221
  31   33825.2    295.6   0.078349620   0.76256  -0.46607  -0.73553   0.06586
  32   33864.4    295.3   0.007112124   0.06914   0.24959  -0.00366   0.08265
  33   34196.9    292.4   0.076286214   0.73440  -0.36416  -0.77546  -0.02130
  34   34236.8    292.1   0.005359884   0.05154   0.15049   0.12167   0.11870
  35   34293.7    291.6   0.015073555   0.14470  -0.09855  -0.35161   0.10658
  36   35198.6    284.1   0.062562422   0.58515   0.31687   0.62187  -0.31309
  37   35649.7    280.5   0.092663085   0.85571  -0.12188   0.63433  -0.66218
  38   36222.9    276.1   0.064691097   0.58795   0.17855   0.58108   0.46734
  39   36456.7    274.3   0.000635365   0.00574  -0.05595  -0.02925  -0.04185
  40   36643.5    272.9   0.003733990   0.03355  -0.06315  -0.17153  -0.01160
  41   36981.9    270.4   0.029604364   0.26354   0.43909   0.16521   0.20843
  42   37281.3    268.2   0.001416503   0.01251   0.04632   0.04436   0.09162
  43   37691.0    265.3   0.018600404   0.16247  -0.36591  -0.14857   0.08065
  44   37803.5    264.5   0.064384262   0.56069   0.35169   0.04232   0.65971
  45   38088.3    262.5   0.008960614   0.07745   0.08158  -0.03628   0.26359
  46   38921.6    256.9   0.031055935   0.26268   0.32617   0.21072   0.33450
  47   39207.1    255.1   0.003077197   0.02584   0.07811   0.13191   0.04833
  48   39502.5    253.1   0.136149256   1.13466   0.81666   0.35067   0.58716
  49   39539.0    252.9   0.035838266   0.29840   0.44056   0.20981   0.24553
  50   39627.0    252.4   0.058455384   0.48563  -0.09892  -0.51013   0.46434
  51   40197.5    248.8   0.029938276   0.24519  -0.42841  -0.24759   0.01878

FINAL SINGLE POINT ENERGY     -3956.042592646384

DIPOLE MOMENT
-------------
                                X             Y             Z
Electronic contribution:    -10.68774      -0.30170     -14.58950
Nuclear contribution   :     12.68307       2.95866      17.90486
                        -----------------------------------------
Total Dipole Moment    :      1.99533       2.65696       3.31536
                        -----------------------------------------
Magnitude (a.u.)       :      4.69387
Magnitude (Debye)      :     11.93086

Rotational constants in cm-1:     0.001813     0.000331     0.000299
Rotational constants in MHz :    54.338898     9.914875     8.967606

                             ****ORCA TERMINATED NORMALLY****
TOTAL RUN TIME: 0 days 0 hours 14 minutes 43 seconds 321 msec
