                         Program Version 4.2.0 -  RELEASE  -
|  1> # ORCA input file
|  2> # SCF done       -169.510301659954          0.000507009809
|  3> ! CAM-B3LYP def2-SVP def2/J RIJCOSX Grid4 TightSCF
|  4> %maxcore 5000
|  5> %tddft
|  6>     Mode sTDDFT
|  7>     Ethresh 5.0
|  8>     maxcore 5000
|  9> end
| 10>
| 11> %pal
| 12>   nprocs 6
| 13>   end
| 14> * xyz 0 1
| 15>    C       -0.02083         1.44488        -0.63903
| 16>    C       -0.96652         1.67970         0.53944
| 17>    C        1.20333         0.63426        -0.21124
| 18>    C        0.36897         2.73555        -1.31924
| 19>    C       -0.09057         2.70077        -2.60728
| 20>    C       -0.77094         1.43486        -2.79010
| 21>    C       -1.39383         0.97399        -3.91749
| 22>    C       -1.45355         1.71472        -5.11295
| 23>    N       -1.52811         2.28182        -6.10681
| 24>    C       -2.02088        -0.28980        -3.93220
| 25>    N       -2.53291        -1.31505        -3.94999
| 26>    O       -0.72378         0.72146        -1.66034
| 27>    C        0.06181         3.70308        -3.57866
| 28>    N        0.21877         4.55705        -4.32724
| 29>    C        1.08392         3.75932        -0.65418
| 30>    S        1.57796         5.27368        -1.40084
| 31>    C        2.25876         5.66719         0.17507
| 32>    N        2.07903         4.71256         1.05166
| 33>    N        1.44452         3.67972         0.60177
| 34>    C        2.91727         6.90080         0.42281
| 35>    C        3.37337         7.21702         1.66065
| 36>    C        4.01933         8.39335         2.11992
| 37>    N        4.45160         9.50494         1.42761
| 38>    C        4.47368         9.73043         0.00166
| 39>    C        5.53159         8.88009        -0.69630
| 40>    C        5.00994        10.46829         2.28859
| 41>    O        5.46096        11.52993         1.90276
| 42>    C        4.89331         9.89471         3.60955
| 43>    C        4.29404         8.62239         3.46611
| 44>    C        4.15690         8.03430         4.78292
| 45>    O        3.71506         6.97487         5.16304
| 46>    N        4.69796         9.01255         5.64838
| 47>    C        4.69938         8.81637         7.07843
| 48>    C        3.53876         9.54352         7.75323
| 49>    C        5.12791        10.12210         4.96638
| 50>    C        5.69374        11.26541         5.59513
| 51>    C        6.10771        12.34149         4.88764
| 52>    C        6.66572        13.55157         5.43337
| 53>    C        6.75630        13.81099         6.80140
| 54>    C        7.28570        15.00124         7.26990
| 55>    N        7.37784        15.14690         8.69970
| 56>    O        6.68027        14.42588         9.37937
| 57>    O        8.14916        15.97224         9.14937
| 58>    C        7.75282        16.00058         6.39238
| 59>    C        7.66589        15.72233         5.02100
| 60>    C        7.13967        14.54103         4.55478
| 61>    C        8.24940        17.27238         6.86363
| 62>    C        9.22550        17.96900         6.24667
| 63>    C        9.77983        19.19869         6.69786
| 64>    C       10.73410        19.91016         6.01556
| 65>    C       11.06752        21.07859         6.79671
| 66>    C       11.96855        22.06350         6.49540
| 67>    C       12.72740        22.05703         5.31013
| 68>    N       13.36410        22.08825         4.35696
| 69>    C       12.18068        23.14586         7.37427
| 70>    N       12.35449        24.02739         8.08622
| 71>    O       10.34761        21.08987         7.92258
| 72>    C        9.49550        19.92942         7.99078
| 73>    C        9.92082        19.11810         9.21878
| 74>    C        8.05723        20.44026         8.11331
| 75>    C       11.27204        19.55343         4.76854
| 76>    N       11.65551        19.18856         3.75180
| 77>    H       -0.44187         2.22893         1.31494
| 78>    H       -1.29837         0.72081         0.92705
| 79>    H       -1.83762         2.24772         0.21893
| 80>    H        1.74455         1.18150         0.55427
| 81>    H        1.85772         0.45813        -1.06274
| 82>    H        0.87765        -0.32413         0.18266
| 83>    H        3.00716         7.55716        -0.42688
| 84>    H        3.20678         6.48915         2.44562
| 85>    H        4.71933        10.78957        -0.12298
| 86>    H        3.47882         9.55911        -0.41661
| 87>    H        6.51914         9.13919        -0.32267
| 88>    H        5.50610         9.06827        -1.76598
| 89>    H        5.36565         7.81957        -0.52178
| 90>    H        5.65842         9.13911         7.49253
| 91>    H        4.59434         7.73912         7.23456
| 92>    H        3.58860        10.61563         7.57564
| 93>    H        3.56734         9.36497         8.82431
| 94>    H        2.59357         9.17269         7.36480
| 95>    H        5.78167        11.24022         6.67102
| 96>    H        6.01837        12.31699         3.80932
| 97>    H        6.42080        13.09141         7.53221
| 98>    H        7.99164        16.47398         4.31907
| 99>    H        7.08052        14.36228         3.49174
|100>    H        7.82002        17.65331         7.77656
|101>    H        9.68342        17.57216         5.34875
|102>    H       10.97474        18.85825         9.14234
|103>    H        9.34453        18.20283         9.30835
|104>    H        9.77815        19.72406        10.10939
|105>    H        7.72731        20.88242         7.17548
|106>    H        8.03106        21.20463         8.88593
|107>    H        7.37855        19.64097         8.38956
|108> *
|109>
|110>                          ****END OF INPUT****

CARTESIAN COORDINATES (ANGSTROEM)
---------------------------------
  C     -0.020830    1.444880   -0.639030
  C     -0.966520    1.679700    0.539440
  C      1.203330    0.634260   -0.211240
  C      0.368970    2.735550   -1.319240
  C     -0.090570    2.700770   -2.607280
  C     -0.770940    1.434860   -2.790100
  C     -1.393830    0.973990   -3.917490
  C     -1.453550    1.714720   -5.112950
  N     -1.528110    2.281820   -6.106810
  C     -2.020880   -0.289800   -3.932200
  N     -2.532910   -1.315050   -3.949990
  O     -0.723780    0.721460   -1.660340
  C      0.061810    3.703080   -3.578660
  N      0.218770    4.557050   -4.327240
  C      1.083920    3.759320   -0.654180
  S      1.577960    5.273680   -1.400840
  C      2.258760    5.667190    0.175070
  N      2.079030    4.712560    1.051660
  N      1.444520    3.679720    0.601770
  C      2.917270    6.900800    0.422810
  C      3.373370    7.217020    1.660650
  C      4.019330    8.393350    2.119920
  N      4.451600    9.504940    1.427610
  C      4.473680    9.730430    0.001660
  C      5.531590    8.880090   -0.696300
  C      5.009940   10.468290    2.288590
  O      5.460960   11.529930    1.902760
  C      4.893310    9.894710    3.609550
  C      4.294040    8.622390    3.466110
  C      4.156900    8.034300    4.782920
  O      3.715060    6.974870    5.163040
  N      4.697960    9.012550    5.648380
  C      4.699380    8.816370    7.078430
  C      3.538760    9.543520    7.753230
  C      5.127910   10.122100    4.966380
  C      5.693740   11.265410    5.595130
  C      6.107710   12.341490    4.887640
  C      6.665720   13.551570    5.433370
  C      6.756300   13.810990    6.801400
  C      7.285700   15.001240    7.269900
  N      7.377840   15.146900    8.699700
  O      6.680270   14.425880    9.379370
  O      8.149160   15.972240    9.149370
  C      7.752820   16.000580    6.392380
  C      7.665890   15.722330    5.021000
  C      7.139670   14.541030    4.554780
  C      8.249400   17.272380    6.863630
  C      9.225500   17.969000    6.246670
  C      9.779830   19.198690    6.697860
  C     10.734100   19.910160    6.015560
  C     11.067520   21.078590    6.796710
  C     11.968550   22.063500    6.495400
  C     12.727400   22.057030    5.310130
  N     13.364100   22.088250    4.356960
  C     12.180680   23.145860    7.374270
  N     12.354490   24.027390    8.086220
  O     10.347610   21.089870    7.922580
  C      9.495500   19.929420    7.990780
  C      9.920820   19.118100    9.218780
  C      8.057230   20.440260    8.113310
  C     11.272040   19.553430    4.768540
  N     11.655510   19.188560    3.751800
  H     -0.441870    2.228930    1.314940
  H     -1.298370    0.720810    0.927050
  H     -1.837620    2.247720    0.218930
  H      1.744550    1.181500    0.554270
  H      1.857720    0.458130   -1.062740
  H      0.877650   -0.324130    0.182660
  H      3.007160    7.557160   -0.426880
  H      3.206780    6.489150    2.445620
  H      4.719330   10.789570   -0.122980
  H      3.478820    9.559110   -0.416610
  H      6.519140    9.139190   -0.322670
  H      5.506100    9.068270   -1.765980
  H      5.365650    7.819570   -0.521780
  H      5.658420    9.139110    7.492530
  H      4.594340    7.739120    7.234560
  H      3.588600   10.615630    7.575640
  H      3.567340    9.364970    8.824310
  H      2.593570    9.172690    7.364800
  H      5.781670   11.240220    6.671020
  H      6.018370   12.316990    3.809320
  H      6.420800   13.091410    7.532210
  H      7.991640   16.473980    4.319070
  H      7.080520   14.362280    3.491740
  H      7.820020   17.653310    7.776560
  H      9.683420   17.572160    5.348750
  H     10.974740   18.858250    9.142340
  H      9.344530   18.202830    9.308350
  H      9.778150   19.724060   10.109390
  H      7.727310   20.882420    7.175480
  H      8.031060   21.204630    8.885930
  H      7.378550   19.640970    8.389560

 Total Charge           Charge          ....    0
 Multiplicity           Mult            ....    1
 Number of Electrons    NEL             ....  436
 Basis Dimension        Dim             .... 1027

ORBITAL ENERGIES
----------------

  NO   OCC          E(Eh)            E(eV)
   0   2.0000     -89.007438     -2422.0155
   1   2.0000     -19.300667      -525.1978
   2   2.0000     -19.299794      -525.1741
   3   2.0000     -19.280073      -524.6375
   4   2.0000     -19.278665      -524.5991
   5   2.0000     -19.218845      -522.9714
   6   2.0000     -19.212501      -522.7987
   7   2.0000     -14.685133      -399.6028
   8   2.0000     -14.481949      -394.0739
   9   2.0000     -14.479110      -393.9966
  10   2.0000     -14.475393      -393.8955
  11   2.0000     -14.467413      -393.6783
  12   2.0000     -14.439342      -392.9145
  13   2.0000     -14.431190      -392.6927
  14   2.0000     -14.406541      -392.0219
  15   2.0000     -14.404574      -391.9684
  16   2.0000     -14.404188      -391.9579
  17   2.0000     -14.403143      -391.9294
  18   2.0000     -10.405829      -283.1570
  19   2.0000     -10.402838      -283.0756
  20   2.0000     -10.400967      -283.0247
  21   2.0000     -10.396088      -282.8919
  22   2.0000     -10.384150      -282.5671
  23   2.0000     -10.381101      -282.4841
  24   2.0000     -10.378497      -282.4133
  25   2.0000     -10.376366      -282.3553
  26   2.0000     -10.371865      -282.2328
  27   2.0000     -10.368695      -282.1465
  28   2.0000     -10.361506      -281.9509
  29   2.0000     -10.359785      -281.9041
  30   2.0000     -10.359082      -281.8850
  31   2.0000     -10.353222      -281.7255
  32   2.0000     -10.351038      -281.6661
  33   2.0000     -10.348435      -281.5952
  34   2.0000     -10.338956      -281.3373
  35   2.0000     -10.337538      -281.2987
  36   2.0000     -10.337232      -281.2904
  37   2.0000     -10.336825      -281.2793
  38   2.0000     -10.333477      -281.1882
  39   2.0000     -10.333076      -281.1773
  40   2.0000     -10.330610      -281.1102
  41   2.0000     -10.330131      -281.0971
  42   2.0000     -10.327619      -281.0288
  43   2.0000     -10.326785      -281.0061
  44   2.0000     -10.326233      -280.9911
  45   2.0000     -10.326151      -280.9889
  46   2.0000     -10.324610      -280.9469
  47   2.0000     -10.323416      -280.9144
  48   2.0000     -10.323374      -280.9133
  49   2.0000     -10.321912      -280.8735
  50   2.0000     -10.310099      -280.5521
  51   2.0000     -10.308230      -280.5012
  52   2.0000     -10.308212      -280.5007
  53   2.0000     -10.307242      -280.4743
  54   2.0000     -10.299351      -280.2596
  55   2.0000     -10.292246      -280.0663
  56   2.0000     -10.291608      -280.0489
  57   2.0000     -10.286862      -279.9197
  58   2.0000     -10.286161      -279.9007
  59   2.0000     -10.285484      -279.8822
  60   2.0000     -10.283875      -279.8385
  61   2.0000     -10.280782      -279.7543
  62   2.0000      -8.102837      -220.4894
  63   2.0000      -6.071590      -165.2164
  64   2.0000      -6.067960      -165.1176
  65   2.0000      -6.065315      -165.0456
  66   2.0000      -1.360200       -37.0129
  67   2.0000      -1.223834       -33.3022
  68   2.0000      -1.222278       -33.2599
  69   2.0000      -1.179924       -32.1074
  70   2.0000      -1.178482       -32.0681
  71   2.0000      -1.159095       -31.5406
  72   2.0000      -1.150504       -31.3068
  73   2.0000      -1.089285       -29.6410
  74   2.0000      -1.077550       -29.3216
  75   2.0000      -1.027077       -27.9482
  76   2.0000      -1.026729       -27.9387
  77   2.0000      -1.018877       -27.7250
  78   2.0000      -1.002835       -27.2885
  79   2.0000      -1.000739       -27.2315
  80   2.0000      -0.993699       -27.0399
  81   2.0000      -0.983514       -26.7628
  82   2.0000      -0.982791       -26.7431
  83   2.0000      -0.980303       -26.6754
  84   2.0000      -0.967977       -26.3400
  85   2.0000      -0.959704       -26.1149
  86   2.0000      -0.951281       -25.8857
  87   2.0000      -0.950120       -25.8541
  88   2.0000      -0.949368       -25.8336
  89   2.0000      -0.933282       -25.3959
  90   2.0000      -0.930051       -25.3080
  91   2.0000      -0.920471       -25.0473
  92   2.0000      -0.908736       -24.7280
  93   2.0000      -0.893151       -24.3039
  94   2.0000      -0.891415       -24.2566
  95   2.0000      -0.889523       -24.2051
  96   2.0000      -0.877112       -23.8674
  97   2.0000      -0.842219       -22.9180
  98   2.0000      -0.836893       -22.7730
  99   2.0000      -0.828008       -22.5312
 100   2.0000      -0.820787       -22.3347
 101   2.0000      -0.815650       -22.1950
 102   2.0000      -0.807388       -21.9701
 103   2.0000      -0.804933       -21.9033
 104   2.0000      -0.788246       -21.4493
 105   2.0000      -0.781752       -21.2726
 106   2.0000      -0.769540       -20.9403
 107   2.0000      -0.765557       -20.8319
 108   2.0000      -0.761468       -20.7206
 109   2.0000      -0.755217       -20.5505
 110   2.0000      -0.745791       -20.2940
 111   2.0000      -0.738901       -20.1065
 112   2.0000      -0.731481       -19.9046
 113   2.0000      -0.721542       -19.6341
 114   2.0000      -0.719134       -19.5686
 115   2.0000      -0.710877       -19.3439
 116   2.0000      -0.696509       -18.9530
 117   2.0000      -0.684646       -18.6302
 118   2.0000      -0.680022       -18.5043
 119   2.0000      -0.673672       -18.3316
 120   2.0000      -0.670495       -18.2451
 121   2.0000      -0.665405       -18.1066
 122   2.0000      -0.663471       -18.0540
 123   2.0000      -0.657165       -17.8824
 124   2.0000      -0.647189       -17.6109
 125   2.0000      -0.645606       -17.5678
 126   2.0000      -0.632005       -17.1977
 127   2.0000      -0.629875       -17.1398
 128   2.0000      -0.625450       -17.0194
 129   2.0000      -0.619009       -16.8441
 130   2.0000      -0.615860       -16.7584
 131   2.0000      -0.610133       -16.6026
 132   2.0000      -0.604688       -16.4544
 133   2.0000      -0.596933       -16.2434
 134   2.0000      -0.596494       -16.2314
 135   2.0000      -0.594643       -16.1811
 136   2.0000      -0.590014       -16.0551
 137   2.0000      -0.588460       -16.0128
 138   2.0000      -0.583698       -15.8832
 139   2.0000      -0.577232       -15.7073
 140   2.0000      -0.575646       -15.6641
 141   2.0000      -0.566623       -15.4186
 142   2.0000      -0.564777       -15.3683
 143   2.0000      -0.559995       -15.2382
 144   2.0000      -0.555133       -15.1059
 145   2.0000      -0.552477       -15.0337
 146   2.0000      -0.548886       -14.9359
 147   2.0000      -0.546810       -14.8794
 148   2.0000      -0.543285       -14.7835
 149   2.0000      -0.539684       -14.6855
 150   2.0000      -0.535067       -14.5599
 151   2.0000      -0.531956       -14.4753
 152   2.0000      -0.526200       -14.3186
 153   2.0000      -0.524875       -14.2826
 154   2.0000      -0.521457       -14.1896
 155   2.0000      -0.514974       -14.0132
 156   2.0000      -0.514198       -13.9920
 157   2.0000      -0.511707       -13.9243
 158   2.0000      -0.509561       -13.8659
 159   2.0000      -0.508010       -13.8237
 160   2.0000      -0.504622       -13.7314
 161   2.0000      -0.502631       -13.6773
 162   2.0000      -0.496362       -13.5067
 163   2.0000      -0.494013       -13.4428
 164   2.0000      -0.488866       -13.3027
 165   2.0000      -0.488411       -13.2903
 166   2.0000      -0.487166       -13.2565
 167   2.0000      -0.485064       -13.1993
 168   2.0000      -0.482639       -13.1333
 169   2.0000      -0.480854       -13.0847
 170   2.0000      -0.479638       -13.0516
 171   2.0000      -0.477962       -13.0060
 172   2.0000      -0.474865       -12.9217
 173   2.0000      -0.473169       -12.8756
 174   2.0000      -0.469817       -12.7844
 175   2.0000      -0.468992       -12.7619
 176   2.0000      -0.468569       -12.7504
 177   2.0000      -0.465993       -12.6803
 178   2.0000      -0.462679       -12.5901
 179   2.0000      -0.461817       -12.5667
 180   2.0000      -0.460661       -12.5352
 181   2.0000      -0.454045       -12.3552
 182   2.0000      -0.451075       -12.2744
 183   2.0000      -0.446138       -12.1400
 184   2.0000      -0.445779       -12.1303
 185   2.0000      -0.444083       -12.0841
 186   2.0000      -0.441212       -12.0060
 187   2.0000      -0.441039       -12.0013
 188   2.0000      -0.440045       -11.9742
 189   2.0000      -0.437822       -11.9138
 190   2.0000      -0.435863       -11.8604
 191   2.0000      -0.433905       -11.8072
 192   2.0000      -0.432523       -11.7695
 193   2.0000      -0.430598       -11.7172
 194   2.0000      -0.422103       -11.4860
 195   2.0000      -0.420967       -11.4551
 196   2.0000      -0.418107       -11.3773
 197   2.0000      -0.417085       -11.3495
 198   2.0000      -0.416754       -11.3404
 199   2.0000      -0.414215       -11.2714
 200   2.0000      -0.413494       -11.2517
 201   2.0000      -0.412786       -11.2325
 202   2.0000      -0.410011       -11.1570
 203   2.0000      -0.403274       -10.9736
 204   2.0000      -0.401303       -10.9200
 205   2.0000      -0.400487       -10.8978
 206   2.0000      -0.385324       -10.4852
 207   2.0000      -0.381764       -10.3883
 208   2.0000      -0.372620       -10.1395
 209   2.0000      -0.367180        -9.9915
 210   2.0000      -0.356920        -9.7123
 211   2.0000      -0.355645        -9.6776
 212   2.0000      -0.345819        -9.4102
 213   2.0000      -0.340398        -9.2627
 214   2.0000      -0.337009        -9.1705
 215   2.0000      -0.306900        -8.3512
 216   2.0000      -0.301664        -8.2087
 217   2.0000      -0.264321        -7.1925
 218   0.0000      -0.128855        -3.5063
 219   0.0000      -0.108940        -2.9644
 220   0.0000      -0.089440        -2.4338
 221   0.0000      -0.075752        -2.0613
 222   0.0000      -0.051421        -1.3992

MULLIKEN ATOMIC CHARGES
-----------------------
   0 C :   -0.070259
   1 C :    0.107972
   2 C :    0.110670
   3 C :    0.150244
   4 C :   -0.139742
   5 C :    0.325256
   6 C :   -0.410208
   7 C :   -0.195881
   8 N :    0.184423
   9 C :   -0.161025
  10 N :    0.167462
  11 O :   -0.238640
  12 C :   -0.263163
  13 N :    0.247874
  14 C :   -0.218183
  15 S :    0.162148
  16 C :   -0.063471
  17 N :   -0.044657
  18 N :   -0.026952
  19 C :    0.043946
  20 C :   -0.016963
  21 C :    0.114021
  22 N :   -0.267021
  23 C :    0.098511
  24 C :   -0.004700
  25 C :    0.166768
  26 O :   -0.217481
  27 C :   -0.073923
  28 C :   -0.026012
  29 C :    0.155983
  30 O :   -0.164935
  31 N :   -0.268008
  32 C :    0.094450
  33 C :    0.000442
  34 C :    0.152814
  35 C :    0.005134
  36 C :    0.007654
  37 C :    0.111390
  38 C :   -0.060900
  39 C :    0.153066
  40 N :    0.257818
  41 O :   -0.217123
  42 O :   -0.240102
  43 C :    0.040882
  44 C :   -0.021737
  45 C :    0.016782
  46 C :    0.027598
  47 C :   -0.052652
  48 C :    0.072972
  49 C :   -0.134919
  50 C :    0.338643
  51 C :   -0.405866
  52 C :   -0.199574
  53 N :    0.185001
  54 C :   -0.161951
  55 N :    0.162967
  56 O :   -0.244137
  57 C :   -0.097763
  58 C :    0.117418
  59 C :    0.109770
  60 C :   -0.240938
  61 N :    0.222578
  62 H :    0.050655
  63 H :    0.038285
  64 H :    0.019736
  65 H :    0.049383
  66 H :    0.019907
  67 H :    0.038541
  68 H :   -0.010927
  69 H :    0.042457
  70 H :    0.048443
  71 H :    0.027485
  72 H :    0.029260
  73 H :    0.030401
  74 H :    0.022570
  75 H :    0.027737
  76 H :    0.050031
  77 H :    0.015218
  78 H :    0.032895
  79 H :    0.033836
  80 H :   -0.023022
  81 H :    0.014878
  82 H :    0.005551
  83 H :    0.007156
  84 H :    0.020433
  85 H :    0.021927
  86 H :    0.021747
  87 H :    0.027297
  88 H :    0.033781
  89 H :    0.039656
  90 H :    0.029114
  91 H :    0.049198
  92 H :    0.022601
Sum of atomic charges:   -0.0000000

LOEWDIN ATOMIC CHARGES
----------------------
   0 C :    0.065449
   1 C :   -0.035730
   2 C :   -0.035158
   3 C :    0.027584
   4 C :   -0.086297
   5 C :    0.131710
   6 C :   -0.176724
   7 C :   -0.035730
   8 N :   -0.037435
   9 C :   -0.023732
  10 N :   -0.044502
  11 O :   -0.038634
  12 C :   -0.051126
  13 N :   -0.004631
  14 C :   -0.168543
  15 S :    0.446913
  16 C :   -0.127846
  17 N :   -0.073839
  18 N :   -0.041884
  19 C :   -0.060947
  20 C :    0.025160
  21 C :    0.054827
  22 N :   -0.001224
  23 C :    0.035387
  24 C :   -0.062470
  25 C :    0.080847
  26 O :   -0.205404
  27 C :   -0.129575
  28 C :   -0.090375
  29 C :    0.084999
  30 O :   -0.168718
  31 N :   -0.002389
  32 C :    0.036244
  33 C :   -0.060369
  34 C :    0.094947
  35 C :   -0.040755
  36 C :    0.043007
  37 C :   -0.023381
  38 C :    0.021482
  39 C :   -0.023200
  40 N :    0.289613
  41 O :   -0.187024
  42 O :   -0.196271
  43 C :   -0.005826
  44 C :    0.002562
  45 C :    0.027508
  46 C :    0.028154
  47 C :   -0.024955
  48 C :    0.051671
  49 C :   -0.087254
  50 C :    0.130196
  51 C :   -0.178299
  52 C :   -0.035410
  53 N :   -0.038229
  54 C :   -0.024072
  55 N :   -0.047460
  56 O :   -0.043059
  57 C :    0.060701
  58 C :   -0.035289
  59 C :   -0.036000
  60 C :   -0.038253
  61 N :   -0.014206
  62 H :    0.038821
  63 H :    0.038729
  64 H :    0.031534
  65 H :    0.038856
  66 H :    0.031574
  67 H :    0.039028
  68 H :    0.031634
  69 H :    0.056825
  70 H :    0.039316
  71 H :    0.021037
  72 H :    0.033191
  73 H :    0.033938
  74 H :    0.022092
  75 H :    0.024372
  76 H :    0.040895
  77 H :    0.021414
  78 H :    0.034545
  79 H :    0.034034
  80 H :    0.029668
  81 H :    0.040503
  82 H :    0.039178
  83 H :    0.041930
  84 H :    0.047032
  85 H :    0.028564
  86 H :    0.042735
  87 H :    0.036182
  88 H :    0.035182
  89 H :    0.039986
  90 H :    0.034865
  91 H :    0.044637
  92 H :    0.030971

  Mayer bond orders larger than 0.100000
B(  0-C ,  1-C ) :   1.0437 B(  0-C ,  2-C ) :   1.0454 B(  0-C ,  3-C ) :   0.9635
B(  0-C , 11-O ) :   0.9081 B(  1-C , 62-H ) :   0.9502 B(  1-C , 63-H ) :   0.9556
B(  1-C , 64-H ) :   0.9505 B(  2-C , 65-H ) :   0.9506 B(  2-C , 66-H ) :   0.9502
B(  2-C , 67-H ) :   0.9554 B(  3-C ,  4-C ) :   1.6922 B(  3-C , 14-C ) :   1.1237
B(  4-C ,  5-C ) :   1.0381 B(  4-C , 12-C ) :   1.1272 B(  5-C ,  6-C ) :   1.6244
B(  5-C , 11-O ) :   1.2656 B(  6-C ,  7-C ) :   1.1758 B(  6-C ,  9-C ) :   1.1099
B(  7-C ,  8-N ) :   3.0193 B(  9-C , 10-N ) :   3.0551 B( 12-C , 13-N ) :   2.9967
B( 14-C , 15-S ) :   1.1173 B( 14-C , 18-N ) :   1.6223 B( 15-S , 16-C ) :   1.1114
B( 15-S , 18-N ) :   0.1017 B( 16-C , 17-N ) :   1.6173 B( 16-C , 19-C ) :   1.1263
B( 17-N , 18-N ) :   1.2682 B( 19-C , 20-C ) :   1.6110 B( 19-C , 68-H ) :   0.9477
B( 20-C , 21-C ) :   1.1603 B( 20-C , 69-H ) :   0.9505 B( 21-C , 22-N ) :   1.1529
B( 21-C , 28-C ) :   1.3638 B( 22-N , 23-C ) :   0.9405 B( 22-N , 25-C ) :   1.0726
B( 23-C , 24-C ) :   1.1138 B( 23-C , 70-H ) :   0.9237 B( 23-C , 71-H ) :   0.9505
B( 24-C , 72-H ) :   0.9622 B( 24-C , 73-H ) :   0.9682 B( 24-C , 74-H ) :   0.9688
B( 25-C , 26-O ) :   2.0072 B( 25-C , 27-C ) :   0.9950 B( 26-O , 81-H ) :   0.1210
B( 27-C , 28-C ) :   1.2561 B( 27-C , 34-C ) :   1.3190 B( 28-C , 29-C ) :   0.9596
B( 29-C , 30-O ) :   2.1602 B( 29-C , 31-N ) :   1.0194 B( 31-N , 32-C ) :   0.9398
B( 31-N , 34-C ) :   1.1841 B( 32-C , 33-C ) :   1.1181 B( 32-C , 75-H ) :   0.9504
B( 32-C , 76-H ) :   0.9276 B( 33-C , 77-H ) :   0.9688 B( 33-C , 78-H ) :   0.9682
B( 33-C , 79-H ) :   0.9640 B( 34-C , 35-C ) :   1.1468 B( 35-C , 36-C ) :   1.6129
B( 35-C , 80-H ) :   0.9587 B( 36-C , 37-C ) :   1.0737 B( 36-C , 81-H ) :   0.9639
B( 37-C , 38-C ) :   1.2842 B( 37-C , 45-C ) :   1.3118 B( 38-C , 39-C ) :   1.3910
B( 38-C , 82-H ) :   0.9848 B( 39-C , 40-N ) :   0.8834 B( 39-C , 43-C ) :   1.3328
B( 40-N , 41-O ) :   1.5640 B( 40-N , 42-O ) :   1.4898 B( 41-O , 42-O ) :   0.2632
B( 43-C , 44-C ) :   1.3478 B( 43-C , 46-C ) :   1.0637 B( 44-C , 45-C ) :   1.3863
B( 44-C , 83-H ) :   0.9910 B( 45-C , 84-H ) :   1.0027 B( 46-C , 47-C ) :   1.6937
B( 46-C , 85-H ) :   0.9373 B( 47-C , 48-C ) :   1.1729 B( 47-C , 86-H ) :   0.9548
B( 48-C , 49-C ) :   1.6623 B( 48-C , 57-C ) :   0.9492 B( 49-C , 50-C ) :   1.0298
B( 49-C , 60-C ) :   1.1341 B( 50-C , 51-C ) :   1.6252 B( 50-C , 56-O ) :   1.2546
B( 51-C , 52-C ) :   1.1798 B( 51-C , 54-C ) :   1.1057 B( 52-C , 53-N ) :   3.0161
B( 54-C , 55-N ) :   3.0549 B( 56-O , 57-C ) :   0.9106 B( 57-C , 58-C ) :   1.0462
B( 57-C , 59-C ) :   1.0408 B( 58-C , 87-H ) :   0.9484 B( 58-C , 88-H ) :   0.9527
B( 58-C , 89-H ) :   0.9561 B( 59-C , 90-H ) :   0.9546 B( 59-C , 91-H ) :   0.9514
B( 59-C , 92-H ) :   0.9578 B( 60-C , 61-N ) :   3.0129

-----------------------------------------------------------------------------
         ABSORPTION SPECTRUM VIA TRANSITION ELECTRIC DIPOLE MOMENTS
-----------------------------------------------------------------------------
State   Energy  Wavelength   fosc         T2         TX        TY        TZ
        (cm-1)    (nm)                  (au**2)     (au)      (au)      (au)
-----------------------------------------------------------------------------
   0   14687.9    680.8   1.225598054  27.47026   2.28204   3.40177   3.26963
   1   21090.5    474.1   0.050075569   0.78165  -0.05111   0.23651  -0.85035
   2   24184.6    413.5   0.280491919   3.81819   1.11827   1.57670  -0.28580
   3   25152.8    397.6   0.280238729   3.66789   0.79963   0.79935   1.54581
   4   25275.9    395.6   0.800542341  10.42687  -1.87557  -2.62841  -0.02421
   5   25894.2    386.2   0.018199428   0.23138   0.25852   0.37055  -0.16504
   6   27089.0    369.2   0.000077676   0.00094  -0.02816   0.00500   0.01124
   7   27766.2    360.1   0.097753782   1.15902   0.57180   0.89544  -0.17391
   8   27860.4    358.9   0.001745126   0.02062  -0.09855   0.05221   0.09046
   9   29825.5    335.3   0.321513592   3.54885  -0.67289  -1.67551  -0.53733
  10   30488.7    328.0   0.063954716   0.69057  -0.34347  -0.65607  -0.37706
  11   31275.4    319.7   0.206926545   2.17816  -0.79007  -1.24002   0.12763
  12   31358.2    318.9   0.000529000   0.00555   0.03203   0.03148  -0.05947
  13   31701.7    315.4   0.014397437   0.14951   0.28139   0.23933   0.11425
  14   33279.7    300.5   0.389863321   3.85663   1.10782   1.34981   0.89855
  15   33849.0    295.4   0.103958881   1.01109   0.09515   0.36352  -0.93268
  16   35336.1    283.0   0.015061376   0.14032   0.14534  -0.06332  -0.33939
  17   36135.4    276.7   0.004918208   0.04481  -0.18867   0.07916   0.05428
  18   36322.7    275.3   0.072858209   0.66035  -0.55980  -0.49575  -0.31812
  19   36836.0    271.5   0.002815550   0.02516  -0.00025  -0.14499  -0.06434
  20   37210.6    268.7   0.024853436   0.21988   0.07910   0.13856  -0.44094
  21   37736.4    265.0   0.047025117   0.41025   0.14331   0.27700  -0.55944
  22   38021.8    263.0   0.053760272   0.46548  -0.47516  -0.42566   0.24192
  23   38304.6    261.1   0.081704690   0.70222   0.48010   0.64106   0.24650
  24   39530.2    253.0   0.010301652   0.08579   0.24566  -0.00190  -0.15950
  25   39664.3    252.1   0.021190090   0.17588  -0.37899  -0.06849   0.16598
  26   39826.3    251.1   0.190163972   1.57193   0.42872   1.09288  -0.44017
  27   40026.8    249.8   0.006115617   0.05030   0.06033  -0.18668   0.10868

FINAL SINGLE POINT ENERGY     -3143.373991171200

DIPOLE MOMENT
-------------
                                X             Y             Z
Electronic contribution:     -0.98986      -1.39956     -31.15507
Nuclear contribution   :      0.01122       0.58823      35.02417
                        -----------------------------------------
Total Dipole Moment    :     -0.97864      -0.81133       3.86910
                        -----------------------------------------
Magnitude (a.u.)       :      4.07259
Magnitude (Debye)      :     10.35170

Rotational constants in cm-1:     0.003786     0.000243     0.000231
Rotational constants in MHz :   113.501840     7.297061     6.934622

                             ****ORCA TERMINATED NORMALLY****
TOTAL RUN TIME: 0 days 0 hours 7 minutes 10 seconds 10 msec
