                         Program Version 4.2.0 -  RELEASE  -
|  1> # ORCA input file
|  2> # SCF done       -161.227034235752          0.000845956296
|  3> ! CAM-B3LYP def2-SVP def2/J RIJCOSX Grid4 TightSCF
|  4> %maxcore 5000
|  5> %tddft
|  6>     Mode sTDDFT
|  7>     Ethresh 5.0
|  8>     maxcore 5000
|  9> end
| 10>
| 11> %pal
| 12>   nprocs 6
| 13>   end
| 14> * xyz 0 1
| 15>    C        1.03443         1.62066        -0.05730
| 16>    C        0.12583         1.12964        -0.99553
| 17>    C        0.55823         0.88791        -2.32445
| 18>    C        1.86611         1.13064        -2.71055
| 19>    C        2.74418         1.61679        -1.76286
| 20>    C        2.33161         1.85845        -0.45121
| 21>    S       -0.76358         0.28598        -3.26893
| 22>    C       -1.77665         0.41100        -1.81241
| 23>    N       -1.17800         0.84878        -0.76497
| 24>    C       -3.15305         0.04245        -1.86735
| 25>    S       -3.91262        -0.56888        -3.32789
| 26>    C       -5.37955        -0.65460        -2.36191
| 27>    N       -5.19037        -0.25296        -1.13337
| 28>    N       -3.97769         0.12583        -0.86418
| 29>    C       -6.61583        -1.10257        -2.90019
| 30>    C       -7.74605        -1.13683        -2.15238
| 31>    C       -8.99628        -1.55899        -2.67270
| 32>    N      -10.15995        -1.57545        -1.94126
| 33>    C      -10.32804        -1.12813        -0.57933
| 34>    C      -10.39797         0.39420        -0.49057
| 35>    C      -11.25289        -2.02890        -2.69963
| 36>    O      -12.37532        -2.15564        -2.25361
| 37>    C      -10.69197        -2.30290        -4.00582
| 38>    C       -9.30415        -2.01917        -3.95185
| 39>    C       -8.74050        -2.31427        -5.25109
| 40>    O       -7.60985        -2.22713        -5.68764
| 41>    N       -9.83701        -2.75339        -6.01379
| 42>    C       -9.66982        -3.20888        -7.37329
| 43>    C       -9.69685        -4.73227        -7.47037
| 44>    C      -11.00302        -2.74410        -5.28851
| 45>    C      -12.27251        -3.09404        -5.82667
| 46>    C      -13.40773        -2.97277        -5.10596
| 47>    C      -14.72467        -3.31091        -5.57425
| 48>    C      -15.84008        -2.49809        -5.27268
| 49>    C      -15.67054        -1.16030        -4.66894
| 50>    O      -14.65400        -0.59793        -4.39684
| 51>    S      -17.28380        -0.40365        -4.46713
| 52>    C      -18.12730        -1.75315        -5.29751
| 53>    O      -19.28637        -1.69233        -5.57540
| 54>    C      -17.15316        -2.82959        -5.59821
| 55>    C      -17.47726        -4.03588        -6.26020
| 56>    C      -16.35699        -4.79449        -6.63640
| 57>    C      -15.04420        -4.46046        -6.31499
| 58>    C      -14.18415        -5.56249        -6.81139
| 59>    O      -13.00388        -5.72286        -6.74284
| 60>    O      -15.00465        -6.47777        -7.42017
| 61>    C      -16.32230        -6.08786        -7.35803
| 62>    O      -17.20340        -6.73673        -7.82766
| 63>    C      -18.80014        -4.51186        -6.57027
| 64>    C      -19.88409        -4.38919        -5.78183
| 65>    C      -21.15661        -4.91049        -6.16551
| 66>    N      -21.42208        -5.51823        -7.26815
| 67>    C      -22.72057        -5.88215        -7.36278
| 68>    C      -23.30613        -6.55436        -8.43714
| 69>    C      -24.64778        -6.85322        -8.38109
| 70>    C      -25.42238        -6.49542        -7.27529
| 71>    C      -24.86918        -5.83170        -6.19937
| 72>    C      -23.51827        -5.52662        -6.24386
| 73>    S      -22.54191        -4.71507        -5.06721
| 74>    H        0.69947         1.80173         0.95091
| 75>    H        2.18304         0.94305        -3.72451
| 76>    H        3.76817         1.81333        -2.04206
| 77>    H        3.04582         2.23867         0.26327
| 78>    H       -6.62434        -1.40804        -3.93729
| 79>    H       -7.68853        -0.82319        -1.12048
| 80>    H       -9.51373        -1.51771         0.03714
| 81>    H      -11.27166        -1.55994        -0.23428
| 82>    H       -9.47917         0.84872        -0.85405
| 83>    H      -10.55172         0.69491         0.54187
| 84>    H      -11.22860         0.76245        -1.08786
| 85>    H       -8.69346        -2.83502        -7.69515
| 86>    H      -10.44231        -2.76354        -8.00675
| 87>    H       -8.90697        -5.15605        -6.85497
| 88>    H       -9.53154        -5.03428        -8.50090
| 89>    H      -10.65040        -5.13424        -7.13683
| 90>    H      -12.30704        -3.41861        -6.85501
| 91>    H      -13.35515        -2.55888        -4.10559
| 92>    H      -18.89867        -5.09160        -7.47813
| 93>    H      -19.84226        -3.90845        -4.81589
| 94>    H      -22.69477        -6.82365        -9.28300
| 95>    H      -25.11460        -7.37317        -9.20388
| 96>    H      -26.47291        -6.74318        -7.26159
| 97>    H      -25.46610        -5.55535        -5.34446
| 98> *
| 99>
|100>                          ****END OF INPUT****

CARTESIAN COORDINATES (ANGSTROEM)
---------------------------------
  C      1.034430    1.620660   -0.057300
  C      0.125830    1.129640   -0.995530
  C      0.558230    0.887910   -2.324450
  C      1.866110    1.130640   -2.710550
  C      2.744180    1.616790   -1.762860
  C      2.331610    1.858450   -0.451210
  S     -0.763580    0.285980   -3.268930
  C     -1.776650    0.411000   -1.812410
  N     -1.178000    0.848780   -0.764970
  C     -3.153050    0.042450   -1.867350
  S     -3.912620   -0.568880   -3.327890
  C     -5.379550   -0.654600   -2.361910
  N     -5.190370   -0.252960   -1.133370
  N     -3.977690    0.125830   -0.864180
  C     -6.615830   -1.102570   -2.900190
  C     -7.746050   -1.136830   -2.152380
  C     -8.996280   -1.558990   -2.672700
  N    -10.159950   -1.575450   -1.941260
  C    -10.328040   -1.128130   -0.579330
  C    -10.397970    0.394200   -0.490570
  C    -11.252890   -2.028900   -2.699630
  O    -12.375320   -2.155640   -2.253610
  C    -10.691970   -2.302900   -4.005820
  C     -9.304150   -2.019170   -3.951850
  C     -8.740500   -2.314270   -5.251090
  O     -7.609850   -2.227130   -5.687640
  N     -9.837010   -2.753390   -6.013790
  C     -9.669820   -3.208880   -7.373290
  C     -9.696850   -4.732270   -7.470370
  C    -11.003020   -2.744100   -5.288510
  C    -12.272510   -3.094040   -5.826670
  C    -13.407730   -2.972770   -5.105960
  C    -14.724670   -3.310910   -5.574250
  C    -15.840080   -2.498090   -5.272680
  C    -15.670540   -1.160300   -4.668940
  O    -14.654000   -0.597930   -4.396840
  S    -17.283800   -0.403650   -4.467130
  C    -18.127300   -1.753150   -5.297510
  O    -19.286370   -1.692330   -5.575400
  C    -17.153160   -2.829590   -5.598210
  C    -17.477260   -4.035880   -6.260200
  C    -16.356990   -4.794490   -6.636400
  C    -15.044200   -4.460460   -6.314990
  C    -14.184150   -5.562490   -6.811390
  O    -13.003880   -5.722860   -6.742840
  O    -15.004650   -6.477770   -7.420170
  C    -16.322300   -6.087860   -7.358030
  O    -17.203400   -6.736730   -7.827660
  C    -18.800140   -4.511860   -6.570270
  C    -19.884090   -4.389190   -5.781830
  C    -21.156610   -4.910490   -6.165510
  N    -21.422080   -5.518230   -7.268150
  C    -22.720570   -5.882150   -7.362780
  C    -23.306130   -6.554360   -8.437140
  C    -24.647780   -6.853220   -8.381090
  C    -25.422380   -6.495420   -7.275290
  C    -24.869180   -5.831700   -6.199370
  C    -23.518270   -5.526620   -6.243860
  S    -22.541910   -4.715070   -5.067210
  H      0.699470    1.801730    0.950910
  H      2.183040    0.943050   -3.724510
  H      3.768170    1.813330   -2.042060
  H      3.045820    2.238670    0.263270
  H     -6.624340   -1.408040   -3.937290
  H     -7.688530   -0.823190   -1.120480
  H     -9.513730   -1.517710    0.037140
  H    -11.271660   -1.559940   -0.234280
  H     -9.479170    0.848720   -0.854050
  H    -10.551720    0.694910    0.541870
  H    -11.228600    0.762450   -1.087860
  H     -8.693460   -2.835020   -7.695150
  H    -10.442310   -2.763540   -8.006750
  H     -8.906970   -5.156050   -6.854970
  H     -9.531540   -5.034280   -8.500900
  H    -10.650400   -5.134240   -7.136830
  H    -12.307040   -3.418610   -6.855010
  H    -13.355150   -2.558880   -4.105590
  H    -18.898670   -5.091600   -7.478130
  H    -19.842260   -3.908450   -4.815890
  H    -22.694770   -6.823650   -9.283000
  H    -25.114600   -7.373170   -9.203880
  H    -26.472910   -6.743180   -7.261590
  H    -25.466100   -5.555350   -5.344460

 Total Charge           Charge          ....    0
 Multiplicity           Mult            ....    1
 Number of Electrons    NEL             ....  438
 Basis Dimension        Dim             ....  962

ORBITAL ENERGIES
----------------

  NO   OCC          E(Eh)            E(eV)
   0   2.0000     -88.978279     -2421.2221
   1   2.0000     -88.962071     -2420.7810
   2   2.0000     -88.958179     -2420.6751
   3   2.0000     -88.955809     -2420.6106
   4   2.0000     -19.299731      -525.1724
   5   2.0000     -19.248654      -523.7825
   6   2.0000     -19.248473      -523.7776
   7   2.0000     -19.248251      -523.7715
   8   2.0000     -19.246433      -523.7221
   9   2.0000     -19.194479      -522.3083
  10   2.0000     -19.194421      -522.3067
  11   2.0000     -14.455591      -393.3566
  12   2.0000     -14.455382      -393.3509
  13   2.0000     -14.440712      -392.9517
  14   2.0000     -14.439960      -392.9313
  15   2.0000     -14.411860      -392.1666
  16   2.0000     -14.409245      -392.0955
  17   2.0000     -10.443485      -284.1817
  18   2.0000     -10.439273      -284.0670
  19   2.0000     -10.413165      -283.3566
  20   2.0000     -10.409755      -283.2638
  21   2.0000     -10.376775      -282.3664
  22   2.0000     -10.376572      -282.3609
  23   2.0000     -10.348671      -281.6017
  24   2.0000     -10.346447      -281.5411
  25   2.0000     -10.345091      -281.5042
  26   2.0000     -10.343029      -281.4481
  27   2.0000     -10.342155      -281.4243
  28   2.0000     -10.341813      -281.4150
  29   2.0000     -10.340954      -281.3917
  30   2.0000     -10.340566      -281.3811
  31   2.0000     -10.337494      -281.2975
  32   2.0000     -10.336529      -281.2713
  33   2.0000     -10.334981      -281.2291
  34   2.0000     -10.333690      -281.1940
  35   2.0000     -10.307517      -280.4818
  36   2.0000     -10.306858      -280.4639
  37   2.0000     -10.305653      -280.4311
  38   2.0000     -10.304765      -280.4069
  39   2.0000     -10.303957      -280.3849
  40   2.0000     -10.303146      -280.3629
  41   2.0000     -10.302054      -280.3331
  42   2.0000     -10.300515      -280.2913
  43   2.0000     -10.298513      -280.2368
  44   2.0000     -10.296955      -280.1944
  45   2.0000     -10.296147      -280.1724
  46   2.0000     -10.294299      -280.1221
  47   2.0000     -10.282514      -279.8014
  48   2.0000     -10.280825      -279.7555
  49   2.0000     -10.276957      -279.6502
  50   2.0000     -10.275241      -279.6035
  51   2.0000     -10.273982      -279.5693
  52   2.0000     -10.272838      -279.5381
  53   2.0000     -10.272704      -279.5345
  54   2.0000     -10.271895      -279.5125
  55   2.0000     -10.264736      -279.3177
  56   2.0000     -10.264388      -279.3082
  57   2.0000     -10.261270      -279.2234
  58   2.0000     -10.256140      -279.0837
  59   2.0000      -8.074524      -219.7190
  60   2.0000      -8.058322      -219.2781
  61   2.0000      -8.055154      -219.1919
  62   2.0000      -8.054480      -219.1735
  63   2.0000      -6.043122      -164.4417
  64   2.0000      -6.039803      -164.3514
  65   2.0000      -6.036953      -164.2738
  66   2.0000      -6.027635      -164.0203
  67   2.0000      -6.024003      -163.9215
  68   2.0000      -6.023874      -163.9179
  69   2.0000      -6.023640      -163.9116
  70   2.0000      -6.020755      -163.8331
  71   2.0000      -6.019978      -163.8119
  72   2.0000      -6.019823      -163.8077
  73   2.0000      -6.016197      -163.7091
  74   2.0000      -6.016180      -163.7086
  75   2.0000      -1.250099       -34.0169
  76   2.0000      -1.175614       -31.9901
  77   2.0000      -1.174946       -31.9719
  78   2.0000      -1.170566       -31.8527
  79   2.0000      -1.146321       -31.1930
  80   2.0000      -1.137292       -30.9473
  81   2.0000      -1.136552       -30.9271
  82   2.0000      -1.129998       -30.7488
  83   2.0000      -1.068926       -29.0869
  84   2.0000      -1.066826       -29.0298
  85   2.0000      -1.065880       -29.0041
  86   2.0000      -1.058344       -28.7990
  87   2.0000      -1.023981       -27.8639
  88   2.0000      -0.959522       -26.1099
  89   2.0000      -0.953129       -25.9360
  90   2.0000      -0.949869       -25.8472
  91   2.0000      -0.942073       -25.6351
  92   2.0000      -0.941631       -25.6231
  93   2.0000      -0.928609       -25.2687
  94   2.0000      -0.923654       -25.1339
  95   2.0000      -0.910471       -24.7752
  96   2.0000      -0.896339       -24.3906
  97   2.0000      -0.894675       -24.3453
  98   2.0000      -0.889886       -24.2150
  99   2.0000      -0.881951       -23.9991
 100   2.0000      -0.875615       -23.8267
 101   2.0000      -0.867750       -23.6127
 102   2.0000      -0.834748       -22.7146
 103   2.0000      -0.828621       -22.5479
 104   2.0000      -0.822972       -22.3942
 105   2.0000      -0.821833       -22.3632
 106   2.0000      -0.818997       -22.2860
 107   2.0000      -0.807789       -21.9811
 108   2.0000      -0.805019       -21.9057
 109   2.0000      -0.794368       -21.6159
 110   2.0000      -0.777906       -21.1679
 111   2.0000      -0.766085       -20.8462
 112   2.0000      -0.759025       -20.6541
 113   2.0000      -0.748707       -20.3734
 114   2.0000      -0.739746       -20.1295
 115   2.0000      -0.727514       -19.7967
 116   2.0000      -0.712225       -19.3806
 117   2.0000      -0.706396       -19.2220
 118   2.0000      -0.697398       -18.9772
 119   2.0000      -0.694322       -18.8935
 120   2.0000      -0.690176       -18.7806
 121   2.0000      -0.686840       -18.6899
 122   2.0000      -0.683074       -18.5874
 123   2.0000      -0.676216       -18.4008
 124   2.0000      -0.669928       -18.2297
 125   2.0000      -0.651796       -17.7363
 126   2.0000      -0.650854       -17.7106
 127   2.0000      -0.641613       -17.4592
 128   2.0000      -0.634547       -17.2669
 129   2.0000      -0.630157       -17.1474
 130   2.0000      -0.621720       -16.9179
 131   2.0000      -0.619148       -16.8479
 132   2.0000      -0.615039       -16.7361
 133   2.0000      -0.609376       -16.5820
 134   2.0000      -0.591794       -16.1035
 135   2.0000      -0.590878       -16.0786
 136   2.0000      -0.587167       -15.9776
 137   2.0000      -0.582173       -15.8417
 138   2.0000      -0.576999       -15.7009
 139   2.0000      -0.574651       -15.6371
 140   2.0000      -0.572584       -15.5808
 141   2.0000      -0.571469       -15.5505
 142   2.0000      -0.567832       -15.4515
 143   2.0000      -0.564701       -15.3663
 144   2.0000      -0.563645       -15.3376
 145   2.0000      -0.559999       -15.2384
 146   2.0000      -0.557677       -15.1752
 147   2.0000      -0.549803       -14.9609
 148   2.0000      -0.549278       -14.9466
 149   2.0000      -0.545835       -14.8529
 150   2.0000      -0.544437       -14.8149
 151   2.0000      -0.534793       -14.5525
 152   2.0000      -0.531728       -14.4691
 153   2.0000      -0.529734       -14.4148
 154   2.0000      -0.529152       -14.3990
 155   2.0000      -0.525849       -14.3091
 156   2.0000      -0.521660       -14.1951
 157   2.0000      -0.519910       -14.1475
 158   2.0000      -0.518688       -14.1142
 159   2.0000      -0.518228       -14.1017
 160   2.0000      -0.515903       -14.0384
 161   2.0000      -0.515276       -14.0214
 162   2.0000      -0.513572       -13.9750
 163   2.0000      -0.512513       -13.9462
 164   2.0000      -0.509397       -13.8614
 165   2.0000      -0.506638       -13.7863
 166   2.0000      -0.503680       -13.7058
 167   2.0000      -0.502656       -13.6780
 168   2.0000      -0.494011       -13.4427
 169   2.0000      -0.490774       -13.3546
 170   2.0000      -0.486213       -13.2305
 171   2.0000      -0.482553       -13.1309
 172   2.0000      -0.479279       -13.0418
 173   2.0000      -0.474598       -12.9145
 174   2.0000      -0.473454       -12.8833
 175   2.0000      -0.471154       -12.8208
 176   2.0000      -0.467022       -12.7083
 177   2.0000      -0.465797       -12.6750
 178   2.0000      -0.463376       -12.6091
 179   2.0000      -0.455735       -12.4012
 180   2.0000      -0.452769       -12.3205
 181   2.0000      -0.447235       -12.1699
 182   2.0000      -0.445782       -12.1304
 183   2.0000      -0.445103       -12.1119
 184   2.0000      -0.443834       -12.0773
 185   2.0000      -0.442672       -12.0457
 186   2.0000      -0.436328       -11.8731
 187   2.0000      -0.433937       -11.8080
 188   2.0000      -0.424052       -11.5391
 189   2.0000      -0.423771       -11.5314
 190   2.0000      -0.420448       -11.4410
 191   2.0000      -0.416304       -11.3282
 192   2.0000      -0.414007       -11.2657
 193   2.0000      -0.407744       -11.0953
 194   2.0000      -0.403395       -10.9769
 195   2.0000      -0.393811       -10.7161
 196   2.0000      -0.392296       -10.6749
 197   2.0000      -0.382686       -10.4134
 198   2.0000      -0.382340       -10.4040
 199   2.0000      -0.381452       -10.3798
 200   2.0000      -0.379380       -10.3235
 201   2.0000      -0.377548       -10.2736
 202   2.0000      -0.373694       -10.1687
 203   2.0000      -0.358346        -9.7511
 204   2.0000      -0.355185        -9.6651
 205   2.0000      -0.352028        -9.5792
 206   2.0000      -0.350647        -9.5416
 207   2.0000      -0.349811        -9.5189
 208   2.0000      -0.346732        -9.4351
 209   2.0000      -0.335410        -9.1270
 210   2.0000      -0.333462        -9.0740
 211   2.0000      -0.328578        -8.9411
 212   2.0000      -0.322777        -8.7832
 213   2.0000      -0.317248        -8.6328
 214   2.0000      -0.301966        -8.2169
 215   2.0000      -0.300060        -8.1651
 216   2.0000      -0.291467        -7.9312
 217   2.0000      -0.284500        -7.7416
 218   2.0000      -0.242168        -6.5897
 219   0.0000      -0.101907        -2.7730
 220   0.0000      -0.100330        -2.7301
 221   0.0000      -0.074468        -2.0264
 222   0.0000      -0.049132        -1.3369
 223   0.0000      -0.029816        -0.8113

MULLIKEN ATOMIC CHARGES
-----------------------
   0 C :   -0.015682
   1 C :    0.056270
   2 C :   -0.006627
   3 C :   -0.046706
   4 C :    0.034702
   5 C :    0.020938
   6 S :    0.098471
   7 C :   -0.094100
   8 N :    0.009993
   9 C :   -0.080345
  10 S :    0.128540
  11 C :   -0.091351
  12 N :   -0.053124
  13 N :   -0.004694
  14 C :    0.070031
  15 C :   -0.023472
  16 C :    0.138515
  17 N :   -0.255557
  18 C :    0.097847
  19 C :    0.002456
  20 C :    0.176334
  21 O :   -0.206036
  22 C :   -0.057672
  23 C :   -0.061471
  24 C :    0.169571
  25 O :   -0.210728
  26 N :   -0.254748
  27 C :    0.097047
  28 C :   -0.003821
  29 C :    0.101188
  30 C :    0.039167
  31 C :   -0.040298
  32 C :    0.035442
  33 C :    0.038101
  34 C :    0.036659
  35 O :   -0.112217
  36 S :    0.027814
  37 C :    0.024118
  38 O :   -0.115005
  39 C :    0.024178
  40 C :    0.038297
  41 C :   -0.060705
  42 C :   -0.076936
  43 C :    0.235570
  44 O :   -0.096431
  45 O :   -0.227893
  46 C :    0.233620
  47 O :   -0.090543
  48 C :   -0.033746
  49 C :    0.131404
  50 C :   -0.142679
  51 N :   -0.018185
  52 C :    0.061639
  53 C :   -0.017340
  54 C :    0.021782
  55 C :    0.032944
  56 C :   -0.043335
  57 C :   -0.027509
  58 S :    0.109996
  59 H :   -0.014756
  60 H :   -0.017115
  61 H :   -0.007791
  62 H :   -0.008060
  63 H :    0.013230
  64 H :    0.006032
  65 H :    0.029601
  66 H :    0.042407
  67 H :    0.021271
  68 H :    0.025424
  69 H :    0.030186
  70 H :    0.041565
  71 H :    0.020793
  72 H :    0.023339
  73 H :    0.019901
  74 H :    0.032413
  75 H :   -0.019920
  76 H :    0.054153
  77 H :    0.043612
  78 H :   -0.005799
  79 H :   -0.018871
  80 H :   -0.009886
  81 H :   -0.008178
  82 H :   -0.017230
Sum of atomic charges:   -0.0000000

LOEWDIN ATOMIC CHARGES
----------------------
   0 C :   -0.009954
   1 C :   -0.034914
   2 C :   -0.165758
   3 C :   -0.040794
   4 C :   -0.018182
   5 C :   -0.025962
   6 S :    0.374303
   7 C :   -0.143415
   8 N :   -0.057738
   9 C :   -0.178519
  10 S :    0.406975
  11 C :   -0.146175
  12 N :   -0.073702
  13 N :   -0.042387
  14 C :   -0.008413
  15 C :   -0.010401
  16 C :    0.075935
  17 N :    0.003047
  18 C :    0.037215
  19 C :   -0.059858
  20 C :    0.084252
  21 O :   -0.192496
  22 C :   -0.112670
  23 C :   -0.117169
  24 C :    0.081780
  25 O :   -0.199539
  26 N :    0.003790
  27 C :    0.036030
  28 C :   -0.063709
  29 C :    0.074714
  30 C :   -0.008365
  31 C :    0.010540
  32 C :    0.025615
  33 C :   -0.045909
  34 C :   -0.045127
  35 O :   -0.094246
  36 S :    0.308733
  37 C :   -0.046394
  38 O :   -0.104771
  39 C :   -0.051855
  40 C :    0.028497
  41 C :   -0.043483
  42 C :   -0.046168
  43 C :    0.112124
  44 O :   -0.097336
  45 O :   -0.053368
  46 C :    0.107163
  47 O :   -0.086861
  48 C :   -0.006321
  49 C :   -0.005347
  50 C :   -0.115403
  51 N :   -0.080566
  52 C :   -0.033064
  53 C :   -0.013668
  54 C :   -0.025802
  55 C :   -0.020200
  56 C :   -0.040865
  57 C :   -0.169112
  58 S :    0.387773
  59 H :    0.037945
  60 H :    0.031206
  61 H :    0.030842
  62 H :    0.030908
  63 H :    0.037908
  64 H :    0.038635
  65 H :    0.026046
  66 H :    0.037294
  67 H :    0.024497
  68 H :    0.031876
  69 H :    0.032330
  70 H :    0.036406
  71 H :    0.022045
  72 H :    0.030360
  73 H :    0.030130
  74 H :    0.025247
  75 H :    0.029077
  76 H :    0.042692
  77 H :    0.045172
  78 H :    0.028781
  79 H :    0.036249
  80 H :    0.030316
  81 H :    0.030508
  82 H :    0.031031

  Mayer bond orders larger than 0.100000
B(  0-C ,  1-C ) :   1.3226 B(  0-C ,  5-C ) :   1.4109 B(  0-C , 59-H ) :   1.0059
B(  1-C ,  2-C ) :   1.2960 B(  1-C ,  8-N ) :   1.2919 B(  2-C ,  3-C ) :   1.3498
B(  2-C ,  6-S ) :   1.0599 B(  3-C ,  4-C ) :   1.4317 B(  3-C , 60-H ) :   1.0019
B(  4-C ,  5-C ) :   1.3345 B(  4-C , 61-H ) :   0.9891 B(  5-C , 62-H ) :   0.9870
B(  6-S ,  7-C ) :   1.0788 B(  6-S ,  8-N ) :   0.1195 B(  7-C ,  8-N ) :   1.8121
B(  7-C ,  9-C ) :   1.0489 B(  9-C , 10-S ) :   1.1245 B(  9-C , 13-N ) :   1.7033
B( 10-S , 11-C ) :   1.1020 B( 10-S , 13-N ) :   0.1015 B( 11-C , 12-N ) :   1.6565
B( 11-C , 14-C ) :   1.1036 B( 12-N , 13-N ) :   1.2368 B( 14-C , 15-C ) :   1.6599
B( 14-C , 63-H ) :   0.9245 B( 15-C , 16-C ) :   1.1305 B( 15-C , 64-H ) :   0.9706
B( 16-C , 17-N ) :   1.1661 B( 16-C , 23-C ) :   1.3410 B( 17-N , 18-C ) :   0.9426
B( 17-N , 20-C ) :   1.0591 B( 18-C , 19-C ) :   1.1206 B( 18-C , 65-H ) :   0.9500
B( 18-C , 66-H ) :   0.9289 B( 19-C , 67-H ) :   0.9687 B( 19-C , 68-H ) :   0.9680
B( 19-C , 69-H ) :   0.9640 B( 20-C , 21-O ) :   2.0294 B( 20-C , 22-C ) :   0.9791
B( 21-O , 76-H ) :   0.1103 B( 22-C , 23-C ) :   1.2555 B( 22-C , 29-C ) :   1.3502
B( 23-C , 24-C ) :   0.9845 B( 24-C , 25-O ) :   2.0264 B( 24-C , 26-N ) :   1.0605
B( 25-O , 63-H ) :   0.1106 B( 26-N , 27-C ) :   0.9416 B( 26-N , 29-C ) :   1.1650
B( 27-C , 28-C ) :   1.1186 B( 27-C , 70-H ) :   0.9289 B( 27-C , 71-H ) :   0.9495
B( 28-C , 72-H ) :   0.9610 B( 28-C , 73-H ) :   0.9660 B( 28-C , 74-H ) :   0.9633
B( 29-C , 30-C ) :   1.1667 B( 30-C , 31-C ) :   1.6771 B( 30-C , 75-H ) :   0.9527
B( 31-C , 32-C ) :   1.0835 B( 31-C , 76-H ) :   0.9060 B( 32-C , 33-C ) :   1.3551
B( 32-C , 42-C ) :   1.3339 B( 33-C , 34-C ) :   0.8478 B( 33-C , 39-C ) :   1.3334
B( 34-C , 35-O ) :   2.1757 B( 34-C , 36-S ) :   1.0253 B( 35-O , 36-S ) :   0.1060
B( 36-S , 37-C ) :   1.0324 B( 36-S , 38-O ) :   0.1073 B( 37-C , 38-O ) :   2.1925
B( 37-C , 39-C ) :   0.8330 B( 39-C , 40-C ) :   1.3337 B( 40-C , 41-C ) :   1.3398
B( 40-C , 48-C ) :   1.0917 B( 41-C , 42-C ) :   1.3518 B( 41-C , 46-C ) :   0.9102
B( 42-C , 43-C ) :   0.9040 B( 43-C , 44-O ) :   2.2103 B( 43-C , 45-O ) :   1.0652
B( 45-O , 46-C ) :   1.0473 B( 46-C , 47-O ) :   2.2495 B( 48-C , 49-C ) :   1.7529
B( 48-C , 77-H ) :   0.9416 B( 49-C , 50-C ) :   1.0960 B( 49-C , 78-H ) :   0.9404
B( 50-C , 51-N ) :   1.7611 B( 50-C , 58-S ) :   1.0602 B( 51-N , 52-C ) :   1.3087
B( 51-N , 58-S ) :   0.1119 B( 52-C , 53-C ) :   1.3206 B( 52-C , 57-C ) :   1.2952
B( 53-C , 54-C ) :   1.4155 B( 53-C , 79-H ) :   1.0057 B( 54-C , 55-C ) :   1.3290
B( 54-C , 80-H ) :   0.9878 B( 55-C , 56-C ) :   1.4372 B( 55-C , 81-H ) :   0.9897
B( 56-C , 57-C ) :   1.3473 B( 56-C , 82-H ) :   1.0015 B( 57-C , 58-S ) :   1.0676

-----------------------------------------------------------------------------
         ABSORPTION SPECTRUM VIA TRANSITION ELECTRIC DIPOLE MOMENTS
-----------------------------------------------------------------------------
State   Energy  Wavelength   fosc         T2         TX        TY        TZ
        (cm-1)    (nm)                  (au**2)     (au)      (au)      (au)
-----------------------------------------------------------------------------
   0   14819.1    674.8   0.120421520   2.67520   1.53071   0.07309   0.57164
   1   15175.7    658.9   0.834494280  18.10296  -3.55382  -1.37630  -1.89186
   2   21950.2    455.6   0.008176892   0.12264  -0.21079  -0.15752   0.23107
   3   22162.8    451.2   0.051617293   0.76674  -0.28706  -0.68522  -0.46347
   4   25813.1    387.4   0.694711938   8.86014  -2.90873  -0.63172  -0.01967
   5   26256.3    380.9   0.219233272   2.74883   1.58616   0.43450   0.21013
   6   27167.2    368.1   0.001236492   0.01498   0.06410   0.10428  -0.00110
   7   27404.1    364.9   0.014516806   0.17439  -0.14296  -0.23435  -0.31470
   8   27758.6    360.2   0.495647188   5.87828   2.35145   0.55420   0.20454
   9   28002.9    357.1   0.211976815   2.49207   1.48456   0.53238  -0.06869
  10   28313.2    353.2   0.018286263   0.21262  -0.44769  -0.05075  -0.09808
  11   29566.4    338.2   0.003483600   0.03879  -0.10903  -0.01277   0.16352
  12   30721.0    325.5   0.263466589   2.82336   1.57107   0.23607  -0.54714
  13   31117.1    321.4   0.043658560   0.46190  -0.52055   0.28283   0.33307
  14   31153.0    321.0   0.015669742   0.16559  -0.20137   0.09361   0.34100
  15   31536.1    317.1   0.004081090   0.04260   0.18066  -0.07460  -0.06633
  16   31913.2    313.4   0.031622406   0.32621   0.36076   0.39916   0.19167
  17   32026.5    312.2   0.001453322   0.01494   0.10405  -0.04939  -0.04090
  18   32246.2    310.1   0.009374405   0.09571   0.13902  -0.27244   0.04644
  19   32296.9    309.6   0.034102327   0.34761   0.29624   0.31731   0.39896
  20   33111.5    302.0   0.000531390   0.00528  -0.05836  -0.04150  -0.01245
  21   33269.6    300.6   0.023619306   0.23372   0.35939   0.25812   0.19477
  22   34067.9    293.5   0.026120956   0.25242   0.46280  -0.17852  -0.07980
  23   34407.4    290.6   0.033236393   0.31801   0.54257   0.14637  -0.04688
  24   34722.3    288.0   0.025762765   0.24426  -0.48115  -0.00784  -0.11270
  25   34867.8    286.8   0.033432568   0.31566   0.54511  -0.12541  -0.05277
  26   35064.0    285.2   0.012390435   0.11633   0.32295   0.04798   0.09866
  27   35718.2    280.0   0.102563309   0.94532   0.95420   0.18466   0.02674
  28   36152.9    276.6   0.000457503   0.00417   0.05610   0.03147  -0.00532
  29   36451.3    274.3   0.288981157   2.60995   1.55142   0.37284   0.25307
  30   37252.6    268.4   0.012235304   0.10813   0.18298  -0.11926  -0.24580
  31   37538.0    266.4   0.000044729   0.00039  -0.01156  -0.01104  -0.01170
  32   37788.7    264.6   0.044988031   0.39193  -0.49908  -0.36643   0.09263
  33   37838.2    264.3   0.009478978   0.08247  -0.18661  -0.21771  -0.01583
  34   37895.6    263.9   0.003410559   0.02963  -0.04550   0.15068  -0.06967
  35   38085.0    262.6   0.017718357   0.15316   0.06540  -0.27450  -0.27117
  36   38239.8    261.5   0.045383818   0.39072   0.12861   0.52362   0.31622
  37   38521.7    259.6   0.037024255   0.31641   0.26633  -0.44453  -0.21880
  38   38850.7    257.4   0.002807778   0.02379  -0.06808   0.06413  -0.12266
  39   39237.8    254.9   0.054003447   0.45310   0.39661   0.49277   0.23016
  40   39406.6    253.8   0.053385187   0.44599   0.64686   0.12047   0.11427
  41   39745.9    251.6   0.001423706   0.01179   0.06205   0.08192   0.03510
  42   40080.0    249.5   0.000428773   0.00352  -0.03285   0.00278  -0.04934
  43   40250.3    248.4   0.014686205   0.12012  -0.33666  -0.07531  -0.03335

FINAL SINGLE POINT ENERGY     -4059.303579177883

DIPOLE MOMENT
-------------
                                X             Y             Z
Electronic contribution:    -14.21232       0.39116      -4.00049
Nuclear contribution   :     13.96986      -0.20533       3.43336
                        -----------------------------------------
Total Dipole Moment    :     -0.24246       0.18583      -0.56713
                        -----------------------------------------
Magnitude (a.u.)       :      0.64417
Magnitude (Debye)      :      1.63735

Rotational constants in cm-1:     0.004849     0.000292     0.000281
Rotational constants in MHz :   145.365589     8.765023     8.418400

                             ****ORCA TERMINATED NORMALLY****
TOTAL RUN TIME: 0 days 0 hours 6 minutes 22 seconds 292 msec
