                         Program Version 4.2.0 -  RELEASE  -
|  1> # ORCA input file
|  2> # SCF done       -184.335549076756          0.000223020144
|  3> ! CAM-B3LYP def2-SVP def2/J RIJCOSX Grid4 TightSCF
|  4> %maxcore 5000
|  5> %tddft
|  6>     Mode sTDDFT
|  7>     Ethresh 5.0
|  8>     maxcore 5000
|  9> end
| 10>
| 11> %pal
| 12>   nprocs 6
| 13>   end
| 14> * xyz 0 1
| 15>    O       14.43893        -5.65324        -7.33561
| 16>    C       13.77932        -4.66105        -7.50564
| 17>    C       12.30063        -4.49605        -7.46074
| 18>    C       11.07944        -5.15450        -7.26381
| 19>    C       10.09916        -4.18266        -7.41649
| 20>    C        8.68006        -4.31509        -7.33447
| 21>    C        7.84031        -3.28508        -7.51016
| 22>    N        6.45065        -3.36029        -7.47223
| 23>    C        5.67083        -2.21911        -7.69041
| 24>    O        6.09837        -1.11686        -7.89816
| 25>    C        4.25944        -2.67716        -7.61533
| 26>    C        3.09785        -1.93704        -7.75497
| 27>    C        1.92596        -2.67091        -7.64616
| 28>    C        0.51540        -2.23412        -7.80251
| 29>    O        0.06865        -1.15319        -8.01178
| 30>    O       -0.26812        -3.35955        -7.66954
| 31>    C        0.49428        -4.47499        -7.42801
| 32>    O        0.02121        -5.56154        -7.28954
| 33>    C        1.91181        -4.04297        -7.39532
| 34>    C        3.08426        -4.79710        -7.23510
| 35>    C        3.08883        -6.22385        -6.97837
| 36>    S        3.95766        -7.29334        -8.01761
| 37>    C        3.52027        -8.67618        -7.06989
| 38>    C        4.03829        -9.94140        -7.47540
| 39>    C        3.63118       -11.15927        -7.05729
| 40>    C        4.25647       -12.37429        -7.45547
| 41>    S        5.54763       -12.40700        -8.62460
| 42>    C        5.67052       -14.12876        -8.50300
| 43>    C        6.68922       -14.83706        -9.19907
| 44>    N        7.00692       -16.06295        -8.96980
| 45>    C        8.02598       -16.48987        -9.75511
| 46>    C        8.58726       -17.76561        -9.74226
| 47>    C        9.62789       -18.04145       -10.60095
| 48>    C       10.12094       -17.07046       -11.47254
| 49>    C        9.58046       -15.80013       -11.50576
| 50>    C        8.53379       -15.51384       -10.64651
| 51>    S        7.65773       -14.02922       -10.45279
| 52>    C        4.73322       -14.65162        -7.62620
| 53>    C        3.96293       -13.65039        -7.00402
| 54>    C        3.01367       -13.95748        -5.86976
| 55>    O        3.05442       -12.98085        -4.85222
| 56>    C        3.33905       -15.34977        -5.31590
| 57>    C        3.35734       -16.37427        -6.44184
| 58>    C        4.51739       -16.10901        -7.39869
| 59>    S        4.20662       -16.97569        -8.99716
| 60>    C        2.75143        -8.29810        -5.97969
| 61>    C        2.49197        -6.91099        -5.94498
| 62>    C        1.79880        -6.24117        -4.79476
| 63>    F        2.74360        -5.61215        -4.00644
| 64>    C        1.01582        -7.28226        -3.99379
| 65>    F        0.46650        -6.71356        -2.87489
| 66>    C        1.87687        -8.49051        -3.62951
| 67>    F        3.02376        -8.12779        -2.97475
| 68>    C        2.26693        -9.23228        -4.91336
| 69>    F        1.14425        -9.91825        -5.35034
| 70>    C        4.26148        -4.05304        -7.37302
| 71>    C        5.67638        -4.50079        -7.25723
| 72>    O        6.09615        -5.60379        -7.02351
| 73>    O       10.66508        -2.96664        -7.69613
| 74>    C       11.97552        -3.16672        -7.71988
| 75>    C       13.17058        -2.41266        -7.94124
| 76>    S       13.65328        -0.81689        -8.30469
| 77>    C       15.31143        -1.30722        -8.29477
| 78>    C       15.48404        -2.63367        -8.02473
| 79>    C       14.25486        -3.27917        -7.81957
| 80>    H       10.91181        -6.18806        -7.04193
| 81>    H        8.31533        -5.30802        -7.12677
| 82>    H        8.19326        -2.28325        -7.71339
| 83>    H        3.10417        -0.87623        -7.94379
| 84>    H        4.84487        -9.88858        -8.19726
| 85>    H        2.78669       -11.27999        -6.39901
| 86>    H        8.19333       -18.50717        -9.06629
| 87>    H       10.07203       -19.02537       -10.60232
| 88>    H       10.93879       -17.31512       -12.13315
| 89>    H        9.95931       -15.04736       -12.17925
| 90>    H        1.97796       -13.93225        -6.23308
| 91>    H        3.92245       -13.00840        -4.43227
| 92>    H        2.59239       -15.61883        -4.56801
| 93>    H        4.31736       -15.31866        -4.82681
| 94>    H        2.41188       -16.31140        -6.98670
| 95>    H        3.44328       -17.38452        -6.04148
| 96>    H        5.44550       -16.57116        -7.05315
| 97>    H        3.05781       -16.34935        -9.26059
| 98>    H        1.11571        -5.44842        -5.11589
| 99>    H        0.17921        -7.63435        -4.61330
|100>    H        1.32275        -9.15802        -2.95759
|101>    H        3.02181        -9.99390        -4.67894
|102>    H       16.06458        -0.57088        -8.49264
|103>    H       16.44195        -3.11762        -7.97690
|104> *
|105>
|106>                          ****END OF INPUT****

CARTESIAN COORDINATES (ANGSTROEM)
---------------------------------
  O     14.438930   -5.653240   -7.335610
  C     13.779320   -4.661050   -7.505640
  C     12.300630   -4.496050   -7.460740
  C     11.079440   -5.154500   -7.263810
  C     10.099160   -4.182660   -7.416490
  C      8.680060   -4.315090   -7.334470
  C      7.840310   -3.285080   -7.510160
  N      6.450650   -3.360290   -7.472230
  C      5.670830   -2.219110   -7.690410
  O      6.098370   -1.116860   -7.898160
  C      4.259440   -2.677160   -7.615330
  C      3.097850   -1.937040   -7.754970
  C      1.925960   -2.670910   -7.646160
  C      0.515400   -2.234120   -7.802510
  O      0.068650   -1.153190   -8.011780
  O     -0.268120   -3.359550   -7.669540
  C      0.494280   -4.474990   -7.428010
  O      0.021210   -5.561540   -7.289540
  C      1.911810   -4.042970   -7.395320
  C      3.084260   -4.797100   -7.235100
  C      3.088830   -6.223850   -6.978370
  S      3.957660   -7.293340   -8.017610
  C      3.520270   -8.676180   -7.069890
  C      4.038290   -9.941400   -7.475400
  C      3.631180  -11.159270   -7.057290
  C      4.256470  -12.374290   -7.455470
  S      5.547630  -12.407000   -8.624600
  C      5.670520  -14.128760   -8.503000
  C      6.689220  -14.837060   -9.199070
  N      7.006920  -16.062950   -8.969800
  C      8.025980  -16.489870   -9.755110
  C      8.587260  -17.765610   -9.742260
  C      9.627890  -18.041450  -10.600950
  C     10.120940  -17.070460  -11.472540
  C      9.580460  -15.800130  -11.505760
  C      8.533790  -15.513840  -10.646510
  S      7.657730  -14.029220  -10.452790
  C      4.733220  -14.651620   -7.626200
  C      3.962930  -13.650390   -7.004020
  C      3.013670  -13.957480   -5.869760
  O      3.054420  -12.980850   -4.852220
  C      3.339050  -15.349770   -5.315900
  C      3.357340  -16.374270   -6.441840
  C      4.517390  -16.109010   -7.398690
  S      4.206620  -16.975690   -8.997160
  C      2.751430   -8.298100   -5.979690
  C      2.491970   -6.910990   -5.944980
  C      1.798800   -6.241170   -4.794760
  F      2.743600   -5.612150   -4.006440
  C      1.015820   -7.282260   -3.993790
  F      0.466500   -6.713560   -2.874890
  C      1.876870   -8.490510   -3.629510
  F      3.023760   -8.127790   -2.974750
  C      2.266930   -9.232280   -4.913360
  F      1.144250   -9.918250   -5.350340
  C      4.261480   -4.053040   -7.373020
  C      5.676380   -4.500790   -7.257230
  O      6.096150   -5.603790   -7.023510
  O     10.665080   -2.966640   -7.696130
  C     11.975520   -3.166720   -7.719880
  C     13.170580   -2.412660   -7.941240
  S     13.653280   -0.816890   -8.304690
  C     15.311430   -1.307220   -8.294770
  C     15.484040   -2.633670   -8.024730
  C     14.254860   -3.279170   -7.819570
  H     10.911810   -6.188060   -7.041930
  H      8.315330   -5.308020   -7.126770
  H      8.193260   -2.283250   -7.713390
  H      3.104170   -0.876230   -7.943790
  H      4.844870   -9.888580   -8.197260
  H      2.786690  -11.279990   -6.399010
  H      8.193330  -18.507170   -9.066290
  H     10.072030  -19.025370  -10.602320
  H     10.938790  -17.315120  -12.133150
  H      9.959310  -15.047360  -12.179250
  H      1.977960  -13.932250   -6.233080
  H      3.922450  -13.008400   -4.432270
  H      2.592390  -15.618830   -4.568010
  H      4.317360  -15.318660   -4.826810
  H      2.411880  -16.311400   -6.986700
  H      3.443280  -17.384520   -6.041480
  H      5.445500  -16.571160   -7.053150
  H      3.057810  -16.349350   -9.260590
  H      1.115710   -5.448420   -5.115890
  H      0.179210   -7.634350   -4.613300
  H      1.322750   -9.158020   -2.957590
  H      3.021810   -9.993900   -4.678940
  H     16.064580   -0.570880   -8.492640
  H     16.441950   -3.117620   -7.976900

 Total Charge           Charge          ....    0
 Multiplicity           Mult            ....    1
 Number of Electrons    NEL             ....  494
 Basis Dimension        Dim             .... 1050

ORBITAL ENERGIES
----------------

  NO   OCC          E(Eh)            E(eV)
   0   2.0000     -88.977934     -2421.2127
   1   2.0000     -88.972476     -2421.0642
   2   2.0000     -88.965114     -2420.8638
   3   2.0000     -88.954101     -2420.5642
   4   2.0000     -88.904156     -2419.2051
   5   2.0000     -24.763338      -673.8447
   6   2.0000     -24.758418      -673.7108
   7   2.0000     -24.756040      -673.6461
   8   2.0000     -24.751213      -673.5147
   9   2.0000     -19.312344      -525.5156
  10   2.0000     -19.301707      -525.2262
  11   2.0000     -19.249118      -523.7951
  12   2.0000     -19.248866      -523.7883
  13   2.0000     -19.242599      -523.6177
  14   2.0000     -19.240796      -523.5687
  15   2.0000     -19.223337      -523.0936
  16   2.0000     -19.217838      -522.9440
  17   2.0000     -14.492668      -394.3655
  18   2.0000     -14.405112      -391.9830
  19   2.0000     -10.443639      -284.1859
  20   2.0000     -10.441878      -284.1379
  21   2.0000     -10.422606      -283.6135
  22   2.0000     -10.421137      -283.5735
  23   2.0000     -10.370250      -282.1888
  24   2.0000     -10.360573      -281.9255
  25   2.0000     -10.359916      -281.9077
  26   2.0000     -10.355610      -281.7905
  27   2.0000     -10.355105      -281.7767
  28   2.0000     -10.353384      -281.7299
  29   2.0000     -10.350058      -281.6394
  30   2.0000     -10.342873      -281.4439
  31   2.0000     -10.338813      -281.3334
  32   2.0000     -10.338367      -281.3213
  33   2.0000     -10.337258      -281.2911
  34   2.0000     -10.336635      -281.2741
  35   2.0000     -10.336195      -281.2622
  36   2.0000     -10.335743      -281.2499
  37   2.0000     -10.331615      -281.1375
  38   2.0000     -10.322933      -280.9013
  39   2.0000     -10.320830      -280.8441
  40   2.0000     -10.320781      -280.8427
  41   2.0000     -10.319188      -280.7994
  42   2.0000     -10.311039      -280.5776
  43   2.0000     -10.308863      -280.5184
  44   2.0000     -10.302247      -280.3384
  45   2.0000     -10.301643      -280.3220
  46   2.0000     -10.300311      -280.2857
  47   2.0000     -10.299438      -280.2620
  48   2.0000     -10.299061      -280.2517
  49   2.0000     -10.293463      -280.0994
  50   2.0000     -10.291394      -280.0431
  51   2.0000     -10.291183      -280.0373
  52   2.0000     -10.290783      -280.0264
  53   2.0000     -10.288080      -279.9529
  54   2.0000     -10.286574      -279.9119
  55   2.0000     -10.285810      -279.8911
  56   2.0000     -10.284628      -279.8590
  57   2.0000     -10.278369      -279.6886
  58   2.0000     -10.277545      -279.6662
  59   2.0000     -10.273570      -279.5581
  60   2.0000     -10.272365      -279.5253
  61   2.0000     -10.271267      -279.4954
  62   2.0000     -10.271165      -279.4926
  63   2.0000     -10.269468      -279.4464
  64   2.0000     -10.268611      -279.4231
  65   2.0000      -8.072729      -219.6701
  66   2.0000      -8.068043      -219.5426
  67   2.0000      -8.060528      -219.3381
  68   2.0000      -8.050503      -219.0653
  69   2.0000      -7.999147      -217.6679
  70   2.0000      -6.041993      -164.4110
  71   2.0000      -6.037522      -164.2893
  72   2.0000      -6.037194      -164.2804
  73   2.0000      -6.035394      -164.2314
  74   2.0000      -6.033024      -164.1669
  75   2.0000      -6.030367      -164.0946
  76   2.0000      -6.029656      -164.0753
  77   2.0000      -6.025801      -163.9704
  78   2.0000      -6.022716      -163.8864
  79   2.0000      -6.019836      -163.8081
  80   2.0000      -6.016044      -163.7049
  81   2.0000      -6.011955      -163.5936
  82   2.0000      -5.969821      -162.4471
  83   2.0000      -5.965665      -162.3340
  84   2.0000      -5.958524      -162.1397
  85   2.0000      -1.282285       -34.8927
  86   2.0000      -1.272971       -34.6393
  87   2.0000      -1.266409       -34.4607
  88   2.0000      -1.258836       -34.2547
  89   2.0000      -1.250515       -34.0282
  90   2.0000      -1.227638       -33.4057
  91   2.0000      -1.189266       -32.3616
  92   2.0000      -1.176750       -32.0210
  93   2.0000      -1.165600       -31.7176
  94   2.0000      -1.139134       -30.9974
  95   2.0000      -1.130775       -30.7700
  96   2.0000      -1.114678       -30.3319
  97   2.0000      -1.082171       -29.4474
  98   2.0000      -1.063603       -28.9421
  99   2.0000      -1.024917       -27.8894
 100   2.0000      -1.004990       -27.3472
 101   2.0000      -1.003354       -27.3026
 102   2.0000      -0.997516       -27.1438
 103   2.0000      -0.945400       -25.7256
 104   2.0000      -0.942517       -25.6472
 105   2.0000      -0.934517       -25.4295
 106   2.0000      -0.932909       -25.3857
 107   2.0000      -0.925970       -25.1969
 108   2.0000      -0.920427       -25.0461
 109   2.0000      -0.906665       -24.6716
 110   2.0000      -0.901332       -24.5265
 111   2.0000      -0.890103       -24.2209
 112   2.0000      -0.874916       -23.8077
 113   2.0000      -0.869531       -23.6612
 114   2.0000      -0.854191       -23.2437
 115   2.0000      -0.846285       -23.0286
 116   2.0000      -0.841719       -22.9044
 117   2.0000      -0.840161       -22.8619
 118   2.0000      -0.833573       -22.6827
 119   2.0000      -0.829783       -22.5795
 120   2.0000      -0.820713       -22.3327
 121   2.0000      -0.811281       -22.0761
 122   2.0000      -0.806403       -21.9434
 123   2.0000      -0.791275       -21.5317
 124   2.0000      -0.776781       -21.1373
 125   2.0000      -0.776377       -21.1263
 126   2.0000      -0.766851       -20.8671
 127   2.0000      -0.751339       -20.4450
 128   2.0000      -0.747934       -20.3523
 129   2.0000      -0.742208       -20.1965
 130   2.0000      -0.738837       -20.1048
 131   2.0000      -0.726978       -19.7821
 132   2.0000      -0.712744       -19.3948
 133   2.0000      -0.710559       -19.3353
 134   2.0000      -0.709014       -19.2933
 135   2.0000      -0.688795       -18.7431
 136   2.0000      -0.687894       -18.7186
 137   2.0000      -0.679525       -18.4908
 138   2.0000      -0.675639       -18.3851
 139   2.0000      -0.669780       -18.2256
 140   2.0000      -0.664708       -18.0876
 141   2.0000      -0.662716       -18.0334
 142   2.0000      -0.658051       -17.9065
 143   2.0000      -0.648809       -17.6550
 144   2.0000      -0.647091       -17.6083
 145   2.0000      -0.634009       -17.2523
 146   2.0000      -0.629952       -17.1419
 147   2.0000      -0.624127       -16.9833
 148   2.0000      -0.621688       -16.9170
 149   2.0000      -0.617923       -16.8145
 150   2.0000      -0.612533       -16.6679
 151   2.0000      -0.609014       -16.5721
 152   2.0000      -0.608210       -16.5502
 153   2.0000      -0.602318       -16.3899
 154   2.0000      -0.597258       -16.2522
 155   2.0000      -0.594647       -16.1812
 156   2.0000      -0.591635       -16.0992
 157   2.0000      -0.585510       -15.9325
 158   2.0000      -0.583702       -15.8833
 159   2.0000      -0.581334       -15.8189
 160   2.0000      -0.575574       -15.6622
 161   2.0000      -0.574874       -15.6431
 162   2.0000      -0.572409       -15.5760
 163   2.0000      -0.567896       -15.4532
 164   2.0000      -0.565923       -15.3996
 165   2.0000      -0.559513       -15.2251
 166   2.0000      -0.558148       -15.1880
 167   2.0000      -0.557482       -15.1699
 168   2.0000      -0.555848       -15.1254
 169   2.0000      -0.554659       -15.0930
 170   2.0000      -0.550153       -14.9704
 171   2.0000      -0.549609       -14.9556
 172   2.0000      -0.543401       -14.7867
 173   2.0000      -0.542708       -14.7678
 174   2.0000      -0.535192       -14.5633
 175   2.0000      -0.534150       -14.5350
 176   2.0000      -0.527229       -14.3466
 177   2.0000      -0.524139       -14.2625
 178   2.0000      -0.522931       -14.2297
 179   2.0000      -0.520832       -14.1726
 180   2.0000      -0.519906       -14.1474
 181   2.0000      -0.517480       -14.0814
 182   2.0000      -0.516676       -14.0595
 183   2.0000      -0.510975       -13.9043
 184   2.0000      -0.509367       -13.8606
 185   2.0000      -0.507953       -13.8221
 186   2.0000      -0.507658       -13.8141
 187   2.0000      -0.506367       -13.7789
 188   2.0000      -0.505363       -13.7516
 189   2.0000      -0.500637       -13.6230
 190   2.0000      -0.499742       -13.5987
 191   2.0000      -0.496899       -13.5213
 192   2.0000      -0.491445       -13.3729
 193   2.0000      -0.490253       -13.3404
 194   2.0000      -0.488132       -13.2827
 195   2.0000      -0.487222       -13.2580
 196   2.0000      -0.481366       -13.0986
 197   2.0000      -0.480206       -13.0671
 198   2.0000      -0.475070       -12.9273
 199   2.0000      -0.473651       -12.8887
 200   2.0000      -0.469764       -12.7829
 201   2.0000      -0.466651       -12.6982
 202   2.0000      -0.465066       -12.6551
 203   2.0000      -0.463887       -12.6230
 204   2.0000      -0.461435       -12.5563
 205   2.0000      -0.459869       -12.5137
 206   2.0000      -0.452888       -12.3237
 207   2.0000      -0.447563       -12.1788
 208   2.0000      -0.440525       -11.9873
 209   2.0000      -0.439288       -11.9536
 210   2.0000      -0.437367       -11.9014
 211   2.0000      -0.434931       -11.8351
 212   2.0000      -0.432864       -11.7788
 213   2.0000      -0.430851       -11.7240
 214   2.0000      -0.429076       -11.6758
 215   2.0000      -0.426159       -11.5964
 216   2.0000      -0.421948       -11.4818
 217   2.0000      -0.420472       -11.4416
 218   2.0000      -0.409880       -11.1534
 219   2.0000      -0.408543       -11.1170
 220   2.0000      -0.407434       -11.0868
 221   2.0000      -0.406010       -11.0481
 222   2.0000      -0.402713       -10.9584
 223   2.0000      -0.399573       -10.8729
 224   2.0000      -0.390330       -10.6214
 225   2.0000      -0.385991       -10.5033
 226   2.0000      -0.384989       -10.4761
 227   2.0000      -0.382802       -10.4166
 228   2.0000      -0.379969       -10.3395
 229   2.0000      -0.377891       -10.2829
 230   2.0000      -0.376163       -10.2359
 231   2.0000      -0.374957       -10.2031
 232   2.0000      -0.373521       -10.1640
 233   2.0000      -0.371253       -10.1023
 234   2.0000      -0.356910        -9.7120
 235   2.0000      -0.347809        -9.4644
 236   2.0000      -0.337333        -9.1793
 237   2.0000      -0.335428        -9.1275
 238   2.0000      -0.335399        -9.1267
 239   2.0000      -0.328644        -8.9429
 240   2.0000      -0.322580        -8.7779
 241   2.0000      -0.321364        -8.7448
 242   2.0000      -0.299463        -8.1488
 243   2.0000      -0.297751        -8.1022
 244   2.0000      -0.285059        -7.7568
 245   2.0000      -0.253949        -6.9103
 246   2.0000      -0.248139        -6.7522
 247   0.0000      -0.099607        -2.7104
 248   0.0000      -0.077196        -2.1006
 249   0.0000      -0.061336        -1.6690
 250   0.0000      -0.052959        -1.4411
 251   0.0000      -0.029045        -0.7904

MULLIKEN ATOMIC CHARGES
-----------------------
   0 O :   -0.103138
   1 C :    0.201902
   2 C :   -0.074015
   3 C :   -0.076455
   4 C :    0.168734
   5 C :   -0.018228
   6 C :    0.068191
   7 N :   -0.224864
   8 C :    0.195711
   9 O :   -0.128377
  10 C :   -0.002479
  11 C :   -0.066006
  12 C :   -0.026981
  13 C :    0.232865
  14 O :   -0.088377
  15 O :   -0.227979
  16 C :    0.232992
  17 O :   -0.103323
  18 C :   -0.075134
  19 C :    0.046416
  20 C :   -0.218577
  21 S :    0.202733
  22 C :   -0.095184
  23 C :    0.022282
  24 C :   -0.021207
  25 C :   -0.103020
  26 S :    0.130485
  27 C :   -0.056209
  28 C :   -0.104433
  29 N :   -0.048952
  30 C :    0.077112
  31 C :   -0.023073
  32 C :    0.020648
  33 C :    0.031649
  34 C :   -0.049676
  35 C :   -0.013294
  36 S :    0.096429
  37 C :    0.038807
  38 C :   -0.081890
  39 C :    0.214672
  40 O :   -0.301291
  41 C :    0.041305
  42 C :    0.116745
  43 C :   -0.163238
  44 S :   -0.016847
  45 C :   -0.086960
  46 C :   -0.002196
  47 C :    0.346245
  48 F :   -0.245966
  49 C :    0.185165
  50 F :   -0.233211
  51 C :    0.236737
  52 F :   -0.234453
  53 C :    0.273286
  54 F :   -0.247104
  55 C :   -0.029068
  56 C :    0.210026
  57 O :   -0.139389
  58 O :   -0.178984
  59 C :    0.094515
  60 C :   -0.082397
  61 S :    0.191437
  62 C :   -0.088940
  63 C :    0.043922
  64 C :   -0.097867
  65 H :   -0.004646
  66 H :    0.029299
  67 H :    0.036138
  68 H :    0.024928
  69 H :   -0.006208
  70 H :    0.032790
  71 H :   -0.024553
  72 H :   -0.012674
  73 H :   -0.010664
  74 H :   -0.018999
  75 H :    0.012377
  76 H :    0.168741
  77 H :    0.014732
  78 H :   -0.005275
  79 H :   -0.002060
  80 H :    0.011744
  81 H :    0.058654
  82 H :    0.035311
  83 H :    0.003897
  84 H :    0.036708
  85 H :    0.025161
  86 H :    0.020159
  87 H :    0.032182
  88 H :    0.000038
Sum of atomic charges:   -0.0000000

LOEWDIN ATOMIC CHARGES
----------------------
   0 O :   -0.108441
   1 C :    0.092941
   2 C :   -0.108800
   3 C :   -0.028929
   4 C :    0.026874
   5 C :   -0.049925
   6 C :    0.018534
   7 N :   -0.008620
   8 C :    0.096389
   9 O :   -0.126202
  10 C :   -0.025656
  11 C :    0.042298
  12 C :   -0.041701
  13 C :    0.105237
  14 O :   -0.087836
  15 O :   -0.055304
  16 C :    0.102845
  17 O :   -0.099064
  18 C :   -0.049228
  19 C :    0.015420
  20 C :   -0.182873
  21 S :    0.500784
  22 C :   -0.142019
  23 C :   -0.057679
  24 C :   -0.020157
  25 C :   -0.161571
  26 S :    0.443588
  27 C :   -0.202347
  28 C :   -0.123980
  29 N :   -0.093468
  30 C :   -0.031483
  31 C :   -0.017925
  32 C :   -0.026860
  33 C :   -0.024050
  34 C :   -0.041099
  35 C :   -0.167636
  36 S :    0.368727
  37 C :   -0.052152
  38 C :   -0.075188
  39 C :    0.065586
  40 O :   -0.115966
  41 C :   -0.040272
  42 C :   -0.037645
  43 C :   -0.119594
  44 S :    0.182016
  45 C :   -0.082587
  46 C :   -0.050623
  47 C :    0.100036
  48 F :   -0.122926
  49 C :    0.074162
  50 F :   -0.111119
  51 C :    0.084944
  52 F :   -0.109906
  53 C :    0.098301
  54 F :   -0.123728
  55 C :   -0.028597
  56 C :    0.097069
  57 O :   -0.129051
  58 O :    0.030973
  59 C :    0.032853
  60 C :   -0.191973
  61 S :    0.477371
  62 C :   -0.185648
  63 C :   -0.031582
  64 C :   -0.097741
  65 H :    0.038643
  66 H :    0.044029
  67 H :    0.035773
  68 H :    0.055006
  69 H :    0.021296
  70 H :    0.036666
  71 H :    0.033826
  72 H :    0.029315
  73 H :    0.029531
  74 H :    0.030412
  75 H :    0.030658
  76 H :    0.076325
  77 H :    0.029916
  78 H :    0.019862
  79 H :    0.019949
  80 H :    0.031600
  81 H :    0.035212
  82 H :   -0.045284
  83 H :    0.020844
  84 H :    0.036264
  85 H :    0.029668
  86 H :    0.027557
  87 H :    0.024722
  88 H :    0.040421

  Mayer bond orders larger than 0.100000
B(  0-O ,  1-C ) :   2.3271 B(  1-C ,  2-C ) :   0.8983 B(  1-C , 64-C ) :   0.9114
B(  2-C ,  3-C ) :   1.2427 B(  2-C , 59-C ) :   1.4752 B(  3-C ,  4-C ) :   1.4545
B(  3-C , 65-H ) :   1.0211 B(  4-C ,  5-C ) :   1.1288 B(  4-C , 58-O ) :   1.0864
B(  5-C ,  6-C ) :   1.7061 B(  5-C , 66-H ) :   0.9491 B(  6-C ,  7-N ) :   1.0007
B(  6-C , 67-H ) :   0.9752 B(  7-N ,  8-C ) :   1.0308 B(  7-N , 56-C ) :   1.0500
B(  8-C ,  9-O ) :   2.2409 B(  8-C , 10-C ) :   0.8705 B( 10-C , 11-C ) :   1.3535
B( 10-C , 55-C ) :   1.3701 B( 11-C , 12-C ) :   1.3139 B( 11-C , 68-H ) :   1.0264
B( 12-C , 13-C ) :   0.8839 B( 12-C , 18-C ) :   1.3604 B( 13-C , 14-O ) :   2.3136
B( 13-C , 15-O ) :   1.0369 B( 15-O , 16-C ) :   1.0675 B( 16-C , 17-O ) :   2.2431
B( 16-C , 18-C ) :   0.9062 B( 18-C , 19-C ) :   1.3819 B( 19-C , 20-C ) :   0.9888
B( 19-C , 55-C ) :   1.4235 B( 20-C , 21-S ) :   1.1593 B( 20-C , 22-C ) :   0.1084
B( 20-C , 46-C ) :   1.5672 B( 21-S , 22-C ) :   1.1682 B( 22-C , 23-C ) :   1.1120
B( 22-C , 45-C ) :   1.5178 B( 23-C , 24-C ) :   1.6661 B( 23-C , 69-H ) :   0.9479
B( 24-C , 25-C ) :   1.1508 B( 24-C , 70-H ) :   0.9570 B( 25-C , 26-S ) :   1.1169
B( 25-C , 27-C ) :   0.1131 B( 25-C , 38-C ) :   1.5032 B( 26-S , 27-C ) :   1.1330
B( 27-C , 28-C ) :   1.0783 B( 27-C , 37-C ) :   1.5284 B( 28-C , 29-N ) :   1.7378
B( 28-C , 36-S ) :   1.0659 B( 29-N , 30-C ) :   1.2763 B( 29-N , 36-S ) :   0.1063
B( 30-C , 31-C ) :   1.3291 B( 30-C , 35-C ) :   1.3011 B( 31-C , 32-C ) :   1.4028
B( 31-C , 71-H ) :   1.0056 B( 32-C , 33-C ) :   1.3406 B( 32-C , 72-H ) :   0.9881
B( 33-C , 34-C ) :   1.4238 B( 33-C , 73-H ) :   0.9904 B( 34-C , 35-C ) :   1.3532
B( 34-C , 74-H ) :   1.0023 B( 35-C , 36-S ) :   1.0530 B( 37-C , 38-C ) :   1.3222
B( 37-C , 43-C ) :   0.9783 B( 38-C , 39-C ) :   0.9549 B( 39-C , 40-O ) :   1.0210
B( 39-C , 41-C ) :   1.0824 B( 39-C , 75-H ) :   0.8851 B( 40-O , 76-H ) :   0.9728
B( 41-C , 42-C ) :   1.0611 B( 41-C , 77-H ) :   0.9302 B( 41-C , 78-H ) :   0.9296
B( 42-C , 43-C ) :   1.0133 B( 42-C , 79-H ) :   0.9307 B( 42-C , 80-H ) :   0.9263
B( 43-C , 44-S ) :   1.0343 B( 43-C , 81-H ) :   0.8857 B( 44-S , 82-H ) :   0.9499
B( 45-C , 46-C ) :   1.3408 B( 45-C , 53-C ) :   0.9714 B( 46-C , 47-C ) :   0.9603
B( 47-C , 48-F ) :   1.0487 B( 47-C , 49-C ) :   0.9958 B( 47-C , 83-H ) :   0.9136
B( 49-C , 50-F ) :   1.0473 B( 49-C , 51-C ) :   0.9942 B( 49-C , 84-H ) :   0.9301
B( 51-C , 52-F ) :   1.0382 B( 51-C , 53-C ) :   0.9926 B( 51-C , 85-H ) :   0.9262
B( 53-C , 54-F ) :   0.9817 B( 53-C , 86-H ) :   0.9211 B( 55-C , 56-C ) :   0.8919
B( 56-C , 57-O ) :   2.1536 B( 58-O , 59-C ) :   1.2236 B( 59-C , 60-C ) :   1.1201
B( 60-C , 61-S ) :   1.1204 B( 60-C , 64-C ) :   1.4680 B( 61-S , 62-C ) :   1.1518
B( 62-C , 63-C ) :   1.5371 B( 62-C , 87-H ) :   0.9677 B( 63-C , 64-C ) :   1.3125
B( 63-C , 88-H ) :   1.0041

-----------------------------------------------------------------------------
         ABSORPTION SPECTRUM VIA TRANSITION ELECTRIC DIPOLE MOMENTS
-----------------------------------------------------------------------------
State   Energy  Wavelength   fosc         T2         TX        TY        TZ
        (cm-1)    (nm)                  (au**2)     (au)      (au)      (au)
-----------------------------------------------------------------------------
   0   17473.4    572.3   0.005659014   0.10662   0.20070   0.25351  -0.04556
   1   19422.6    514.9   0.010591287   0.17952   0.40755  -0.11494   0.01472
   2   20183.2    495.5   0.205673171   3.35477  -1.60286  -0.87450   0.14441
   3   22896.4    436.7   0.902677092  12.97899  -0.46890   3.51904   0.61279
   4   24755.0    404.0   0.525049608   6.98252   2.34112  -1.18530  -0.31105
   5   28227.6    354.3   0.542705584   6.32945  -1.73231   1.35727   1.21916
   6   28774.8    347.5   0.005289111   0.06051  -0.24558  -0.00929   0.01086
   7   29123.3    343.4   0.000223677   0.00253   0.02411   0.04086   0.01666
   8   29163.7    342.9   0.065043877   0.73424   0.28281  -0.77918  -0.21713
   9   30538.7    327.5   0.022472520   0.24226   0.49097  -0.00583  -0.03424
  10   30839.1    324.3   0.127392264   1.35993   1.14846  -0.16123   0.12236
  11   32415.4    308.5   0.000146602   0.00149   0.03810   0.00481  -0.00371
  12   32916.8    303.8   0.022079066   0.22082   0.05611   0.43345  -0.17261
  13   33296.5    300.3   0.015442600   0.15269  -0.01436   0.39013   0.01655
  14   33408.5    299.3   0.034050607   0.33554   0.07863   0.56510  -0.10012
  15   34142.8    292.9   0.029910464   0.28840  -0.51071   0.15993  -0.04471
  16   34171.1    292.6   0.051475997   0.49593   0.26755   0.61731  -0.20804
  17   34358.4    291.0   0.003547094   0.03399   0.09020  -0.15725   0.03351
  18   34928.9    286.3   0.015765703   0.14859   0.08302  -0.09967   0.36300
  19   35245.1    283.7   0.001796928   0.01678  -0.11749  -0.02869  -0.04644
  20   35440.6    282.2   0.046349482   0.43055  -0.60671   0.03951   0.24675
  21   36204.0    276.2   0.064329347   0.58496   0.70025   0.15325  -0.26670
  22   36637.4    272.9   0.379557554   3.41059  -1.83051  -0.19991   0.14096
  23   36903.3    271.0   0.089891036   0.80191  -0.76232  -0.43321   0.18197
  24   37324.8    267.9   0.292007880   2.57556  -1.60307  -0.04180   0.06320
  25   37639.0    265.7   0.008485865   0.07422  -0.24318   0.00352   0.12277
  26   38133.8    262.2   0.070409561   0.60785  -0.47552  -0.35867   0.50308
  27   38238.8    261.5   0.002210801   0.01903  -0.10279  -0.07745   0.04968
  28   38457.5    260.0   0.114211046   0.97769  -0.66953  -0.61183   0.39381
  29   38488.2    259.8   0.001052951   0.00901   0.08024   0.02955  -0.04116
  30   39007.2    256.4   0.177149825   1.49510  -0.31020  -1.05726   0.53018

FINAL SINGLE POINT ENERGY     -4864.951425264423

DIPOLE MOMENT
-------------
                                X             Y             Z
Electronic contribution:    -15.44718      64.49030       6.21741
Nuclear contribution   :     16.74404     -64.92690      -7.06244
                        -----------------------------------------
Total Dipole Moment    :      1.29686      -0.43660      -0.84503
                        -----------------------------------------
Magnitude (a.u.)       :      1.60827
Magnitude (Debye)      :      4.08791

Rotational constants in cm-1:     0.000855     0.000552     0.000365
Rotational constants in MHz :    25.639362    16.543019    10.940861

                             ****ORCA TERMINATED NORMALLY****
TOTAL RUN TIME: 0 days 0 hours 7 minutes 32 seconds 28 msec
