                         Program Version 4.2.0 -  RELEASE  -
|  1> # ORCA input file
|  2> # SCF done       -176.325340677392          0.000787194021
|  3> ! CAM-B3LYP def2-SVP def2/J RIJCOSX Grid4 TightSCF
|  4> %maxcore 5000
|  5> %tddft
|  6>     Mode sTDDFT
|  7>     Ethresh 5.0
|  8>     maxcore 5000
|  9> end
| 10>
| 11> %pal
| 12>   nprocs 6
| 13>   end
| 14> * xyz 0 1
| 15>    C        0.37953         1.28997        -2.56167
| 16>    C       -0.59535         0.82316        -3.44660
| 17>    C       -0.32044         0.80546        -4.84092
| 18>    C        0.89631         1.24248        -5.33902
| 19>    C        1.84041         1.69841        -4.44197
| 20>    C        1.58299         1.72126        -3.06827
| 21>    S       -1.68699         0.18829        -5.70000
| 22>    C       -2.51766         0.00488        -4.12632
| 23>    N       -1.82063         0.37062        -3.10729
| 24>    C       -3.84127        -0.50294        -4.07521
| 25>    C       -4.60820        -0.69554        -2.94949
| 26>    C       -5.86487        -1.23824        -3.34110
| 27>    C       -5.83250        -1.34182        -4.81533
| 28>    C       -4.62133        -0.89871        -5.23846
| 29>    C       -6.88351        -1.71818        -5.66156
| 30>    N       -7.72710        -1.97142        -6.39852
| 31>    C       -6.91794        -1.60432        -2.53120
| 32>    C       -8.11463        -2.25618        -2.92602
| 33>    C       -8.95844        -2.37199        -1.83198
| 34>    C       -8.27139        -1.79506        -0.68635
| 35>    C       -7.04565        -1.36103        -1.08535
| 36>    C       -6.10104        -0.76332        -0.24251
| 37>    N       -5.35691        -0.27998         0.48643
| 38>    C      -10.24417        -2.95969        -1.91785
| 39>    N      -11.30562        -2.79489        -1.06618
| 40>    C      -11.36554        -2.02109         0.15177
| 41>    C      -10.98895        -2.86278         1.36883
| 42>    C      -12.45458        -3.46953        -1.52159
| 43>    O      -13.51915        -3.44358        -0.93639
| 44>    C      -12.03560        -4.11317        -2.74811
| 45>    C      -10.68679        -3.78775        -2.96408
| 46>    C      -10.24213        -4.48171        -4.16328
| 47>    O       -9.16651        -4.54938        -4.71122
| 48>    N      -11.39540        -5.14723        -4.62049
| 49>    C      -11.35656        -5.97384        -5.80566
| 50>    C      -11.39512        -7.46254        -5.47297
| 51>    C      -12.47257        -4.94180        -3.80188
| 52>    C      -13.75673        -5.45060        -4.06559
| 53>    C      -14.81723        -5.20690        -3.23593
| 54>    C      -16.15725        -5.61158        -3.41050
| 55>    C      -16.75912        -6.70025        -4.05499
| 56>    N      -16.20077        -7.75945        -4.78999
| 57>    O      -15.01246        -7.73943        -5.07829
| 58>    O      -16.94941        -8.66825        -5.10708
| 59>    C      -18.16375        -6.70171        -3.75959
| 60>    C      -18.44951        -5.66632        -2.92821
| 61>    C      -17.24535        -4.92841        -2.68486
| 62>    C      -17.14692        -3.70636        -2.04617
| 63>    C      -16.23783        -2.65095        -2.36874
| 64>    C      -16.62843        -1.51901        -1.72173
| 65>    C      -17.76383        -1.82210        -0.89903
| 66>    N      -18.35830        -0.87000        -0.05242
| 67>    O      -19.30099        -1.20823         0.64437
| 68>    O      -17.89415         0.25765        -0.07136
| 69>    C      -18.09904        -3.16255        -1.05293
| 70>    C      -19.05930        -3.89057        -0.31508
| 71>    C      -19.00590        -5.22793        -0.07068
| 72>    C      -20.04665        -5.91553         0.60254
| 73>    N      -21.16581        -5.40756         0.99304
| 74>    C      -21.98168        -6.31584         1.56468
| 75>    C      -23.25605        -6.06236         2.07878
| 76>    C      -23.97146        -7.10352         2.62146
| 77>    C      -23.44507        -8.39774         2.66584
| 78>    C      -22.18852        -8.67685         2.16833
| 79>    C      -21.45716        -7.63667         1.61829
| 80>    S      -19.87623        -7.66679         0.91788
| 81>    H        0.16512         1.30149        -1.50549
| 82>    H        1.09325         1.22469        -6.39952
| 83>    H        2.79504         2.04419        -4.80817
| 84>    H        2.34592         2.08528        -2.39711
| 85>    H       -4.29757        -0.49521        -1.94364
| 86>    H       -4.27923        -0.83196        -6.25486
| 87>    H       -8.32267        -2.60497        -3.91757
| 88>    H       -8.63551        -1.75692         0.32188
| 89>    H      -12.40288        -1.68898         0.25586
| 90>    H      -10.72392        -1.14361         0.05161
| 91>    H      -11.71083        -3.66554         1.49680
| 92>    H      -10.99666        -2.24421         2.26196
| 93>    H      -10.00176        -3.30569         1.25389
| 94>    H      -10.41535        -5.72739        -6.30498
| 95>    H      -12.18689        -5.70652        -6.46456
| 96>    H      -10.59972        -7.71077        -4.77419
| 97>    H      -11.24761        -8.03716        -6.38269
| 98>    H      -12.35046        -7.74714        -5.03972
| 99>    H      -13.89425        -6.02104        -4.96899
|100>    H      -14.63760        -4.60585        -2.35334
|101>    H      -18.84684        -7.42694        -4.15940
|102>    H      -19.42391        -5.37241        -2.59120
|103>    H      -15.46411        -2.71329        -3.10803
|104>    H      -16.19072        -0.54112        -1.79042
|105>    H      -19.86128        -3.32316         0.14129
|106>    H      -18.15210        -5.81948        -0.36959
|107>    H      -23.64666        -5.05872         2.03723
|108>    H      -24.95775        -6.92366         3.02128
|109>    H      -24.03257        -9.19397         3.09690
|110>    H      -21.78187        -9.67540         2.20210
|111> *
|112>
|113>                          ****END OF INPUT****

CARTESIAN COORDINATES (ANGSTROEM)
---------------------------------
  C      0.379530    1.289970   -2.561670
  C     -0.595350    0.823160   -3.446600
  C     -0.320440    0.805460   -4.840920
  C      0.896310    1.242480   -5.339020
  C      1.840410    1.698410   -4.441970
  C      1.582990    1.721260   -3.068270
  S     -1.686990    0.188290   -5.700000
  C     -2.517660    0.004880   -4.126320
  N     -1.820630    0.370620   -3.107290
  C     -3.841270   -0.502940   -4.075210
  C     -4.608200   -0.695540   -2.949490
  C     -5.864870   -1.238240   -3.341100
  C     -5.832500   -1.341820   -4.815330
  C     -4.621330   -0.898710   -5.238460
  C     -6.883510   -1.718180   -5.661560
  N     -7.727100   -1.971420   -6.398520
  C     -6.917940   -1.604320   -2.531200
  C     -8.114630   -2.256180   -2.926020
  C     -8.958440   -2.371990   -1.831980
  C     -8.271390   -1.795060   -0.686350
  C     -7.045650   -1.361030   -1.085350
  C     -6.101040   -0.763320   -0.242510
  N     -5.356910   -0.279980    0.486430
  C    -10.244170   -2.959690   -1.917850
  N    -11.305620   -2.794890   -1.066180
  C    -11.365540   -2.021090    0.151770
  C    -10.988950   -2.862780    1.368830
  C    -12.454580   -3.469530   -1.521590
  O    -13.519150   -3.443580   -0.936390
  C    -12.035600   -4.113170   -2.748110
  C    -10.686790   -3.787750   -2.964080
  C    -10.242130   -4.481710   -4.163280
  O     -9.166510   -4.549380   -4.711220
  N    -11.395400   -5.147230   -4.620490
  C    -11.356560   -5.973840   -5.805660
  C    -11.395120   -7.462540   -5.472970
  C    -12.472570   -4.941800   -3.801880
  C    -13.756730   -5.450600   -4.065590
  C    -14.817230   -5.206900   -3.235930
  C    -16.157250   -5.611580   -3.410500
  C    -16.759120   -6.700250   -4.054990
  N    -16.200770   -7.759450   -4.789990
  O    -15.012460   -7.739430   -5.078290
  O    -16.949410   -8.668250   -5.107080
  C    -18.163750   -6.701710   -3.759590
  C    -18.449510   -5.666320   -2.928210
  C    -17.245350   -4.928410   -2.684860
  C    -17.146920   -3.706360   -2.046170
  C    -16.237830   -2.650950   -2.368740
  C    -16.628430   -1.519010   -1.721730
  C    -17.763830   -1.822100   -0.899030
  N    -18.358300   -0.870000   -0.052420
  O    -19.300990   -1.208230    0.644370
  O    -17.894150    0.257650   -0.071360
  C    -18.099040   -3.162550   -1.052930
  C    -19.059300   -3.890570   -0.315080
  C    -19.005900   -5.227930   -0.070680
  C    -20.046650   -5.915530    0.602540
  N    -21.165810   -5.407560    0.993040
  C    -21.981680   -6.315840    1.564680
  C    -23.256050   -6.062360    2.078780
  C    -23.971460   -7.103520    2.621460
  C    -23.445070   -8.397740    2.665840
  C    -22.188520   -8.676850    2.168330
  C    -21.457160   -7.636670    1.618290
  S    -19.876230   -7.666790    0.917880
  H      0.165120    1.301490   -1.505490
  H      1.093250    1.224690   -6.399520
  H      2.795040    2.044190   -4.808170
  H      2.345920    2.085280   -2.397110
  H     -4.297570   -0.495210   -1.943640
  H     -4.279230   -0.831960   -6.254860
  H     -8.322670   -2.604970   -3.917570
  H     -8.635510   -1.756920    0.321880
  H    -12.402880   -1.688980    0.255860
  H    -10.723920   -1.143610    0.051610
  H    -11.710830   -3.665540    1.496800
  H    -10.996660   -2.244210    2.261960
  H    -10.001760   -3.305690    1.253890
  H    -10.415350   -5.727390   -6.304980
  H    -12.186890   -5.706520   -6.464560
  H    -10.599720   -7.710770   -4.774190
  H    -11.247610   -8.037160   -6.382690
  H    -12.350460   -7.747140   -5.039720
  H    -13.894250   -6.021040   -4.968990
  H    -14.637600   -4.605850   -2.353340
  H    -18.846840   -7.426940   -4.159400
  H    -19.423910   -5.372410   -2.591200
  H    -15.464110   -2.713290   -3.108030
  H    -16.190720   -0.541120   -1.790420
  H    -19.861280   -3.323160    0.141290
  H    -18.152100   -5.819480   -0.369590
  H    -23.646660   -5.058720    2.037230
  H    -24.957750   -6.923660    3.021280
  H    -24.032570   -9.193970    3.096900
  H    -21.781870   -9.675400    2.202100

 Total Charge           Charge          ....    0
 Multiplicity           Mult            ....    1
 Number of Electrons    NEL             ....  466
 Basis Dimension        Dim             .... 1082

ORBITAL ENERGIES
----------------

  NO   OCC          E(Eh)            E(eV)
   0   2.0000     -88.965184     -2420.8657
   1   2.0000     -88.962166     -2420.7836
   2   2.0000     -19.242960      -523.6276
   3   2.0000     -19.242097      -523.6041
   4   2.0000     -19.233977      -523.3831
   5   2.0000     -19.233654      -523.3743
   6   2.0000     -19.208123      -522.6796
   7   2.0000     -19.201127      -522.4892
   8   2.0000     -14.651937      -398.6995
   9   2.0000     -14.643312      -398.4648
  10   2.0000     -14.470117      -393.7519
  11   2.0000     -14.462921      -393.5561
  12   2.0000     -14.416024      -392.2800
  13   2.0000     -14.413860      -392.2211
  14   2.0000     -14.411335      -392.1524
  15   2.0000     -14.406140      -392.0110
  16   2.0000     -10.389251      -282.7059
  17   2.0000     -10.384362      -282.5728
  18   2.0000     -10.355548      -281.7888
  19   2.0000     -10.352201      -281.6977
  20   2.0000     -10.349363      -281.6205
  21   2.0000     -10.345501      -281.5154
  22   2.0000     -10.336860      -281.2803
  23   2.0000     -10.332790      -281.1695
  24   2.0000     -10.330827      -281.1161
  25   2.0000     -10.330420      -281.1050
  26   2.0000     -10.327961      -281.0381
  27   2.0000     -10.326457      -280.9972
  28   2.0000     -10.325520      -280.9717
  29   2.0000     -10.321581      -280.8645
  30   2.0000     -10.321551      -280.8637
  31   2.0000     -10.320931      -280.8468
  32   2.0000     -10.319226      -280.8004
  33   2.0000     -10.317543      -280.7546
  34   2.0000     -10.314223      -280.6643
  35   2.0000     -10.313659      -280.6489
  36   2.0000     -10.312791      -280.6253
  37   2.0000     -10.309741      -280.5423
  38   2.0000     -10.309336      -280.5313
  39   2.0000     -10.309329      -280.5311
  40   2.0000     -10.308523      -280.5092
  41   2.0000     -10.308443      -280.5070
  42   2.0000     -10.307588      -280.4837
  43   2.0000     -10.307317      -280.4764
  44   2.0000     -10.305435      -280.4251
  45   2.0000     -10.305231      -280.4196
  46   2.0000     -10.301476      -280.3174
  47   2.0000     -10.299137      -280.2538
  48   2.0000     -10.298221      -280.2288
  49   2.0000     -10.297161      -280.2000
  50   2.0000     -10.291506      -280.0461
  51   2.0000     -10.289678      -279.9964
  52   2.0000     -10.289577      -279.9936
  53   2.0000     -10.286597      -279.9125
  54   2.0000     -10.285730      -279.8889
  55   2.0000     -10.284267      -279.8491
  56   2.0000     -10.280644      -279.7506
  57   2.0000     -10.279188      -279.7109
  58   2.0000     -10.278632      -279.6958
  59   2.0000     -10.278273      -279.6860
  60   2.0000     -10.277378      -279.6617
  61   2.0000     -10.276422      -279.6357
  62   2.0000     -10.276286      -279.6319
  63   2.0000     -10.275450      -279.6092
  64   2.0000     -10.273948      -279.5683
  65   2.0000     -10.259211      -279.1673
  66   2.0000      -8.061186      -219.3560
  67   2.0000      -8.058428      -219.2810
  68   2.0000      -6.030383      -164.0951
  69   2.0000      -6.027568      -164.0185
  70   2.0000      -6.026681      -163.9943
  71   2.0000      -6.023952      -163.9201
  72   2.0000      -6.022917      -163.8919
  73   2.0000      -6.020131      -163.8161
  74   2.0000      -1.321627       -35.9633
  75   2.0000      -1.313215       -35.7344
  76   2.0000      -1.148694       -31.2576
  77   2.0000      -1.140221       -31.0270
  78   2.0000      -1.137593       -30.9555
  79   2.0000      -1.130224       -30.7550
  80   2.0000      -1.078359       -29.3436
  81   2.0000      -1.072287       -29.1784
  82   2.0000      -1.069825       -29.1114
  83   2.0000      -1.068706       -29.0810
  84   2.0000      -1.020256       -27.7626
  85   2.0000      -1.019717       -27.7479
  86   2.0000      -1.002301       -27.2740
  87   2.0000      -0.998846       -27.1800
  88   2.0000      -0.987046       -26.8589
  89   2.0000      -0.982040       -26.7227
  90   2.0000      -0.950815       -25.8730
  91   2.0000      -0.949739       -25.8437
  92   2.0000      -0.940150       -25.5828
  93   2.0000      -0.920517       -25.0485
  94   2.0000      -0.916650       -24.9433
  95   2.0000      -0.910891       -24.7866
  96   2.0000      -0.904483       -24.6122
  97   2.0000      -0.897505       -24.4223
  98   2.0000      -0.891739       -24.2655
  99   2.0000      -0.882983       -24.0272
 100   2.0000      -0.880897       -23.9704
 101   2.0000      -0.871013       -23.7015
 102   2.0000      -0.856590       -23.3090
 103   2.0000      -0.850933       -23.1551
 104   2.0000      -0.848035       -23.0762
 105   2.0000      -0.832968       -22.6662
 106   2.0000      -0.829763       -22.5790
 107   2.0000      -0.829385       -22.5687
 108   2.0000      -0.828364       -22.5409
 109   2.0000      -0.815880       -22.2012
 110   2.0000      -0.806985       -21.9592
 111   2.0000      -0.792573       -21.5670
 112   2.0000      -0.779503       -21.2113
 113   2.0000      -0.767745       -20.8914
 114   2.0000      -0.766123       -20.8473
 115   2.0000      -0.740076       -20.1385
 116   2.0000      -0.733576       -19.9616
 117   2.0000      -0.731558       -19.9067
 118   2.0000      -0.725808       -19.7502
 119   2.0000      -0.719799       -19.5867
 120   2.0000      -0.712549       -19.3894
 121   2.0000      -0.698487       -19.0068
 122   2.0000      -0.693959       -18.8836
 123   2.0000      -0.688357       -18.7311
 124   2.0000      -0.686757       -18.6876
 125   2.0000      -0.684598       -18.6289
 126   2.0000      -0.682488       -18.5714
 127   2.0000      -0.674403       -18.3514
 128   2.0000      -0.672559       -18.3013
 129   2.0000      -0.662233       -18.0203
 130   2.0000      -0.657000       -17.8779
 131   2.0000      -0.647719       -17.6253
 132   2.0000      -0.646706       -17.5978
 133   2.0000      -0.635096       -17.2818
 134   2.0000      -0.632750       -17.2180
 135   2.0000      -0.629404       -17.1270
 136   2.0000      -0.625100       -17.0098
 137   2.0000      -0.623149       -16.9567
 138   2.0000      -0.619657       -16.8617
 139   2.0000      -0.611267       -16.6334
 140   2.0000      -0.602225       -16.3874
 141   2.0000      -0.596797       -16.2397
 142   2.0000      -0.589504       -16.0412
 143   2.0000      -0.588484       -16.0135
 144   2.0000      -0.586494       -15.9593
 145   2.0000      -0.579956       -15.7814
 146   2.0000      -0.578812       -15.7503
 147   2.0000      -0.578240       -15.7347
 148   2.0000      -0.574304       -15.6276
 149   2.0000      -0.569200       -15.4887
 150   2.0000      -0.567412       -15.4401
 151   2.0000      -0.561669       -15.2838
 152   2.0000      -0.560149       -15.2424
 153   2.0000      -0.554338       -15.0843
 154   2.0000      -0.552227       -15.0269
 155   2.0000      -0.550965       -14.9925
 156   2.0000      -0.543499       -14.7893
 157   2.0000      -0.537968       -14.6389
 158   2.0000      -0.534255       -14.5378
 159   2.0000      -0.532269       -14.4838
 160   2.0000      -0.530220       -14.4280
 161   2.0000      -0.526574       -14.3288
 162   2.0000      -0.525056       -14.2875
 163   2.0000      -0.524020       -14.2593
 164   2.0000      -0.523032       -14.2324
 165   2.0000      -0.521069       -14.1790
 166   2.0000      -0.518449       -14.1077
 167   2.0000      -0.516983       -14.0678
 168   2.0000      -0.514547       -14.0015
 169   2.0000      -0.510925       -13.9030
 170   2.0000      -0.509350       -13.8601
 171   2.0000      -0.506633       -13.7862
 172   2.0000      -0.501431       -13.6446
 173   2.0000      -0.500730       -13.6256
 174   2.0000      -0.493088       -13.4176
 175   2.0000      -0.492106       -13.3909
 176   2.0000      -0.489783       -13.3277
 177   2.0000      -0.487222       -13.2580
 178   2.0000      -0.483387       -13.1536
 179   2.0000      -0.482802       -13.1377
 180   2.0000      -0.480119       -13.0647
 181   2.0000      -0.479065       -13.0360
 182   2.0000      -0.476902       -12.9772
 183   2.0000      -0.475579       -12.9412
 184   2.0000      -0.472125       -12.8472
 185   2.0000      -0.468356       -12.7446
 186   2.0000      -0.467136       -12.7114
 187   2.0000      -0.465975       -12.6798
 188   2.0000      -0.461388       -12.5550
 189   2.0000      -0.454024       -12.3546
 190   2.0000      -0.449178       -12.2227
 191   2.0000      -0.447540       -12.1782
 192   2.0000      -0.446190       -12.1414
 193   2.0000      -0.445972       -12.1355
 194   2.0000      -0.444584       -12.0978
 195   2.0000      -0.441363       -12.0101
 196   2.0000      -0.440187       -11.9781
 197   2.0000      -0.439671       -11.9641
 198   2.0000      -0.437613       -11.9081
 199   2.0000      -0.434455       -11.8221
 200   2.0000      -0.424443       -11.5497
 201   2.0000      -0.423878       -11.5343
 202   2.0000      -0.419112       -11.4046
 203   2.0000      -0.417475       -11.3601
 204   2.0000      -0.416504       -11.3336
 205   2.0000      -0.409131       -11.1330
 206   2.0000      -0.398866       -10.8537
 207   2.0000      -0.392901       -10.6914
 208   2.0000      -0.389716       -10.6047
 209   2.0000      -0.386020       -10.5041
 210   2.0000      -0.385709       -10.4957
 211   2.0000      -0.383851       -10.4451
 212   2.0000      -0.379341       -10.3224
 213   2.0000      -0.374778       -10.1982
 214   2.0000      -0.371772       -10.1164
 215   2.0000      -0.365334        -9.9413
 216   2.0000      -0.360837        -9.8189
 217   2.0000      -0.360099        -9.7988
 218   2.0000      -0.354252        -9.6397
 219   2.0000      -0.352634        -9.5957
 220   2.0000      -0.352439        -9.5903
 221   2.0000      -0.344892        -9.3850
 222   2.0000      -0.341943        -9.3047
 223   2.0000      -0.329505        -8.9663
 224   2.0000      -0.326406        -8.8820
 225   2.0000      -0.323494        -8.8027
 226   2.0000      -0.317181        -8.6309
 227   2.0000      -0.306665        -8.3448
 228   2.0000      -0.305346        -8.3089
 229   2.0000      -0.303753        -8.2655
 230   2.0000      -0.286509        -7.7963
 231   2.0000      -0.274301        -7.4641
 232   2.0000      -0.242758        -6.6058
 233   0.0000      -0.145717        -3.9652
 234   0.0000      -0.128625        -3.5001
 235   0.0000      -0.082700        -2.2504
 236   0.0000      -0.054403        -1.4804
 237   0.0000      -0.030880        -0.8403

MULLIKEN ATOMIC CHARGES
-----------------------
   0 C :   -0.019588
   1 C :    0.062786
   2 C :   -0.001981
   3 C :   -0.050461
   4 C :    0.036971
   5 C :    0.022705
   6 S :    0.089819
   7 C :   -0.141190
   8 N :    0.000120
   9 C :    0.159705
  10 C :   -0.118724
  11 C :    0.103465
  12 C :   -0.080167
  13 C :   -0.010245
  14 C :   -0.178048
  15 N :    0.145434
  16 C :    0.122119
  17 C :   -0.104882
  18 C :    0.043766
  19 C :   -0.034816
  20 C :   -0.090237
  21 C :   -0.186705
  22 N :    0.151613
  23 C :    0.152389
  24 N :   -0.251613
  25 C :    0.103005
  26 C :   -0.001560
  27 C :    0.158317
  28 O :   -0.206694
  29 C :   -0.065691
  30 C :   -0.057875
  31 C :    0.155788
  32 O :   -0.177967
  33 N :   -0.255055
  34 C :    0.094681
  35 C :   -0.001490
  36 C :    0.143159
  37 C :    0.006369
  38 C :   -0.092720
  39 C :    0.078598
  40 C :    0.077565
  41 N :    0.277479
  42 O :   -0.261850
  43 O :   -0.242810
  44 C :    0.010946
  45 C :    0.005689
  46 C :    0.003625
  47 C :    0.045552
  48 C :    0.023390
  49 C :    0.018977
  50 C :    0.091186
  51 N :    0.272125
  52 O :   -0.249437
  53 O :   -0.249444
  54 C :    0.041665
  55 C :   -0.025175
  56 C :    0.061162
  57 C :   -0.137550
  58 N :   -0.012760
  59 C :    0.057281
  60 C :   -0.014837
  61 C :    0.022727
  62 C :    0.035282
  63 C :   -0.044462
  64 C :   -0.023817
  65 S :    0.108072
  66 H :   -0.012199
  67 H :   -0.015403
  68 H :   -0.006774
  69 H :   -0.006494
  70 H :    0.016921
  71 H :    0.011642
  72 H :    0.027500
  73 H :   -0.009929
  74 H :    0.042375
  75 H :    0.027861
  76 H :    0.035783
  77 H :    0.030276
  78 H :    0.021161
  79 H :    0.051305
  80 H :    0.029847
  81 H :    0.021552
  82 H :    0.026960
  83 H :    0.033065
  84 H :    0.002839
  85 H :    0.040232
  86 H :    0.006676
  87 H :    0.010583
  88 H :   -0.001005
  89 H :    0.004554
  90 H :    0.046792
  91 H :    0.017515
  92 H :   -0.016387
  93 H :   -0.008435
  94 H :   -0.006473
  95 H :   -0.016019
Sum of atomic charges:   -0.0000000

LOEWDIN ATOMIC CHARGES
----------------------
   0 C :   -0.011218
   1 C :   -0.032408
   2 C :   -0.167197
   3 C :   -0.040823
   4 C :   -0.016424
   5 C :   -0.024090
   6 S :    0.381962
   7 C :   -0.110511
   8 N :   -0.072713
   9 C :   -0.036588
  10 C :    0.000497
  11 C :    0.049720
  12 C :   -0.075350
  13 C :    0.046230
  14 C :   -0.034598
  15 N :   -0.049629
  16 C :    0.030587
  17 C :    0.019380
  18 C :   -0.037846
  19 C :    0.041247
  20 C :   -0.076073
  21 C :   -0.034170
  22 N :   -0.054114
  23 C :    0.074473
  24 N :    0.005291
  25 C :    0.037271
  26 C :   -0.061832
  27 C :    0.079707
  28 O :   -0.193407
  29 C :   -0.113845
  30 C :   -0.102495
  31 C :    0.082748
  32 O :   -0.169039
  33 N :    0.006845
  34 C :    0.038119
  35 C :   -0.060561
  36 C :    0.078560
  37 C :   -0.011356
  38 C :    0.012720
  39 C :    0.000838
  40 C :   -0.041253
  41 N :    0.287440
  42 O :   -0.219190
  43 O :   -0.207267
  44 C :    0.003239
  45 C :   -0.035014
  46 C :    0.036414
  47 C :    0.053819
  48 C :   -0.032729
  49 C :    0.027285
  50 C :   -0.044826
  51 N :    0.284762
  52 O :   -0.210916
  53 O :   -0.214631
  54 C :    0.010768
  55 C :    0.013219
  56 C :   -0.023967
  57 C :   -0.117751
  58 N :   -0.078761
  59 C :   -0.033317
  60 C :   -0.012584
  61 C :   -0.024607
  62 C :   -0.017602
  63 C :   -0.041057
  64 C :   -0.168564
  65 S :    0.383985
  66 H :    0.038479
  67 H :    0.031815
  68 H :    0.031350
  69 H :    0.031643
  70 H :    0.041905
  71 H :    0.034688
  72 H :    0.039153
  73 H :    0.036056
  74 H :    0.038466
  75 H :    0.025519
  76 H :    0.035427
  77 H :    0.033723
  78 H :    0.021401
  79 H :    0.040212
  80 H :    0.026441
  81 H :    0.029192
  82 H :    0.033874
  83 H :    0.026564
  84 H :    0.030447
  85 H :    0.040546
  86 H :    0.038575
  87 H :    0.034714
  88 H :    0.031490
  89 H :    0.039120
  90 H :    0.047798
  91 H :    0.033559
  92 H :    0.037216
  93 H :    0.031048
  94 H :    0.031187
  95 H :    0.031590

  Mayer bond orders larger than 0.100000
B(  0-C ,  1-C ) :   1.3120 B(  0-C ,  5-C ) :   1.4160 B(  0-C , 66-H ) :   1.0074
B(  1-C ,  2-C ) :   1.2873 B(  1-C ,  8-N ) :   1.3039 B(  2-C ,  3-C ) :   1.3421
B(  2-C ,  6-S ) :   1.0646 B(  3-C ,  4-C ) :   1.4350 B(  3-C , 67-H ) :   1.0030
B(  4-C ,  5-C ) :   1.3268 B(  4-C , 68-H ) :   0.9888 B(  5-C , 69-H ) :   0.9879
B(  6-S ,  7-C ) :   1.0575 B(  6-S ,  8-N ) :   0.1128 B(  7-C ,  8-N ) :   1.7996
B(  7-C ,  9-C ) :   1.0287 B(  9-C , 10-C ) :   1.5703 B(  9-C , 13-C ) :   1.0444
B( 10-C , 11-C ) :   1.0946 B( 10-C , 70-H ) :   1.0217 B( 11-C , 12-C ) :   1.1012
B( 11-C , 16-C ) :   1.3849 B( 12-C , 13-C ) :   1.6898 B( 12-C , 14-C ) :   1.0842
B( 13-C , 71-H ) :   1.0084 B( 14-C , 15-N ) :   2.9821 B( 16-C , 17-C ) :   1.1237
B( 16-C , 20-C ) :   1.1061 B( 17-C , 18-C ) :   1.5351 B( 17-C , 72-H ) :   0.9896
B( 18-C , 19-C ) :   1.0262 B( 18-C , 23-C ) :   1.0539 B( 19-C , 20-C ) :   1.6652
B( 19-C , 73-H ) :   1.0249 B( 20-C , 21-C ) :   1.0824 B( 21-C , 22-N ) :   2.9809
B( 23-C , 24-N ) :   1.2019 B( 23-C , 30-C ) :   1.3444 B( 24-N , 25-C ) :   0.9393
B( 24-N , 27-C ) :   1.0562 B( 25-C , 26-C ) :   1.1176 B( 25-C , 74-H ) :   0.9275
B( 25-C , 75-H ) :   0.9497 B( 26-C , 76-H ) :   0.9605 B( 26-C , 77-H ) :   0.9689
B( 26-C , 78-H ) :   0.9658 B( 27-C , 28-O ) :   2.0075 B( 27-C , 29-C ) :   0.9903
B( 28-O , 85-H ) :   0.1067 B( 29-C , 30-C ) :   1.2831 B( 29-C , 36-C ) :   1.2632
B( 30-C , 31-C ) :   0.9624 B( 31-C , 32-O ) :   2.0982 B( 31-C , 33-N ) :   1.0437
B( 33-N , 34-C ) :   0.9335 B( 33-N , 36-C ) :   1.1826 B( 34-C , 35-C ) :   1.1215
B( 34-C , 79-H ) :   0.9282 B( 34-C , 80-H ) :   0.9484 B( 35-C , 81-H ) :   0.9622
B( 35-C , 82-H ) :   0.9665 B( 35-C , 83-H ) :   0.9654 B( 36-C , 37-C ) :   1.1786
B( 37-C , 38-C ) :   1.5545 B( 37-C , 84-H ) :   0.9526 B( 38-C , 39-C ) :   1.1565
B( 38-C , 85-H ) :   0.9296 B( 39-C , 40-C ) :   1.4535 B( 39-C , 46-C ) :   1.0405
B( 40-C , 41-N ) :   0.9613 B( 40-C , 44-C ) :   1.1450 B( 41-N , 42-O ) :   1.4603
B( 41-N , 43-O ) :   1.5391 B( 42-O , 43-O ) :   0.2509 B( 44-C , 45-C ) :   1.5646
B( 44-C , 86-H ) :   1.0074 B( 45-C , 46-C ) :   1.1315 B( 45-C , 87-H ) :   0.9993
B( 46-C , 47-C ) :   1.4775 B( 47-C , 48-C ) :   1.1573 B( 47-C , 54-C ) :   1.0066
B( 48-C , 49-C ) :   1.5505 B( 48-C , 88-H ) :   1.0028 B( 49-C , 50-C ) :   1.1355
B( 49-C , 89-H ) :   1.0111 B( 50-C , 51-N ) :   0.9468 B( 50-C , 54-C ) :   1.5077
B( 51-N , 52-O ) :   1.5004 B( 51-N , 53-O ) :   1.5297 B( 52-O , 53-O ) :   0.2628
B( 54-C , 55-C ) :   1.1698 B( 55-C , 56-C ) :   1.6232 B( 55-C , 90-H ) :   0.9556
B( 56-C , 57-C ) :   1.1066 B( 56-C , 91-H ) :   0.9415 B( 57-C , 58-N ) :   1.7521
B( 57-C , 65-S ) :   1.0570 B( 58-N , 59-C ) :   1.3177 B( 58-N , 65-S ) :   0.1111
B( 59-C , 60-C ) :   1.3135 B( 59-C , 64-C ) :   1.2875 B( 60-C , 61-C ) :   1.4178
B( 60-C , 92-H ) :   1.0065 B( 61-C , 62-C ) :   1.3273 B( 61-C , 93-H ) :   0.9877
B( 62-C , 63-C ) :   1.4353 B( 62-C , 94-H ) :   0.9895 B( 63-C , 64-C ) :   1.3466
B( 63-C , 95-H ) :   1.0026 B( 64-C , 65-S ) :   1.0690

-----------------------------------------------------------------------------
         ABSORPTION SPECTRUM VIA TRANSITION ELECTRIC DIPOLE MOMENTS
-----------------------------------------------------------------------------
State   Energy  Wavelength   fosc         T2         TX        TY        TZ
        (cm-1)    (nm)                  (au**2)     (au)      (au)      (au)
-----------------------------------------------------------------------------
   0    5816.9   1719.1   0.357716355  20.24525   4.22477   1.47659  -0.46504
   1    9634.5   1037.9   0.077527471   2.64913   1.29745   0.98162   0.04664
   2   11441.8    874.0   0.056291350   1.61965   0.51328   0.30906  -1.12280
   3   15157.7    659.7   0.113827820   2.47224   1.32261   0.51415  -0.67719
   4   17096.6    584.9   0.014871409   0.28636   0.07056  -0.37212  -0.37804
   5   18733.8    533.8   0.162090619   2.84844  -0.95435  -0.56045  -1.27419
   6   19796.5    505.1   0.001882329   0.03130   0.02454   0.05264   0.16712
   7   21078.2    474.4   0.029300956   0.45764   0.13103   0.66000   0.06983
   8   21141.0    473.0   0.009526676   0.14835  -0.35497  -0.10493   0.10647
   9   22080.4    452.9   0.078789107   1.17472  -0.79758  -0.30747   0.66637
  10   22412.2    446.2   0.141436795   2.07756  -0.95226  -0.97248   0.47439
  11   22500.6    444.4   0.102298873   1.49676  -0.91381  -0.71071   0.39573
  12   23372.1    427.9   0.246479500   3.47183   1.72318   0.57475  -0.41489
  13   23952.6    417.5   0.015136159   0.20804   0.32521   0.29998   0.11083
  14   24216.4    412.9   0.413050629   5.61526  -2.09192  -0.68324   0.87880
  15   24516.3    407.9   0.079190660   1.06339  -0.80608  -0.23041   0.60045
  16   25453.4    392.9   0.047202836   0.61052  -0.59979  -0.50077   0.00016
  17   25729.8    388.7   0.031825498   0.40721  -0.52632   0.35478   0.06572
  18   26079.9    383.4   0.018194083   0.22967  -0.14170  -0.45568   0.04411
  19   26324.3    379.9   0.003107036   0.03886   0.08861  -0.17334  -0.03095
  20   26583.6    376.2   0.033758427   0.41806  -0.36070  -0.02737  -0.53592
  21   26930.5    371.3   0.082648547   1.01034  -0.71200  -0.69445   0.14537
  22   27108.2    368.9   0.044111689   0.53571  -0.32070  -0.65312  -0.07933
  23   27725.1    360.7   0.335774571   3.98704   0.39737  -1.57412  -1.16244
  24   27892.4    358.5   0.011450517   0.13515  -0.23706   0.15277   0.23582
  25   28026.4    356.8   0.000392119   0.00461   0.02851  -0.05909   0.01738
  26   29837.9    335.1   0.000375236   0.00414  -0.02830  -0.00382  -0.05766
  27   29910.2    334.3   0.002655644   0.02923  -0.14695   0.08262   0.02844
  28   30257.9    330.5   0.071783582   0.78102  -0.29431   0.72631   0.40851
  29   30507.0    327.8   0.014793961   0.15965   0.24930  -0.06295  -0.30583
  30   30602.4    326.8   0.079945922   0.86003   0.64086   0.67032  -0.00101
  31   31265.1    319.8   0.033973829   0.35773   0.04444  -0.49301  -0.33571
  32   31405.2    318.4   0.088018780   0.92267   0.50835   0.70413  -0.41045
  33   31531.0    317.1   0.151337847   1.58010   0.02462   1.23946   0.20795
  34   31742.0    315.0   0.158640703   1.64534   0.81166   0.98700   0.11132
  35   31922.1    313.3   0.470127892   4.84842   0.90398   1.98102   0.32681
  36   32174.9    310.8   0.053918772   0.55169  -0.51605  -0.32185   0.42638
  37   32419.3    308.5   0.073699270   0.74840  -0.82188  -0.22241   0.15315
  38   32589.5    306.8   0.260540291   2.63192  -1.17753  -0.47145   1.01148
  39   33254.0    300.7   0.039859906   0.39461   0.03640   0.35740   0.51532
  40   33776.3    296.1   0.008695865   0.08476  -0.11799   0.04421   0.26245
  41   33965.0    294.4   0.017205235   0.16676  -0.19095  -0.05663  -0.35650
  42   34636.0    288.7   0.009606139   0.09131  -0.26506   0.03960  -0.13957
  43   34718.7    288.0   0.007635083   0.07240   0.19137  -0.15883   0.10270
  44   34809.3    287.3   0.167897002   1.58790  -0.02386   1.15454   0.50434
  45   35144.6    284.5   0.239058844   2.23935  -1.35978  -0.61552   0.10720
  46   35595.4    280.9   0.052008391   0.48101  -0.35414  -0.59577  -0.02553
  47   35712.6    280.0   0.023447736   0.21615  -0.34420   0.28904  -0.11887
  48   35953.0    278.1   0.281743119   2.57985   1.49166   0.30952  -0.50893
  49   36165.6    276.5   0.062819333   0.57184   0.53752   0.22057  -0.48401
  50   36354.8    275.1   0.004423884   0.04006   0.00993  -0.07558  -0.18507
  51   36677.6    272.6   0.042709902   0.38336   0.58000   0.20553   0.06869
  52   36844.0    271.4   0.074263660   0.66357  -0.68779  -0.09176   0.42672
  53   37156.2    269.1   0.032290558   0.28610   0.07698  -0.22821  -0.47759
  54   37258.3    268.4   0.003942389   0.03483   0.02551   0.16863  -0.07581
  55   37357.7    267.7   0.015139986   0.13342   0.29659  -0.14631   0.15506
  56   37974.1    263.3   0.001648722   0.01429   0.01931  -0.08668   0.08004
  57   38146.5    262.1   0.008954931   0.07728   0.25587   0.10743  -0.01645
  58   38333.1    260.9   0.018350935   0.15760  -0.09916  -0.32125  -0.21111
  59   38573.5    259.2   0.029892211   0.25512  -0.10471  -0.27013  -0.41375
  60   38739.1    258.1   0.016085389   0.13670  -0.28829  -0.14040  -0.18404
  61   39537.7    252.9   0.092590145   0.77095   0.82789   0.28910  -0.04446
  62   39826.3    251.1   0.000154096   0.00127  -0.02274  -0.01343   0.02401
  63   39860.6    250.9   0.084984784   0.70190   0.67760  -0.02067  -0.49227
  64   39943.3    250.4   0.229944302   1.89520  -1.15812  -0.06780   0.74118
  65   40076.9    249.5   0.053942394   0.44311  -0.34930  -0.27010  -0.49814
  66   40158.0    249.0   0.139929329   1.14713  -0.88757  -0.52505   0.28927

FINAL SINGLE POINT ENERGY     -3605.059730575123

DIPOLE MOMENT
-------------
                                X             Y             Z
Electronic contribution:      2.82747       9.80238      -7.71826
Nuclear contribution   :     -2.20397     -10.51154       7.56377
                        -----------------------------------------
Total Dipole Moment    :      0.62350      -0.70916      -0.15449
                        -----------------------------------------
Magnitude (a.u.)       :      0.95683
Magnitude (Debye)      :      2.43207

Rotational constants in cm-1:     0.002639     0.000315     0.000297
Rotational constants in MHz :    79.127000     9.456585     8.902554

                             ****ORCA TERMINATED NORMALLY****
TOTAL RUN TIME: 0 days 0 hours 9 minutes 24 seconds 334 msec
