                         Program Version 4.2.0 -  RELEASE  -
|  1> # ORCA input file
|  2> # SCF done       -196.475751744856          0.000953742165
|  3> ! CAM-B3LYP def2-SVP def2/J RIJCOSX Grid4 TightSCF
|  4> %maxcore 5000
|  5> %tddft
|  6>     Mode sTDDFT
|  7>     Ethresh 5.0
|  8>     maxcore 5000
|  9> end
| 10>
| 11> %pal
| 12>   nprocs 6
| 13>   end
| 14> * xyz 0 1
| 15>    C        6.86910        -1.72169        -1.84190
| 16>    O        7.57704        -2.38272        -1.11027
| 17>    C        7.06979        -1.37039        -3.23589
| 18>    C        6.19844        -0.35739        -3.63000
| 19>    C        6.38768         0.02686        -4.97077
| 20>    C        7.38585        -0.70083        -5.54928
| 21>    S        8.11896        -1.84920        -4.49377
| 22>    C        5.34689         0.00229        -2.51792
| 23>    C        4.44877         1.03290        -2.49545
| 24>    C        4.24833         1.86918        -3.61450
| 25>    N        4.07751         2.55663        -4.51652
| 26>    C        3.67783         1.39143        -1.37167
| 27>    N        3.04975         1.72466        -0.47031
| 28>    C        5.64722        -0.94651        -1.45205
| 29>    C        4.92187        -1.18593        -0.34053
| 30>    C        5.11103        -2.30394         0.54013
| 31>    C        5.34903        -3.64511         0.21829
| 32>    N        5.41813        -4.24375        -1.04500
| 33>    O        5.12382        -3.59263        -2.03958
| 34>    O        5.78197        -5.40873        -1.09257
| 35>    C        5.47689        -4.40724         1.42551
| 36>    C        5.41474        -3.55026         2.47519
| 37>    C        5.19242        -2.21158         1.96950
| 38>    C        5.20541        -1.05611         2.76163
| 39>    C        4.43424         0.11097         2.69242
| 40>    C        4.61477         0.83650         3.86283
| 41>    C        5.55828         0.18813         4.67910
| 42>    N        6.02098         0.68128         5.90531
| 43>    O        6.87937         0.04224         6.49954
| 44>    O        5.53354         1.71912         6.31884
| 45>    C        6.01819        -0.96615         3.99665
| 46>    C        7.12839        -1.74200         4.25802
| 47>    C        7.74557        -2.53803         3.28759
| 48>    C        8.63075        -3.56579         3.52526
| 49>    S        9.13047        -4.05487         5.12294
| 50>    C       10.03929        -5.40498         4.51879
| 51>    C        9.93618        -5.49678         3.10354
| 52>    C        9.15834        -4.45464         2.53825
| 53>    C        8.93618        -4.40763         1.16400
| 54>    C        9.46253        -5.39100         0.34468
| 55>    C        9.17102        -5.37352        -1.11533
| 56>    C       10.23818        -6.41588         0.91259
| 57>    C       10.48432        -6.47411         2.26265
| 58>    C       10.74127        -6.26552         5.36442
| 59>    C       10.83798        -6.10102         6.72433
| 60>    C       11.51656        -6.96283         7.59871
| 61>    C       11.64572        -6.77670         8.97189
| 62>    C       12.35995        -7.86176         9.52730
| 63>    C       12.68828        -8.75658         8.40027
| 64>    C       12.19054        -8.20852         7.26184
| 65>    C       13.42117        -9.94857         8.46130
| 66>    N       14.03308       -10.92058         8.47158
| 67>    C       12.68250        -8.07917        10.85449
| 68>    C       13.28336        -9.23428        11.40869
| 69>    C       13.39349        -9.08026        12.77943
| 70>    C       12.86516        -7.76503        13.11912
| 71>    C       12.43398        -7.15917        11.98314
| 72>    C       11.87929        -5.87729        11.90368
| 73>    N       11.43005        -4.82079        11.86228
| 74>    C       13.87007       -10.01540        13.72772
| 75>    C       14.33865       -11.25147        13.39753
| 76>    C       14.73174       -12.20856        14.35745
| 77>    C       14.98827       -13.52834        14.14280
| 78>    C       15.70621       -14.31345        15.20067
| 79>    O       15.91475       -13.96015        16.33761
| 80>    C       16.10971       -15.53133        14.51125
| 81>    C       15.61277       -15.56318        13.21156
| 82>    C       14.80058       -14.38122        12.98096
| 83>    C       13.90677       -14.25285        11.95084
| 84>    C       13.82244       -15.22273        10.92674
| 85>    N       13.74440       -15.99664        10.08375
| 86>    C       12.91467       -13.25898        11.82219
| 87>    N       12.05159       -12.51644        11.67581
| 88>    C       15.98574       -16.72994        12.51855
| 89>    C       16.75241       -17.53909        13.30521
| 90>    S       17.03099       -16.92004        14.88924
| 91>    H        5.82596         0.78653        -5.48212
| 92>    H        7.74129        -0.62454        -6.55847
| 93>    H        4.10690        -0.52277        -0.08705
| 94>    H        5.58685        -5.47379         1.44622
| 95>    H        5.41466        -3.80605         3.51691
| 96>    H        3.73178         0.36462         1.92216
| 97>    H        4.11965         1.75322         4.12499
| 98>    H        7.55754        -1.69206         5.25254
| 99>    H        7.54151        -2.32254         2.24828
|100>    H        8.35301        -3.61631         0.72182
|101>    H        8.24919        -5.92731        -1.30102
|102>    H        9.96901        -5.83760        -1.68874
|103>    H        9.01061        -4.35505        -1.45919
|104>    H       10.64720        -7.17738         0.26535
|105>    H       11.08408        -7.27233         2.67123
|106>    H       11.23749        -7.10375         4.89685
|107>    H       10.35882        -5.23992         7.17483
|108>    H       11.25252        -5.94686         9.52616
|109>    H       12.27507        -8.62760         6.27679
|110>    H       13.55361       -10.10313        10.84412
|111>    H       12.83127        -7.35822        14.11307
|112>    H       13.80368        -9.73809        14.77246
|113>    H       14.41847       -11.51660        12.35457
|114>    H       14.89308       -11.86622        15.37484
|115>    H       15.71759       -16.96261        11.50485
|116>    H       17.17523       -18.48800        13.03831
|117> *
|118>
|119>                          ****END OF INPUT****

CARTESIAN COORDINATES (ANGSTROEM)
---------------------------------
  C      6.869100   -1.721690   -1.841900
  O      7.577040   -2.382720   -1.110270
  C      7.069790   -1.370390   -3.235890
  C      6.198440   -0.357390   -3.630000
  C      6.387680    0.026860   -4.970770
  C      7.385850   -0.700830   -5.549280
  S      8.118960   -1.849200   -4.493770
  C      5.346890    0.002290   -2.517920
  C      4.448770    1.032900   -2.495450
  C      4.248330    1.869180   -3.614500
  N      4.077510    2.556630   -4.516520
  C      3.677830    1.391430   -1.371670
  N      3.049750    1.724660   -0.470310
  C      5.647220   -0.946510   -1.452050
  C      4.921870   -1.185930   -0.340530
  C      5.111030   -2.303940    0.540130
  C      5.349030   -3.645110    0.218290
  N      5.418130   -4.243750   -1.045000
  O      5.123820   -3.592630   -2.039580
  O      5.781970   -5.408730   -1.092570
  C      5.476890   -4.407240    1.425510
  C      5.414740   -3.550260    2.475190
  C      5.192420   -2.211580    1.969500
  C      5.205410   -1.056110    2.761630
  C      4.434240    0.110970    2.692420
  C      4.614770    0.836500    3.862830
  C      5.558280    0.188130    4.679100
  N      6.020980    0.681280    5.905310
  O      6.879370    0.042240    6.499540
  O      5.533540    1.719120    6.318840
  C      6.018190   -0.966150    3.996650
  C      7.128390   -1.742000    4.258020
  C      7.745570   -2.538030    3.287590
  C      8.630750   -3.565790    3.525260
  S      9.130470   -4.054870    5.122940
  C     10.039290   -5.404980    4.518790
  C      9.936180   -5.496780    3.103540
  C      9.158340   -4.454640    2.538250
  C      8.936180   -4.407630    1.164000
  C      9.462530   -5.391000    0.344680
  C      9.171020   -5.373520   -1.115330
  C     10.238180   -6.415880    0.912590
  C     10.484320   -6.474110    2.262650
  C     10.741270   -6.265520    5.364420
  C     10.837980   -6.101020    6.724330
  C     11.516560   -6.962830    7.598710
  C     11.645720   -6.776700    8.971890
  C     12.359950   -7.861760    9.527300
  C     12.688280   -8.756580    8.400270
  C     12.190540   -8.208520    7.261840
  C     13.421170   -9.948570    8.461300
  N     14.033080  -10.920580    8.471580
  C     12.682500   -8.079170   10.854490
  C     13.283360   -9.234280   11.408690
  C     13.393490   -9.080260   12.779430
  C     12.865160   -7.765030   13.119120
  C     12.433980   -7.159170   11.983140
  C     11.879290   -5.877290   11.903680
  N     11.430050   -4.820790   11.862280
  C     13.870070  -10.015400   13.727720
  C     14.338650  -11.251470   13.397530
  C     14.731740  -12.208560   14.357450
  C     14.988270  -13.528340   14.142800
  C     15.706210  -14.313450   15.200670
  O     15.914750  -13.960150   16.337610
  C     16.109710  -15.531330   14.511250
  C     15.612770  -15.563180   13.211560
  C     14.800580  -14.381220   12.980960
  C     13.906770  -14.252850   11.950840
  C     13.822440  -15.222730   10.926740
  N     13.744400  -15.996640   10.083750
  C     12.914670  -13.258980   11.822190
  N     12.051590  -12.516440   11.675810
  C     15.985740  -16.729940   12.518550
  C     16.752410  -17.539090   13.305210
  S     17.030990  -16.920040   14.889240
  H      5.825960    0.786530   -5.482120
  H      7.741290   -0.624540   -6.558470
  H      4.106900   -0.522770   -0.087050
  H      5.586850   -5.473790    1.446220
  H      5.414660   -3.806050    3.516910
  H      3.731780    0.364620    1.922160
  H      4.119650    1.753220    4.124990
  H      7.557540   -1.692060    5.252540
  H      7.541510   -2.322540    2.248280
  H      8.353010   -3.616310    0.721820
  H      8.249190   -5.927310   -1.301020
  H      9.969010   -5.837600   -1.688740
  H      9.010610   -4.355050   -1.459190
  H     10.647200   -7.177380    0.265350
  H     11.084080   -7.272330    2.671230
  H     11.237490   -7.103750    4.896850
  H     10.358820   -5.239920    7.174830
  H     11.252520   -5.946860    9.526160
  H     12.275070   -8.627600    6.276790
  H     13.553610  -10.103130   10.844120
  H     12.831270   -7.358220   14.113070
  H     13.803680   -9.738090   14.772460
  H     14.418470  -11.516600   12.354570
  H     14.893080  -11.866220   15.374840
  H     15.717590  -16.962610   11.504850
  H     17.175230  -18.488000   13.038310

 Total Charge           Charge          ....    0
 Multiplicity           Mult            ....    1
 Number of Electrons    NEL             ....  532
 Basis Dimension        Dim             .... 1206

ORBITAL ENERGIES
----------------

  NO   OCC          E(Eh)            E(eV)
   0   2.0000     -88.998472     -2421.7715
   1   2.0000     -88.996513     -2421.7182
   2   2.0000     -88.990912     -2421.5658
   3   2.0000     -19.233999      -523.3837
   4   2.0000     -19.231077      -523.3042
   5   2.0000     -19.227555      -523.2084
   6   2.0000     -19.225919      -523.1639
   7   2.0000     -19.214951      -522.8654
   8   2.0000     -19.214104      -522.8423
   9   2.0000     -14.639295      -398.3555
  10   2.0000     -14.625532      -397.9809
  11   2.0000     -14.427678      -392.5971
  12   2.0000     -14.425042      -392.5254
  13   2.0000     -14.423578      -392.4855
  14   2.0000     -14.421630      -392.4325
  15   2.0000     -14.419279      -392.3685
  16   2.0000     -14.416566      -392.2947
  17   2.0000     -10.385280      -282.5978
  18   2.0000     -10.384273      -282.5704
  19   2.0000     -10.359338      -281.8919
  20   2.0000     -10.359206      -281.8883
  21   2.0000     -10.357744      -281.8485
  22   2.0000     -10.347200      -281.5616
  23   2.0000     -10.346400      -281.5399
  24   2.0000     -10.339279      -281.3461
  25   2.0000     -10.338678      -281.3297
  26   2.0000     -10.335737      -281.2497
  27   2.0000     -10.334294      -281.2104
  28   2.0000     -10.330572      -281.1092
  29   2.0000     -10.330147      -281.0976
  30   2.0000     -10.329305      -281.0747
  31   2.0000     -10.328380      -281.0495
  32   2.0000     -10.328209      -281.0448
  33   2.0000     -10.327175      -281.0167
  34   2.0000     -10.326777      -281.0059
  35   2.0000     -10.326478      -280.9978
  36   2.0000     -10.325351      -280.9671
  37   2.0000     -10.325206      -280.9632
  38   2.0000     -10.324971      -280.9567
  39   2.0000     -10.324646      -280.9479
  40   2.0000     -10.324098      -280.9330
  41   2.0000     -10.323114      -280.9062
  42   2.0000     -10.321993      -280.8757
  43   2.0000     -10.321788      -280.8701
  44   2.0000     -10.320966      -280.8478
  45   2.0000     -10.319124      -280.7976
  46   2.0000     -10.319016      -280.7947
  47   2.0000     -10.318354      -280.7767
  48   2.0000     -10.316546      -280.7275
  49   2.0000     -10.316039      -280.7137
  50   2.0000     -10.315856      -280.7087
  51   2.0000     -10.315090      -280.6879
  52   2.0000     -10.314988      -280.6851
  53   2.0000     -10.314619      -280.6751
  54   2.0000     -10.314459      -280.6707
  55   2.0000     -10.313332      -280.6400
  56   2.0000     -10.311802      -280.5984
  57   2.0000     -10.310928      -280.5746
  58   2.0000     -10.309932      -280.5475
  59   2.0000     -10.306946      -280.4663
  60   2.0000     -10.306250      -280.4473
  61   2.0000     -10.304988      -280.4130
  62   2.0000     -10.301840      -280.3273
  63   2.0000     -10.301489      -280.3178
  64   2.0000     -10.301206      -280.3101
  65   2.0000     -10.301142      -280.3083
  66   2.0000     -10.299778      -280.2712
  67   2.0000     -10.299518      -280.2641
  68   2.0000     -10.298543      -280.2376
  69   2.0000     -10.294556      -280.1291
  70   2.0000     -10.294327      -280.1229
  71   2.0000     -10.285886      -279.8932
  72   2.0000     -10.275669      -279.6152
  73   2.0000     -10.270133      -279.4645
  74   2.0000     -10.269209      -279.4394
  75   2.0000     -10.261586      -279.2320
  76   2.0000      -8.093452      -220.2340
  77   2.0000      -8.091645      -220.1849
  78   2.0000      -8.086089      -220.0337
  79   2.0000      -6.062459      -164.9679
  80   2.0000      -6.060794      -164.9226
  81   2.0000      -6.058470      -164.8593
  82   2.0000      -6.056353      -164.8017
  83   2.0000      -6.056004      -164.7923
  84   2.0000      -6.055226      -164.7711
  85   2.0000      -6.054368      -164.7477
  86   2.0000      -6.050802      -164.6507
  87   2.0000      -6.048812      -164.5965
  88   2.0000      -1.309204       -35.6253
  89   2.0000      -1.293681       -35.2028
  90   2.0000      -1.144163       -31.1343
  91   2.0000      -1.142742       -31.0956
  92   2.0000      -1.124846       -30.6086
  93   2.0000      -1.111168       -30.2364
  94   2.0000      -1.037333       -28.2273
  95   2.0000      -1.032592       -28.0983
  96   2.0000      -1.030090       -28.0302
  97   2.0000      -1.029900       -28.0250
  98   2.0000      -1.018949       -27.7270
  99   2.0000      -1.014307       -27.6007
 100   2.0000      -1.011985       -27.5375
 101   2.0000      -1.004794       -27.3418
 102   2.0000      -1.004410       -27.3314
 103   2.0000      -1.000089       -27.2138
 104   2.0000      -0.997328       -27.1387
 105   2.0000      -0.995443       -27.0874
 106   2.0000      -0.983211       -26.7545
 107   2.0000      -0.975646       -26.5487
 108   2.0000      -0.965158       -26.2633
 109   2.0000      -0.962977       -26.2039
 110   2.0000      -0.949689       -25.8424
 111   2.0000      -0.937925       -25.5222
 112   2.0000      -0.919182       -25.0122
 113   2.0000      -0.911981       -24.8163
 114   2.0000      -0.906740       -24.6737
 115   2.0000      -0.896527       -24.3957
 116   2.0000      -0.890160       -24.2225
 117   2.0000      -0.885214       -24.0879
 118   2.0000      -0.881828       -23.9958
 119   2.0000      -0.876828       -23.8597
 120   2.0000      -0.868936       -23.6450
 121   2.0000      -0.866545       -23.5799
 122   2.0000      -0.863582       -23.4993
 123   2.0000      -0.858996       -23.3745
 124   2.0000      -0.858058       -23.3489
 125   2.0000      -0.843314       -22.9477
 126   2.0000      -0.835844       -22.7445
 127   2.0000      -0.816969       -22.2309
 128   2.0000      -0.810111       -22.0442
 129   2.0000      -0.797339       -21.6967
 130   2.0000      -0.787938       -21.4409
 131   2.0000      -0.782585       -21.2952
 132   2.0000      -0.775049       -21.0901
 133   2.0000      -0.768564       -20.9137
 134   2.0000      -0.766512       -20.8578
 135   2.0000      -0.751951       -20.4616
 136   2.0000      -0.745628       -20.2896
 137   2.0000      -0.733650       -19.9636
 138   2.0000      -0.723965       -19.7001
 139   2.0000      -0.723279       -19.6814
 140   2.0000      -0.717963       -19.5368
 141   2.0000      -0.707329       -19.2474
 142   2.0000      -0.700782       -19.0693
 143   2.0000      -0.691870       -18.8267
 144   2.0000      -0.690059       -18.7775
 145   2.0000      -0.680335       -18.5129
 146   2.0000      -0.677220       -18.4281
 147   2.0000      -0.676315       -18.4035
 148   2.0000      -0.673958       -18.3393
 149   2.0000      -0.669647       -18.2220
 150   2.0000      -0.663036       -18.0421
 151   2.0000      -0.659424       -17.9438
 152   2.0000      -0.654478       -17.8092
 153   2.0000      -0.649872       -17.6839
 154   2.0000      -0.643209       -17.5026
 155   2.0000      -0.635294       -17.2872
 156   2.0000      -0.632161       -17.2020
 157   2.0000      -0.626320       -17.0430
 158   2.0000      -0.624389       -16.9905
 159   2.0000      -0.622570       -16.9410
 160   2.0000      -0.618159       -16.8210
 161   2.0000      -0.614743       -16.7280
 162   2.0000      -0.611283       -16.6339
 163   2.0000      -0.610286       -16.6067
 164   2.0000      -0.606845       -16.5131
 165   2.0000      -0.601540       -16.3687
 166   2.0000      -0.590919       -16.0797
 167   2.0000      -0.589440       -16.0395
 168   2.0000      -0.583565       -15.8796
 169   2.0000      -0.579301       -15.7636
 170   2.0000      -0.576722       -15.6934
 171   2.0000      -0.571423       -15.5492
 172   2.0000      -0.569284       -15.4910
 173   2.0000      -0.562991       -15.3198
 174   2.0000      -0.559979       -15.2378
 175   2.0000      -0.559389       -15.2217
 176   2.0000      -0.551595       -15.0097
 177   2.0000      -0.548114       -14.9149
 178   2.0000      -0.544490       -14.8163
 179   2.0000      -0.542363       -14.7585
 180   2.0000      -0.539064       -14.6687
 181   2.0000      -0.538115       -14.6429
 182   2.0000      -0.536458       -14.5978
 183   2.0000      -0.535156       -14.5623
 184   2.0000      -0.533447       -14.5158
 185   2.0000      -0.531904       -14.4738
 186   2.0000      -0.529621       -14.4117
 187   2.0000      -0.529200       -14.4003
 188   2.0000      -0.525509       -14.2998
 189   2.0000      -0.523753       -14.2520
 190   2.0000      -0.522318       -14.2130
 191   2.0000      -0.519137       -14.1264
 192   2.0000      -0.514115       -13.9898
 193   2.0000      -0.511440       -13.9170
 194   2.0000      -0.508510       -13.8373
 195   2.0000      -0.506311       -13.7774
 196   2.0000      -0.505401       -13.7527
 197   2.0000      -0.500822       -13.6281
 198   2.0000      -0.499580       -13.5943
 199   2.0000      -0.498974       -13.5778
 200   2.0000      -0.495866       -13.4932
 201   2.0000      -0.493288       -13.4230
 202   2.0000      -0.488404       -13.2902
 203   2.0000      -0.486065       -13.2265
 204   2.0000      -0.484629       -13.1874
 205   2.0000      -0.483119       -13.1463
 206   2.0000      -0.481129       -13.0922
 207   2.0000      -0.480346       -13.0709
 208   2.0000      -0.478618       -13.0239
 209   2.0000      -0.476083       -12.9549
 210   2.0000      -0.470335       -12.7985
 211   2.0000      -0.469645       -12.7797
 212   2.0000      -0.468417       -12.7463
 213   2.0000      -0.467596       -12.7239
 214   2.0000      -0.463750       -12.6193
 215   2.0000      -0.463397       -12.6097
 216   2.0000      -0.460378       -12.5275
 217   2.0000      -0.458302       -12.4710
 218   2.0000      -0.456046       -12.4097
 219   2.0000      -0.454530       -12.3684
 220   2.0000      -0.453225       -12.3329
 221   2.0000      -0.451152       -12.2765
 222   2.0000      -0.450129       -12.2486
 223   2.0000      -0.450115       -12.2482
 224   2.0000      -0.448254       -12.1976
 225   2.0000      -0.444801       -12.1037
 226   2.0000      -0.443580       -12.0704
 227   2.0000      -0.441342       -12.0095
 228   2.0000      -0.438674       -11.9369
 229   2.0000      -0.437130       -11.8949
 230   2.0000      -0.434842       -11.8326
 231   2.0000      -0.433459       -11.7950
 232   2.0000      -0.432055       -11.7568
 233   2.0000      -0.431138       -11.7319
 234   2.0000      -0.429949       -11.6995
 235   2.0000      -0.428864       -11.6700
 236   2.0000      -0.425447       -11.5770
 237   2.0000      -0.420928       -11.4540
 238   2.0000      -0.417432       -11.3589
 239   2.0000      -0.415698       -11.3117
 240   2.0000      -0.410468       -11.1694
 241   2.0000      -0.406355       -11.0575
 242   2.0000      -0.387914       -10.5557
 243   2.0000      -0.383539       -10.4366
 244   2.0000      -0.371901       -10.1199
 245   2.0000      -0.370319       -10.0769
 246   2.0000      -0.364324        -9.9137
 247   2.0000      -0.361912        -9.8481
 248   2.0000      -0.358006        -9.7418
 249   2.0000      -0.355428        -9.6717
 250   2.0000      -0.354234        -9.6392
 251   2.0000      -0.352211        -9.5841
 252   2.0000      -0.351037        -9.5522
 253   2.0000      -0.347190        -9.4475
 254   2.0000      -0.344467        -9.3734
 255   2.0000      -0.338714        -9.2169
 256   2.0000      -0.337451        -9.1825
 257   2.0000      -0.336872        -9.1668
 258   2.0000      -0.322645        -8.7796
 259   2.0000      -0.322242        -8.7686
 260   2.0000      -0.320877        -8.7315
 261   2.0000      -0.314997        -8.5715
 262   2.0000      -0.302090        -8.2203
 263   2.0000      -0.288105        -7.8397
 264   2.0000      -0.278005        -7.5649
 265   2.0000      -0.242881        -6.6091
 266   0.0000      -0.158429        -4.3111
 267   0.0000      -0.124226        -3.3804
 268   0.0000      -0.092032        -2.5043
 269   0.0000      -0.086969        -2.3666
 270   0.0000      -0.079021        -2.1503

MULLIKEN ATOMIC CHARGES
-----------------------
   0 C :    0.129478
   1 O :   -0.158797
   2 C :   -0.151418
   3 C :    0.010124
   4 C :    0.026261
   5 C :   -0.055727
   6 S :    0.212881
   7 C :    0.291758
   8 C :   -0.328114
   9 C :   -0.191743
  10 N :    0.154970
  11 C :   -0.168496
  12 N :    0.151433
  13 C :   -0.037515
  14 C :   -0.062244
  15 C :    0.055038
  16 C :    0.053031
  17 N :    0.282119
  18 O :   -0.269157
  19 O :   -0.251603
  20 C :   -0.016614
  21 C :    0.017223
  22 C :   -0.058179
  23 C :    0.070793
  24 C :   -0.039520
  25 C :    0.028929
  26 C :    0.079062
  27 N :    0.279774
  28 O :   -0.284197
  29 O :   -0.266280
  30 C :    0.026330
  31 C :   -0.058095
  32 C :    0.053108
  33 C :   -0.106454
  34 S :    0.174374
  35 C :   -0.036702
  36 C :    0.098315
  37 C :    0.166739
  38 C :   -0.065012
  39 C :   -0.041074
  40 C :    0.082584
  41 C :    0.005881
  42 C :   -0.029269
  43 C :   -0.023054
  44 C :    0.015722
  45 C :    0.112853
  46 C :   -0.099917
  47 C :    0.123734
  48 C :   -0.090951
  49 C :   -0.009110
  50 C :   -0.164879
  51 N :    0.137208
  52 C :    0.117716
  53 C :   -0.085460
  54 C :    0.109820
  55 C :    0.001213
  56 C :   -0.087553
  57 C :   -0.180896
  58 N :    0.140029
  59 C :    0.002606
  60 C :    0.033991
  61 C :    0.024392
  62 C :   -0.118084
  63 C :    0.123067
  64 O :   -0.134506
  65 C :   -0.161000
  66 C :   -0.012513
  67 C :    0.287951
  68 C :   -0.316258
  69 C :   -0.183524
  70 N :    0.159599
  71 C :   -0.202069
  72 N :    0.171722
  73 C :    0.033826
  74 C :   -0.058532
  75 S :    0.216244
  76 H :    0.020189
  77 H :    0.044967
  78 H :    0.025874
  79 H :   -0.017573
  80 H :   -0.010395
  81 H :   -0.009808
  82 H :    0.010774
  83 H :    0.032531
  84 H :    0.054264
  85 H :   -0.018308
  86 H :    0.060010
  87 H :    0.008443
  88 H :    0.026946
  89 H :   -0.015249
  90 H :   -0.022711
  91 H :   -0.002429
  92 H :    0.016658
  93 H :    0.011421
  94 H :    0.000658
  95 H :    0.006683
  96 H :    0.002548
  97 H :   -0.001226
  98 H :    0.031880
  99 H :    0.019832
 100 H :    0.020539
 101 H :    0.046101
Sum of atomic charges:   -0.0000000

LOEWDIN ATOMIC CHARGES
----------------------
   0 C :    0.076828
   1 O :   -0.157348
   2 C :   -0.200288
   3 C :   -0.030530
   4 C :   -0.042499
   5 C :   -0.144769
   6 S :    0.506007
   7 C :    0.081344
   8 C :   -0.135366
   9 C :   -0.018397
  10 N :   -0.049798
  11 C :   -0.012681
  12 N :   -0.050747
  13 C :   -0.065701
  14 C :    0.062672
  15 C :   -0.047307
  16 C :   -0.037722
  17 N :    0.293809
  18 O :   -0.223245
  19 O :   -0.213075
  20 C :   -0.045491
  21 C :   -0.027262
  22 C :   -0.014325
  23 C :    0.042155
  24 C :   -0.071229
  25 C :    0.070163
  26 C :   -0.104724
  27 N :    0.286979
  28 O :   -0.246524
  29 O :   -0.230266
  30 C :    0.025989
  31 C :    0.000484
  32 C :    0.039403
  33 C :   -0.172085
  34 S :    0.488948
  35 C :   -0.111694
  36 C :   -0.049599
  37 C :   -0.004998
  38 C :   -0.009042
  39 C :    0.016054
  40 C :   -0.049701
  41 C :   -0.010593
  42 C :   -0.006415
  43 C :   -0.037406
  44 C :    0.021817
  45 C :   -0.020632
  46 C :   -0.005028
  47 C :    0.034756
  48 C :   -0.068663
  49 C :    0.048523
  50 C :   -0.028327
  51 N :   -0.054643
  52 C :    0.045778
  53 C :   -0.003242
  54 C :   -0.015304
  55 C :    0.057538
  56 C :   -0.081121
  57 C :   -0.032479
  58 N :   -0.057187
  59 C :    0.018192
  60 C :    0.002239
  61 C :    0.054276
  62 C :   -0.072954
  63 C :    0.064946
  64 O :   -0.137070
  65 C :   -0.211155
  66 C :   -0.034902
  67 C :    0.068597
  68 C :   -0.127411
  69 C :   -0.015642
  70 N :   -0.042447
  71 C :   -0.021731
  72 N :   -0.042518
  73 C :   -0.044659
  74 C :   -0.145530
  75 S :    0.507530
  76 H :    0.044771
  77 H :    0.032194
  78 H :    0.043283
  79 H :    0.029323
  80 H :    0.026754
  81 H :    0.028816
  82 H :    0.042549
  83 H :    0.038988
  84 H :    0.054355
  85 H :    0.033852
  86 H :    0.048275
  87 H :    0.028119
  88 H :    0.033081
  89 H :    0.033149
  90 H :    0.029584
  91 H :    0.036676
  92 H :    0.036693
  93 H :    0.038826
  94 H :    0.036042
  95 H :    0.034140
  96 H :    0.039240
  97 H :    0.037330
  98 H :    0.038151
  99 H :    0.047137
 100 H :    0.044520
 101 H :    0.032598

  Mayer bond orders larger than 0.100000
B(  0-C ,  1-O ) :   2.0979 B(  0-C ,  2-C ) :   1.0673 B(  0-C , 13-C ) :   0.9227
B(  2-C ,  3-C ) :   1.4450 B(  2-C ,  6-S ) :   1.1315 B(  3-C ,  4-C ) :   1.2706
B(  3-C ,  7-C ) :   1.0160 B(  4-C ,  5-C ) :   1.5427 B(  4-C , 76-H ) :   0.9955
B(  5-C ,  6-S ) :   1.1889 B(  5-C , 77-H ) :   0.9622 B(  7-C ,  8-C ) :   1.6685
B(  7-C , 13-C ) :   1.0527 B(  8-C ,  9-C ) :   1.1343 B(  8-C , 11-C ) :   1.1420
B(  9-C , 10-N ) :   2.9938 B( 11-C , 12-N ) :   2.9741 B( 13-C , 14-C ) :   1.7436
B( 14-C , 15-C ) :   1.0443 B( 14-C , 78-H ) :   0.9317 B( 15-C , 16-C ) :   1.4056
B( 15-C , 22-C ) :   1.2341 B( 16-C , 17-N ) :   0.9558 B( 16-C , 20-C ) :   1.2178
B( 17-N , 18-O ) :   1.4782 B( 17-N , 19-O ) :   1.5134 B( 18-O , 19-O ) :   0.2387
B( 20-C , 21-C ) :   1.5044 B( 20-C , 79-H ) :   1.0193 B( 21-C , 22-C ) :   1.1371
B( 21-C , 32-C ) :   0.1039 B( 21-C , 80-H ) :   0.9874 B( 22-C , 23-C ) :   1.2333
B( 23-C , 24-C ) :   1.3490 B( 23-C , 30-C ) :   1.0025 B( 24-C , 25-C ) :   1.3146
B( 24-C , 81-H ) :   1.0135 B( 25-C , 26-C ) :   1.3060 B( 25-C , 82-H ) :   1.0098
B( 26-C , 27-N ) :   0.9796 B( 26-C , 30-C ) :   1.2391 B( 27-N , 28-O ) :   1.4751
B( 27-N , 29-O ) :   1.5253 B( 28-O , 29-O ) :   0.2393 B( 30-C , 31-C ) :   1.4823
B( 31-C , 32-C ) :   1.2297 B( 31-C , 83-H ) :   0.9530 B( 32-C , 33-C ) :   1.4605
B( 32-C , 84-H ) :   0.9245 B( 33-C , 34-S ) :   1.0677 B( 33-C , 37-C ) :   1.1627
B( 34-S , 35-C ) :   1.1723 B( 35-C , 36-C ) :   1.2233 B( 35-C , 43-C ) :   1.2518
B( 36-C , 37-C ) :   1.2425 B( 36-C , 42-C ) :   1.2398 B( 37-C , 38-C ) :   1.2779
B( 38-C , 39-C ) :   1.4713 B( 38-C , 85-H ) :   0.9842 B( 39-C , 40-C ) :   1.0584
B( 39-C , 41-C ) :   1.2625 B( 40-C , 86-H ) :   0.9368 B( 40-C , 87-H ) :   0.9503
B( 40-C , 88-H ) :   0.9458 B( 41-C , 42-C ) :   1.4988 B( 41-C , 89-H ) :   0.9891
B( 42-C , 90-H ) :   0.9920 B( 43-C , 44-C ) :   1.5202 B( 43-C , 91-H ) :   0.9723
B( 44-C , 45-C ) :   1.1798 B( 44-C , 92-H ) :   0.9737 B( 45-C , 46-C ) :   1.4537
B( 45-C , 49-C ) :   1.0406 B( 46-C , 47-C ) :   1.1495 B( 46-C , 93-H ) :   1.0088
B( 47-C , 48-C ) :   1.1037 B( 47-C , 52-C ) :   1.3709 B( 48-C , 49-C ) :   1.6913
B( 48-C , 50-C ) :   1.0885 B( 49-C , 94-H ) :   1.0147 B( 50-C , 51-N ) :   2.9689
B( 52-C , 53-C ) :   1.1584 B( 52-C , 56-C ) :   1.1039 B( 53-C , 54-C ) :   1.5268
B( 53-C , 95-H ) :   0.9878 B( 54-C , 55-C ) :   1.0287 B( 54-C , 59-C ) :   1.1002
B( 55-C , 56-C ) :   1.6685 B( 55-C , 96-H ) :   1.0247 B( 56-C , 57-C ) :   1.0878
B( 57-C , 58-N ) :   2.9699 B( 59-C , 60-C ) :   1.6376 B( 59-C , 97-H ) :   0.9877
B( 60-C , 61-C ) :   1.1200 B( 60-C , 98-H ) :   0.9579 B( 61-C , 62-C ) :   1.6559
B( 61-C , 99-H ) :   0.9555 B( 62-C , 63-C ) :   0.9356 B( 62-C , 67-C ) :   1.0181
B( 63-C , 64-O ) :   2.2451 B( 63-C , 65-C ) :   1.0340 B( 65-C , 66-C ) :   1.4486
B( 65-C , 75-S ) :   1.1310 B( 66-C , 67-C ) :   1.0207 B( 66-C , 73-C ) :   1.2757
B( 67-C , 68-C ) :   1.6614 B( 68-C , 69-C ) :   1.1342 B( 68-C , 71-C ) :   1.1518
B( 69-C , 70-N ) :   2.9954 B( 71-C , 72-N ) :   2.9954 B( 73-C , 74-C ) :   1.5384
B( 73-C ,100-H ) :   0.9938 B( 74-C , 75-S ) :   1.1914 B( 74-C ,101-H ) :   0.9622

-----------------------------------------------------------------------------
         ABSORPTION SPECTRUM VIA TRANSITION ELECTRIC DIPOLE MOMENTS
-----------------------------------------------------------------------------
State   Energy  Wavelength   fosc         T2         TX        TY        TZ
        (cm-1)    (nm)                  (au**2)     (au)      (au)      (au)
-----------------------------------------------------------------------------
   0    4985.3   2005.9   0.356574398  23.54706  -2.74302   2.47408  -3.14671
   1   10320.9    968.9   0.340710417  10.86781  -1.41983   1.96308  -2.23567
   2   12094.5    826.8   0.042769900   1.16420  -0.86474   0.04074  -0.64403
   3   13187.0    758.3   0.124439961   3.10664   0.12912  -1.15528   1.32487
   4   16258.1    615.1   0.080824479   1.63663   0.15687  -0.38194   1.21084
   5   17987.8    555.9   0.227026393   4.15503   1.18526  -1.62185  -0.34610
   6   18947.2    527.8   0.017650816   0.30669   0.33290  -0.39108   0.20718
   7   19563.9    511.1   0.036482031   0.61390   0.10363  -0.69201   0.35254
   8   20571.1    486.1   0.056410589   0.90277   0.26826  -0.35531   0.83938
   9   21440.0    466.4   0.121742050   1.86935   0.23552  -1.01933  -0.88025
  10   21598.6    463.0   0.423238434   6.45112   0.60857  -1.39399   2.03410
  11   22439.9    445.6   0.337137641   4.94609  -1.00625   1.37046  -1.43367
  12   22682.4    440.9   0.048933816   0.71022   0.26859  -0.50212   0.62126
  13   23139.0    432.2   0.032510441   0.46255  -0.03780   0.67382  -0.08418
  14   23508.7    425.4   0.045916418   0.64301  -0.17612  -0.78219  -0.01258
  15   23980.1    417.0   0.207104722   2.84325  -0.13909  -0.78241  -1.48719
  16   24555.3    407.2   0.094375339   1.26529  -0.16173   0.14365   1.10385
  17   24659.1    405.5   0.025362370   0.33860   0.20170  -0.47065  -0.27641
  18   24826.6    402.8   0.124411111   1.64975  -0.14225   0.93387  -0.87029
  19   25510.9    392.0   0.004139940   0.05342  -0.00458   0.04529  -0.22661
  20   25588.6    390.8   0.000236114   0.00304   0.00842   0.02615   0.04778
  21   25918.6    385.8   0.107111001   1.36050  -0.40290   0.93067   0.57622
  22   26525.7    377.0   0.023981969   0.29764   0.05853   0.12136  -0.52867
  23   26954.0    371.0   0.170778094   2.08586  -0.62522   0.53357  -1.18755
  24   27031.2    369.9   0.031119793   0.37901   0.03047  -0.23793   0.56698
  25   27547.7    363.0   0.041404584   0.49481   0.04684   0.69975  -0.05448
  26   27764.0    360.2   0.001391044   0.01649   0.10237   0.06950  -0.03440
  27   28037.9    356.7   0.020965038   0.24616  -0.12278   0.45607  -0.15196
  28   28188.4    354.8   0.071489049   0.83492  -0.22832   0.72468   0.50757
  29   28503.6    350.8   0.158058735   1.82555  -0.09299   1.34146  -0.13191
  30   28668.5    348.8   0.008294609   0.09525   0.22284  -0.01998   0.21259
  31   29233.8    342.1   0.009005371   0.10141  -0.09086   0.30048  -0.05357
  32   29695.0    336.8   0.053064384   0.58830  -0.04223  -0.16756  -0.74729
  33   29788.4    335.7   0.016156836   0.17856  -0.02815  -0.28125  -0.31411
  34   29890.3    334.6   0.040513366   0.44621  -0.18040  -0.32521  -0.55489
  35   30195.5    331.2   0.486795129   5.30737  -0.03725   1.23525   1.94426
  36   30343.9    329.6   0.094186485   1.02186  -0.11817  -0.57161  -0.82533
  37   30686.2    325.9   0.040033868   0.42950  -0.05781   0.38977   0.52367
  38   31051.2    322.0   0.006725666   0.07131  -0.23720  -0.03623  -0.11718
  39   31162.1    320.9   0.047718600   0.50412   0.12337   0.15613  -0.68156
  40   31400.5    318.5   0.007580348   0.07947   0.25944   0.09765  -0.05128
  41   31773.3    314.7   0.186217142   1.92945   0.22852  -1.05641  -0.87249
  42   31849.3    314.0   0.085435403   0.88311  -0.44620   0.69171   0.45337
  43   31975.3    312.7   0.007957536   0.08193  -0.00516   0.10817   0.26496
  44   32270.0    309.9   0.002697770   0.02752   0.10773  -0.11675  -0.04783
  45   32560.2    307.1   0.025259466   0.25540   0.10078  -0.46214  -0.17795
  46   33210.3    301.1   0.039273880   0.38932  -0.34694   0.50723   0.10800
  47   33343.0    299.9   0.240342485   2.37302   0.85609  -0.84637   0.96114
  48   33541.5    298.1   0.049321039   0.48409   0.34876  -0.56062   0.21945
  49   33582.2    297.8   0.010619632   0.10411   0.17503  -0.27103   0.00329
  50   33900.7    295.0   0.036451657   0.35398   0.27278  -0.47340   0.23552
  51   34074.1    293.5   0.010881235   0.10513  -0.12844   0.16613  -0.24705
  52   34133.7    293.0   0.066928961   0.64551  -0.02217   0.79287   0.12796
  53   34293.7    291.6   0.046254499   0.44403   0.31236  -0.33295  -0.48540
  54   34364.9    291.0   0.304677705   2.91878   1.08036  -1.32180   0.06671
  55   34647.5    288.6   0.027397227   0.26032   0.14075  -0.24439  -0.42519
  56   34832.9    287.1   0.127889203   1.20870   0.09966  -0.41890  -1.01158
  57   34922.2    286.4   0.002715626   0.02560  -0.05693   0.02128  -0.14801
  58   35235.2    283.8   0.476483132   4.45191   1.39398  -1.58347   0.03643
  59   35419.6    282.3   0.029378044   0.27306  -0.11563   0.28075   0.42529
  60   35484.3    281.8   0.041972325   0.38941  -0.34265   0.50785  -0.11865
  61   35679.3    280.3   0.157330166   1.45168  -0.22108  -0.06632  -1.18254
  62   35705.7    280.1   0.100947553   0.93075  -0.73912   0.57685  -0.22735
  63   35810.8    279.2   0.031964177   0.29385  -0.37837   0.08298  -0.37921
  64   35905.3    278.5   0.060680088   0.55637   0.10649  -0.04293   0.73701
  65   36136.1    276.7   0.113025480   1.02970   0.84965  -0.54474   0.10515
  66   36285.8    275.6   0.256599805   2.32806   0.48785   0.12039   1.44069
  67   36554.3    273.6   0.028321887   0.25507   0.34109  -0.33081   0.17115
  68   36641.4    272.9   0.004060601   0.03648   0.00836   0.02327  -0.18940
  69   36738.8    272.2   0.003478267   0.03117   0.17290   0.03051  -0.01848
  70   37088.1    269.6   0.048663814   0.43196   0.57771  -0.29903   0.09378
  71   37121.5    269.4   0.072024125   0.63875   0.55920  -0.22217   0.52601
  72   37318.9    268.0   0.114656651   1.01146  -0.13927   0.15189   0.98437
  73   37478.8    266.8   0.105930508   0.93049  -0.38641  -0.42293  -0.77609
  74   37655.1    265.6   0.007060457   0.06173   0.19589  -0.14033   0.06050
  75   37980.3    263.3   0.045857256   0.39749   0.43373  -0.45053   0.07993
  76   38064.1    262.7   0.034878237   0.30166   0.37860  -0.34426   0.19950
  77   38251.4    261.4   0.005865667   0.05048  -0.11203  -0.19342  -0.02284
  78   38315.3    261.0   0.011600517   0.09967  -0.19354   0.20781   0.13796
  79   38499.1    259.7   0.035646935   0.30482   0.17057  -0.16923  -0.49708
  80   38537.5    259.5   0.007469375   0.06381   0.11245   0.13753   0.17958
  81   38654.2    258.7   0.018844447   0.16050   0.18315  -0.00735  -0.35623
  82   38982.4    256.5   0.021748097   0.18367  -0.05177   0.08218   0.41741
  83   39186.9    255.2   0.094966574   0.79782   0.23356  -0.51431  -0.69192
  84   39263.1    254.7   0.016397151   0.13749  -0.15962   0.09219   0.32173
  85   39323.1    254.3   0.088444398   0.74045   0.47552   0.33243  -0.63547
  86   39549.3    252.8   0.034113393   0.28396   0.07805   0.52509   0.04644
  87   39673.1    252.1   0.096154337   0.79790  -0.27904   0.80799   0.25920
  88   39804.8    251.2   0.210017980   1.73699   0.48225  -0.51655  -1.11248
  89   40011.9    249.9   0.087444380   0.71948   0.35048  -0.76309  -0.11973

FINAL SINGLE POINT ENERGY     -4343.016415786735

DIPOLE MOMENT
-------------
                                X             Y             Z
Electronic contribution:      0.34613      -1.59783      12.16342
Nuclear contribution   :      4.01760      -2.31446     -11.76906
                        -----------------------------------------
Total Dipole Moment    :      4.36373      -3.91228       0.39437
                        -----------------------------------------
Magnitude (a.u.)       :      5.87398
Magnitude (Debye)      :     14.93046

Rotational constants in cm-1:     0.002003     0.000204     0.000190
Rotational constants in MHz :    60.053526     6.108071     5.696397

                             ****ORCA TERMINATED NORMALLY****
TOTAL RUN TIME: 0 days 0 hours 11 minutes 53 seconds 652 msec
