                         Program Version 4.2.0 -  RELEASE  -
|  1> # ORCA input file
|  2> # SCF done       -140.984984907798          0.000980519061
|  3> ! CAM-B3LYP def2-SVP def2/J RIJCOSX Grid4 TightSCF
|  4> %maxcore 5000
|  5> %tddft
|  6>     Mode sTDDFT
|  7>     Ethresh 5.0
|  8>     maxcore 5000
|  9> end
| 10>
| 11> %pal
| 12>   nprocs 6
| 13>   end
| 14> * xyz 0 1
| 15>    C        1.18755         1.69558        -3.13941
| 16>    C       -0.11034         1.98523        -3.32698
| 17>    C       -0.92895         1.91782        -2.14754
| 18>    S        0.04533         1.45576        -0.76655
| 19>    C        1.55137         1.35966        -1.77444
| 20>    O        2.61423         1.06397        -1.31138
| 21>    C       -2.26248         2.19101        -2.15068
| 22>    C       -3.16882         2.16975        -1.06489
| 23>    S       -4.83240         2.61338        -1.35340
| 24>    C       -5.26020         2.37433         0.30975
| 25>    C       -4.13440         1.96054         1.04099
| 26>    C       -2.97385         1.85015         0.26709
| 27>    C       -4.12580         1.68649         2.41963
| 28>    N       -4.08079         1.45949         3.54409
| 29>    C       -6.58836         2.62250         0.71798
| 30>    C       -7.06325         2.46134         1.98605
| 31>    C       -8.39416         2.76562         2.34228
| 32>    N       -8.88785         2.63569         3.61670
| 33>    C       -8.15782         2.20801         4.78751
| 34>    C       -7.27923         3.32130         5.35107
| 35>    C      -10.23334         3.03290         3.70461
| 36>    O      -10.87705         3.00285         4.73249
| 37>    C      -10.58009         3.42611         2.35335
| 38>    C       -9.44029         3.24623         1.54318
| 39>    C       -9.78483         3.63578         0.19213
| 40>    O       -9.13864         3.65660        -0.83785
| 41>    N      -11.12429         4.03834         0.27779
| 42>    C      -11.85286         4.45849        -0.89499
| 43>    C      -12.76355         3.35328        -1.42409
| 44>    C      -11.62150         3.92531         1.55882
| 45>    C      -12.92467         4.30362         1.92981
| 46>    C      -13.39260         4.20295         3.21145
| 47>    C      -14.67170         4.62105         3.62967
| 48>    C      -15.15138         4.56400         4.93064
| 49>    C      -16.45796         5.10423         4.97595
| 50>    C      -16.78123         5.50764         3.59287
| 51>    C      -15.71394         5.21546         2.80489
| 52>    C      -17.96075         6.11050         3.14462
| 53>    N      -18.91362         6.61589         2.74688
| 54>    C      -17.28197         5.26000         6.07606
| 55>    C      -18.58868         5.80831         6.09494
| 56>    C      -19.06653         5.82197         7.39404
| 57>    C      -18.02951         5.24185         8.23958
| 58>    C      -16.96146         4.90873         7.47011
| 59>    C      -15.77580         4.33662         7.94519
| 60>    N      -14.81992         3.86731         8.37529
| 61>    C      -20.29355         6.26009         7.94187
| 62>    C      -21.30870         6.96187         7.35556
| 63>    S      -22.76052         7.31411         8.27857
| 64>    C      -23.51430         8.19734         6.88460
| 65>    O      -24.60546         8.68604         6.94448
| 66>    C      -22.55997         8.17550         5.79031
| 67>    C      -21.40789         7.52971         6.04139
| 68>    H        1.95160         1.69442        -3.89626
| 69>    H       -0.54632         2.25466        -4.27383
| 70>    H       -2.69397         2.46805        -3.10522
| 71>    H       -2.02624         1.54696         0.67298
| 72>    H       -7.26100         2.97651        -0.05358
| 73>    H       -6.40958         2.09673         2.76279
| 74>    H       -7.55704         1.32816         4.54329
| 75>    H       -8.91313         1.92799         5.52695
| 76>    H       -6.53146         3.63597         4.62677
| 77>    H       -6.76884         2.96505         6.24089
| 78>    H       -7.89054         4.17960         5.61910
| 79>    H      -11.09786         4.70319        -1.64733
| 80>    H      -12.42563         5.36197        -0.66715
| 81>    H      -12.17143         2.48179        -1.69225
| 82>    H      -13.28910         3.70137        -2.30896
| 83>    H      -13.49484         3.05599        -0.67558
| 84>    H      -13.56372         4.70708         1.15797
| 85>    H      -12.74801         3.79052         3.97680
| 86>    H      -14.61188         4.17553         5.77224
| 87>    H      -15.65172         5.39702         1.74806
| 88>    H      -19.11150         6.11507         5.21367
| 89>    H      -18.11260         5.11804         9.30369
| 90>    H      -20.44207         6.00476         8.98453
| 91>    H      -22.81443         8.66570         4.86716
| 92>    H      -20.60625         7.45341         5.33038
| 93> *
| 94>
| 95>                          ****END OF INPUT****

CARTESIAN COORDINATES (ANGSTROEM)
---------------------------------
  C      1.187550    1.695580   -3.139410
  C     -0.110340    1.985230   -3.326980
  C     -0.928950    1.917820   -2.147540
  S      0.045330    1.455760   -0.766550
  C      1.551370    1.359660   -1.774440
  O      2.614230    1.063970   -1.311380
  C     -2.262480    2.191010   -2.150680
  C     -3.168820    2.169750   -1.064890
  S     -4.832400    2.613380   -1.353400
  C     -5.260200    2.374330    0.309750
  C     -4.134400    1.960540    1.040990
  C     -2.973850    1.850150    0.267090
  C     -4.125800    1.686490    2.419630
  N     -4.080790    1.459490    3.544090
  C     -6.588360    2.622500    0.717980
  C     -7.063250    2.461340    1.986050
  C     -8.394160    2.765620    2.342280
  N     -8.887850    2.635690    3.616700
  C     -8.157820    2.208010    4.787510
  C     -7.279230    3.321300    5.351070
  C    -10.233340    3.032900    3.704610
  O    -10.877050    3.002850    4.732490
  C    -10.580090    3.426110    2.353350
  C     -9.440290    3.246230    1.543180
  C     -9.784830    3.635780    0.192130
  O     -9.138640    3.656600   -0.837850
  N    -11.124290    4.038340    0.277790
  C    -11.852860    4.458490   -0.894990
  C    -12.763550    3.353280   -1.424090
  C    -11.621500    3.925310    1.558820
  C    -12.924670    4.303620    1.929810
  C    -13.392600    4.202950    3.211450
  C    -14.671700    4.621050    3.629670
  C    -15.151380    4.564000    4.930640
  C    -16.457960    5.104230    4.975950
  C    -16.781230    5.507640    3.592870
  C    -15.713940    5.215460    2.804890
  C    -17.960750    6.110500    3.144620
  N    -18.913620    6.615890    2.746880
  C    -17.281970    5.260000    6.076060
  C    -18.588680    5.808310    6.094940
  C    -19.066530    5.821970    7.394040
  C    -18.029510    5.241850    8.239580
  C    -16.961460    4.908730    7.470110
  C    -15.775800    4.336620    7.945190
  N    -14.819920    3.867310    8.375290
  C    -20.293550    6.260090    7.941870
  C    -21.308700    6.961870    7.355560
  S    -22.760520    7.314110    8.278570
  C    -23.514300    8.197340    6.884600
  O    -24.605460    8.686040    6.944480
  C    -22.559970    8.175500    5.790310
  C    -21.407890    7.529710    6.041390
  H      1.951600    1.694420   -3.896260
  H     -0.546320    2.254660   -4.273830
  H     -2.693970    2.468050   -3.105220
  H     -2.026240    1.546960    0.672980
  H     -7.261000    2.976510   -0.053580
  H     -6.409580    2.096730    2.762790
  H     -7.557040    1.328160    4.543290
  H     -8.913130    1.927990    5.526950
  H     -6.531460    3.635970    4.626770
  H     -6.768840    2.965050    6.240890
  H     -7.890540    4.179600    5.619100
  H    -11.097860    4.703190   -1.647330
  H    -12.425630    5.361970   -0.667150
  H    -12.171430    2.481790   -1.692250
  H    -13.289100    3.701370   -2.308960
  H    -13.494840    3.055990   -0.675580
  H    -13.563720    4.707080    1.157970
  H    -12.748010    3.790520    3.976800
  H    -14.611880    4.175530    5.772240
  H    -15.651720    5.397020    1.748060
  H    -19.111500    6.115070    5.213670
  H    -18.112600    5.118040    9.303690
  H    -20.442070    6.004760    8.984530
  H    -22.814430    8.665700    4.867160
  H    -20.606250    7.453410    5.330380

 Total Charge           Charge          ....    0
 Multiplicity           Mult            ....    1
 Number of Electrons    NEL             ....  386
 Basis Dimension        Dim             ....  879

ORBITAL ENERGIES
----------------

  NO   OCC          E(Eh)            E(eV)
   0   2.0000     -88.987739     -2421.4795
   1   2.0000     -88.947220     -2420.3769
   2   2.0000     -88.939845     -2420.1762
   3   2.0000     -19.222620      -523.0741
   4   2.0000     -19.219541      -522.9903
   5   2.0000     -19.201055      -522.4873
   6   2.0000     -19.200438      -522.4705
   7   2.0000     -14.462523      -393.5453
   8   2.0000     -14.461224      -393.5099
   9   2.0000     -14.422204      -392.4481
  10   2.0000     -14.418520      -392.3479
  11   2.0000     -14.408750      -392.0820
  12   2.0000     -10.386714      -282.6369
  13   2.0000     -10.383160      -282.5402
  14   2.0000     -10.382900      -282.5331
  15   2.0000     -10.382706      -282.5278
  16   2.0000     -10.349093      -281.6132
  17   2.0000     -10.347236      -281.5626
  18   2.0000     -10.342202      -281.4256
  19   2.0000     -10.333687      -281.1939
  20   2.0000     -10.330868      -281.1172
  21   2.0000     -10.330851      -281.1167
  22   2.0000     -10.330460      -281.1061
  23   2.0000     -10.326776      -281.0059
  24   2.0000     -10.325818      -280.9798
  25   2.0000     -10.323000      -280.9031
  26   2.0000     -10.322766      -280.8967
  27   2.0000     -10.321012      -280.8490
  28   2.0000     -10.319509      -280.8081
  29   2.0000     -10.317787      -280.7613
  30   2.0000     -10.317698      -280.7588
  31   2.0000     -10.317007      -280.7400
  32   2.0000     -10.315849      -280.7085
  33   2.0000     -10.311396      -280.5873
  34   2.0000     -10.310602      -280.5657
  35   2.0000     -10.310416      -280.5607
  36   2.0000     -10.310056      -280.5509
  37   2.0000     -10.309523      -280.5364
  38   2.0000     -10.309306      -280.5305
  39   2.0000     -10.309070      -280.5241
  40   2.0000     -10.308501      -280.5086
  41   2.0000     -10.306114      -280.4436
  42   2.0000     -10.305365      -280.4232
  43   2.0000     -10.303124      -280.3623
  44   2.0000     -10.300839      -280.3001
  45   2.0000     -10.297727      -280.2154
  46   2.0000     -10.296740      -280.1885
  47   2.0000     -10.288535      -279.9653
  48   2.0000     -10.288141      -279.9545
  49   2.0000     -10.274094      -279.5723
  50   2.0000     -10.272929      -279.5406
  51   2.0000     -10.272151      -279.5194
  52   2.0000     -10.261299      -279.2241
  53   2.0000      -8.083381      -219.9600
  54   2.0000      -8.044817      -218.9106
  55   2.0000      -8.037864      -218.7214
  56   2.0000      -6.052456      -164.6957
  57   2.0000      -6.048437      -164.5863
  58   2.0000      -6.045712      -164.5122
  59   2.0000      -6.014180      -163.6542
  60   2.0000      -6.010447      -163.5526
  61   2.0000      -6.007173      -163.4635
  62   2.0000      -6.005781      -163.4256
  63   2.0000      -6.003649      -163.3676
  64   2.0000      -5.998675      -163.2322
  65   2.0000      -1.144579       -31.1456
  66   2.0000      -1.143247       -31.1093
  67   2.0000      -1.140903       -31.0455
  68   2.0000      -1.136673       -30.9304
  69   2.0000      -1.073178       -29.2027
  70   2.0000      -1.064689       -28.9717
  71   2.0000      -1.025515       -27.9057
  72   2.0000      -1.020870       -27.7793
  73   2.0000      -1.005637       -27.3648
  74   2.0000      -1.001310       -27.2470
  75   2.0000      -0.991448       -26.9787
  76   2.0000      -0.987154       -26.8618
  77   2.0000      -0.984366       -26.7860
  78   2.0000      -0.977235       -26.5919
  79   2.0000      -0.937916       -25.5220
  80   2.0000      -0.929573       -25.2950
  81   2.0000      -0.920171       -25.0391
  82   2.0000      -0.899985       -24.4898
  83   2.0000      -0.896967       -24.4077
  84   2.0000      -0.880658       -23.9639
  85   2.0000      -0.876093       -23.8397
  86   2.0000      -0.865911       -23.5626
  87   2.0000      -0.857929       -23.3454
  88   2.0000      -0.849407       -23.1135
  89   2.0000      -0.847998       -23.0752
  90   2.0000      -0.839592       -22.8465
  91   2.0000      -0.827172       -22.5085
  92   2.0000      -0.826520       -22.4908
  93   2.0000      -0.807803       -21.9814
  94   2.0000      -0.793276       -21.5861
  95   2.0000      -0.777119       -21.1465
  96   2.0000      -0.766430       -20.8556
  97   2.0000      -0.760390       -20.6913
  98   2.0000      -0.747890       -20.3511
  99   2.0000      -0.738857       -20.1053
 100   2.0000      -0.724767       -19.7219
 101   2.0000      -0.716396       -19.4941
 102   2.0000      -0.711776       -19.3684
 103   2.0000      -0.701994       -19.1022
 104   2.0000      -0.686525       -18.6813
 105   2.0000      -0.683218       -18.5913
 106   2.0000      -0.681065       -18.5327
 107   2.0000      -0.676530       -18.4093
 108   2.0000      -0.657541       -17.8926
 109   2.0000      -0.648794       -17.6546
 110   2.0000      -0.646069       -17.5804
 111   2.0000      -0.644645       -17.5417
 112   2.0000      -0.635160       -17.2836
 113   2.0000      -0.632456       -17.2100
 114   2.0000      -0.623006       -16.9529
 115   2.0000      -0.609193       -16.5770
 116   2.0000      -0.602818       -16.4035
 117   2.0000      -0.599806       -16.3215
 118   2.0000      -0.595460       -16.2033
 119   2.0000      -0.587153       -15.9772
 120   2.0000      -0.584991       -15.9184
 121   2.0000      -0.580323       -15.7914
 122   2.0000      -0.573796       -15.6138
 123   2.0000      -0.561153       -15.2698
 124   2.0000      -0.552372       -15.0308
 125   2.0000      -0.550425       -14.9778
 126   2.0000      -0.543561       -14.7910
 127   2.0000      -0.542476       -14.7615
 128   2.0000      -0.538387       -14.6502
 129   2.0000      -0.536006       -14.5855
 130   2.0000      -0.534507       -14.5447
 131   2.0000      -0.533504       -14.5174
 132   2.0000      -0.527808       -14.3624
 133   2.0000      -0.526711       -14.3325
 134   2.0000      -0.526483       -14.3263
 135   2.0000      -0.525604       -14.3024
 136   2.0000      -0.523798       -14.2533
 137   2.0000      -0.518116       -14.0987
 138   2.0000      -0.516772       -14.0621
 139   2.0000      -0.516486       -14.0543
 140   2.0000      -0.513978       -13.9861
 141   2.0000      -0.509577       -13.8663
 142   2.0000      -0.508877       -13.8473
 143   2.0000      -0.505180       -13.7466
 144   2.0000      -0.501777       -13.6540
 145   2.0000      -0.494049       -13.4437
 146   2.0000      -0.492476       -13.4009
 147   2.0000      -0.486405       -13.2357
 148   2.0000      -0.485613       -13.2142
 149   2.0000      -0.484868       -13.1939
 150   2.0000      -0.481243       -13.0953
 151   2.0000      -0.476211       -12.9584
 152   2.0000      -0.472515       -12.8578
 153   2.0000      -0.468155       -12.7392
 154   2.0000      -0.466512       -12.6944
 155   2.0000      -0.464782       -12.6474
 156   2.0000      -0.462733       -12.5916
 157   2.0000      -0.458717       -12.4823
 158   2.0000      -0.454193       -12.3592
 159   2.0000      -0.453907       -12.3514
 160   2.0000      -0.452952       -12.3255
 161   2.0000      -0.450008       -12.2453
 162   2.0000      -0.448224       -12.1968
 163   2.0000      -0.447145       -12.1674
 164   2.0000      -0.446346       -12.1457
 165   2.0000      -0.440441       -11.9850
 166   2.0000      -0.437865       -11.9149
 167   2.0000      -0.437827       -11.9139
 168   2.0000      -0.431367       -11.7381
 169   2.0000      -0.431265       -11.7353
 170   2.0000      -0.427243       -11.6259
 171   2.0000      -0.426292       -11.6000
 172   2.0000      -0.424261       -11.5447
 173   2.0000      -0.421448       -11.4682
 174   2.0000      -0.415876       -11.3166
 175   2.0000      -0.400861       -10.9080
 176   2.0000      -0.399035       -10.8583
 177   2.0000      -0.383362       -10.4318
 178   2.0000      -0.357503        -9.7281
 179   2.0000      -0.355790        -9.6815
 180   2.0000      -0.353326        -9.6145
 181   2.0000      -0.348642        -9.4870
 182   2.0000      -0.341798        -9.3008
 183   2.0000      -0.341307        -9.2874
 184   2.0000      -0.339560        -9.2399
 185   2.0000      -0.337423        -9.1818
 186   2.0000      -0.335188        -9.1209
 187   2.0000      -0.325456        -8.8561
 188   2.0000      -0.325000        -8.8437
 189   2.0000      -0.308426        -8.3927
 190   2.0000      -0.286441        -7.7945
 191   2.0000      -0.276214        -7.5162
 192   2.0000      -0.237535        -6.4637
 193   0.0000      -0.138865        -3.7787
 194   0.0000      -0.100063        -2.7229
 195   0.0000      -0.066944        -1.8216
 196   0.0000      -0.056834        -1.5465
 197   0.0000      -0.035861        -0.9758

MULLIKEN ATOMIC CHARGES
-----------------------
   0 C :   -0.004883
   1 C :    0.077653
   2 C :   -0.064491
   3 S :    0.001892
   4 C :    0.091595
   5 O :   -0.144819
   6 C :    0.066017
   7 C :   -0.101895
   8 S :    0.182531
   9 C :   -0.061629
  10 C :   -0.084221
  11 C :    0.025123
  12 C :   -0.161674
  13 N :    0.118443
  14 C :    0.060850
  15 C :   -0.037780
  16 C :    0.140494
  17 N :   -0.254245
  18 C :    0.093687
  19 C :    0.010977
  20 C :    0.166552
  21 O :   -0.194628
  22 C :   -0.058008
  23 C :   -0.068980
  24 C :    0.167504
  25 O :   -0.215783
  26 N :   -0.257467
  27 C :    0.100439
  28 C :    0.005795
  29 C :    0.143624
  30 C :   -0.028195
  31 C :    0.007744
  32 C :    0.107393
  33 C :   -0.104603
  34 C :    0.125136
  35 C :   -0.103989
  36 C :   -0.008795
  37 C :   -0.170152
  38 N :    0.130038
  39 C :    0.114295
  40 C :   -0.129800
  41 C :    0.108439
  42 C :   -0.010963
  43 C :   -0.091003
  44 C :   -0.181820
  45 N :    0.146632
  46 C :    0.047843
  47 C :   -0.090107
  48 S :    0.025390
  49 C :    0.081596
  50 O :   -0.144748
  51 C :   -0.000728
  52 C :    0.078627
  53 H :    0.015537
  54 H :    0.008359
  55 H :   -0.004515
  56 H :    0.018481
  57 H :    0.005439
  58 H :   -0.012560
  59 H :    0.036265
  60 H :    0.045908
  61 H :    0.017409
  62 H :    0.031000
  63 H :    0.024890
  64 H :    0.044336
  65 H :    0.022427
  66 H :    0.029966
  67 H :    0.025028
  68 H :    0.015204
  69 H :   -0.031501
  70 H :    0.018317
  71 H :    0.017786
  72 H :   -0.001567
  73 H :   -0.006340
  74 H :    0.001043
  75 H :   -0.006659
  76 H :    0.019789
  77 H :    0.015055
Sum of atomic charges:    0.0000000

LOEWDIN ATOMIC CHARGES
----------------------
   0 C :   -0.073036
   1 C :    0.013292
   2 C :   -0.152114
   3 S :    0.313090
   4 C :   -0.048387
   5 O :   -0.132457
   6 C :   -0.045953
   7 C :   -0.170434
   8 S :    0.487132
   9 C :   -0.140833
  10 C :   -0.099331
  11 C :   -0.017694
  12 C :   -0.024112
  13 N :   -0.055266
  14 C :    0.000031
  15 C :   -0.030737
  16 C :    0.078311
  17 N :    0.005197
  18 C :    0.037357
  19 C :   -0.057978
  20 C :    0.081297
  21 O :   -0.184796
  22 C :   -0.107186
  23 C :   -0.117790
  24 C :    0.078740
  25 O :   -0.205139
  26 N :    0.000300
  27 C :    0.036621
  28 C :   -0.060476
  29 C :    0.068735
  30 C :   -0.038187
  31 C :    0.032709
  32 C :   -0.019725
  33 C :   -0.011990
  34 C :    0.033077
  35 C :   -0.078980
  36 C :    0.051259
  37 C :   -0.026455
  38 N :   -0.070594
  39 C :    0.036763
  40 C :   -0.034587
  41 C :   -0.016604
  42 C :    0.052567
  43 C :   -0.080610
  44 C :   -0.033291
  45 N :   -0.056311
  46 C :   -0.030404
  47 C :   -0.130852
  48 S :    0.310192
  49 C :   -0.052520
  50 O :   -0.131756
  51 C :   -0.048866
  52 C :    0.007600
  53 H :    0.041472
  54 H :    0.039831
  55 H :    0.037559
  56 H :    0.030728
  57 H :    0.037304
  58 H :    0.036720
  59 H :    0.028180
  60 H :    0.039215
  61 H :    0.023125
  62 H :    0.035167
  63 H :    0.030229
  64 H :    0.038294
  65 H :    0.022363
  66 H :    0.032847
  67 H :    0.031436
  68 H :    0.021852
  69 H :    0.027222
  70 H :    0.043395
  71 H :    0.041021
  72 H :    0.034235
  73 H :    0.027641
  74 H :    0.037800
  75 H :    0.036683
  76 H :    0.044125
  77 H :    0.042738

  Mayer bond orders larger than 0.100000
B(  0-C ,  1-C ) :   1.6664 B(  0-C ,  4-C ) :   0.9808 B(  0-C , 53-H ) :   0.9952
B(  1-C ,  2-C ) :   1.0791 B(  1-C , 54-H ) :   0.9977 B(  2-C ,  3-S ) :   1.0383
B(  2-C ,  6-C ) :   1.6908 B(  3-S ,  4-C ) :   0.9668 B(  3-S ,  5-O ) :   0.1046
B(  4-C ,  5-O ) :   2.1532 B(  6-C ,  7-C ) :   1.1257 B(  6-C , 55-H ) :   0.9513
B(  7-C ,  8-S ) :   1.1198 B(  7-C , 11-C ) :   1.4517 B(  8-S ,  9-C ) :   1.1553
B(  9-C , 10-C ) :   1.4054 B(  9-C , 14-C ) :   1.1710 B( 10-C , 11-C ) :   1.3335
B( 10-C , 12-C ) :   1.1178 B( 11-C , 56-H ) :   0.9856 B( 12-C , 13-N ) :   2.9640
B( 14-C , 15-C ) :   1.5942 B( 14-C , 57-H ) :   0.9186 B( 15-C , 16-C ) :   1.1896
B( 15-C , 58-H ) :   0.9449 B( 16-C , 17-N ) :   1.1746 B( 16-C , 23-C ) :   1.2987
B( 17-N , 18-C ) :   0.9356 B( 17-N , 20-C ) :   1.0578 B( 18-C , 19-C ) :   1.1241
B( 18-C , 59-H ) :   0.9481 B( 18-C , 60-H ) :   0.9272 B( 19-C , 61-H ) :   0.9676
B( 19-C , 62-H ) :   0.9673 B( 19-C , 63-H ) :   0.9630 B( 20-C , 21-O ) :   2.0404
B( 20-C , 22-C ) :   0.9764 B( 21-O , 70-H ) :   0.1079 B( 22-C , 23-C ) :   1.2816
B( 22-C , 29-C ) :   1.3197 B( 23-C , 24-C ) :   0.9873 B( 24-C , 25-O ) :   2.0145
B( 24-C , 26-N ) :   1.0699 B( 25-O , 57-H ) :   0.1182 B( 26-N , 27-C ) :   0.9460
B( 26-N , 29-C ) :   1.1494 B( 27-C , 28-C ) :   1.1200 B( 27-C , 64-H ) :   0.9273
B( 27-C , 65-H ) :   0.9494 B( 28-C , 66-H ) :   0.9635 B( 28-C , 67-H ) :   0.9681
B( 28-C , 68-H ) :   0.9687 B( 29-C , 30-C ) :   1.1813 B( 30-C , 31-C ) :   1.5270
B( 30-C , 69-H ) :   0.9609 B( 31-C , 32-C ) :   1.1453 B( 31-C , 70-H ) :   0.9587
B( 32-C , 33-C ) :   1.4722 B( 32-C , 36-C ) :   1.0391 B( 33-C , 34-C ) :   1.1400
B( 33-C , 71-H ) :   1.0125 B( 34-C , 35-C ) :   1.1017 B( 34-C , 39-C ) :   1.3670
B( 35-C , 36-C ) :   1.6830 B( 35-C , 37-C ) :   1.0896 B( 36-C , 72-H ) :   1.0142
B( 37-C , 38-N ) :   2.9762 B( 39-C , 40-C ) :   1.1597 B( 39-C , 43-C ) :   1.1102
B( 40-C , 41-C ) :   1.4976 B( 40-C , 73-H ) :   0.9952 B( 41-C , 42-C ) :   1.0383
B( 41-C , 46-C ) :   1.1488 B( 42-C , 43-C ) :   1.6661 B( 42-C , 74-H ) :   1.0246
B( 43-C , 44-C ) :   1.0851 B( 44-C , 45-N ) :   2.9767 B( 46-C , 47-C ) :   1.6331
B( 46-C , 75-H ) :   0.9502 B( 47-C , 48-S ) :   1.0493 B( 47-C , 52-C ) :   1.0695
B( 48-S , 49-C ) :   0.9792 B( 48-S , 50-O ) :   0.1076 B( 49-C , 50-O ) :   2.1462
B( 49-C , 51-C ) :   0.9724 B( 51-C , 52-C ) :   1.6920 B( 51-C , 76-H ) :   0.9909
B( 52-C , 77-H ) :   0.9896

-----------------------------------------------------------------------------
         ABSORPTION SPECTRUM VIA TRANSITION ELECTRIC DIPOLE MOMENTS
-----------------------------------------------------------------------------
State   Energy  Wavelength   fosc         T2         TX        TY        TZ
        (cm-1)    (nm)                  (au**2)     (au)      (au)      (au)
-----------------------------------------------------------------------------
   0    8537.9   1171.2   0.962008057  37.09383   5.43001  -1.51337  -2.30619
   1   14415.1    693.7   0.069731684   1.59253   0.87858  -0.39147  -0.81693
   2   15885.2    629.5   0.417445143   8.65133   2.86658  -0.65261  -0.09027
   3   18752.4    533.3   0.009985744   0.17531   0.14680  -0.12885   0.37034
   4   21794.2    458.8   0.381096840   5.75666   2.16215  -0.29939  -0.99605
   5   23035.2    434.1   0.379346028   5.42149  -1.97254   0.80314   0.94103
   6   23960.4    417.4   0.181871727   2.49889  -1.10944   0.04989   1.12497
   7   24738.5    404.2   0.097665474   1.29970  -0.83549   0.00875   0.77562
   8   25773.6    388.0   0.000664448   0.00849   0.02105   0.01745  -0.08797
   9   26363.8    379.3   0.000605437   0.00756   0.05910   0.05208  -0.03682
  10   26865.0    372.2   0.148519583   1.82000   1.16630   0.00574  -0.67802
  11   27144.4    368.4   0.099295508   1.20427   0.46102  -0.42698   0.89968
  12   27519.3    363.4   0.468659321   5.60654   2.01184  -0.66343  -1.05777
  13   28340.3    352.9   0.040720008   0.47302   0.65158  -0.16042  -0.15074
  14   28776.5    347.5   0.002417121   0.02765  -0.07460   0.14860  -0.00193
  15   29977.3    333.6   0.000553084   0.00607   0.06004  -0.04402   0.02306
  16   30063.7    332.6   0.000754878   0.00827  -0.03740   0.05205  -0.06448
  17   30451.2    328.4   0.041509683   0.44877   0.09545  -0.20656   0.63007
  18   31267.4    319.8   0.000765709   0.00806  -0.07114   0.05242  -0.01593
  19   31634.7    316.1   0.024938142   0.25952   0.09456   0.12911  -0.48364
  20   31933.8    313.1   0.097774953   1.00798  -0.84599   0.19312   0.50497
  21   32514.4    307.6   0.111367836   1.12761  -0.69543   0.57588  -0.55888
  22   33205.1    301.2   0.140757674   1.39554   1.13848  -0.31479   0.01772
  23   34372.1    290.9   0.001988459   0.01905  -0.01431   0.03373   0.13305
  24   34473.0    290.1   0.044736338   0.42723  -0.07807  -0.10649   0.64015
  25   35361.0    282.8   0.079880272   0.74369  -0.37985  -0.12482   0.76408
  26   35942.9    278.2   0.000563763   0.00516  -0.05829   0.03055   0.02886
  27   36252.0    275.8   0.237799176   2.15951  -0.95598   0.12203   1.10938
  28   36717.5    272.3   0.003945853   0.03538   0.15528  -0.10521   0.01403
  29   37139.5    269.3   0.000123251   0.00109  -0.03273  -0.00458   0.00078
  30   37395.9    267.4   0.000755050   0.00665  -0.00212   0.03798  -0.07211
  31   37573.7    266.1   0.117939366   1.03336  -0.47465  -0.07376   0.89589
  32   37842.5    264.3   0.001115993   0.00971   0.02523   0.01880  -0.09337
  33   38210.2    261.7   0.000013347   0.00011  -0.00978   0.00165  -0.00408
  34   38302.3    261.1   0.059992206   0.51564  -0.61886   0.15804   0.32814
  35   38527.2    259.6   0.098406199   0.84087   0.59338  -0.33661   0.61276
  36   39365.7    254.0   0.020829592   0.17420  -0.31676   0.14534  -0.22965
  37   39779.9    251.4   0.048573940   0.40199   0.19488  -0.00193  -0.60333
  38   40111.6    249.3   0.051754236   0.42477   0.50040  -0.10531  -0.40408
  39   40289.1    248.2   0.011544745   0.09433   0.22564  -0.14547   0.14920

FINAL SINGLE POINT ENERGY     -3343.464366827857

DIPOLE MOMENT
-------------
                                X             Y             Z
Electronic contribution:     -1.79427       1.71962       7.96556
Nuclear contribution   :      2.65361      -1.62088     -10.94464
                        -----------------------------------------
Total Dipole Moment    :      0.85934       0.09873      -2.97908
                        -----------------------------------------
Magnitude (a.u.)       :      3.10212
Magnitude (Debye)      :      7.88495

Rotational constants in cm-1:     0.005789     0.000328     0.000313
Rotational constants in MHz :   173.559698     9.838619     9.377511

                             ****ORCA TERMINATED NORMALLY****
TOTAL RUN TIME: 0 days 0 hours 5 minutes 36 seconds 937 msec
