                         Program Version 4.2.0 -  RELEASE  -
|  1> # ORCA input file
|  2> # SCF done       -168.236951390980          0.000694183483
|  3> ! CAM-B3LYP def2-SVP def2/J RIJCOSX Grid4 TightSCF
|  4> %maxcore 5000
|  5> %tddft
|  6>     Mode sTDDFT
|  7>     Ethresh 5.0
|  8>     maxcore 5000
|  9> end
| 10>
| 11> %pal
| 12>   nprocs 6
| 13>   end
| 14> * xyz 0 1
| 15>    C        1.91016        -2.16993         1.54732
| 16>    C        1.38682        -3.45921         1.67148
| 17>    N        0.95970        -4.51869         1.77212
| 18>    C        1.27712        -0.97852         1.83772
| 19>    F        0.03039        -0.90196         2.29411
| 20>    C        2.08497         0.14552         1.60179
| 21>    F        1.68368         1.40087         1.81136
| 22>    C        3.34447        -0.17391         1.12833
| 23>    S        3.52694        -1.89581         0.97558
| 24>    C        4.35731         0.71264         0.80497
| 25>    C        5.24880         1.48575         0.51842
| 26>    C        6.21931         2.41971         0.20270
| 27>    S        5.89803         4.12252         0.40001
| 28>    C        7.48977         4.53466        -0.17681
| 29>    C        8.20790         3.37841        -0.49621
| 30>    C        7.48876         2.19276        -0.28030
| 31>    C        9.52756         3.38639        -0.98547
| 32>    N       10.60151         3.34495        -1.38292
| 33>    C        7.93458         5.86943        -0.29078
| 34>    C        7.16822         6.93957         0.05973
| 35>    C        7.59811         8.27794        -0.05987
| 36>    N        6.83011         9.36341         0.29293
| 37>    C        5.47280         9.33939         0.78240
| 38>    C        4.46583         9.11360        -0.34266
| 39>    C        7.50085        10.57744         0.07153
| 40>    O        7.01382        11.66429         0.31391
| 41>    C        8.79091        10.18441        -0.45432
| 42>    C        8.81987         8.77574        -0.52203
| 43>    C       10.10951         8.37702        -1.04888
| 44>    O       10.58286         7.28519        -1.28618
| 45>    N       10.78139         9.58854        -1.27193
| 46>    C       12.13890         9.60982        -1.76467
| 47>    C       13.14809         9.83853        -0.64277
| 48>    C       10.01831        10.67809        -0.92099
| 49>    C       10.44835        12.01341        -1.04304
| 50>    C        9.66442        13.07277        -0.68091
| 51>    C       10.05761        14.42525        -0.77072
| 52>    C       11.25669        14.96933        -1.19832
| 53>    C       11.19771        16.38197        -1.08632
| 54>    C        9.85389        16.69733        -0.56102
| 55>    C        9.18977        15.52797        -0.37845
| 56>    C        9.33344        17.96874        -0.29511
| 57>    N        8.87642        18.99819        -0.06967
| 58>    C       12.19388        17.29011        -1.38122
| 59>    C       12.15949        18.70172        -1.22673
| 60>    C       13.37548        19.23511        -1.60406
| 61>    C       14.22781        18.13579        -2.03105
| 62>    C       13.53639        16.97204        -1.90270
| 63>    C       14.03409        15.70443        -2.21945
| 64>    N       14.46902        14.67477        -2.48789
| 65>    C       13.71795        20.61073        -1.55540
| 66>    C       14.92556        21.12684        -1.89952
| 67>    C       15.20499        22.48054        -1.80228
| 68>    C       15.43839        23.66908        -1.69665
| 69>    C       15.69366        25.02176        -1.56429
| 70>    C       14.81897        25.99437        -1.11145
| 71>    C       15.37959        27.28052        -1.08321
| 72>    C       16.69088        27.30966        -1.51437
| 73>    S       17.23632        25.72269        -1.96132
| 74>    C       17.52835        28.42327        -1.60480
| 75>    N       18.21997        29.33524        -1.67853
| 76>    F       14.71668        28.36178        -0.68147
| 77>    F       13.56614        25.72748        -0.73846
| 78>    H        7.88075         1.20941        -0.46997
| 79>    H        8.93438         6.01779        -0.68160
| 80>    H        6.17541         6.76357         0.45340
| 81>    H        5.29894        10.31844         1.23753
| 82>    H        5.37538         8.57072         1.55410
| 83>    H        4.54473         9.91187        -1.07645
| 84>    H        3.45769         9.11245         0.06197
| 85>    H        4.64333         8.16451        -0.84371
| 86>    H       12.23501        10.37734        -2.53719
| 87>    H       12.31059         8.62945        -2.21758
| 88>    H       12.96944        10.78730        -0.14159
| 89>    H       14.15392         9.84526        -1.05250
| 90>    H       13.07637         9.03923         0.09081
| 91>    H       11.43666        12.19295        -1.43995
| 92>    H        8.67349        12.88221        -0.28976
| 93>    H       12.11138        14.42812        -1.55158
| 94>    H        8.18888        15.40609        -0.00767
| 95>    H       11.31888        19.25908        -0.86257
| 96>    H       15.23640        18.22766        -2.38915
| 97>    H       12.94582        21.28283        -1.20314
| 98>    H       15.72834        20.49696        -2.25899
| 99> *
|100>
|101>                          ****END OF INPUT****

CARTESIAN COORDINATES (ANGSTROEM)
---------------------------------
  C      1.910160   -2.169930    1.547320
  C      1.386820   -3.459210    1.671480
  N      0.959700   -4.518690    1.772120
  C      1.277120   -0.978520    1.837720
  F      0.030390   -0.901960    2.294110
  C      2.084970    0.145520    1.601790
  F      1.683680    1.400870    1.811360
  C      3.344470   -0.173910    1.128330
  S      3.526940   -1.895810    0.975580
  C      4.357310    0.712640    0.804970
  C      5.248800    1.485750    0.518420
  C      6.219310    2.419710    0.202700
  S      5.898030    4.122520    0.400010
  C      7.489770    4.534660   -0.176810
  C      8.207900    3.378410   -0.496210
  C      7.488760    2.192760   -0.280300
  C      9.527560    3.386390   -0.985470
  N     10.601510    3.344950   -1.382920
  C      7.934580    5.869430   -0.290780
  C      7.168220    6.939570    0.059730
  C      7.598110    8.277940   -0.059870
  N      6.830110    9.363410    0.292930
  C      5.472800    9.339390    0.782400
  C      4.465830    9.113600   -0.342660
  C      7.500850   10.577440    0.071530
  O      7.013820   11.664290    0.313910
  C      8.790910   10.184410   -0.454320
  C      8.819870    8.775740   -0.522030
  C     10.109510    8.377020   -1.048880
  O     10.582860    7.285190   -1.286180
  N     10.781390    9.588540   -1.271930
  C     12.138900    9.609820   -1.764670
  C     13.148090    9.838530   -0.642770
  C     10.018310   10.678090   -0.920990
  C     10.448350   12.013410   -1.043040
  C      9.664420   13.072770   -0.680910
  C     10.057610   14.425250   -0.770720
  C     11.256690   14.969330   -1.198320
  C     11.197710   16.381970   -1.086320
  C      9.853890   16.697330   -0.561020
  C      9.189770   15.527970   -0.378450
  C      9.333440   17.968740   -0.295110
  N      8.876420   18.998190   -0.069670
  C     12.193880   17.290110   -1.381220
  C     12.159490   18.701720   -1.226730
  C     13.375480   19.235110   -1.604060
  C     14.227810   18.135790   -2.031050
  C     13.536390   16.972040   -1.902700
  C     14.034090   15.704430   -2.219450
  N     14.469020   14.674770   -2.487890
  C     13.717950   20.610730   -1.555400
  C     14.925560   21.126840   -1.899520
  C     15.204990   22.480540   -1.802280
  C     15.438390   23.669080   -1.696650
  C     15.693660   25.021760   -1.564290
  C     14.818970   25.994370   -1.111450
  C     15.379590   27.280520   -1.083210
  C     16.690880   27.309660   -1.514370
  S     17.236320   25.722690   -1.961320
  C     17.528350   28.423270   -1.604800
  N     18.219970   29.335240   -1.678530
  F     14.716680   28.361780   -0.681470
  F     13.566140   25.727480   -0.738460
  H      7.880750    1.209410   -0.469970
  H      8.934380    6.017790   -0.681600
  H      6.175410    6.763570    0.453400
  H      5.298940   10.318440    1.237530
  H      5.375380    8.570720    1.554100
  H      4.544730    9.911870   -1.076450
  H      3.457690    9.112450    0.061970
  H      4.643330    8.164510   -0.843710
  H     12.235010   10.377340   -2.537190
  H     12.310590    8.629450   -2.217580
  H     12.969440   10.787300   -0.141590
  H     14.153920    9.845260   -1.052500
  H     13.076370    9.039230    0.090810
  H     11.436660   12.192950   -1.439950
  H      8.673490   12.882210   -0.289760
  H     12.111380   14.428120   -1.551580
  H      8.188880   15.406090   -0.007670
  H     11.318880   19.259080   -0.862570
  H     15.236400   18.227660   -2.389150
  H     12.945820   21.282830   -1.203140
  H     15.728340   20.496960   -2.258990

 Total Charge           Charge          ....    0
 Multiplicity           Mult            ....    1
 Number of Electrons    NEL             ....  452
 Basis Dimension        Dim             ....  999

ORBITAL ENERGIES
----------------

  NO   OCC          E(Eh)            E(eV)
   0   2.0000     -89.007680     -2422.0221
   1   2.0000     -89.001315     -2421.8489
   2   2.0000     -88.993901     -2421.6472
   3   2.0000     -24.824800      -675.5172
   4   2.0000     -24.821562      -675.4290
   5   2.0000     -24.819386      -675.3698
   6   2.0000     -24.814844      -675.2462
   7   2.0000     -19.204686      -522.5861
   8   2.0000     -19.201884      -522.5098
   9   2.0000     -14.466055      -393.6414
  10   2.0000     -14.463582      -393.5741
  11   2.0000     -14.426005      -392.5516
  12   2.0000     -14.421502      -392.4290
  13   2.0000     -14.418116      -392.3369
  14   2.0000     -14.413972      -392.2241
  15   2.0000     -14.412674      -392.1888
  16   2.0000     -10.408506      -283.2299
  17   2.0000     -10.402995      -283.0799
  18   2.0000     -10.401508      -283.0394
  19   2.0000     -10.395362      -282.8722
  20   2.0000     -10.386969      -282.6438
  21   2.0000     -10.384311      -282.5715
  22   2.0000     -10.361534      -281.9517
  23   2.0000     -10.360334      -281.9190
  24   2.0000     -10.354961      -281.7728
  25   2.0000     -10.354868      -281.7703
  26   2.0000     -10.351790      -281.6865
  27   2.0000     -10.351229      -281.6713
  28   2.0000     -10.350889      -281.6620
  29   2.0000     -10.344618      -281.4914
  30   2.0000     -10.333927      -281.2005
  31   2.0000     -10.330070      -281.0955
  32   2.0000     -10.329120      -281.0697
  33   2.0000     -10.328927      -281.0644
  34   2.0000     -10.324536      -280.9449
  35   2.0000     -10.324163      -280.9348
  36   2.0000     -10.320421      -280.8329
  37   2.0000     -10.320409      -280.8326
  38   2.0000     -10.320254      -280.8284
  39   2.0000     -10.319503      -280.8079
  40   2.0000     -10.318996      -280.7941
  41   2.0000     -10.318024      -280.7677
  42   2.0000     -10.317497      -280.7534
  43   2.0000     -10.317106      -280.7427
  44   2.0000     -10.314761      -280.6789
  45   2.0000     -10.313693      -280.6499
  46   2.0000     -10.313135      -280.6347
  47   2.0000     -10.312516      -280.6178
  48   2.0000     -10.312420      -280.6152
  49   2.0000     -10.311469      -280.5893
  50   2.0000     -10.311163      -280.5810
  51   2.0000     -10.310049      -280.5507
  52   2.0000     -10.307852      -280.4909
  53   2.0000     -10.306798      -280.4622
  54   2.0000     -10.306452      -280.4528
  55   2.0000     -10.304362      -280.3959
  56   2.0000     -10.302328      -280.3406
  57   2.0000     -10.292643      -280.0771
  58   2.0000     -10.290859      -280.0285
  59   2.0000     -10.276447      -279.6363
  60   2.0000     -10.275688      -279.6157
  61   2.0000     -10.274812      -279.5919
  62   2.0000     -10.267122      -279.3826
  63   2.0000      -8.102680      -220.4851
  64   2.0000      -8.096318      -220.3120
  65   2.0000      -8.089061      -220.1145
  66   2.0000      -6.072277      -165.2350
  67   2.0000      -6.068146      -165.1226
  68   2.0000      -6.065864      -165.0605
  69   2.0000      -6.064037      -165.0108
  70   2.0000      -6.061821      -164.9505
  71   2.0000      -6.058341      -164.8558
  72   2.0000      -6.057719      -164.8389
  73   2.0000      -6.054231      -164.7440
  74   2.0000      -6.051148      -164.6601
  75   2.0000      -1.344277       -36.5797
  76   2.0000      -1.338429       -36.4205
  77   2.0000      -1.331860       -36.2417
  78   2.0000      -1.325550       -36.0701
  79   2.0000      -1.146182       -31.1892
  80   2.0000      -1.139120       -30.9970
  81   2.0000      -1.076266       -29.2867
  82   2.0000      -1.067559       -29.0498
  83   2.0000      -1.038945       -28.2711
  84   2.0000      -1.032708       -28.1014
  85   2.0000      -1.028031       -27.9741
  86   2.0000      -1.022930       -27.8353
  87   2.0000      -1.007018       -27.4024
  88   2.0000      -1.004698       -27.3392
  89   2.0000      -0.999945       -27.2099
  90   2.0000      -0.993554       -27.0360
  91   2.0000      -0.993122       -27.0242
  92   2.0000      -0.987672       -26.8759
  93   2.0000      -0.942198       -25.6385
  94   2.0000      -0.935863       -25.4661
  95   2.0000      -0.934033       -25.4163
  96   2.0000      -0.921717       -25.0812
  97   2.0000      -0.917073       -24.9548
  98   2.0000      -0.904190       -24.6043
  99   2.0000      -0.894128       -24.3305
 100   2.0000      -0.883842       -24.0506
 101   2.0000      -0.875731       -23.8299
 102   2.0000      -0.874661       -23.8007
 103   2.0000      -0.870908       -23.6986
 104   2.0000      -0.869258       -23.6537
 105   2.0000      -0.863820       -23.5057
 106   2.0000      -0.852930       -23.2094
 107   2.0000      -0.846643       -23.0383
 108   2.0000      -0.835010       -22.7218
 109   2.0000      -0.830063       -22.5872
 110   2.0000      -0.811684       -22.0871
 111   2.0000      -0.801773       -21.8174
 112   2.0000      -0.781060       -21.2537
 113   2.0000      -0.774190       -21.0668
 114   2.0000      -0.769881       -20.9495
 115   2.0000      -0.766328       -20.8528
 116   2.0000      -0.744391       -20.2559
 117   2.0000      -0.741167       -20.1682
 118   2.0000      -0.734188       -19.9783
 119   2.0000      -0.723916       -19.6988
 120   2.0000      -0.720316       -19.6008
 121   2.0000      -0.716137       -19.4871
 122   2.0000      -0.713974       -19.4282
 123   2.0000      -0.712879       -19.3984
 124   2.0000      -0.698932       -19.0189
 125   2.0000      -0.693247       -18.8642
 126   2.0000      -0.688665       -18.7395
 127   2.0000      -0.681472       -18.5438
 128   2.0000      -0.671727       -18.2786
 129   2.0000      -0.660094       -17.9621
 130   2.0000      -0.656879       -17.8746
 131   2.0000      -0.651329       -17.7236
 132   2.0000      -0.645256       -17.5583
 133   2.0000      -0.641093       -17.4450
 134   2.0000      -0.639424       -17.3996
 135   2.0000      -0.629510       -17.1299
 136   2.0000      -0.627410       -17.0727
 137   2.0000      -0.621843       -16.9212
 138   2.0000      -0.615022       -16.7356
 139   2.0000      -0.610281       -16.6066
 140   2.0000      -0.605839       -16.4857
 141   2.0000      -0.604347       -16.4451
 142   2.0000      -0.598552       -16.2874
 143   2.0000      -0.595524       -16.2050
 144   2.0000      -0.586278       -15.9534
 145   2.0000      -0.583643       -15.8817
 146   2.0000      -0.578742       -15.7484
 147   2.0000      -0.576685       -15.6924
 148   2.0000      -0.572785       -15.5863
 149   2.0000      -0.571493       -15.5511
 150   2.0000      -0.565346       -15.3838
 151   2.0000      -0.565101       -15.3772
 152   2.0000      -0.560291       -15.2463
 153   2.0000      -0.549967       -14.9654
 154   2.0000      -0.542160       -14.7529
 155   2.0000      -0.541699       -14.7404
 156   2.0000      -0.539133       -14.6705
 157   2.0000      -0.533852       -14.5269
 158   2.0000      -0.532158       -14.4808
 159   2.0000      -0.530850       -14.4452
 160   2.0000      -0.529432       -14.4066
 161   2.0000      -0.527948       -14.3662
 162   2.0000      -0.526333       -14.3223
 163   2.0000      -0.524722       -14.2784
 164   2.0000      -0.521602       -14.1935
 165   2.0000      -0.516233       -14.0474
 166   2.0000      -0.513077       -13.9615
 167   2.0000      -0.509379       -13.8609
 168   2.0000      -0.508951       -13.8493
 169   2.0000      -0.508044       -13.8246
 170   2.0000      -0.507608       -13.8127
 171   2.0000      -0.503846       -13.7103
 172   2.0000      -0.503278       -13.6949
 173   2.0000      -0.496758       -13.5175
 174   2.0000      -0.493718       -13.4348
 175   2.0000      -0.489228       -13.3126
 176   2.0000      -0.485395       -13.2083
 177   2.0000      -0.480788       -13.0829
 178   2.0000      -0.476592       -12.9687
 179   2.0000      -0.475805       -12.9473
 180   2.0000      -0.472036       -12.8447
 181   2.0000      -0.471867       -12.8402
 182   2.0000      -0.470144       -12.7933
 183   2.0000      -0.468296       -12.7430
 184   2.0000      -0.468013       -12.7353
 185   2.0000      -0.466673       -12.6988
 186   2.0000      -0.463078       -12.6010
 187   2.0000      -0.455191       -12.3864
 188   2.0000      -0.452843       -12.3225
 189   2.0000      -0.452472       -12.3124
 190   2.0000      -0.451182       -12.2773
 191   2.0000      -0.449713       -12.2373
 192   2.0000      -0.449038       -12.2189
 193   2.0000      -0.448681       -12.2092
 194   2.0000      -0.447961       -12.1896
 195   2.0000      -0.447922       -12.1886
 196   2.0000      -0.442252       -12.0343
 197   2.0000      -0.439416       -11.9571
 198   2.0000      -0.439074       -11.9478
 199   2.0000      -0.436198       -11.8695
 200   2.0000      -0.430369       -11.7109
 201   2.0000      -0.427558       -11.6345
 202   2.0000      -0.424754       -11.5581
 203   2.0000      -0.423170       -11.5150
 204   2.0000      -0.422900       -11.5077
 205   2.0000      -0.419243       -11.4082
 206   2.0000      -0.418134       -11.3780
 207   2.0000      -0.403466       -10.9789
 208   2.0000      -0.392460       -10.6794
 209   2.0000      -0.386382       -10.5140
 210   2.0000      -0.384453       -10.4615
 211   2.0000      -0.372747       -10.1430
 212   2.0000      -0.368652       -10.0315
 213   2.0000      -0.360096        -9.7987
 214   2.0000      -0.351131        -9.5548
 215   2.0000      -0.350878        -9.5479
 216   2.0000      -0.345213        -9.3937
 217   2.0000      -0.344059        -9.3623
 218   2.0000      -0.339399        -9.2355
 219   2.0000      -0.336531        -9.1575
 220   2.0000      -0.328075        -8.9274
 221   2.0000      -0.324864        -8.8400
 222   2.0000      -0.307426        -8.3655
 223   2.0000      -0.293850        -7.9961
 224   2.0000      -0.277629        -7.5547
 225   2.0000      -0.241584        -6.5738
 226   0.0000      -0.140613        -3.8263
 227   0.0000      -0.100760        -2.7418
 228   0.0000      -0.069419        -1.8890
 229   0.0000      -0.064829        -1.7641
 230   0.0000      -0.039234        -1.0676

MULLIKEN ATOMIC CHARGES
-----------------------
   0 C :   -0.338842
   1 C :   -0.136440
   2 N :    0.149477
   3 C :    0.289195
   4 F :   -0.140692
   5 C :    0.220854
   6 F :   -0.153534
   7 C :   -0.215555
   8 S :    0.265752
   9 C :    0.023134
  10 C :    0.045687
  11 C :   -0.144536
  12 S :    0.172115
  13 C :   -0.051482
  14 C :   -0.057392
  15 C :    0.059726
  16 C :   -0.183148
  17 N :    0.159252
  18 C :    0.007446
  19 C :   -0.037205
  20 C :    0.144600
  21 N :   -0.258772
  22 C :    0.097019
  23 C :    0.002778
  24 C :    0.168612
  25 O :   -0.209868
  26 C :   -0.065553
  27 C :   -0.064455
  28 C :    0.166124
  29 O :   -0.193539
  30 N :   -0.259068
  31 C :    0.094628
  32 C :    0.003489
  33 C :    0.150662
  34 C :   -0.009329
  35 C :    0.004512
  36 C :    0.110811
  37 C :   -0.124177
  38 C :    0.122989
  39 C :   -0.093688
  40 C :    0.005861
  41 C :   -0.174960
  42 N :    0.134137
  43 C :    0.113580
  44 C :   -0.099590
  45 C :    0.100293
  46 C :    0.000389
  47 C :   -0.105934
  48 C :   -0.162728
  49 N :    0.125366
  50 C :    0.020895
  51 C :   -0.086789
  52 C :   -0.000483
  53 C :    0.078114
  54 C :   -0.207287
  55 C :    0.220763
  56 C :    0.288868
  57 C :   -0.343349
  58 S :    0.259829
  59 C :   -0.135074
  60 N :    0.146646
  61 F :   -0.141936
  62 F :   -0.151092
  63 H :    0.008747
  64 H :    0.043274
  65 H :   -0.017466
  66 H :    0.045720
  67 H :    0.025672
  68 H :    0.032497
  69 H :    0.027064
  70 H :    0.014796
  71 H :    0.031722
  72 H :    0.049291
  73 H :    0.015456
  74 H :    0.031825
  75 H :    0.030981
  76 H :   -0.012952
  77 H :    0.003471
  78 H :   -0.000331
  79 H :    0.010902
  80 H :    0.005051
  81 H :   -0.001575
  82 H :    0.015897
  83 H :    0.032854
Sum of atomic charges:    0.0000000

LOEWDIN ATOMIC CHARGES
----------------------
   0 C :   -0.251034
   1 C :   -0.055091
   2 N :   -0.026825
   3 C :    0.056263
   4 F :   -0.025570
   5 C :    0.038551
   6 F :   -0.035916
   7 C :   -0.207134
   8 S :    0.514333
   9 C :   -0.043023
  10 C :   -0.021078
  11 C :   -0.179992
  12 S :    0.473644
  13 C :   -0.136619
  14 C :   -0.091132
  15 C :   -0.001285
  16 C :   -0.034775
  17 N :   -0.032145
  18 C :    0.008107
  19 C :   -0.041487
  20 C :    0.070897
  21 N :    0.001182
  22 C :    0.036463
  23 C :   -0.060467
  24 C :    0.080783
  25 O :   -0.198337
  26 C :   -0.112559
  27 C :   -0.111123
  28 C :    0.079906
  29 O :   -0.184705
  30 N :    0.002654
  31 C :    0.037437
  32 C :   -0.059421
  33 C :    0.075619
  34 C :   -0.019343
  35 C :    0.024293
  36 C :   -0.017197
  37 C :   -0.023519
  38 C :    0.040088
  39 C :   -0.082416
  40 C :    0.062320
  41 C :   -0.030357
  42 N :   -0.062177
  43 C :    0.032387
  44 C :   -0.015639
  45 C :   -0.021241
  46 C :    0.051107
  47 C :   -0.079188
  48 C :   -0.027524
  49 N :   -0.068057
  50 C :    0.020538
  51 C :   -0.035264
  52 C :    0.005817
  53 C :   -0.057726
  54 C :   -0.204029
  55 C :    0.038979
  56 C :    0.055899
  57 C :   -0.252318
  58 S :    0.509897
  59 C :   -0.054830
  60 N :   -0.029735
  61 F :   -0.026724
  62 F :   -0.034436
  63 H :    0.046981
  64 H :    0.048713
  65 H :    0.022739
  66 H :    0.038903
  67 H :    0.023624
  68 H :    0.033393
  69 H :    0.032302
  70 H :    0.021591
  71 H :    0.026139
  72 H :    0.040466
  73 H :    0.022170
  74 H :    0.034716
  75 H :    0.032518
  76 H :    0.035238
  77 H :    0.037729
  78 H :    0.031054
  79 H :    0.042680
  80 H :    0.036990
  81 H :    0.035301
  82 H :    0.046000
  83 H :    0.045027

  Mayer bond orders larger than 0.100000
B(  0-C ,  1-C ) :   1.1903 B(  0-C ,  3-C ) :   1.4634 B(  0-C ,  7-C ) :   0.1452
B(  0-C ,  8-S ) :   1.1164 B(  1-C ,  2-N ) :   3.0176 B(  3-C ,  4-F ) :   1.2186
B(  3-C ,  5-C ) :   1.2150 B(  5-C ,  6-F ) :   1.2023 B(  5-C ,  7-C ) :   1.4505
B(  7-C ,  8-S ) :   1.1024 B(  7-C ,  9-C ) :   0.9712 B(  9-C , 10-C ) :   2.3530
B( 10-C , 11-C ) :   0.9712 B( 11-C , 12-S ) :   1.1046 B( 11-C , 15-C ) :   1.4836
B( 12-S , 13-C ) :   1.1185 B( 13-C , 14-C ) :   1.4321 B( 13-C , 18-C ) :   1.1990
B( 14-C , 15-C ) :   1.2806 B( 14-C , 16-C ) :   1.1017 B( 15-C , 63-H ) :   1.0112
B( 16-C , 17-N ) :   3.0276 B( 18-C , 19-C ) :   1.5622 B( 18-C , 64-H ) :   0.9420
B( 19-C , 20-C ) :   1.1809 B( 19-C , 65-H ) :   0.9570 B( 20-C , 21-N ) :   1.1567
B( 20-C , 27-C ) :   1.3262 B( 21-N , 22-C ) :   0.9441 B( 21-N , 24-C ) :   1.0633
B( 22-C , 23-C ) :   1.1192 B( 22-C , 66-H ) :   0.9279 B( 22-C , 67-H ) :   0.9500
B( 23-C , 68-H ) :   0.9637 B( 23-C , 69-H ) :   0.9682 B( 23-C , 70-H ) :   0.9689
B( 24-C , 25-O ) :   2.0189 B( 24-C , 26-C ) :   0.9867 B( 25-O , 77-H ) :   0.1156
B( 26-C , 27-C ) :   1.2801 B( 26-C , 33-C ) :   1.3010 B( 27-C , 28-C ) :   0.9765
B( 28-C , 29-O ) :   2.0449 B( 28-C , 30-N ) :   1.0605 B( 29-O , 64-H ) :   0.1080
B( 30-N , 31-C ) :   0.9380 B( 30-N , 33-C ) :   1.1619 B( 31-C , 32-C ) :   1.1210
B( 31-C , 71-H ) :   0.9502 B( 31-C , 72-H ) :   0.9281 B( 32-C , 73-H ) :   0.9688
B( 32-C , 74-H ) :   0.9680 B( 32-C , 75-H ) :   0.9638 B( 33-C , 34-C ) :   1.1797
B( 34-C , 35-C ) :   1.5503 B( 34-C , 76-H ) :   0.9666 B( 35-C , 36-C ) :   1.1276
B( 35-C , 77-H ) :   0.9532 B( 36-C , 37-C ) :   1.5057 B( 36-C , 40-C ) :   1.0335
B( 37-C , 38-C ) :   1.1502 B( 37-C , 78-H ) :   0.9943 B( 38-C , 39-C ) :   1.1004
B( 38-C , 43-C ) :   1.3833 B( 39-C , 40-C ) :   1.6665 B( 39-C , 41-C ) :   1.0879
B( 40-C , 79-H ) :   1.0272 B( 41-C , 42-N ) :   2.9664 B( 43-C , 44-C ) :   1.1300
B( 43-C , 47-C ) :   1.1090 B( 44-C , 45-C ) :   1.5052 B( 44-C , 80-H ) :   1.0080
B( 45-C , 46-C ) :   1.0488 B( 45-C , 50-C ) :   1.1277 B( 46-C , 47-C ) :   1.6806
B( 46-C , 81-H ) :   1.0110 B( 47-C , 48-C ) :   1.0911 B( 48-C , 49-N ) :   2.9608
B( 50-C , 51-C ) :   1.6628 B( 50-C , 82-H ) :   0.9797 B( 51-C , 52-C ) :   1.0221
B( 51-C , 83-H ) :   0.9485 B( 52-C , 53-C ) :   2.2789 B( 53-C , 54-C ) :   0.9605
B( 54-C , 55-C ) :   1.4491 B( 54-C , 57-C ) :   0.1453 B( 54-C , 58-S ) :   1.1035
B( 55-C , 56-C ) :   1.2150 B( 55-C , 62-F ) :   1.2058 B( 56-C , 57-C ) :   1.4612
B( 56-C , 61-F ) :   1.2168 B( 57-C , 58-S ) :   1.1179 B( 57-C , 59-C ) :   1.1906
B( 59-C , 60-N ) :   3.0169

-----------------------------------------------------------------------------
         ABSORPTION SPECTRUM VIA TRANSITION ELECTRIC DIPOLE MOMENTS
-----------------------------------------------------------------------------
State   Energy  Wavelength   fosc         T2         TX        TY        TZ
        (cm-1)    (nm)                  (au**2)     (au)      (au)      (au)
-----------------------------------------------------------------------------
   0    8822.4   1133.5   1.041832173  38.87649  -3.00799  -5.40479   0.78529
   1   15100.3    662.2   0.197621793   4.30848  -1.23116  -1.65847   0.20543
   2   16255.8    615.2   0.360867332   7.30828  -1.24547  -2.36291   0.41683
   3   18161.5    550.6   0.002463168   0.04465   0.18028   0.06475  -0.08920
   4   22905.6    436.6   0.638331327   9.17445   1.04553   2.83558  -0.20203
   5   23152.9    431.9   0.327644618   4.65879  -0.95195  -1.93635   0.05578
   6   24332.9    411.0   0.062907391   0.85110   0.30159   0.87123  -0.03322
   7   25315.6    395.0   0.234013021   3.04318  -0.68193  -1.60247   0.10128
   8   26462.0    377.9   0.000482269   0.00600   0.01209   0.03914   0.06574
   9   27434.9    364.5   0.478726926   5.74460   0.81901   2.25148  -0.06823
  10   28307.5    353.3   0.217573083   2.53034   1.04190   1.13055  -0.40823
  11   28355.6    352.7   0.261415871   3.03507   0.91734   1.48063  -0.03581
  12   28993.0    344.9   0.087992638   0.99914  -0.11271   0.98318   0.14068
  13   29646.9    337.3   0.002257712   0.02507   0.14146  -0.00123  -0.07112
  14   29884.5    334.6   0.037852122   0.41698  -0.55138   0.27158   0.19800
  15   31542.8    317.0   0.038617603   0.40305   0.11035   0.62506   0.01309
  16   31845.1    314.0   0.019577200   0.20239  -0.28596  -0.34574  -0.03278
  17   31930.7    313.2   0.334688219   3.45071   0.38356   1.81370   0.11870
  18   33256.6    300.7   0.160247780   1.58632   1.10657  -0.43196  -0.41861
  19   33931.0    294.7   0.013135335   0.12744  -0.33567  -0.06642   0.10176
  20   34296.6    291.6   0.000655044   0.00629  -0.03122  -0.04158   0.05987
  21   34837.1    287.0   0.000576763   0.00545   0.02007  -0.06896  -0.01712
  22   34874.2    286.7   0.008710220   0.08222  -0.10136   0.26056   0.06373
  23   34990.7    285.8   0.001979687   0.01863   0.11406  -0.06410  -0.03883
  24   35709.5    280.0   0.257044016   2.36973   1.27089   0.75911  -0.42228
  25   36162.5    276.5   0.000034602   0.00032  -0.01135  -0.01165   0.00711
  26   36984.5    270.4   0.074464320   0.66283   0.65995  -0.40599  -0.24995
  27   37423.8    267.2   0.031281882   0.27518  -0.20788   0.46915   0.10894
  28   37735.8    265.0   0.058472718   0.51012   0.16683  -0.68447  -0.11744
  29   37771.6    264.7   0.039675549   0.34581  -0.11544   0.57182   0.07417
  30   38469.1    259.9   0.026126973   0.22359   0.22806  -0.40562  -0.08396
  31   38539.7    259.5   0.008490653   0.07253   0.19694  -0.16161  -0.08732
  32   38757.4    258.0   0.196601480   1.66997   0.56713  -1.12904  -0.27129
  33   39989.5    250.1   0.052070727   0.42867  -0.57329  -0.27250   0.16045
  34   40185.2    248.8   0.093055086   0.76234   0.78797  -0.23116  -0.29667

FINAL SINGLE POINT ENERGY     -3927.274431299084

DIPOLE MOMENT
-------------
                                X             Y             Z
Electronic contribution:    -14.45455       9.52790       9.94558
Nuclear contribution   :     13.95243     -10.53762      -9.92721
                        -----------------------------------------
Total Dipole Moment    :     -0.50212      -1.00973       0.01837
                        -----------------------------------------
Magnitude (a.u.)       :      1.12784
Magnitude (Debye)      :      2.86673

Rotational constants in cm-1:     0.004675     0.000170     0.000165
Rotational constants in MHz :   140.158620     5.105722     4.937029

                             ****ORCA TERMINATED NORMALLY****
TOTAL RUN TIME: 0 days 0 hours 7 minutes 24 seconds 184 msec
