                         Program Version 4.2.0 -  RELEASE  -
|  1> # ORCA input file
|  2> # SCF done       -195.689577856964          0.000975423480
|  3> ! CAM-B3LYP def2-SVP def2/J RIJCOSX Grid4 TightSCF
|  4> %maxcore 5000
|  5> %tddft
|  6>     Mode sTDDFT
|  7>     Ethresh 5.0
|  8>     maxcore 5000
|  9> end
| 10>
| 11> %pal
| 12>   nprocs 6
| 13>   end
| 14> * xyz 0 1
| 15>    C       -6.39395        -0.76236         1.28480
| 16>    C       -6.47737        -1.30623         2.64818
| 17>    O       -6.15732        -2.41925         3.02194
| 18>    C       -7.03023        -0.22566         3.48496
| 19>    C       -7.25639         0.91154         2.68866
| 20>    C       -6.85817         0.61614         1.31475
| 21>    C       -6.91557         1.49659         0.26759
| 22>    C       -7.37930         2.82610         0.37721
| 23>    N       -7.74851         3.91237         0.39411
| 24>    C       -6.52215         1.22811        -1.06120
| 25>    N       -6.22137         1.09145        -2.16094
| 26>    C       -7.78375         2.05464         3.27345
| 27>    C       -8.07191         2.04132         4.62935
| 28>    C       -7.83932         0.90689         5.40075
| 29>    C       -7.31203        -0.24878         4.83518
| 30>   Cl       -8.21226         0.93560         7.08056
| 31>    C       -5.97145        -1.44791         0.17890
| 32>    C       -5.53486        -2.78053         0.04977
| 33>    S       -5.38347        -3.97769         1.30796
| 34>    C       -4.86325        -5.17943         0.17210
| 35>    C       -4.78850        -4.65564        -1.12905
| 36>    C       -5.16519        -3.31614        -1.18165
| 37>    C       -4.31869        -5.34304        -2.26429
| 38>    N       -3.90731        -5.84868        -3.20769
| 39>    C       -4.59856        -6.48901         0.64247
| 40>    C       -4.49911        -7.59045        -0.14870
| 41>    C       -4.26964        -8.93359         0.23709
| 42>    N       -3.73863        -9.43749         1.39934
| 43>    C       -3.21492        -8.72177         2.53869
| 44>    C       -4.27145        -8.54034         3.62678
| 45>    C       -3.68132       -10.84750         1.37973
| 46>    O       -3.22873       -11.50632         2.29233
| 47>    C       -4.23934       -11.21746         0.09674
| 48>    C       -4.56999       -10.02784        -0.57947
| 49>    C       -5.17398       -10.37411        -1.85091
| 50>    O       -5.63350        -9.70166        -2.74467
| 51>    N       -5.15698       -11.78455        -1.85798
| 52>    C       -5.62443       -12.52589        -3.00449
| 53>    C       -4.46816       -13.04280        -3.85654
| 54>    C       -4.60859       -12.30447        -0.70980
| 55>    C       -4.51421       -13.68377        -0.43955
| 56>    C       -3.91609       -14.18384         0.68269
| 57>    C       -3.85077       -15.55644         1.00392
| 58>    C       -3.19341       -16.10151         2.09406
| 59>    C       -3.38598       -17.50713         2.10725
| 60>    C       -4.22919       -17.81386         0.93415
| 61>    C       -4.48506       -16.65217         0.28078
| 62>    C       -4.70237       -19.06943         0.53610
| 63>    N       -5.11680       -20.07816         0.17461
| 64>    C       -2.90222       -18.42591         3.01528
| 65>    C       -3.16314       -19.82280         3.05376
| 66>    C       -2.49450       -20.38561         4.12282
| 67>    C       -1.76560       -19.32152         4.79835
| 68>    C       -2.00627       -18.15043         4.15303
| 69>    C       -1.46941       -16.91011         4.51796
| 70>    N       -1.01346       -15.90992         4.85077
| 71>    C       -2.51670       -21.75875         4.46379
| 72>    C       -1.87487       -22.31717         5.52577
| 73>    C       -1.93874       -23.68590         5.88401
| 74>    C       -2.24816       -24.78643         5.14045
| 75>    C       -2.65429       -26.02994         5.85814
| 76>    O       -2.53187       -26.25374         7.03877
| 77>    C       -3.27793       -26.88553         4.82637
| 78>    C       -3.12819       -26.27932         3.56560
| 79>    C       -2.35722       -25.04661         3.71939
| 80>    C       -1.67397       -24.42094         2.70978
| 81>    C       -1.73372       -24.81919         1.35740
| 82>    N       -1.75060       -25.09772         0.24446
| 83>    C       -0.77032       -23.35790         2.90822
| 84>    N       -0.00549       -22.51003         3.02291
| 85>    C       -3.67426       -26.88608         2.44422
| 86>    C       -4.34625       -28.08881         2.59745
| 87>    C       -4.46920       -28.68448         3.84885
| 88>    C       -3.93735       -28.08686         4.98624
| 89>   Cl       -5.30083       -30.18536         3.99045
| 90>    H       -7.97495         2.94705         2.70085
| 91>    H       -8.48318         2.92226         5.09656
| 92>    H       -7.12785        -1.13461         5.42207
| 93>    H       -5.97382        -0.91425        -0.76373
| 94>    H       -5.17215        -2.73859        -2.09014
| 95>    H       -4.55776        -6.57393         1.71819
| 96>    H       -4.67960        -7.48592        -1.21121
| 97>    H       -2.80821        -7.76543         2.20416
| 98>    H       -2.39971        -9.33207         2.93969
| 99>    H       -5.15593        -8.03545         3.24370
|100>    H       -3.86027        -7.95782         4.44643
|101>    H       -4.57122        -9.51309         4.00809
|102>    H       -6.22629       -11.82457        -3.58917
|103>    H       -6.26623       -13.34815        -2.67487
|104>    H       -3.87039       -12.20849        -4.21475
|105>    H       -4.85720       -13.58404        -4.71439
|106>    H       -3.82523       -13.70797        -3.28398
|107>    H       -4.94188       -14.36064        -1.16468
|108>    H       -3.45960       -13.50100         1.38753
|109>    H       -2.63078       -15.54784         2.82009
|110>    H       -5.07215       -16.55663        -0.61347
|111>    H       -3.78655       -20.35088         2.35909
|112>    H       -1.13701       -19.44588         5.65956
|113>    H       -3.13684       -22.38307         3.83226
|114>    H       -1.33830       -21.67572         6.21065
|115>    H       -1.78163       -23.90392         6.93737
|116>    H       -3.59841       -26.43825         1.46662
|117>    H       -4.78108       -28.57265         1.73703
|118>    H       -4.03238       -28.53867         5.96085
|119> *
|120>
|121>                          ****END OF INPUT****

CARTESIAN COORDINATES (ANGSTROEM)
---------------------------------
  C     -6.393950   -0.762360    1.284800
  C     -6.477370   -1.306230    2.648180
  O     -6.157320   -2.419250    3.021940
  C     -7.030230   -0.225660    3.484960
  C     -7.256390    0.911540    2.688660
  C     -6.858170    0.616140    1.314750
  C     -6.915570    1.496590    0.267590
  C     -7.379300    2.826100    0.377210
  N     -7.748510    3.912370    0.394110
  C     -6.522150    1.228110   -1.061200
  N     -6.221370    1.091450   -2.160940
  C     -7.783750    2.054640    3.273450
  C     -8.071910    2.041320    4.629350
  C     -7.839320    0.906890    5.400750
  C     -7.312030   -0.248780    4.835180
  Cl    -8.212260    0.935600    7.080560
  C     -5.971450   -1.447910    0.178900
  C     -5.534860   -2.780530    0.049770
  S     -5.383470   -3.977690    1.307960
  C     -4.863250   -5.179430    0.172100
  C     -4.788500   -4.655640   -1.129050
  C     -5.165190   -3.316140   -1.181650
  C     -4.318690   -5.343040   -2.264290
  N     -3.907310   -5.848680   -3.207690
  C     -4.598560   -6.489010    0.642470
  C     -4.499110   -7.590450   -0.148700
  C     -4.269640   -8.933590    0.237090
  N     -3.738630   -9.437490    1.399340
  C     -3.214920   -8.721770    2.538690
  C     -4.271450   -8.540340    3.626780
  C     -3.681320  -10.847500    1.379730
  O     -3.228730  -11.506320    2.292330
  C     -4.239340  -11.217460    0.096740
  C     -4.569990  -10.027840   -0.579470
  C     -5.173980  -10.374110   -1.850910
  O     -5.633500   -9.701660   -2.744670
  N     -5.156980  -11.784550   -1.857980
  C     -5.624430  -12.525890   -3.004490
  C     -4.468160  -13.042800   -3.856540
  C     -4.608590  -12.304470   -0.709800
  C     -4.514210  -13.683770   -0.439550
  C     -3.916090  -14.183840    0.682690
  C     -3.850770  -15.556440    1.003920
  C     -3.193410  -16.101510    2.094060
  C     -3.385980  -17.507130    2.107250
  C     -4.229190  -17.813860    0.934150
  C     -4.485060  -16.652170    0.280780
  C     -4.702370  -19.069430    0.536100
  N     -5.116800  -20.078160    0.174610
  C     -2.902220  -18.425910    3.015280
  C     -3.163140  -19.822800    3.053760
  C     -2.494500  -20.385610    4.122820
  C     -1.765600  -19.321520    4.798350
  C     -2.006270  -18.150430    4.153030
  C     -1.469410  -16.910110    4.517960
  N     -1.013460  -15.909920    4.850770
  C     -2.516700  -21.758750    4.463790
  C     -1.874870  -22.317170    5.525770
  C     -1.938740  -23.685900    5.884010
  C     -2.248160  -24.786430    5.140450
  C     -2.654290  -26.029940    5.858140
  O     -2.531870  -26.253740    7.038770
  C     -3.277930  -26.885530    4.826370
  C     -3.128190  -26.279320    3.565600
  C     -2.357220  -25.046610    3.719390
  C     -1.673970  -24.420940    2.709780
  C     -1.733720  -24.819190    1.357400
  N     -1.750600  -25.097720    0.244460
  C     -0.770320  -23.357900    2.908220
  N     -0.005490  -22.510030    3.022910
  C     -3.674260  -26.886080    2.444220
  C     -4.346250  -28.088810    2.597450
  C     -4.469200  -28.684480    3.848850
  C     -3.937350  -28.086860    4.986240
  Cl    -5.300830  -30.185360    3.990450
  H     -7.974950    2.947050    2.700850
  H     -8.483180    2.922260    5.096560
  H     -7.127850   -1.134610    5.422070
  H     -5.973820   -0.914250   -0.763730
  H     -5.172150   -2.738590   -2.090140
  H     -4.557760   -6.573930    1.718190
  H     -4.679600   -7.485920   -1.211210
  H     -2.808210   -7.765430    2.204160
  H     -2.399710   -9.332070    2.939690
  H     -5.155930   -8.035450    3.243700
  H     -3.860270   -7.957820    4.446430
  H     -4.571220   -9.513090    4.008090
  H     -6.226290  -11.824570   -3.589170
  H     -6.266230  -13.348150   -2.674870
  H     -3.870390  -12.208490   -4.214750
  H     -4.857200  -13.584040   -4.714390
  H     -3.825230  -13.707970   -3.283980
  H     -4.941880  -14.360640   -1.164680
  H     -3.459600  -13.501000    1.387530
  H     -2.630780  -15.547840    2.820090
  H     -5.072150  -16.556630   -0.613470
  H     -3.786550  -20.350880    2.359090
  H     -1.137010  -19.445880    5.659560
  H     -3.136840  -22.383070    3.832260
  H     -1.338300  -21.675720    6.210650
  H     -1.781630  -23.903920    6.937370
  H     -3.598410  -26.438250    1.466620
  H     -4.781080  -28.572650    1.737030
  H     -4.032380  -28.538670    5.960850

 Total Charge           Charge          ....    0
 Multiplicity           Mult            ....    1
 Number of Electrons    NEL             ....  528
 Basis Dimension        Dim             .... 1207

ORBITAL ENERGIES
----------------

  NO   OCC          E(Eh)            E(eV)
   0   2.0000    -101.604396     -2764.7962
   1   2.0000    -101.600611     -2764.6932
   2   2.0000     -88.986817     -2421.4544
   3   2.0000     -19.239510      -523.5337
   4   2.0000     -19.227301      -523.2014
   5   2.0000     -19.202671      -522.5312
   6   2.0000     -19.200853      -522.4818
   7   2.0000     -14.464758      -393.6061
   8   2.0000     -14.463873      -393.5820
   9   2.0000     -14.429040      -392.6341
  10   2.0000     -14.425044      -392.5254
  11   2.0000     -14.424937      -392.5225
  12   2.0000     -14.423006      -392.4699
  13   2.0000     -14.418473      -392.3466
  14   2.0000     -14.413938      -392.2232
  15   2.0000     -14.413662      -392.2157
  16   2.0000     -10.386920      -282.6425
  17   2.0000     -10.384715      -282.5825
  18   2.0000     -10.384477      -282.5760
  19   2.0000     -10.377457      -282.3850
  20   2.0000     -10.358568      -281.8710
  21   2.0000     -10.355857      -281.7972
  22   2.0000     -10.355547      -281.7888
  23   2.0000     -10.354685      -281.7653
  24   2.0000     -10.354432      -281.7584
  25   2.0000     -10.354236      -281.7531
  26   2.0000     -10.352460      -281.7048
  27   2.0000     -10.349008      -281.6108
  28   2.0000     -10.339957      -281.3645
  29   2.0000     -10.338411      -281.3225
  30   2.0000     -10.334320      -281.2112
  31   2.0000     -10.333799      -281.1970
  32   2.0000     -10.332369      -281.1581
  33   2.0000     -10.331123      -281.1241
  34   2.0000     -10.328136      -281.0429
  35   2.0000     -10.327435      -281.0238
  36   2.0000     -10.327050      -281.0133
  37   2.0000     -10.325529      -280.9719
  38   2.0000     -10.325049      -280.9589
  39   2.0000     -10.324612      -280.9470
  40   2.0000     -10.323802      -280.9249
  41   2.0000     -10.320354      -280.8311
  42   2.0000     -10.320225      -280.8276
  43   2.0000     -10.319905      -280.8189
  44   2.0000     -10.319265      -280.8015
  45   2.0000     -10.317484      -280.7530
  46   2.0000     -10.317406      -280.7509
  47   2.0000     -10.317250      -280.7467
  48   2.0000     -10.316739      -280.7327
  49   2.0000     -10.316625      -280.7296
  50   2.0000     -10.315037      -280.6864
  51   2.0000     -10.314332      -280.6673
  52   2.0000     -10.314042      -280.6593
  53   2.0000     -10.313646      -280.6486
  54   2.0000     -10.313172      -280.6357
  55   2.0000     -10.312347      -280.6132
  56   2.0000     -10.312221      -280.6098
  57   2.0000     -10.312052      -280.6052
  58   2.0000     -10.311782      -280.5979
  59   2.0000     -10.311478      -280.5896
  60   2.0000     -10.310315      -280.5579
  61   2.0000     -10.310239      -280.5559
  62   2.0000     -10.309764      -280.5429
  63   2.0000     -10.309689      -280.5409
  64   2.0000     -10.309263      -280.5293
  65   2.0000     -10.308769      -280.5159
  66   2.0000     -10.308730      -280.5148
  67   2.0000     -10.307130      -280.4713
  68   2.0000     -10.306618      -280.4573
  69   2.0000     -10.298054      -280.2243
  70   2.0000     -10.295956      -280.1672
  71   2.0000     -10.276490      -279.6375
  72   2.0000     -10.275514      -279.6109
  73   2.0000     -10.271415      -279.4994
  74   2.0000     -10.270469      -279.4737
  75   2.0000      -9.559516      -260.1276
  76   2.0000      -9.555723      -260.0244
  77   2.0000      -8.080269      -219.8753
  78   2.0000      -7.329739      -199.4523
  79   2.0000      -7.325944      -199.3491
  80   2.0000      -7.319776      -199.1812
  81   2.0000      -7.319224      -199.1662
  82   2.0000      -7.315981      -199.0780
  83   2.0000      -7.315445      -199.0634
  84   2.0000      -6.049630      -164.6188
  85   2.0000      -6.045046      -164.4941
  86   2.0000      -6.042621      -164.4281
  87   2.0000      -1.154891       -31.4262
  88   2.0000      -1.144957       -31.1559
  89   2.0000      -1.142619       -31.0922
  90   2.0000      -1.138269       -30.9739
  91   2.0000      -1.075154       -29.2564
  92   2.0000      -1.066181       -29.0123
  93   2.0000      -1.032611       -28.0988
  94   2.0000      -1.029213       -28.0063
  95   2.0000      -1.025512       -27.9056
  96   2.0000      -1.023741       -27.8574
  97   2.0000      -1.017530       -27.6884
  98   2.0000      -1.013475       -27.5780
  99   2.0000      -1.008972       -27.4555
 100   2.0000      -1.005205       -27.3530
 101   2.0000      -1.002188       -27.2709
 102   2.0000      -0.995221       -27.0813
 103   2.0000      -0.994047       -27.0494
 104   2.0000      -0.992281       -27.0013
 105   2.0000      -0.990415       -26.9506
 106   2.0000      -0.989280       -26.9197
 107   2.0000      -0.946666       -25.7601
 108   2.0000      -0.945767       -25.7356
 109   2.0000      -0.940568       -25.5941
 110   2.0000      -0.932693       -25.3799
 111   2.0000      -0.930277       -25.3141
 112   2.0000      -0.924410       -25.1545
 113   2.0000      -0.914494       -24.8846
 114   2.0000      -0.906498       -24.6671
 115   2.0000      -0.897632       -24.4258
 116   2.0000      -0.886159       -24.1136
 117   2.0000      -0.881936       -23.9987
 118   2.0000      -0.875644       -23.8275
 119   2.0000      -0.871616       -23.7179
 120   2.0000      -0.869973       -23.6732
 121   2.0000      -0.866484       -23.5782
 122   2.0000      -0.859572       -23.3902
 123   2.0000      -0.849707       -23.1217
 124   2.0000      -0.840776       -22.8787
 125   2.0000      -0.830203       -22.5910
 126   2.0000      -0.817796       -22.2534
 127   2.0000      -0.808278       -21.9944
 128   2.0000      -0.791630       -21.5413
 129   2.0000      -0.782926       -21.3045
 130   2.0000      -0.778477       -21.1834
 131   2.0000      -0.776097       -21.1187
 132   2.0000      -0.769595       -20.9417
 133   2.0000      -0.768640       -20.9158
 134   2.0000      -0.743185       -20.2231
 135   2.0000      -0.740050       -20.1378
 136   2.0000      -0.729541       -19.8518
 137   2.0000      -0.723726       -19.6936
 138   2.0000      -0.719515       -19.5790
 139   2.0000      -0.714356       -19.4386
 140   2.0000      -0.708370       -19.2757
 141   2.0000      -0.707446       -19.2506
 142   2.0000      -0.699504       -19.0345
 143   2.0000      -0.697657       -18.9842
 144   2.0000      -0.691890       -18.8273
 145   2.0000      -0.691122       -18.8064
 146   2.0000      -0.683290       -18.5933
 147   2.0000      -0.677511       -18.4360
 148   2.0000      -0.668388       -18.1878
 149   2.0000      -0.661738       -18.0068
 150   2.0000      -0.659259       -17.9393
 151   2.0000      -0.650325       -17.6962
 152   2.0000      -0.646479       -17.5916
 153   2.0000      -0.632774       -17.2187
 154   2.0000      -0.630530       -17.1576
 155   2.0000      -0.627117       -17.0647
 156   2.0000      -0.625127       -17.0106
 157   2.0000      -0.620013       -16.8714
 158   2.0000      -0.612996       -16.6805
 159   2.0000      -0.601391       -16.3647
 160   2.0000      -0.597562       -16.2605
 161   2.0000      -0.592630       -16.1263
 162   2.0000      -0.592366       -16.1191
 163   2.0000      -0.590303       -16.0630
 164   2.0000      -0.584030       -15.8923
 165   2.0000      -0.577236       -15.7074
 166   2.0000      -0.574881       -15.6433
 167   2.0000      -0.569266       -15.4905
 168   2.0000      -0.564447       -15.3594
 169   2.0000      -0.562236       -15.2992
 170   2.0000      -0.556106       -15.1324
 171   2.0000      -0.555962       -15.1285
 172   2.0000      -0.555261       -15.1094
 173   2.0000      -0.552709       -15.0400
 174   2.0000      -0.548182       -14.9168
 175   2.0000      -0.547602       -14.9010
 176   2.0000      -0.545434       -14.8420
 177   2.0000      -0.542509       -14.7624
 178   2.0000      -0.541289       -14.7292
 179   2.0000      -0.539140       -14.6707
 180   2.0000      -0.536427       -14.5969
 181   2.0000      -0.532084       -14.4787
 182   2.0000      -0.530920       -14.4471
 183   2.0000      -0.529907       -14.4195
 184   2.0000      -0.528288       -14.3754
 185   2.0000      -0.526138       -14.3169
 186   2.0000      -0.523366       -14.2415
 187   2.0000      -0.522637       -14.2217
 188   2.0000      -0.521134       -14.1808
 189   2.0000      -0.514708       -14.0059
 190   2.0000      -0.512074       -13.9343
 191   2.0000      -0.511626       -13.9220
 192   2.0000      -0.510271       -13.8852
 193   2.0000      -0.509353       -13.8602
 194   2.0000      -0.507149       -13.8002
 195   2.0000      -0.500222       -13.6117
 196   2.0000      -0.499453       -13.5908
 197   2.0000      -0.498291       -13.5592
 198   2.0000      -0.496221       -13.5029
 199   2.0000      -0.495457       -13.4821
 200   2.0000      -0.491053       -13.3622
 201   2.0000      -0.483626       -13.1601
 202   2.0000      -0.481739       -13.1088
 203   2.0000      -0.479826       -13.0567
 204   2.0000      -0.479290       -13.0421
 205   2.0000      -0.475836       -12.9482
 206   2.0000      -0.473558       -12.8862
 207   2.0000      -0.471738       -12.8366
 208   2.0000      -0.469641       -12.7796
 209   2.0000      -0.467892       -12.7320
 210   2.0000      -0.466751       -12.7010
 211   2.0000      -0.463926       -12.6241
 212   2.0000      -0.462347       -12.5811
 213   2.0000      -0.460146       -12.5212
 214   2.0000      -0.459859       -12.5134
 215   2.0000      -0.456905       -12.4330
 216   2.0000      -0.456855       -12.4317
 217   2.0000      -0.455184       -12.3862
 218   2.0000      -0.453619       -12.3436
 219   2.0000      -0.451605       -12.2888
 220   2.0000      -0.448933       -12.2161
 221   2.0000      -0.447306       -12.1718
 222   2.0000      -0.446971       -12.1627
 223   2.0000      -0.446017       -12.1367
 224   2.0000      -0.444597       -12.0981
 225   2.0000      -0.442126       -12.0309
 226   2.0000      -0.440959       -11.9991
 227   2.0000      -0.440290       -11.9809
 228   2.0000      -0.438682       -11.9371
 229   2.0000      -0.437706       -11.9106
 230   2.0000      -0.436318       -11.8728
 231   2.0000      -0.434176       -11.8145
 232   2.0000      -0.433143       -11.7864
 233   2.0000      -0.430291       -11.7088
 234   2.0000      -0.429266       -11.6809
 235   2.0000      -0.425671       -11.5831
 236   2.0000      -0.423719       -11.5300
 237   2.0000      -0.419910       -11.4263
 238   2.0000      -0.418787       -11.3958
 239   2.0000      -0.412095       -11.2137
 240   2.0000      -0.411452       -11.1962
 241   2.0000      -0.405221       -11.0266
 242   2.0000      -0.401346       -10.9212
 243   2.0000      -0.398168       -10.8347
 244   2.0000      -0.396909       -10.8004
 245   2.0000      -0.391403       -10.6506
 246   2.0000      -0.376808       -10.2535
 247   2.0000      -0.363542        -9.8925
 248   2.0000      -0.358656        -9.7595
 249   2.0000      -0.357892        -9.7387
 250   2.0000      -0.357566        -9.7299
 251   2.0000      -0.352930        -9.6037
 252   2.0000      -0.352525        -9.5927
 253   2.0000      -0.345020        -9.3885
 254   2.0000      -0.344641        -9.3782
 255   2.0000      -0.342248        -9.3130
 256   2.0000      -0.331682        -9.0255
 257   2.0000      -0.327881        -8.9221
 258   2.0000      -0.321479        -8.7479
 259   2.0000      -0.317152        -8.6301
 260   2.0000      -0.312269        -8.4973
 261   2.0000      -0.299770        -8.1572
 262   2.0000      -0.287186        -7.8147
 263   2.0000      -0.244063        -6.6413
 264   0.0000      -0.143371        -3.9013
 265   0.0000      -0.110533        -3.0078
 266   0.0000      -0.092106        -2.5063
 267   0.0000      -0.083167        -2.2631
 268   0.0000      -0.072471        -1.9720

MULLIKEN ATOMIC CHARGES
-----------------------
   0 C :   -0.089629
   1 C :    0.168588
   2 O :   -0.174276
   3 C :   -0.025257
   4 C :    0.032508
   5 C :    0.322738
   6 C :   -0.347020
   7 C :   -0.189248
   8 N :    0.161573
   9 C :   -0.184169
  10 N :    0.152658
  11 C :   -0.028474
  12 C :    0.052608
  13 C :    0.069812
  14 C :   -0.011285
  15 Cl:   -0.063014
  16 C :   -0.009895
  17 C :   -0.054560
  18 S :    0.212307
  19 C :   -0.055338
  20 C :   -0.036814
  21 C :    0.006441
  22 C :   -0.184677
  23 N :    0.150796
  24 C :    0.037145
  25 C :   -0.029638
  26 C :    0.100973
  27 N :   -0.262845
  28 C :    0.106586
  29 C :    0.000435
  30 C :    0.159074
  31 O :   -0.199790
  32 C :   -0.058535
  33 C :   -0.034591
  34 C :    0.152434
  35 O :   -0.170079
  36 N :   -0.265906
  37 C :    0.095603
  38 C :    0.000655
  39 C :    0.157284
  40 C :   -0.029434
  41 C :    0.016392
  42 C :    0.106202
  43 C :   -0.098268
  44 C :    0.122841
  45 C :   -0.094549
  46 C :   -0.007869
  47 C :   -0.172570
  48 N :    0.137201
  49 C :    0.114677
  50 C :   -0.096746
  51 C :    0.099277
  52 C :    0.009206
  53 C :   -0.094257
  54 C :   -0.182033
  55 N :    0.145877
  56 C :    0.034300
  57 C :    0.014380
  58 C :    0.044737
  59 C :   -0.118108
  60 C :    0.135818
  61 O :   -0.133733
  62 C :   -0.005623
  63 C :    0.014787
  64 C :    0.261821
  65 C :   -0.326158
  66 C :   -0.180523
  67 N :    0.167036
  68 C :   -0.198557
  69 N :    0.175208
  70 C :   -0.027264
  71 C :    0.050992
  72 C :    0.069830
  73 C :   -0.013396
  74 Cl:   -0.065283
  75 H :    0.009270
  76 H :    0.002807
  77 H :   -0.002700
  78 H :    0.012947
  79 H :    0.021526
  80 H :   -0.015725
  81 H :    0.037419
  82 H :    0.026205
  83 H :    0.042472
  84 H :    0.019567
  85 H :    0.026147
  86 H :    0.035270
  87 H :    0.049586
  88 H :    0.023175
  89 H :    0.035561
  90 H :    0.028031
  91 H :    0.015051
  92 H :   -0.026769
  93 H :    0.021897
  94 H :    0.020110
  95 H :    0.001306
  96 H :    0.005126
  97 H :    0.003712
  98 H :    0.013039
  99 H :    0.005534
 100 H :    0.032362
 101 H :    0.013562
 102 H :    0.002376
 103 H :   -0.000253
Sum of atomic charges:   -0.0000000

LOEWDIN ATOMIC CHARGES
----------------------
   0 C :   -0.104438
   1 C :    0.087575
   2 O :   -0.159366
   3 C :   -0.038315
   4 C :   -0.017654
   5 C :    0.075126
   6 C :   -0.133402
   7 C :   -0.019103
   8 N :   -0.044740
   9 C :   -0.021156
  10 N :   -0.044549
  11 C :    0.010642
  12 C :   -0.015601
  13 C :   -0.105388
  14 C :   -0.004164
  15 Cl:    0.148140
  16 C :    0.059799
  17 C :   -0.187441
  18 S :    0.529595
  19 C :   -0.131594
  20 C :   -0.108185
  21 C :    0.018841
  22 C :   -0.035973
  23 N :   -0.039874
  24 C :   -0.041524
  25 C :    0.002764
  26 C :    0.063436
  27 N :    0.001066
  28 C :    0.036966
  29 C :   -0.062349
  30 C :    0.080620
  31 O :   -0.191310
  32 C :   -0.116988
  33 C :   -0.099367
  34 C :    0.081054
  35 O :   -0.174980
  36 N :   -0.003885
  37 C :    0.036026
  38 C :   -0.060515
  39 C :    0.083405
  40 C :   -0.038303
  41 C :    0.040941
  42 C :   -0.018198
  43 C :   -0.005995
  44 C :    0.038795
  45 C :   -0.075227
  46 C :    0.053007
  47 C :   -0.030859
  48 N :   -0.058478
  49 C :    0.036400
  50 C :   -0.005253
  51 C :   -0.016095
  52 C :    0.059027
  53 C :   -0.075745
  54 C :   -0.032397
  55 N :   -0.053719
  56 C :    0.038064
  57 C :   -0.026216
  58 C :    0.062879
  59 C :   -0.082811
  60 C :    0.085255
  61 O :   -0.131168
  62 C :   -0.039968
  63 C :   -0.016545
  64 C :    0.062249
  65 C :   -0.133104
  66 C :   -0.021837
  67 N :   -0.041596
  68 C :   -0.016850
  69 N :   -0.036754
  70 C :    0.007963
  71 C :   -0.014945
  72 C :   -0.105964
  73 C :   -0.003639
  74 Cl:    0.146153
  75 H :    0.043738
  76 H :    0.040982
  77 H :    0.043665
  78 H :    0.052700
  79 H :    0.048676
  80 H :    0.031155
  81 H :    0.054855
  82 H :    0.025077
  83 H :    0.038417
  84 H :    0.019901
  85 H :    0.032128
  86 H :    0.035065
  87 H :    0.040221
  88 H :    0.022027
  89 H :    0.034891
  90 H :    0.032640
  91 H :    0.021435
  92 H :    0.028800
  93 H :    0.044768
  94 H :    0.041801
  95 H :    0.035609
  96 H :    0.036713
  97 H :    0.037992
  98 H :    0.039657
  99 H :    0.036017
 100 H :    0.049819
 101 H :    0.043874
 102 H :    0.040662
 103 H :    0.044453

  Mayer bond orders larger than 0.100000
B(  0-C ,  1-C ) :   0.9759 B(  0-C ,  5-C ) :   1.0667 B(  0-C , 16-C ) :   1.5318
B(  1-C ,  2-O ) :   2.1334 B(  1-C ,  3-C ) :   0.9590 B(  3-C ,  4-C ) :   1.3314
B(  3-C , 14-C ) :   1.3605 B(  4-C ,  5-C ) :   0.9931 B(  4-C , 11-C ) :   1.3633
B(  5-C ,  6-C ) :   1.6392 B(  6-C ,  7-C ) :   1.1428 B(  6-C ,  9-C ) :   1.1415
B(  7-C ,  8-N ) :   2.9754 B(  9-C , 10-N ) :   2.9576 B( 11-C , 12-C ) :   1.3737
B( 11-C , 75-H ) :   0.9822 B( 12-C , 13-C ) :   1.3816 B( 12-C , 76-H ) :   0.9868
B( 13-C , 14-C ) :   1.3315 B( 13-C , 15-Cl) :   0.9934 B( 14-C , 77-H ) :   1.0125
B( 16-C , 17-C ) :   1.2330 B( 16-C , 78-H ) :   0.9382 B( 17-C , 18-S ) :   1.0935
B( 17-C , 21-C ) :   1.3629 B( 18-S , 19-C ) :   1.1390 B( 19-C , 20-C ) :   1.3800
B( 19-C , 24-C ) :   1.1670 B( 20-C , 21-C ) :   1.3425 B( 20-C , 22-C ) :   1.0937
B( 21-C , 79-H ) :   1.0141 B( 22-C , 23-N ) :   3.0049 B( 24-C , 25-C ) :   1.5842
B( 24-C , 80-H ) :   0.9463 B( 25-C , 26-C ) :   1.2013 B( 25-C , 81-H ) :   0.9361
B( 26-C , 27-N ) :   1.1730 B( 26-C , 33-C ) :   1.3298 B( 27-N , 28-C ) :   0.9394
B( 27-N , 30-C ) :   1.0585 B( 28-C , 29-C ) :   1.1175 B( 28-C , 82-H ) :   0.9501
B( 28-C , 83-H ) :   0.9292 B( 29-C , 84-H ) :   0.9649 B( 29-C , 85-H ) :   0.9690
B( 29-C , 86-H ) :   0.9598 B( 30-C , 31-O ) :   2.0357 B( 30-C , 32-C ) :   0.9860
B( 31-O , 93-H ) :   0.1034 B( 32-C , 33-C ) :   1.2707 B( 32-C , 39-C ) :   1.3055
B( 33-C , 34-C ) :   0.9654 B( 34-C , 35-O ) :   2.1529 B( 34-C , 36-N ) :   1.0275
B( 36-N , 37-C ) :   0.9419 B( 36-N , 39-C ) :   1.1713 B( 37-C , 38-C ) :   1.1201
B( 37-C , 87-H ) :   0.9272 B( 37-C , 88-H ) :   0.9494 B( 38-C , 89-H ) :   0.9639
B( 38-C , 90-H ) :   0.9679 B( 38-C , 91-H ) :   0.9686 B( 39-C , 40-C ) :   1.1724
B( 40-C , 41-C ) :   1.5353 B( 40-C , 92-H ) :   0.9619 B( 41-C , 42-C ) :   1.1369
B( 41-C , 93-H ) :   0.9612 B( 42-C , 43-C ) :   1.4887 B( 42-C , 46-C ) :   1.0324
B( 43-C , 44-C ) :   1.1221 B( 43-C , 94-H ) :   1.0121 B( 44-C , 45-C ) :   1.0997
B( 44-C , 49-C ) :   1.3926 B( 45-C , 46-C ) :   1.6966 B( 45-C , 47-C ) :   1.0873
B( 46-C , 95-H ) :   1.0142 B( 47-C , 48-N ) :   2.9666 B( 49-C , 50-C ) :   1.1188
B( 49-C , 53-C ) :   1.1116 B( 50-C , 51-C ) :   1.5051 B( 50-C , 96-H ) :   1.0064
B( 51-C , 52-C ) :   1.0464 B( 51-C , 56-C ) :   1.1608 B( 52-C , 53-C ) :   1.6846
B( 52-C , 97-H ) :   1.0145 B( 53-C , 54-C ) :   1.0878 B( 54-C , 55-N ) :   2.9762
B( 56-C , 57-C ) :   1.6049 B( 56-C , 98-H ) :   0.9632 B( 57-C , 58-C ) :   1.1568
B( 57-C , 99-H ) :   0.9606 B( 58-C , 59-C ) :   1.6705 B( 58-C ,100-H ) :   0.9265
B( 59-C , 60-C ) :   0.9440 B( 59-C , 64-C ) :   1.0337 B( 60-C , 61-O ) :   2.2677
B( 60-C , 62-C ) :   0.9162 B( 62-C , 63-C ) :   1.3343 B( 62-C , 73-C ) :   1.3675
B( 63-C , 64-C ) :   1.0033 B( 63-C , 70-C ) :   1.3642 B( 64-C , 65-C ) :   1.6541
B( 65-C , 66-C ) :   1.1262 B( 65-C , 68-C ) :   1.1684 B( 66-C , 67-N ) :   2.9968
B( 68-C , 69-N ) :   2.9927 B( 70-C , 71-C ) :   1.3727 B( 70-C ,101-H ) :   0.9861
B( 71-C , 72-C ) :   1.3825 B( 71-C ,102-H ) :   0.9890 B( 72-C , 73-C ) :   1.3341
B( 72-C , 74-Cl) :   0.9924 B( 73-C ,103-H ) :   1.0120

-----------------------------------------------------------------------------
         ABSORPTION SPECTRUM VIA TRANSITION ELECTRIC DIPOLE MOMENTS
-----------------------------------------------------------------------------
State   Energy  Wavelength   fosc         T2         TX        TY        TZ
        (cm-1)    (nm)                  (au**2)     (au)      (au)      (au)
-----------------------------------------------------------------------------
   0    8973.0   1114.5   0.972064453  35.66425   0.93911  -5.81812   0.96529
   1   15500.9    645.1   0.220532446   4.68372   0.64640  -1.91548   0.77254
   2   15741.6    635.3   0.484613986  10.13498   0.16654  -2.89119  -1.32222
   3   18666.8    535.7   0.014945306   0.26358   0.31152  -0.11794   0.39067
   4   22015.1    454.2   0.276437008   4.13382  -0.71070   1.90481  -0.02052
   5   22337.9    447.7   0.198339506   2.92309  -0.14855  -1.70321   0.01052
   6   23193.1    431.2   0.534061701   7.58069   0.93848  -2.55943   0.38633
   7   23197.3    431.1   0.059376901   0.84266  -0.21752  -0.51190  -0.73028
   8   24163.6    413.8   0.007135168   0.09721   0.18352  -0.22793  -0.10761
   9   24498.1    408.2   0.026112953   0.35091  -0.29790  -0.21526   0.46458
  10   24950.3    400.8   0.268716116   3.54564   0.26833  -1.53832   1.05224
  11   25813.6    387.4   0.006911386   0.08814   0.08121  -0.28072   0.05238
  12   26157.4    382.3   0.057955519   0.72942  -0.15620   0.16750   0.82278
  13   27465.2    364.1   0.109938321   1.31778  -0.38141   0.98772   0.44353
  14   28207.8    354.5   0.072805721   0.84971   0.39422  -0.53551   0.63838
  15   28460.0    351.4   0.255066531   2.95049  -0.26351   1.50826  -0.77858
  16   28890.1    346.1   0.083225260   0.94838  -0.20512   0.40137   0.86325
  17   29102.0    343.6   0.042114605   0.47642  -0.11513  -0.33026   0.59506
  18   29157.3    343.0   0.035104210   0.39636   0.34311  -0.41739   0.32313
  19   29392.6    340.2   0.005531136   0.06195  -0.11384   0.07949   0.20658
  20   29491.2    339.1   0.025829282   0.28833   0.17890  -0.46966   0.18907
  21   30185.6    331.3   0.098582079   1.07516   0.36118   0.61041   0.75638
  22   31296.4    319.5   0.002545997   0.02678   0.09070  -0.08289  -0.10810
  23   31397.7    318.5   0.024142747   0.25314   0.02067  -0.09202  -0.49421
  24   32002.9    312.5   0.077301786   0.79520  -0.65265  -0.57539   0.19539
  25   32136.7    311.2   0.117601376   1.20472  -0.01728  -0.77052   0.78149
  26   32196.9    310.6   0.094082102   0.96199  -0.30292   0.81049   0.46187
  27   32689.1    305.9   0.098402605   0.99101  -0.34833  -0.92903   0.08118
  28   33004.9    303.0   0.252779333   2.52138  -0.64609  -1.29153   0.66022
  29   33175.2    301.4   0.000777028   0.00771  -0.00953   0.02622  -0.08326
  30   33357.9    299.8   0.036358261   0.35882   0.17038   0.07601  -0.56922
  31   33778.6    296.0   0.073999754   0.72122   0.36399   0.69185  -0.33177
  32   33830.3    295.6   0.020523976   0.19972   0.13554  -0.14419  -0.40070
  33   33936.9    294.7   0.267930909   2.59912  -0.05302  -0.78028   1.40978
  34   34183.5    292.5   0.405262665   3.90297   0.45388  -0.04066  -1.92232
  35   35041.7    285.4   0.075267016   0.70712  -0.40227  -0.69768   0.24195
  36   35231.7    283.8   0.367682097   3.43570  -0.81468  -1.38153   0.92917
  37   35476.3    281.9   0.041825822   0.38813   0.37560   0.44875   0.21372
  38   35636.5    280.6   0.052984990   0.48948   0.07326  -0.58295   0.37984
  39   36019.2    277.6   0.001120268   0.01024   0.05566   0.05041   0.06782
  40   36165.3    276.5   0.024063190   0.21905  -0.22321  -0.35983  -0.19938
  41   36320.7    275.3   0.058328411   0.52869  -0.00824  -0.05718   0.72481
  42   36602.1    273.2   0.067593770   0.60796  -0.14779  -0.51521   0.56628
  43   37124.5    269.4   0.005482920   0.04862   0.05093  -0.16221   0.14042
  44   37170.9    269.0   0.183978741   1.62944   0.25701  -0.47730   1.15567
  45   37325.8    267.9   0.140103688   1.23571   0.39519  -0.84994   0.59761
  46   37641.3    265.7   0.082787834   0.72406  -0.09659   0.43289  -0.72619
  47   38109.4    262.4   0.003844928   0.03321  -0.07926   0.15453  -0.05526
  48   38307.9    261.0   0.019772020   0.16992  -0.10152   0.20611  -0.34225
  49   38459.5    260.0   0.022147809   0.18958  -0.04689   0.05421  -0.42947
  50   38638.4    258.8   0.140353947   1.19586   0.46826  -0.52017   0.84024
  51   39159.0    255.4   0.089701514   0.75413   0.28594  -0.13605   0.80861
  52   39268.2    254.7   0.048254431   0.40455   0.34789  -0.41603   0.33233
  53   39634.6    252.3   0.044706540   0.37134  -0.05210   0.52920  -0.29762
  54   39792.0    251.3   0.024975420   0.20663  -0.01488  -0.33594  -0.30586
  55   39997.3    250.0   0.036465389   0.30014  -0.10549   0.50799   0.17596
  56   40038.9    249.8   0.030004347   0.24671  -0.03519  -0.31165   0.38515
  57   40157.4    249.0   0.068521651   0.56174  -0.08832  -0.45478   0.58917

FINAL SINGLE POINT ENERGY     -4373.530883113104

DIPOLE MOMENT
-------------
                                X             Y             Z
Electronic contribution:    -10.26755       1.32719      22.88455
Nuclear contribution   :      8.61498      -1.98914     -20.52513
                        -----------------------------------------
Total Dipole Moment    :     -1.65257      -0.66195       2.35942
                        -----------------------------------------
Magnitude (a.u.)       :      2.95568
Magnitude (Debye)      :      7.51273

Rotational constants in cm-1:     0.002043     0.000152     0.000145
Rotational constants in MHz :    61.242743     4.546597     4.353549

                             ****ORCA TERMINATED NORMALLY****
TOTAL RUN TIME: 0 days 0 hours 11 minutes 12 seconds 705 msec
