                         Program Version 4.2.0 -  RELEASE  -
|  1> # ORCA input file
|  2> # SCF done       -160.870757534600          0.000358579427
|  3> ! CAM-B3LYP def2-SVP def2/J RIJCOSX Grid4 TightSCF
|  4> %maxcore 5000
|  5> %tddft
|  6>     Mode sTDDFT
|  7>     Ethresh 5.0
|  8>     maxcore 5000
|  9> end
| 10>
| 11> %pal
| 12>   nprocs 6
| 13>   end
| 14> * xyz 0 1
| 15>    C       -0.55294        -2.61333         8.41746
| 16>    N       -0.55225        -1.43701         8.97935
| 17>    O       -1.77195        -0.90998         8.86598
| 18>    C       -2.57005        -1.77516         8.20657
| 19>    C       -3.96539        -1.48692         7.99998
| 20>    O       -4.72911        -2.20326         7.38300
| 21>    C       -1.82987        -2.90665         7.88226
| 22>    C       -2.34395        -4.05622         7.16886
| 23>    C       -2.93568        -5.16424         7.73760
| 24>    N       -2.99733        -5.42271         9.11591
| 25>    O       -3.55391        -6.44007         9.48249
| 26>    O       -2.49591        -4.59616         9.86523
| 27>    C       -3.53450        -5.97390         6.70473
| 28>    C       -3.37513        -5.32780         5.52761
| 29>    C       -2.61661        -4.11338         5.75573
| 30>    C       -2.15799        -3.23509         4.78508
| 31>    C       -0.93848        -2.52016         4.76048
| 32>    C       -0.71165        -2.08839         3.47439
| 33>    C       -1.81978        -2.43587         2.65577
| 34>    N       -1.94527        -2.07034         1.30973
| 35>    O       -1.01771        -1.46483         0.79988
| 36>    O       -2.96976        -2.38199         0.71847
| 37>    C       -2.78088        -3.07825         3.45359
| 38>    C       -4.13072        -3.29872         3.19563
| 39>    C       -5.06340        -3.35054         4.21560
| 40>    C       -6.42271        -3.57759         4.07940
| 41>    S       -7.23759        -4.08449         2.60879
| 42>    C       -8.81458        -4.15819         3.36992
| 43>    C       -8.70582        -3.78765         4.72494
| 44>    C       -7.37782        -3.46919         5.10252
| 45>    N       -7.36329        -3.10872         6.40085
| 46>    C       -8.65320        -3.18503         6.87401
| 47>    C       -8.98525        -2.85396         8.19694
| 48>    N       -9.27564        -2.57710         9.27092
| 49>    C       -9.50942        -3.60349         5.86865
| 50>    C       -9.96844        -4.54730         2.68823
| 51>    C      -10.00335        -4.86884         1.35528
| 52>    C      -11.14268        -5.29470         0.65329
| 53>    C      -11.18643        -5.60124        -0.70083
| 54>    C      -12.49225        -6.02829        -1.04552
| 55>    C      -13.28372        -5.96027         0.19832
| 56>    C      -12.47584        -5.51789         1.19543
| 57>    C      -14.64347        -6.26081         0.35001
| 58>    N      -15.75669        -6.48744         0.51625
| 59>    C      -12.94790        -6.43922        -2.28218
| 60>    C      -14.23002        -6.95586        -2.61061
| 61>    C      -14.26846        -7.25148        -3.95778
| 62>    C      -12.97299        -6.90186        -4.52716
| 63>    C      -12.17139        -6.42861        -3.53968
| 64>    C      -10.85236        -5.99521        -3.70986
| 65>    N       -9.77080        -5.64831        -3.88226
| 66>    C      -15.32605        -7.80434        -4.73090
| 67>    C      -16.49674        -8.25384        -4.22087
| 68>    C      -17.54243        -8.81091        -5.01588
| 69>    C      -18.72456        -9.40117        -4.56320
| 70>    O      -19.45117        -9.79371        -5.62585
| 71>    N      -18.79583        -9.48372        -6.75663
| 72>    C      -17.67557        -8.90966        -6.43216
| 73>    C      -19.23219        -9.64654        -3.22334
| 74>    O      -18.64578        -9.36402        -2.20937
| 75>    H        0.33015        -3.21881         8.40732
| 76>    H       -4.30398        -0.54782         8.46511
| 77>    H       -4.01232        -6.91582         6.89015
| 78>    H       -3.65909        -5.67983         4.55511
| 79>    H       -0.25080        -2.44272         5.58070
| 80>    H        0.15514        -1.56744         3.11195
| 81>    H       -4.46103        -3.30610         2.16445
| 82>    H       -4.74146        -3.12792         5.22539
| 83>    H       -6.55042        -2.80935         6.92859
| 84>    H      -10.56664        -3.74672         5.96435
| 85>    H      -10.87362        -4.58765         3.27822
| 86>    H       -9.08488        -4.79594         0.78509
| 87>    H      -10.35792        -5.53796        -1.37872
| 88>    H      -12.76977        -5.36139         2.21622
| 89>    H      -15.02704        -7.09270        -1.90725
| 90>    H      -12.71077        -7.01453        -5.56325
| 91>    H      -15.14575        -7.87601        -5.79611
| 92>    H      -16.68403        -8.22383        -3.15740
| 93>    H      -17.00460        -8.57889        -7.19833
| 94>    H      -20.22525       -10.12879        -3.22085
| 95> *
| 96>
| 97>                          ****END OF INPUT****

CARTESIAN COORDINATES (ANGSTROEM)
---------------------------------
  C     -0.552940   -2.613330    8.417460
  N     -0.552250   -1.437010    8.979350
  O     -1.771950   -0.909980    8.865980
  C     -2.570050   -1.775160    8.206570
  C     -3.965390   -1.486920    7.999980
  O     -4.729110   -2.203260    7.383000
  C     -1.829870   -2.906650    7.882260
  C     -2.343950   -4.056220    7.168860
  C     -2.935680   -5.164240    7.737600
  N     -2.997330   -5.422710    9.115910
  O     -3.553910   -6.440070    9.482490
  O     -2.495910   -4.596160    9.865230
  C     -3.534500   -5.973900    6.704730
  C     -3.375130   -5.327800    5.527610
  C     -2.616610   -4.113380    5.755730
  C     -2.157990   -3.235090    4.785080
  C     -0.938480   -2.520160    4.760480
  C     -0.711650   -2.088390    3.474390
  C     -1.819780   -2.435870    2.655770
  N     -1.945270   -2.070340    1.309730
  O     -1.017710   -1.464830    0.799880
  O     -2.969760   -2.381990    0.718470
  C     -2.780880   -3.078250    3.453590
  C     -4.130720   -3.298720    3.195630
  C     -5.063400   -3.350540    4.215600
  C     -6.422710   -3.577590    4.079400
  S     -7.237590   -4.084490    2.608790
  C     -8.814580   -4.158190    3.369920
  C     -8.705820   -3.787650    4.724940
  C     -7.377820   -3.469190    5.102520
  N     -7.363290   -3.108720    6.400850
  C     -8.653200   -3.185030    6.874010
  C     -8.985250   -2.853960    8.196940
  N     -9.275640   -2.577100    9.270920
  C     -9.509420   -3.603490    5.868650
  C     -9.968440   -4.547300    2.688230
  C    -10.003350   -4.868840    1.355280
  C    -11.142680   -5.294700    0.653290
  C    -11.186430   -5.601240   -0.700830
  C    -12.492250   -6.028290   -1.045520
  C    -13.283720   -5.960270    0.198320
  C    -12.475840   -5.517890    1.195430
  C    -14.643470   -6.260810    0.350010
  N    -15.756690   -6.487440    0.516250
  C    -12.947900   -6.439220   -2.282180
  C    -14.230020   -6.955860   -2.610610
  C    -14.268460   -7.251480   -3.957780
  C    -12.972990   -6.901860   -4.527160
  C    -12.171390   -6.428610   -3.539680
  C    -10.852360   -5.995210   -3.709860
  N     -9.770800   -5.648310   -3.882260
  C    -15.326050   -7.804340   -4.730900
  C    -16.496740   -8.253840   -4.220870
  C    -17.542430   -8.810910   -5.015880
  C    -18.724560   -9.401170   -4.563200
  O    -19.451170   -9.793710   -5.625850
  N    -18.795830   -9.483720   -6.756630
  C    -17.675570   -8.909660   -6.432160
  C    -19.232190   -9.646540   -3.223340
  O    -18.645780   -9.364020   -2.209370
  H      0.330150   -3.218810    8.407320
  H     -4.303980   -0.547820    8.465110
  H     -4.012320   -6.915820    6.890150
  H     -3.659090   -5.679830    4.555110
  H     -0.250800   -2.442720    5.580700
  H      0.155140   -1.567440    3.111950
  H     -4.461030   -3.306100    2.164450
  H     -4.741460   -3.127920    5.225390
  H     -6.550420   -2.809350    6.928590
  H    -10.566640   -3.746720    5.964350
  H    -10.873620   -4.587650    3.278220
  H     -9.084880   -4.795940    0.785090
  H    -10.357920   -5.537960   -1.378720
  H    -12.769770   -5.361390    2.216220
  H    -15.027040   -7.092700   -1.907250
  H    -12.710770   -7.014530   -5.563250
  H    -15.145750   -7.876010   -5.796110
  H    -16.684030   -8.223830   -3.157400
  H    -17.004600   -8.578890   -7.198330
  H    -20.225250  -10.128790   -3.220850

 Total Charge           Charge          ....    0
 Multiplicity           Mult            ....    1
 Number of Electrons    NEL             ....  414
 Basis Dimension        Dim             ....  944

ORBITAL ENERGIES
----------------

  NO   OCC          E(Eh)            E(eV)
   0   2.0000     -88.993205     -2421.6282
   1   2.0000     -19.340244      -526.2748
   2   2.0000     -19.338228      -526.2199
   3   2.0000     -19.264701      -524.2192
   4   2.0000     -19.242931      -523.6268
   5   2.0000     -19.240314      -523.5556
   6   2.0000     -19.240030      -523.5478
   7   2.0000     -19.222483      -523.0703
   8   2.0000     -19.222347      -523.0667
   9   2.0000     -14.649256      -398.6265
  10   2.0000     -14.633116      -398.1873
  11   2.0000     -14.496319      -394.4649
  12   2.0000     -14.487307      -394.2197
  13   2.0000     -14.485548      -394.1718
  14   2.0000     -14.429680      -392.6515
  15   2.0000     -14.419079      -392.3631
  16   2.0000     -14.417762      -392.3272
  17   2.0000     -10.408367      -283.2261
  18   2.0000     -10.385801      -282.6120
  19   2.0000     -10.368055      -282.1291
  20   2.0000     -10.360909      -281.9347
  21   2.0000     -10.360590      -281.9260
  22   2.0000     -10.355198      -281.7793
  23   2.0000     -10.351934      -281.6905
  24   2.0000     -10.338021      -281.3118
  25   2.0000     -10.335278      -281.2372
  26   2.0000     -10.333864      -281.1987
  27   2.0000     -10.331845      -281.1438
  28   2.0000     -10.331188      -281.1259
  29   2.0000     -10.329817      -281.0886
  30   2.0000     -10.329465      -281.0790
  31   2.0000     -10.328873      -281.0629
  32   2.0000     -10.328357      -281.0489
  33   2.0000     -10.328331      -281.0482
  34   2.0000     -10.325859      -280.9809
  35   2.0000     -10.324950      -280.9562
  36   2.0000     -10.323232      -280.9094
  37   2.0000     -10.322434      -280.8877
  38   2.0000     -10.322082      -280.8781
  39   2.0000     -10.321989      -280.8756
  40   2.0000     -10.321208      -280.8543
  41   2.0000     -10.320310      -280.8299
  42   2.0000     -10.319741      -280.8144
  43   2.0000     -10.318729      -280.7869
  44   2.0000     -10.317567      -280.7553
  45   2.0000     -10.317309      -280.7482
  46   2.0000     -10.314685      -280.6769
  47   2.0000     -10.314122      -280.6615
  48   2.0000     -10.313920      -280.6560
  49   2.0000     -10.312407      -280.6149
  50   2.0000     -10.312172      -280.6085
  51   2.0000     -10.311232      -280.5829
  52   2.0000     -10.308793      -280.5165
  53   2.0000     -10.307288      -280.4756
  54   2.0000     -10.306901      -280.4650
  55   2.0000     -10.300356      -280.2869
  56   2.0000     -10.292782      -280.0808
  57   2.0000     -10.287294      -279.9315
  58   2.0000     -10.286237      -279.9027
  59   2.0000     -10.282200      -279.7929
  60   2.0000      -8.087841      -220.0813
  61   2.0000      -6.057188      -164.8245
  62   2.0000      -6.053172      -164.7152
  63   2.0000      -6.049772      -164.6227
  64   2.0000      -1.319998       -35.9190
  65   2.0000      -1.301570       -35.4175
  66   2.0000      -1.282198       -34.8904
  67   2.0000      -1.278225       -34.7823
  68   2.0000      -1.172827       -31.9143
  69   2.0000      -1.152580       -31.3633
  70   2.0000      -1.138117       -30.9698
  71   2.0000      -1.124599       -30.6019
  72   2.0000      -1.119108       -30.4525
  73   2.0000      -1.027609       -27.9627
  74   2.0000      -1.018922       -27.7263
  75   2.0000      -1.015044       -27.6208
  76   2.0000      -1.011043       -27.5119
  77   2.0000      -1.006161       -27.3790
  78   2.0000      -0.997283       -27.1375
  79   2.0000      -0.996012       -27.1029
  80   2.0000      -0.992514       -27.0077
  81   2.0000      -0.985215       -26.8091
  82   2.0000      -0.982313       -26.7301
  83   2.0000      -0.949153       -25.8278
  84   2.0000      -0.946538       -25.7566
  85   2.0000      -0.933369       -25.3983
  86   2.0000      -0.924385       -25.1538
  87   2.0000      -0.909810       -24.7572
  88   2.0000      -0.903793       -24.5935
  89   2.0000      -0.901771       -24.5384
  90   2.0000      -0.879497       -23.9323
  91   2.0000      -0.877247       -23.8711
  92   2.0000      -0.868196       -23.6248
  93   2.0000      -0.865134       -23.5415
  94   2.0000      -0.849453       -23.1148
  95   2.0000      -0.841194       -22.8901
  96   2.0000      -0.836448       -22.7609
  97   2.0000      -0.814931       -22.1754
  98   2.0000      -0.802844       -21.8465
  99   2.0000      -0.788482       -21.4557
 100   2.0000      -0.779455       -21.2101
 101   2.0000      -0.773624       -21.0514
 102   2.0000      -0.769433       -20.9373
 103   2.0000      -0.748794       -20.3757
 104   2.0000      -0.747659       -20.3448
 105   2.0000      -0.736073       -20.0296
 106   2.0000      -0.731214       -19.8973
 107   2.0000      -0.728323       -19.8187
 108   2.0000      -0.722744       -19.6669
 109   2.0000      -0.717846       -19.5336
 110   2.0000      -0.702629       -19.1195
 111   2.0000      -0.696057       -18.9407
 112   2.0000      -0.687381       -18.7046
 113   2.0000      -0.679483       -18.4897
 114   2.0000      -0.672786       -18.3074
 115   2.0000      -0.669876       -18.2282
 116   2.0000      -0.664463       -18.0809
 117   2.0000      -0.657117       -17.8811
 118   2.0000      -0.650646       -17.7050
 119   2.0000      -0.650128       -17.6909
 120   2.0000      -0.638131       -17.3644
 121   2.0000      -0.636010       -17.3067
 122   2.0000      -0.633565       -17.2402
 123   2.0000      -0.630718       -17.1627
 124   2.0000      -0.624838       -17.0027
 125   2.0000      -0.621131       -16.9018
 126   2.0000      -0.616160       -16.7666
 127   2.0000      -0.614756       -16.7284
 128   2.0000      -0.610808       -16.6209
 129   2.0000      -0.600024       -16.3275
 130   2.0000      -0.599316       -16.3082
 131   2.0000      -0.599139       -16.3034
 132   2.0000      -0.592373       -16.1193
 133   2.0000      -0.583655       -15.8821
 134   2.0000      -0.583044       -15.8654
 135   2.0000      -0.575087       -15.6489
 136   2.0000      -0.571697       -15.5567
 137   2.0000      -0.570623       -15.5274
 138   2.0000      -0.569711       -15.5026
 139   2.0000      -0.560508       -15.2522
 140   2.0000      -0.551766       -15.0143
 141   2.0000      -0.550034       -14.9672
 142   2.0000      -0.548669       -14.9301
 143   2.0000      -0.541869       -14.7450
 144   2.0000      -0.540835       -14.7169
 145   2.0000      -0.539360       -14.6767
 146   2.0000      -0.535777       -14.5792
 147   2.0000      -0.532842       -14.4994
 148   2.0000      -0.532078       -14.4786
 149   2.0000      -0.524693       -14.2776
 150   2.0000      -0.523336       -14.2407
 151   2.0000      -0.521493       -14.1905
 152   2.0000      -0.518919       -14.1205
 153   2.0000      -0.518349       -14.1050
 154   2.0000      -0.511338       -13.9142
 155   2.0000      -0.507923       -13.8213
 156   2.0000      -0.504877       -13.7384
 157   2.0000      -0.502319       -13.6688
 158   2.0000      -0.500451       -13.6180
 159   2.0000      -0.498579       -13.5670
 160   2.0000      -0.497814       -13.5462
 161   2.0000      -0.495236       -13.4761
 162   2.0000      -0.492220       -13.3940
 163   2.0000      -0.487007       -13.2521
 164   2.0000      -0.485530       -13.2119
 165   2.0000      -0.482845       -13.1389
 166   2.0000      -0.477952       -13.0057
 167   2.0000      -0.475104       -12.9282
 168   2.0000      -0.471721       -12.8362
 169   2.0000      -0.467395       -12.7185
 170   2.0000      -0.459260       -12.4971
 171   2.0000      -0.457421       -12.4471
 172   2.0000      -0.456046       -12.4096
 173   2.0000      -0.453045       -12.3280
 174   2.0000      -0.447924       -12.1886
 175   2.0000      -0.446714       -12.1557
 176   2.0000      -0.443717       -12.0742
 177   2.0000      -0.438910       -11.9433
 178   2.0000      -0.435683       -11.8555
 179   2.0000      -0.434579       -11.8255
 180   2.0000      -0.429458       -11.6862
 181   2.0000      -0.426021       -11.5926
 182   2.0000      -0.407564       -11.0904
 183   2.0000      -0.404131       -10.9970
 184   2.0000      -0.403104       -10.9690
 185   2.0000      -0.398520       -10.8443
 186   2.0000      -0.398105       -10.8330
 187   2.0000      -0.387339       -10.5400
 188   2.0000      -0.384872       -10.4729
 189   2.0000      -0.384800       -10.4709
 190   2.0000      -0.380560       -10.3556
 191   2.0000      -0.377944       -10.2844
 192   2.0000      -0.371657       -10.1133
 193   2.0000      -0.369781       -10.0622
 194   2.0000      -0.363405        -9.8888
 195   2.0000      -0.359519        -9.7830
 196   2.0000      -0.357404        -9.7255
 197   2.0000      -0.352532        -9.5929
 198   2.0000      -0.350102        -9.5268
 199   2.0000      -0.339380        -9.2350
 200   2.0000      -0.335659        -9.1337
 201   2.0000      -0.331661        -9.0250
 202   2.0000      -0.325134        -8.8474
 203   2.0000      -0.314331        -8.5534
 204   2.0000      -0.301459        -8.2031
 205   2.0000      -0.286565        -7.7978
 206   2.0000      -0.247813        -6.7433
 207   0.0000      -0.151004        -4.1090
 208   0.0000      -0.124305        -3.3825
 209   0.0000      -0.084285        -2.2935
 210   0.0000      -0.072393        -1.9699
 211   0.0000      -0.064218        -1.7475

MULLIKEN ATOMIC CHARGES
-----------------------
   0 C :    0.053079
   1 N :    0.039632
   2 O :   -0.155059
   3 C :    0.105531
   4 C :    0.190658
   5 O :   -0.213269
   6 C :   -0.090819
   7 C :    0.025825
   8 C :    0.099653
   9 N :    0.270056
  10 O :   -0.238411
  11 O :   -0.256942
  12 C :   -0.012974
  13 C :    0.023895
  14 C :   -0.002027
  15 C :    0.035169
  16 C :   -0.024570
  17 C :    0.038234
  18 C :    0.073934
  19 N :    0.276517
  20 O :   -0.264360
  21 O :   -0.277348
  22 C :    0.032660
  23 C :   -0.052433
  24 C :   -0.011192
  25 C :   -0.122263
  26 S :    0.162317
  27 C :   -0.079571
  28 C :    0.114006
  29 C :    0.117208
  30 N :   -0.000308
  31 C :   -0.095419
  32 C :   -0.142094
  33 N :    0.175597
  34 C :   -0.029868
  35 C :   -0.013281
  36 C :    0.005647
  37 C :    0.116333
  38 C :   -0.101691
  39 C :    0.116397
  40 C :   -0.092362
  41 C :   -0.008164
  42 C :   -0.175425
  43 N :    0.146008
  44 C :    0.119342
  45 C :   -0.119274
  46 C :    0.118811
  47 C :   -0.006739
  48 C :   -0.091618
  49 C :   -0.177147
  50 N :    0.137721
  51 C :   -0.003734
  52 C :    0.044191
  53 C :   -0.047925
  54 C :    0.095967
  55 O :   -0.159475
  56 N :    0.038299
  57 C :    0.013921
  58 C :    0.164353
  59 O :   -0.154821
  60 H :    0.021740
  61 H :    0.024344
  62 H :   -0.010943
  63 H :   -0.006573
  64 H :   -0.025232
  65 H :    0.008124
  66 H :    0.028725
  67 H :    0.036915
  68 H :    0.134472
  69 H :   -0.006996
  70 H :   -0.003068
  71 H :    0.013702
  72 H :    0.006906
  73 H :   -0.000630
  74 H :    0.010103
  75 H :    0.000104
  76 H :   -0.019890
  77 H :    0.023140
  78 H :    0.024768
  79 H :    0.009912
Sum of atomic charges:   -0.0000000

LOEWDIN ATOMIC CHARGES
----------------------
   0 C :   -0.010005
   1 N :    0.007597
   2 O :    0.043842
   3 C :   -0.030014
   4 C :    0.138308
   5 O :   -0.153097
   6 C :   -0.023690
   7 C :   -0.029470
   8 C :   -0.026397
   9 N :    0.284210
  10 O :   -0.202886
  11 O :   -0.219007
  12 C :   -0.032088
  13 C :   -0.024952
  14 C :   -0.001237
  15 C :    0.052968
  16 C :   -0.076104
  17 C :    0.056910
  18 C :   -0.095752
  19 N :    0.285607
  20 O :   -0.229258
  21 O :   -0.239247
  22 C :    0.025494
  23 C :   -0.016313
  24 C :    0.018133
  25 C :   -0.196379
  26 S :    0.462185
  27 C :   -0.123998
  28 C :   -0.070070
  29 C :    0.021156
  30 N :    0.099869
  31 C :   -0.020440
  32 C :   -0.044540
  33 N :   -0.026467
  34 C :   -0.027529
  35 C :   -0.035404
  36 C :    0.012123
  37 C :   -0.021827
  38 C :   -0.010968
  39 C :    0.029536
  40 C :   -0.071219
  41 C :    0.047977
  42 C :   -0.033219
  43 N :   -0.051521
  44 C :    0.044433
  45 C :   -0.026161
  46 C :   -0.009661
  47 C :    0.052779
  48 C :   -0.080507
  49 C :   -0.031799
  50 N :   -0.059911
  51 C :   -0.016803
  52 C :    0.018216
  53 C :   -0.056376
  54 C :   -0.016499
  55 O :    0.039210
  56 N :   -0.001562
  57 C :   -0.015684
  58 C :    0.101155
  59 O :   -0.112018
  60 H :    0.038838
  61 H :    0.020238
  62 H :    0.034334
  63 H :    0.029218
  64 H :    0.025890
  65 H :    0.040860
  66 H :    0.037860
  67 H :    0.040513
  68 H :    0.084981
  69 H :    0.038004
  70 H :    0.038362
  71 H :    0.035941
  72 H :    0.037234
  73 H :    0.035341
  74 H :    0.035652
  75 H :    0.037534
  76 H :    0.029409
  77 H :    0.042333
  78 H :    0.034517
  79 H :    0.011314

  Mayer bond orders larger than 0.100000
B(  0-C ,  1-N ) :   1.6935 B(  0-C ,  6-C ) :   1.2462 B(  0-C , 60-H ) :   0.9934
B(  1-N ,  2-O ) :   1.0597 B(  1-N ,  3-C ) :   0.1053 B(  2-O ,  3-C ) :   1.1202
B(  3-C ,  4-C ) :   1.0544 B(  3-C ,  6-C ) :   1.5177 B(  4-C ,  5-O ) :   1.9891
B(  4-C , 61-H ) :   0.9491 B(  5-O , 68-H ) :   0.1029 B(  6-C ,  7-C ) :   0.9452
B(  7-C ,  8-C ) :   1.5668 B(  7-C , 14-C ) :   1.1615 B(  8-C ,  9-N ) :   0.9346
B(  8-C , 12-C ) :   1.1478 B(  9-N , 10-O ) :   1.5338 B(  9-N , 11-O ) :   1.4969
B( 10-O , 11-O ) :   0.2679 B( 12-C , 13-C ) :   1.5907 B( 12-C , 62-H ) :   1.0184
B( 13-C , 14-C ) :   1.1205 B( 13-C , 63-H ) :   0.9918 B( 14-C , 15-C ) :   1.3727
B( 15-C , 16-C ) :   1.2532 B( 15-C , 22-C ) :   0.9842 B( 16-C , 17-C ) :   1.4334
B( 16-C , 64-H ) :   1.0128 B( 17-C , 18-C ) :   1.2134 B( 17-C , 65-H ) :   1.0081
B( 18-C , 19-N ) :   0.9763 B( 18-C , 22-C ) :   1.3503 B( 19-N , 20-O ) :   1.5220
B( 19-N , 21-O ) :   1.4812 B( 20-O , 21-O ) :   0.2437 B( 22-C , 23-C ) :   1.3549
B( 23-C , 24-C ) :   1.3335 B( 23-C , 66-H ) :   0.9675 B( 24-C , 25-C ) :   1.3600
B( 24-C , 67-H ) :   0.9468 B( 25-C , 26-S ) :   1.0557 B( 25-C , 29-C ) :   1.2714
B( 26-S , 27-C ) :   1.1355 B( 27-C , 28-C ) :   1.2451 B( 27-C , 35-C ) :   1.2512
B( 28-C , 29-C ) :   1.2416 B( 28-C , 34-C ) :   1.1931 B( 29-C , 30-N ) :   1.2633
B( 30-N , 31-C ) :   1.2146 B( 30-N , 68-H ) :   0.8879 B( 31-C , 32-C ) :   1.0589
B( 31-C , 34-C ) :   1.5741 B( 32-C , 33-N ) :   3.0560 B( 34-C , 69-H ) :   1.0128
B( 35-C , 36-C ) :   1.5255 B( 35-C , 70-H ) :   0.9762 B( 36-C , 37-C ) :   1.1683
B( 36-C , 71-H ) :   0.9762 B( 37-C , 38-C ) :   1.4637 B( 37-C , 41-C ) :   1.0424
B( 38-C , 39-C ) :   1.1405 B( 38-C , 72-H ) :   1.0092 B( 39-C , 40-C ) :   1.1060
B( 39-C , 44-C ) :   1.3771 B( 40-C , 41-C ) :   1.6934 B( 40-C , 42-C ) :   1.0851
B( 41-C , 73-H ) :   1.0138 B( 42-C , 43-N ) :   2.9768 B( 44-C , 45-C ) :   1.1423
B( 44-C , 48-C ) :   1.1019 B( 45-C , 46-C ) :   1.5386 B( 45-C , 74-H ) :   0.9986
B( 46-C , 47-C ) :   1.0300 B( 46-C , 51-C ) :   1.1013 B( 47-C , 48-C ) :   1.6699
B( 47-C , 75-H ) :   1.0240 B( 48-C , 49-C ) :   1.0889 B( 49-C , 50-N ) :   2.9659
B( 51-C , 52-C ) :   1.6517 B( 51-C , 76-H ) :   0.9774 B( 52-C , 53-C ) :   1.1102
B( 52-C , 77-H ) :   0.9661 B( 53-C , 54-C ) :   1.4465 B( 53-C , 57-C ) :   1.1821
B( 54-C , 55-O ) :   1.1417 B( 54-C , 58-C ) :   1.0060 B( 55-O , 56-N ) :   1.0368
B( 56-N , 57-C ) :   1.7391 B( 57-C , 78-H ) :   0.9877 B( 58-C , 59-O ) :   2.1552
B( 58-C , 79-H ) :   0.9504

-----------------------------------------------------------------------------
         ABSORPTION SPECTRUM VIA TRANSITION ELECTRIC DIPOLE MOMENTS
-----------------------------------------------------------------------------
State   Energy  Wavelength   fosc         T2         TX        TY        TZ
        (cm-1)    (nm)                  (au**2)     (au)      (au)      (au)
-----------------------------------------------------------------------------
   0    7199.1   1389.1   0.609918496  27.89116  -4.30981  -0.89284  -2.91882
   1   12047.2    830.1   0.316723310   8.65505  -1.62929  -1.44988  -1.97442
   2   14596.4    685.1   0.077223643   1.74172  -0.76201  -0.47021  -0.96952
   3   16783.1    595.8   0.060539623   1.18753   0.93124   0.04176   0.56443
   4   18546.1    539.2   0.020436531   0.36277   0.41447  -0.25098  -0.35776
   5   19670.8    508.4   0.457871456   7.66298  -2.59544  -0.91641  -0.29476
   6   20866.9    479.2   0.017417029   0.27478  -0.28545  -0.15186  -0.41260
   7   21373.9    467.9   0.006652026   0.10246   0.22247   0.05939  -0.22235
   8   23699.5    421.9   0.029512268   0.40996   0.27362  -0.39971  -0.41872
   9   24012.6    416.4   0.231253295   3.17047   1.21640   0.83975   0.99280
  10   24654.1    405.6   0.219504243   2.93109  -0.33279  -0.60921  -1.56499
  11   25664.1    389.6   0.018702070   0.23990  -0.06128  -0.13937   0.46554
  12   26142.6    382.5   0.041083824   0.51736  -0.16351   0.42941  -0.55338
  13   26399.1    378.8   0.022402809   0.27938   0.38154   0.28806  -0.22544
  14   26716.3    374.3   0.078314796   0.96503  -0.42003  -0.59497   0.65925
  15   27652.5    361.6   0.095454625   1.13642  -0.82001  -0.68076  -0.02382
  16   28470.1    351.2   0.009183570   0.10619   0.02271  -0.28628  -0.15402
  17   28490.5    351.0   0.103681575   1.19805  -0.74153  -0.56522  -0.57333
  18   28619.2    349.4   0.024124125   0.27750   0.34603   0.28724   0.27434
  19   29199.4    342.5   0.195537501   2.20461  -0.77571  -0.31875   1.22527
  20   29303.8    341.3   0.136225045   1.53041  -0.52005  -0.18606  -1.10695
  21   29455.0    339.5   0.157296572   1.75807  -0.22144   0.01159  -1.30725
  22   30118.1    332.0   0.026666980   0.29149  -0.14516   0.12736  -0.50418
  23   30428.0    328.6   0.634957708   6.86985  -1.30762  -0.57326   2.19803
  24   30643.4    326.3   0.187009362   2.00911   0.41590   0.30640  -1.31994
  25   30881.3    323.8   0.051329316   0.54720  -0.10888  -0.20300   0.70295
  26   31681.4    315.6   0.021630616   0.22477  -0.21886  -0.00055   0.42056
  27   32223.1    310.3   0.013535102   0.13828  -0.22223  -0.10520   0.27898
  28   32620.3    306.6   0.002624909   0.02649  -0.04294  -0.12126   0.09972
  29   33010.9    302.9   0.074031080   0.73830   0.22567  -0.56297   0.60863
  30   33334.1    300.0   0.086449673   0.85379  -0.38737  -0.36271   0.75642
  31   33538.2    298.2   0.038994072   0.38277  -0.15714  -0.17888   0.57103
  32   33661.5    297.1   0.044106792   0.43137   0.61309   0.22378   0.07360
  33   33765.3    296.2   0.204216554   1.99111   1.10904   0.60004  -0.63331
  34   34271.9    291.8   0.032063020   0.30799  -0.25803  -0.08512   0.48391
  35   34426.6    290.5   0.003860090   0.03691   0.06693  -0.07702  -0.16279
  36   34709.0    288.1   0.008728154   0.08279   0.10413   0.00666  -0.26814
  37   35364.9    282.8   0.186919786   1.74004   0.62973   0.26196  -1.12909
  38   35462.0    282.0   0.004898255   0.04547   0.10314  -0.08093  -0.16819
  39   35649.7    280.5   0.004763789   0.04399  -0.14519  -0.03246   0.14785
  40   35910.1    278.5   0.009205908   0.08440  -0.13340  -0.22517   0.12610
  41   36025.7    277.6   0.000769540   0.00703  -0.04955  -0.02293   0.06365
  42   36405.0    274.7   0.005515869   0.04988   0.19014  -0.01428  -0.11629
  43   36620.1    273.1   0.057223476   0.51444  -0.32967  -0.04085  -0.63568
  44   36802.9    271.7   0.070021580   0.62636   0.41049   0.21837   0.64045
  45   37191.3    268.9   0.002225688   0.01970   0.11964  -0.03029  -0.06685
  46   37373.3    267.6   0.075339875   0.66365   0.61387   0.29935   0.44408
  47   37751.9    264.9   0.001313337   0.01145  -0.01340  -0.07003  -0.07981
  48   37961.3    263.4   0.023194843   0.20115   0.05897  -0.06303  -0.44012
  49   38217.1    261.7   0.059611240   0.51351  -0.12834   0.29593   0.63989
  50   38485.3    259.8   0.038959040   0.33326   0.54911  -0.17197   0.04650
  51   38704.8    258.4   0.004516237   0.03841   0.08362  -0.03670  -0.17342
  52   38756.1    258.0   0.002185396   0.01856  -0.11974  -0.05322  -0.03735
  53   38962.0    256.7   0.092151075   0.77864  -0.36290  -0.23986   0.76773
  54   39223.3    255.0   0.030899376   0.25935  -0.49387  -0.05125   0.11319
  55   39576.9    252.7   0.035062866   0.29166   0.13677   0.23502  -0.46660
  56   39790.2    251.3   0.024873334   0.20579   0.02644  -0.24676  -0.37974
  57   39902.3    250.6   0.012300455   0.10148   0.06913  -0.14347   0.27590
  58   39965.6    250.2   0.000429821   0.00354  -0.01203   0.05811   0.00440
  59   40195.4    248.8   0.016904968   0.13846  -0.09479   0.22567   0.28026
  60   40262.3    248.4   0.010592244   0.08661   0.05429  -0.23143  -0.17350
  61   40290.6    248.2   0.130598509   1.06711  -0.50202   0.84118   0.32788

FINAL SINGLE POINT ENERGY     -3084.644773087921

DIPOLE MOMENT
-------------
                                X             Y             Z
Electronic contribution:      8.82026       4.73365      10.87374
Nuclear contribution   :    -10.19416      -5.30464     -12.38601
                        -----------------------------------------
Total Dipole Moment    :     -1.37390      -0.57099      -1.51227
                        -----------------------------------------
Magnitude (a.u.)       :      2.12146
Magnitude (Debye)      :      5.39231

Rotational constants in cm-1:     0.002899     0.000361     0.000334
Rotational constants in MHz :    86.920304    10.817490    10.022679

                             ****ORCA TERMINATED NORMALLY****
TOTAL RUN TIME: 0 days 0 hours 7 minutes 24 seconds 941 msec
