                         Program Version 4.2.0 -  RELEASE  -
|  1> # ORCA input file
|  2> # SCF done       -178.192303833124          0.000630859847
|  3> ! CAM-B3LYP def2-SVP def2/J RIJCOSX Grid4 TightSCF
|  4> %maxcore 5000
|  5> %tddft
|  6>     Mode sTDDFT
|  7>     Ethresh 5.0
|  8>     maxcore 5000
|  9> end
| 10>
| 11> %pal
| 12>   nprocs 6
| 13>   end
| 14> * xyz 0 1
| 15>    C        0.58044        -0.05313        -0.76102
| 16>    O        0.62275        -1.13685        -0.23811
| 17>    C        1.52767         1.06397        -0.53890
| 18>    C        1.22487         2.13387        -1.39833
| 19>    C        2.00431         3.28025        -1.36551
| 20>    C        3.06648         3.33842        -0.47146
| 21>    C        3.35673         2.27003         0.38185
| 22>    C        2.58390         1.11699         0.34705
| 23>   Br        4.80390         2.38032         1.58974
| 24>   Br        4.12818         4.90103        -0.42585
| 25>    C        0.05949         1.78218        -2.20416
| 26>    C       -0.56651         2.60910        -3.09670
| 27>    C       -0.13582         3.92124        -3.39544
| 28>    N        0.16808         4.98903        -3.68408
| 29>    C       -1.72897         2.29308        -3.83447
| 30>    N       -2.67479         2.12070        -4.46124
| 31>    C       -0.33979         0.43239        -1.83335
| 32>    C       -1.29332        -0.31068        -2.45398
| 33>    C       -1.78097        -1.57838        -2.04284
| 34>    S       -2.61310        -2.62985        -3.19783
| 35>    C       -2.81147        -3.72867        -1.84910
| 36>    N       -2.31244        -3.24694        -0.73326
| 37>    N       -1.75787        -2.08891        -0.84365
| 38>    C       -3.43511        -4.99470        -1.98388
| 39>    C       -3.52906        -5.85923        -0.94099
| 40>    C       -4.11751        -7.14181        -1.06409
| 41>    N       -4.21468        -8.04365        -0.03061
| 42>    C       -3.82756        -7.82251         1.34256
| 43>    C       -4.84755        -6.96469         2.08675
| 44>    C       -4.80867        -9.24901        -0.43707
| 45>    O       -4.98948       -10.19591         0.30324
| 46>    C       -5.09294        -9.05271        -1.84265
| 47>    C       -4.66113        -7.75141        -2.19510
| 48>    C       -4.94697        -7.55285        -3.59989
| 49>    O       -4.76510        -6.60977        -4.34308
| 50>    N       -5.54752        -8.75655        -4.00566
| 51>    C       -5.92579        -8.97244        -5.38162
| 52>    C       -4.89305        -9.81252        -6.12905
| 53>    C       -5.63297        -9.66355        -2.97508
| 54>    C       -6.18831       -10.95901        -3.11412
| 55>    C       -6.18818       -11.86415        -2.10119
| 56>    C       -6.71382       -13.17799        -2.20269
| 57>    S       -6.46355       -14.29366        -0.88826
| 58>    C       -7.29974       -15.56109        -1.72357
| 59>    C       -7.78152       -15.10773        -2.95617
| 60>    C       -7.42821       -13.77807        -3.22010
| 61>    C       -8.54049       -15.94448        -3.88064
| 62>    O       -8.79480       -17.11117        -3.72641
| 63>    C       -7.51866       -16.84368        -1.15818
| 64>    C       -6.72907       -17.52604        -0.29005
| 65>    C       -7.30406       -18.63643         0.52377
| 66>    O       -8.37272       -19.17257         0.37348
| 67>    C       -6.30552       -18.87771         1.58960
| 68>    C       -5.16816       -18.07981         1.36328
| 69>    C       -5.34780       -17.34354         0.11441
| 70>    C       -4.33760       -16.82615        -0.64938
| 71>    C       -4.50927       -16.36120        -1.97097
| 72>    N       -4.58990       -16.00955        -3.06025
| 73>    C       -2.98802       -16.78457        -0.23804
| 74>    N       -1.88311       -16.71772         0.06185
| 75>    C       -4.11165       -18.11407         2.25743
| 76>    C       -4.20324       -18.95381         3.36150
| 77>    C       -5.32868       -19.75569         3.57086
| 78>    C       -6.39390       -19.71840         2.67999
| 79>   Br       -5.41928       -20.89792         5.07236
| 80>   Br       -2.76995       -18.99397         4.59128
| 81>    H        1.81543         4.12277        -2.01074
| 82>    H        2.79789         0.28239         0.99666
| 83>    H       -1.74361         0.06528        -3.36343
| 84>    H       -3.82554        -5.25426        -2.95814
| 85>    H       -3.12432        -5.55861         0.01428
| 86>    H       -2.83660        -7.36230         1.37357
| 87>    H       -3.77250        -8.81260         1.80351
| 88>    H       -4.94537        -5.98506         1.62457
| 89>    H       -4.53274        -6.83391         3.11808
| 90>    H       -5.81995        -7.45135         2.07946
| 91>    H       -5.98876        -7.97971        -5.83595
| 92>    H       -6.91404        -9.43906        -5.42106
| 93>    H       -3.93032        -9.30763        -6.12253
| 94>    H       -5.20603        -9.94775        -7.16053
| 95>    H       -4.77279       -10.79003        -5.66700
| 96>    H       -6.60617       -11.22346        -4.07394
| 97>    H       -5.74509       -11.59349        -1.15143
| 98>    H       -7.69645       -13.27430        -4.13087
| 99>    H       -8.89244       -15.39240        -4.77250
|100>    H       -8.45728       -17.32374        -1.42412
|101>    H       -3.23216       -17.50388         2.12779
|102>    H       -7.26844       -20.33122         2.83427
|103> *
|104>
|105>                          ****END OF INPUT****

CARTESIAN COORDINATES (ANGSTROEM)
---------------------------------
  C      0.580440   -0.053130   -0.761020
  O      0.622750   -1.136850   -0.238110
  C      1.527670    1.063970   -0.538900
  C      1.224870    2.133870   -1.398330
  C      2.004310    3.280250   -1.365510
  C      3.066480    3.338420   -0.471460
  C      3.356730    2.270030    0.381850
  C      2.583900    1.116990    0.347050
  Br     4.803900    2.380320    1.589740
  Br     4.128180    4.901030   -0.425850
  C      0.059490    1.782180   -2.204160
  C     -0.566510    2.609100   -3.096700
  C     -0.135820    3.921240   -3.395440
  N      0.168080    4.989030   -3.684080
  C     -1.728970    2.293080   -3.834470
  N     -2.674790    2.120700   -4.461240
  C     -0.339790    0.432390   -1.833350
  C     -1.293320   -0.310680   -2.453980
  C     -1.780970   -1.578380   -2.042840
  S     -2.613100   -2.629850   -3.197830
  C     -2.811470   -3.728670   -1.849100
  N     -2.312440   -3.246940   -0.733260
  N     -1.757870   -2.088910   -0.843650
  C     -3.435110   -4.994700   -1.983880
  C     -3.529060   -5.859230   -0.940990
  C     -4.117510   -7.141810   -1.064090
  N     -4.214680   -8.043650   -0.030610
  C     -3.827560   -7.822510    1.342560
  C     -4.847550   -6.964690    2.086750
  C     -4.808670   -9.249010   -0.437070
  O     -4.989480  -10.195910    0.303240
  C     -5.092940   -9.052710   -1.842650
  C     -4.661130   -7.751410   -2.195100
  C     -4.946970   -7.552850   -3.599890
  O     -4.765100   -6.609770   -4.343080
  N     -5.547520   -8.756550   -4.005660
  C     -5.925790   -8.972440   -5.381620
  C     -4.893050   -9.812520   -6.129050
  C     -5.632970   -9.663550   -2.975080
  C     -6.188310  -10.959010   -3.114120
  C     -6.188180  -11.864150   -2.101190
  C     -6.713820  -13.177990   -2.202690
  S     -6.463550  -14.293660   -0.888260
  C     -7.299740  -15.561090   -1.723570
  C     -7.781520  -15.107730   -2.956170
  C     -7.428210  -13.778070   -3.220100
  C     -8.540490  -15.944480   -3.880640
  O     -8.794800  -17.111170   -3.726410
  C     -7.518660  -16.843680   -1.158180
  C     -6.729070  -17.526040   -0.290050
  C     -7.304060  -18.636430    0.523770
  O     -8.372720  -19.172570    0.373480
  C     -6.305520  -18.877710    1.589600
  C     -5.168160  -18.079810    1.363280
  C     -5.347800  -17.343540    0.114410
  C     -4.337600  -16.826150   -0.649380
  C     -4.509270  -16.361200   -1.970970
  N     -4.589900  -16.009550   -3.060250
  C     -2.988020  -16.784570   -0.238040
  N     -1.883110  -16.717720    0.061850
  C     -4.111650  -18.114070    2.257430
  C     -4.203240  -18.953810    3.361500
  C     -5.328680  -19.755690    3.570860
  C     -6.393900  -19.718400    2.679990
  Br    -5.419280  -20.897920    5.072360
  Br    -2.769950  -18.993970    4.591280
  H      1.815430    4.122770   -2.010740
  H      2.797890    0.282390    0.996660
  H     -1.743610    0.065280   -3.363430
  H     -3.825540   -5.254260   -2.958140
  H     -3.124320   -5.558610    0.014280
  H     -2.836600   -7.362300    1.373570
  H     -3.772500   -8.812600    1.803510
  H     -4.945370   -5.985060    1.624570
  H     -4.532740   -6.833910    3.118080
  H     -5.819950   -7.451350    2.079460
  H     -5.988760   -7.979710   -5.835950
  H     -6.914040   -9.439060   -5.421060
  H     -3.930320   -9.307630   -6.122530
  H     -5.206030   -9.947750   -7.160530
  H     -4.772790  -10.790030   -5.667000
  H     -6.606170  -11.223460   -4.073940
  H     -5.745090  -11.593490   -1.151430
  H     -7.696450  -13.274300   -4.130870
  H     -8.892440  -15.392400   -4.772500
  H     -8.457280  -17.323740   -1.424120
  H     -3.232160  -17.503880    2.127790
  H     -7.268440  -20.331220    2.834270

 Total Charge           Charge          ....    0
 Multiplicity           Mult            ....    1
 Number of Electrons    NEL             ....  572
 Basis Dimension        Dim             .... 1114

ORBITAL ENERGIES
----------------

  NO   OCC          E(Eh)            E(eV)
   0   2.0000    -482.881169    -13139.8646
   1   2.0000    -482.880895    -13139.8572
   2   2.0000    -482.880317    -13139.8414
   3   2.0000    -482.879080    -13139.8078
   4   2.0000     -88.991347     -2421.5777
   5   2.0000     -88.987286     -2421.4672
   6   2.0000     -62.558778     -1702.3109
   7   2.0000     -62.558489     -1702.3030
   8   2.0000     -62.557927     -1702.2877
   9   2.0000     -62.556704     -1702.2545
  10   2.0000     -56.392731     -1534.5242
  11   2.0000     -56.392438     -1534.5162
  12   2.0000     -56.391891     -1534.5014
  13   2.0000     -56.390670     -1534.4681
  14   2.0000     -56.390073     -1534.4519
  15   2.0000     -56.389975     -1534.4492
  16   2.0000     -56.389792     -1534.4442
  17   2.0000     -56.389685     -1534.4413
  18   2.0000     -56.389215     -1534.4286
  19   2.0000     -56.389121     -1534.4260
  20   2.0000     -56.387992     -1534.3953
  21   2.0000     -56.387897     -1534.3927
  22   2.0000     -19.232271      -523.3367
  23   2.0000     -19.228477      -523.2335
  24   2.0000     -19.224836      -523.1344
  25   2.0000     -19.206462      -522.6344
  26   2.0000     -19.201486      -522.4990
  27   2.0000     -14.466757      -393.6605
  28   2.0000     -14.463859      -393.5816
  29   2.0000     -14.454735      -393.3333
  30   2.0000     -14.450823      -393.2269
  31   2.0000     -14.430194      -392.6655
  32   2.0000     -14.427249      -392.5854
  33   2.0000     -14.426756      -392.5720
  34   2.0000     -14.426307      -392.5598
  35   2.0000     -10.388015      -282.6723
  36   2.0000     -10.384422      -282.5745
  37   2.0000     -10.379899      -282.4514
  38   2.0000     -10.378053      -282.4012
  39   2.0000     -10.376288      -282.3532
  40   2.0000     -10.359748      -281.9031
  41   2.0000     -10.359592      -281.8988
  42   2.0000     -10.358832      -281.8782
  43   2.0000     -10.358762      -281.8762
  44   2.0000     -10.358750      -281.8759
  45   2.0000     -10.358072      -281.8575
  46   2.0000     -10.357595      -281.8445
  47   2.0000     -10.356214      -281.8069
  48   2.0000     -10.355619      -281.7907
  49   2.0000     -10.354454      -281.7590
  50   2.0000     -10.353550      -281.7344
  51   2.0000     -10.348928      -281.6087
  52   2.0000     -10.340787      -281.3871
  53   2.0000     -10.335721      -281.2493
  54   2.0000     -10.335157      -281.2339
  55   2.0000     -10.331895      -281.1452
  56   2.0000     -10.329886      -281.0905
  57   2.0000     -10.329036      -281.0674
  58   2.0000     -10.328256      -281.0461
  59   2.0000     -10.327915      -281.0368
  60   2.0000     -10.325117      -280.9607
  61   2.0000     -10.323750      -280.9235
  62   2.0000     -10.320241      -280.8280
  63   2.0000     -10.319604      -280.8107
  64   2.0000     -10.317547      -280.7547
  65   2.0000     -10.317319      -280.7485
  66   2.0000     -10.316536      -280.7272
  67   2.0000     -10.315440      -280.6974
  68   2.0000     -10.314659      -280.6761
  69   2.0000     -10.313137      -280.6347
  70   2.0000     -10.312735      -280.6238
  71   2.0000     -10.310366      -280.5593
  72   2.0000     -10.310140      -280.5532
  73   2.0000     -10.309764      -280.5429
  74   2.0000     -10.308444      -280.5070
  75   2.0000     -10.308404      -280.5059
  76   2.0000     -10.307986      -280.4946
  77   2.0000     -10.305444      -280.4254
  78   2.0000     -10.275542      -279.6117
  79   2.0000     -10.273651      -279.5603
  80   2.0000     -10.273537      -279.5571
  81   2.0000     -10.268679      -279.4249
  82   2.0000      -8.788099      -239.1363
  83   2.0000      -8.787808      -239.1284
  84   2.0000      -8.787251      -239.1133
  85   2.0000      -8.786030      -239.0800
  86   2.0000      -8.086269      -220.0386
  87   2.0000      -8.083418      -219.9610
  88   2.0000      -6.624232      -180.2545
  89   2.0000      -6.623919      -180.2460
  90   2.0000      -6.623408      -180.2321
  91   2.0000      -6.622214      -180.1996
  92   2.0000      -6.610221      -179.8733
  93   2.0000      -6.609968      -179.8664
  94   2.0000      -6.609435      -179.8519
  95   2.0000      -6.609361      -179.8498
  96   2.0000      -6.609121      -179.8433
  97   2.0000      -6.608565      -179.8282
  98   2.0000      -6.608118      -179.8160
  99   2.0000      -6.607349      -179.7951
 100   2.0000      -6.055393      -164.7756
 101   2.0000      -6.051928      -164.6813
 102   2.0000      -6.051176      -164.6609
 103   2.0000      -6.048792      -164.5960
 104   2.0000      -6.048633      -164.5917
 105   2.0000      -6.046021      -164.5206
 106   2.0000      -2.740174       -74.5639
 107   2.0000      -2.739871       -74.5557
 108   2.0000      -2.739356       -74.5417
 109   2.0000      -2.738129       -74.5083
 110   2.0000      -2.736371       -74.4604
 111   2.0000      -2.736080       -74.4525
 112   2.0000      -2.735742       -74.4433
 113   2.0000      -2.735516       -74.4372
 114   2.0000      -2.735429       -74.4348
 115   2.0000      -2.734907       -74.4206
 116   2.0000      -2.734319       -74.4046
 117   2.0000      -2.733704       -74.3879
 118   2.0000      -2.724615       -74.1405
 119   2.0000      -2.724595       -74.1400
 120   2.0000      -2.724324       -74.1326
 121   2.0000      -2.724313       -74.1323
 122   2.0000      -2.723725       -74.1163
 123   2.0000      -2.723713       -74.1160
 124   2.0000      -2.722519       -74.0835
 125   2.0000      -2.722488       -74.0827
 126   2.0000      -1.160070       -31.5671
 127   2.0000      -1.146969       -31.2106
 128   2.0000      -1.145896       -31.1814
 129   2.0000      -1.144932       -31.1552
 130   2.0000      -1.142112       -31.0784
 131   2.0000      -1.139092       -30.9963
 132   2.0000      -1.076761       -29.3001
 133   2.0000      -1.067661       -29.0525
 134   2.0000      -1.034603       -28.1530
 135   2.0000      -1.033683       -28.1279
 136   2.0000      -1.019047       -27.7297
 137   2.0000      -1.016809       -27.6688
 138   2.0000      -1.015068       -27.6214
 139   2.0000      -1.006791       -27.3962
 140   2.0000      -1.003886       -27.3171
 141   2.0000      -0.985915       -26.8281
 142   2.0000      -0.984422       -26.7875
 143   2.0000      -0.959725       -26.1155
 144   2.0000      -0.943308       -25.6687
 145   2.0000      -0.940515       -25.5927
 146   2.0000      -0.934038       -25.4165
 147   2.0000      -0.927394       -25.2357
 148   2.0000      -0.927207       -25.2306
 149   2.0000      -0.918195       -24.9853
 150   2.0000      -0.916966       -24.9519
 151   2.0000      -0.910661       -24.7804
 152   2.0000      -0.902754       -24.5652
 153   2.0000      -0.893628       -24.3168
 154   2.0000      -0.881763       -23.9940
 155   2.0000      -0.879126       -23.9222
 156   2.0000      -0.876086       -23.8395
 157   2.0000      -0.859014       -23.3750
 158   2.0000      -0.858951       -23.3733
 159   2.0000      -0.854958       -23.2646
 160   2.0000      -0.840921       -22.8826
 161   2.0000      -0.830040       -22.5865
 162   2.0000      -0.813649       -22.1405
 163   2.0000      -0.800388       -21.7797
 164   2.0000      -0.791375       -21.5344
 165   2.0000      -0.780969       -21.2512
 166   2.0000      -0.774156       -21.0659
 167   2.0000      -0.770130       -20.9563
 168   2.0000      -0.769970       -20.9519
 169   2.0000      -0.745913       -20.2973
 170   2.0000      -0.737779       -20.0760
 171   2.0000      -0.735173       -20.0051
 172   2.0000      -0.725252       -19.7351
 173   2.0000      -0.717611       -19.5272
 174   2.0000      -0.713969       -19.4281
 175   2.0000      -0.706691       -19.2300
 176   2.0000      -0.701246       -19.0819
 177   2.0000      -0.701223       -19.0813
 178   2.0000      -0.696772       -18.9601
 179   2.0000      -0.685710       -18.6591
 180   2.0000      -0.682999       -18.5854
 181   2.0000      -0.662331       -18.0230
 182   2.0000      -0.659237       -17.9388
 183   2.0000      -0.657039       -17.8789
 184   2.0000      -0.640945       -17.4410
 185   2.0000      -0.631263       -17.1775
 186   2.0000      -0.625439       -17.0191
 187   2.0000      -0.624378       -16.9902
 188   2.0000      -0.615963       -16.7612
 189   2.0000      -0.614294       -16.7158
 190   2.0000      -0.605381       -16.4733
 191   2.0000      -0.602014       -16.3816
 192   2.0000      -0.596964       -16.2442
 193   2.0000      -0.593788       -16.1578
 194   2.0000      -0.589072       -16.0295
 195   2.0000      -0.585323       -15.9275
 196   2.0000      -0.583344       -15.8736
 197   2.0000      -0.577080       -15.7031
 198   2.0000      -0.569356       -15.4930
 199   2.0000      -0.561375       -15.2758
 200   2.0000      -0.560101       -15.2411
 201   2.0000      -0.557412       -15.1679
 202   2.0000      -0.555212       -15.1081
 203   2.0000      -0.555096       -15.1049
 204   2.0000      -0.550721       -14.9859
 205   2.0000      -0.547593       -14.9008
 206   2.0000      -0.546793       -14.8790
 207   2.0000      -0.542025       -14.7492
 208   2.0000      -0.540822       -14.7165
 209   2.0000      -0.539171       -14.6716
 210   2.0000      -0.537865       -14.6360
 211   2.0000      -0.535865       -14.5816
 212   2.0000      -0.535587       -14.5741
 213   2.0000      -0.528402       -14.3786
 214   2.0000      -0.527523       -14.3546
 215   2.0000      -0.523164       -14.2360
 216   2.0000      -0.521665       -14.1952
 217   2.0000      -0.518451       -14.1078
 218   2.0000      -0.516953       -14.0670
 219   2.0000      -0.511628       -13.9221
 220   2.0000      -0.510155       -13.8820
 221   2.0000      -0.509399       -13.8614
 222   2.0000      -0.508901       -13.8479
 223   2.0000      -0.503910       -13.7121
 224   2.0000      -0.498228       -13.5575
 225   2.0000      -0.494768       -13.4633
 226   2.0000      -0.492525       -13.4023
 227   2.0000      -0.489343       -13.3157
 228   2.0000      -0.484439       -13.1822
 229   2.0000      -0.482115       -13.1190
 230   2.0000      -0.480236       -13.0679
 231   2.0000      -0.476699       -12.9716
 232   2.0000      -0.475694       -12.9443
 233   2.0000      -0.469129       -12.7657
 234   2.0000      -0.468152       -12.7391
 235   2.0000      -0.466834       -12.7032
 236   2.0000      -0.466258       -12.6875
 237   2.0000      -0.465316       -12.6619
 238   2.0000      -0.462535       -12.5862
 239   2.0000      -0.460599       -12.5335
 240   2.0000      -0.459651       -12.5077
 241   2.0000      -0.457023       -12.4362
 242   2.0000      -0.454977       -12.3806
 243   2.0000      -0.453842       -12.3497
 244   2.0000      -0.452340       -12.3088
 245   2.0000      -0.451091       -12.2748
 246   2.0000      -0.448689       -12.2095
 247   2.0000      -0.440675       -11.9914
 248   2.0000      -0.440000       -11.9730
 249   2.0000      -0.439490       -11.9591
 250   2.0000      -0.437870       -11.9151
 251   2.0000      -0.437281       -11.8990
 252   2.0000      -0.434673       -11.8280
 253   2.0000      -0.433595       -11.7987
 254   2.0000      -0.431644       -11.7456
 255   2.0000      -0.424895       -11.5620
 256   2.0000      -0.422010       -11.4835
 257   2.0000      -0.420565       -11.4442
 258   2.0000      -0.407767       -11.0959
 259   2.0000      -0.406417       -11.0592
 260   2.0000      -0.404272       -11.0008
 261   2.0000      -0.403205       -10.9718
 262   2.0000      -0.397986       -10.8297
 263   2.0000      -0.394491       -10.7346
 264   2.0000      -0.393584       -10.7100
 265   2.0000      -0.383899       -10.4464
 266   2.0000      -0.382143       -10.3986
 267   2.0000      -0.362758        -9.8712
 268   2.0000      -0.361132        -9.8269
 269   2.0000      -0.354515        -9.6468
 270   2.0000      -0.353425        -9.6172
 271   2.0000      -0.352813        -9.6005
 272   2.0000      -0.352081        -9.5806
 273   2.0000      -0.348289        -9.4774
 274   2.0000      -0.347874        -9.4661
 275   2.0000      -0.345942        -9.4136
 276   2.0000      -0.344623        -9.3777
 277   2.0000      -0.339817        -9.2469
 278   2.0000      -0.337239        -9.1767
 279   2.0000      -0.327462        -8.9107
 280   2.0000      -0.326011        -8.8712
 281   2.0000      -0.318887        -8.6774
 282   2.0000      -0.317768        -8.6469
 283   2.0000      -0.308944        -8.4068
 284   2.0000      -0.301420        -8.2021
 285   2.0000      -0.247801        -6.7430
 286   0.0000      -0.120509        -3.2792
 287   0.0000      -0.107179        -2.9165
 288   0.0000      -0.087509        -2.3812
 289   0.0000      -0.074795        -2.0353
 290   0.0000      -0.069237        -1.8840

MULLIKEN ATOMIC CHARGES
-----------------------
   0 C :    0.147801
   1 O :   -0.090379
   2 C :   -0.026929
   3 C :    0.039530
   4 C :   -0.007022
   5 C :   -0.024795
   6 C :   -0.016121
   7 C :   -0.015206
   8 Br:    0.020046
   9 Br:    0.025027
  10 C :    0.299926
  11 C :   -0.333474
  12 C :   -0.185643
  13 N :    0.167927
  14 C :   -0.193031
  15 N :    0.164394
  16 C :   -0.069518
  17 C :    0.049670
  18 C :   -0.140222
  19 S :    0.142965
  20 C :   -0.094946
  21 N :   -0.053668
  22 N :    0.016529
  23 C :    0.070587
  24 C :   -0.019589
  25 C :    0.136874
  26 N :   -0.254245
  27 C :    0.097102
  28 C :    0.005307
  29 C :    0.165228
  30 O :   -0.211756
  31 C :   -0.065252
  32 C :   -0.056177
  33 C :    0.167581
  34 O :   -0.205265
  35 N :   -0.256898
  36 C :    0.098258
  37 C :    0.003642
  38 C :    0.135333
  39 C :   -0.023674
  40 C :    0.086348
  41 C :   -0.073566
  42 S :    0.209882
  43 C :   -0.177633
  44 C :    0.089818
  45 C :    0.006865
  46 C :    0.161000
  47 O :   -0.169696
  48 C :    0.058331
  49 C :   -0.129598
  50 C :    0.141937
  51 O :   -0.120527
  52 C :   -0.002018
  53 C :    0.020810
  54 C :    0.248355
  55 C :   -0.313546
  56 C :   -0.194116
  57 N :    0.178399
  58 C :   -0.180363
  59 N :    0.164571
  60 C :   -0.005409
  61 C :   -0.022709
  62 C :   -0.017265
  63 C :   -0.017659
  64 Br:    0.018659
  65 Br:    0.024918
  66 H :    0.008383
  67 H :    0.009641
  68 H :    0.025146
  69 H :    0.012857
  70 H :    0.009028
  71 H :    0.030085
  72 H :    0.044884
  73 H :    0.020421
  74 H :    0.027656
  75 H :    0.026772
  76 H :    0.046351
  77 H :    0.021645
  78 H :    0.031431
  79 H :    0.026577
  80 H :    0.020079
  81 H :   -0.026802
  82 H :    0.012084
  83 H :   -0.008951
  84 H :   -0.009771
  85 H :    0.053218
  86 H :    0.012983
  87 H :    0.010581
Sum of atomic charges:   -0.0000000

LOEWDIN ATOMIC CHARGES
----------------------
   0 C :    0.076812
   1 O :   -0.096474
   2 C :   -0.039710
   3 C :   -0.014901
   4 C :   -0.006529
   5 C :   -0.118875
   6 C :   -0.120327
   7 C :    0.007606
   8 Br:    0.142525
   9 Br:    0.143825
  10 C :    0.071534
  11 C :   -0.124525
  12 C :   -0.019490
  13 N :   -0.037167
  14 C :   -0.022608
  15 N :   -0.038621
  16 C :   -0.062672
  17 C :    0.034030
  18 C :   -0.165326
  19 S :    0.423882
  20 C :   -0.138164
  21 N :   -0.073863
  22 N :   -0.021812
  23 C :   -0.016528
  24 C :   -0.000635
  25 C :    0.067993
  26 N :    0.004501
  27 C :    0.037587
  28 C :   -0.059527
  29 C :    0.079685
  30 O :   -0.201497
  31 C :   -0.120264
  32 C :   -0.110768
  33 C :    0.082879
  34 O :   -0.193633
  35 N :    0.001051
  36 C :    0.036489
  37 C :   -0.060223
  38 C :    0.079458
  39 C :   -0.038241
  40 C :    0.013027
  41 C :   -0.153993
  42 S :    0.510432
  43 C :   -0.149875
  44 C :   -0.087485
  45 C :   -0.022101
  46 C :    0.115740
  47 O :   -0.116177
  48 C :    0.056116
  49 C :   -0.084423
  50 C :    0.084261
  51 O :   -0.122089
  52 C :   -0.043736
  53 C :   -0.009715
  54 C :    0.059919
  55 C :   -0.128005
  56 C :   -0.030132
  57 N :   -0.041265
  58 C :   -0.020970
  59 N :   -0.037637
  60 C :   -0.007980
  61 C :   -0.117249
  62 C :   -0.122581
  63 C :    0.008578
  64 Br:    0.141310
  65 Br:    0.145119
  66 H :    0.044728
  67 H :    0.047595
  68 H :    0.047016
  69 H :    0.037764
  70 H :    0.039795
  71 H :    0.026573
  72 H :    0.038246
  73 H :    0.024319
  74 H :    0.032936
  75 H :    0.031177
  76 H :    0.039118
  77 H :    0.022352
  78 H :    0.033434
  79 H :    0.032143
  80 H :    0.023484
  81 H :    0.028840
  82 H :    0.038170
  83 H :    0.033304
  84 H :    0.001825
  85 H :    0.057489
  86 H :    0.045333
  87 H :    0.047793

  Mayer bond orders larger than 0.100000
B(  0-C ,  1-O ) :   2.2957 B(  0-C ,  2-C ) :   0.9341 B(  0-C , 16-C ) :   0.9101
B(  2-C ,  3-C ) :   1.3288 B(  2-C ,  7-C ) :   1.3732 B(  3-C ,  4-C ) :   1.3562
B(  3-C , 10-C ) :   0.9990 B(  4-C ,  5-C ) :   1.3788 B(  4-C , 66-H ) :   0.9783
B(  5-C ,  6-C ) :   1.4138 B(  5-C ,  9-Br) :   1.0594 B(  6-C ,  7-C ) :   1.3559
B(  6-C ,  8-Br) :   1.0382 B(  7-C , 67-H ) :   1.0070 B( 10-C , 11-C ) :   1.6553
B( 10-C , 16-C ) :   1.0604 B( 11-C , 12-C ) :   1.1377 B( 11-C , 14-C ) :   1.1388
B( 12-C , 13-N ) :   2.9733 B( 14-C , 15-N ) :   2.9773 B( 16-C , 17-C ) :   1.6852
B( 17-C , 18-C ) :   1.1286 B( 17-C , 68-H ) :   0.9195 B( 18-C , 19-S ) :   1.0821
B( 18-C , 22-N ) :   1.6210 B( 19-S , 20-C ) :   1.1363 B( 19-S , 22-N ) :   0.1061
B( 20-C , 21-N ) :   1.6013 B( 20-C , 23-C ) :   1.1185 B( 21-N , 22-N ) :   1.2845
B( 23-C , 24-C ) :   1.6440 B( 23-C , 69-H ) :   0.9244 B( 24-C , 25-C ) :   1.1360
B( 24-C , 70-H ) :   0.9714 B( 25-C , 26-N ) :   1.1616 B( 25-C , 32-C ) :   1.3400
B( 26-N , 27-C ) :   0.9409 B( 26-N , 29-C ) :   1.0660 B( 27-C , 28-C ) :   1.1222
B( 27-C , 71-H ) :   0.9496 B( 27-C , 72-H ) :   0.9286 B( 28-C , 73-H ) :   0.9684
B( 28-C , 74-H ) :   0.9678 B( 28-C , 75-H ) :   0.9638 B( 29-C , 30-O ) :   2.0234
B( 29-C , 31-C ) :   0.9858 B( 30-O , 82-H ) :   0.1154 B( 31-C , 32-C ) :   1.2641
B( 31-C , 38-C ) :   1.3291 B( 32-C , 33-C ) :   0.9799 B( 33-C , 34-O ) :   2.0317
B( 33-C , 35-N ) :   1.0589 B( 34-O , 69-H ) :   0.1103 B( 35-N , 36-C ) :   0.9439
B( 35-N , 38-C ) :   1.1624 B( 36-C , 37-C ) :   1.1205 B( 36-C , 76-H ) :   0.9276
B( 36-C , 77-H ) :   0.9494 B( 37-C , 78-H ) :   0.9635 B( 37-C , 79-H ) :   0.9678
B( 37-C , 80-H ) :   0.9684 B( 38-C , 39-C ) :   1.1711 B( 39-C , 40-C ) :   1.6269
B( 39-C , 81-H ) :   0.9604 B( 40-C , 41-C ) :   1.1218 B( 40-C , 82-H ) :   0.9349
B( 41-C , 42-S ) :   1.1368 B( 41-C , 45-C ) :   1.4678 B( 42-S , 43-C ) :   1.1724
B( 43-C , 44-C ) :   1.4173 B( 43-C , 48-C ) :   1.1029 B( 44-C , 45-C ) :   1.2609
B( 44-C , 46-C ) :   0.9780 B( 45-C , 83-H ) :   0.9876 B( 46-C , 47-O ) :   2.1375
B( 46-C , 84-H ) :   0.9610 B( 48-C , 49-C ) :   1.6890 B( 48-C , 85-H ) :   0.9276
B( 49-C , 50-C ) :   0.9312 B( 49-C , 54-C ) :   1.0232 B( 50-C , 51-O ) :   2.2906
B( 50-C , 52-C ) :   0.9200 B( 52-C , 53-C ) :   1.3272 B( 52-C , 63-C ) :   1.3731
B( 53-C , 54-C ) :   1.0055 B( 53-C , 60-C ) :   1.3686 B( 54-C , 55-C ) :   1.6797
B( 55-C , 56-C ) :   1.1557 B( 55-C , 58-C ) :   1.1281 B( 56-C , 57-N ) :   3.0175
B( 58-C , 59-N ) :   2.9929 B( 60-C , 61-C ) :   1.3724 B( 60-C , 86-H ) :   0.9821
B( 61-C , 62-C ) :   1.4169 B( 61-C , 65-Br) :   1.0544 B( 62-C , 63-C ) :   1.3594
B( 62-C , 64-Br) :   1.0362 B( 63-C , 87-H ) :   1.0071

-----------------------------------------------------------------------------
         ABSORPTION SPECTRUM VIA TRANSITION ELECTRIC DIPOLE MOMENTS
-----------------------------------------------------------------------------
State   Energy  Wavelength   fosc         T2         TX        TY        TZ
        (cm-1)    (nm)                  (au**2)     (au)      (au)      (au)
-----------------------------------------------------------------------------
   0   13180.4    758.7   1.062796491  26.54590  -1.66384  -4.87169  -0.21008
   1   17562.7    569.4   0.113333032   2.12443  -1.19710  -0.56292  -0.61197
   2   21499.0    465.1   0.086305937   1.32160   0.29460  -0.59372   0.93931
   3   21752.6    459.7   0.049940428   0.75582   0.42291   0.11340   0.75107
   4   23780.5    420.5   0.208697854   2.88916   0.73567  -1.36107   0.70387
   5   25265.1    395.8   0.173053027   2.25494   0.08862   1.35773  -0.63534
   6   25968.4    385.1   0.169701130   2.15137   0.53614   1.35336  -0.17982
   7   26090.4    383.3   0.068532688   0.86475  -0.37415  -0.78204   0.33642
   8   26495.3    377.4   0.064017417   0.79544  -0.31668  -0.83333  -0.02672
   9   27286.2    366.5   0.136518948   1.64712  -0.33425  -0.84484   0.90645
  10   27872.4    358.8   0.206184402   2.43533   0.11633   1.37153  -0.73532
  11   28257.5    353.9   0.139822403   1.62899   0.17251  -0.73727   1.02746
  12   28376.2    352.4   0.102592302   1.19024  -0.66956  -0.86113   0.02000
  13   28445.6    351.5   0.346922465   4.01506   1.55688   1.14699   0.52498
  14   29064.4    344.1   0.021970952   0.24886   0.10588   0.42023  -0.24711
  15   29183.7    342.7   0.103750356   1.17037   0.84304   0.67516   0.06167
  16   29296.2    341.3   0.081613631   0.91712  -0.09178  -0.58446   0.75307
  17   29805.5    335.5   0.007221273   0.07976   0.11630   0.25684   0.01646
  18   31166.9    320.9   0.022718515   0.23997   0.11752   0.47542   0.01184
  19   31612.8    316.3   0.010793310   0.11240   0.00736   0.32165  -0.09429
  20   32106.6    311.5   0.060912267   0.62458   0.60677   0.42238   0.27930
  21   32394.8    308.7   0.031984122   0.32504  -0.05794  -0.20244   0.52981
  22   32541.5    307.3   0.040130234   0.40598  -0.47254  -0.38783   0.17966
  23   32577.7    307.0   0.008317792   0.08405  -0.11362  -0.26343   0.04183
  24   33212.9    301.1   0.130412009   1.29267   0.29287  -0.45530   0.99980
  25   33636.5    297.3   0.074709036   0.73120   0.31954   0.69771  -0.37723
  26   34641.8    288.7   0.151052579   1.43550   0.33957   0.65294  -0.94544
  27   34907.2    286.5   0.161682609   1.52484   1.14367   0.24915   0.39341
  28   35016.9    285.6   0.119595588   1.12438  -0.35478   0.07091  -0.99674
  29   35240.8    283.8   0.220612227   2.06091   1.16780  -0.24555   0.79804
  30   35367.7    282.7   0.236564984   2.20201   0.03895  -1.03126   1.06630
  31   35607.6    280.8   0.277751096   2.56797   0.22548  -0.58645   1.47418
  32   36337.1    275.2   0.150123187   1.36011   1.05781   0.47678  -0.11762
  33   36437.7    274.4   0.000447527   0.00404   0.00853  -0.04522   0.04388
  34   36599.7    273.2   0.119478127   1.07470  -0.63332   0.62145  -0.53610
  35   36771.9    271.9   0.012540797   0.11228  -0.00335  -0.23630   0.23754
  36   36853.1    271.3   0.009635999   0.08608   0.04883   0.24891  -0.14744
  37   37430.1    267.2   0.093608111   0.82332   0.64410   0.63783   0.04044
  38   37462.9    266.9   0.080838065   0.71038   0.55060   0.63444   0.06860
  39   37746.0    264.9   0.007721330   0.06734  -0.23505  -0.01737  -0.10861
  40   37890.0    263.9   0.002556423   0.02221   0.11195  -0.02604   0.09487
  41   38004.8    263.1   0.000320150   0.00277  -0.01608  -0.01834  -0.04667
  42   38268.0    261.3   0.031857810   0.27407  -0.34902  -0.08276  -0.38131
  43   38690.4    258.5   0.512718164   4.36266  -0.53802  -1.76425   0.98011
  44   39327.8    254.3   0.012281173   0.10281  -0.09119   0.03188  -0.30573
  45   39410.7    253.7   0.115968302   0.96872  -0.81969  -0.45678  -0.29695
  46   39564.4    252.8   0.106388402   0.88525  -0.70443  -0.51822  -0.34709
  47   39632.4    252.3   0.112573131   0.93510  -0.58987   0.36624  -0.67307
  48   40011.6    249.9   0.027190157   0.22372  -0.06564   0.31746  -0.34443
  49   40270.3    248.3   0.009342794   0.07638   0.20580   0.05904  -0.17475

FINAL SINGLE POINT ENERGY    -13706.983273204965

DIPOLE MOMENT
-------------
                                X             Y             Z
Electronic contribution:    144.98933      20.01923     141.59760
Nuclear contribution   :   -145.73964     -20.61251    -141.04923
                        -----------------------------------------
Total Dipole Moment    :     -0.75031      -0.59328       0.54837
                        -----------------------------------------
Magnitude (a.u.)       :      1.10256
Magnitude (Debye)      :      2.80250

Rotational constants in cm-1:     0.001266     0.000156     0.000142
Rotational constants in MHz :    37.959638     4.677393     4.249314

                             ****ORCA TERMINATED NORMALLY****
TOTAL RUN TIME: 0 days 0 hours 9 minutes 47 seconds 290 msec
