                         Program Version 4.2.0 -  RELEASE  -
|  1> # ORCA input file
|  2> # SCF done       -200.571343406518          0.000396471036
|  3> ! CAM-B3LYP def2-SVP def2/J RIJCOSX Grid4 TightSCF
|  4> %maxcore 5000
|  5> %tddft
|  6>     Mode sTDDFT
|  7>     Ethresh 5.0
|  8>     maxcore 5000
|  9> end
| 10>
| 11> %pal
| 12>   nprocs 6
| 13>   end
| 14> * xyz 0 1
| 15>    C        3.80320       -10.81428         3.09660
| 16>    O        2.73066       -10.51588         2.61605
| 17>    C        5.10544       -10.20969         2.75978
| 18>    C        6.11453       -10.78760         3.55025
| 19>    C        7.42645       -10.36882         3.39336
| 20>    C        7.70421        -9.38171         2.45471
| 21>    C        6.69190        -8.81193         1.67685
| 22>    C        5.37617        -9.22848         1.82807
| 23>   Br        7.10001        -7.47173         0.41074
| 24>   Br        9.49334        -8.81451         2.23976
| 25>    C        5.51336       -11.78198         4.43607
| 26>    C        6.17754       -12.48075         5.40448
| 27>    C        7.56163       -12.34876         5.66021
| 28>    N        8.67866       -12.28501         5.91227
| 29>    C        5.60211       -13.40520         6.30608
| 30>    N        5.22663       -14.15851         7.08555
| 31>    C        4.09089       -11.84339         4.11950
| 32>    C        3.20114       -12.74074         4.62797
| 33>    C        1.81697       -12.88262         4.37313
| 34>    S        0.76753       -11.87465         3.38713
| 35>    C       -0.51133       -12.97048         3.85390
| 36>    N       -0.09293       -13.93601         4.64746
| 37>    N        1.16235       -13.87985         4.92943
| 38>    C       -1.86062       -12.86447         3.42376
| 39>    C       -2.30792       -11.86346         2.63283
| 40>    C       -3.63769       -11.72237         2.15421
| 41>    O       -3.90133       -10.62422         1.38210
| 42>    C       -5.18157       -10.71997         1.02655
| 43>    C       -6.18400       -10.05632         0.30289
| 44>    C       -6.02728        -8.79880        -0.47768
| 45>    O       -5.04073        -8.55900        -1.12924
| 46>    N       -7.08624        -7.95397        -0.39618
| 47>    C       -7.31053       -10.88056         0.43705
| 48>    O       -7.04790       -11.97403         1.21814
| 49>    C       -5.76229       -11.87670         1.57625
| 50>    C       -4.76606       -12.52663         2.30658
| 51>    C       -8.57888       -10.75359        -0.18721
| 52>    C       -9.61682       -11.58520         0.05975
| 53>    C      -10.89024       -11.51290        -0.59555
| 54>    C      -12.09419       -11.85994         0.06136
| 55>    C      -12.14417       -12.31444         1.46438
| 56>    O      -11.24611       -12.44521         2.23976
| 57>    S      -13.85330       -12.66434         1.91182
| 58>    C      -14.47222       -12.15752         0.32596
| 59>    O      -15.64200       -12.15805         0.05982
| 60>    C      -13.34447       -11.76271        -0.54660
| 61>    C      -13.51616       -11.29961        -1.86495
| 62>    C      -12.31739       -11.04068        -2.54315
| 63>    C      -11.06488       -11.14470        -1.94481
| 64>    C      -10.05446       -10.95157        -3.01756
| 65>    O       -8.86493       -10.99435        -2.98834
| 66>    O      -10.74292       -10.73301        -4.18727
| 67>    C      -12.09657       -10.76777        -3.98843
| 68>    O      -12.87628       -10.62572        -4.87742
| 69>    C      -14.83296       -11.10059        -2.42700
| 70>    C      -15.17255       -10.05166        -3.19267
| 71>    C      -16.50456        -9.82074        -3.67364
| 72>    C      -17.67480       -10.00597        -3.02626
| 73>    C      -18.95053       -10.00287        -3.80916
| 74>    O      -19.09881        -9.62141        -4.94253
| 75>    C      -19.94984       -10.61149        -2.90887
| 76>    C      -19.37422       -10.82835        -1.64240
| 77>    C      -18.00650       -10.31524        -1.64031
| 78>    C      -17.30199        -9.98474        -0.51967
| 79>    C      -16.04875        -9.33861        -0.50051
| 80>    N      -15.03736        -8.80792        -0.38701
| 81>    C      -17.77299       -10.20185         0.79647
| 82>    N      -18.10963       -10.34036         1.88333
| 83>    C      -20.11670       -11.43696        -0.64362
| 84>    C      -21.42923       -11.80108        -0.91917
| 85>    C      -22.00100       -11.56121        -2.17298
| 86>    C      -21.25580       -10.96593        -3.18203
| 87>   Br      -23.79240       -12.05180        -2.51322
| 88>   Br      -22.44258       -12.63819         0.43651
| 89>    H        8.23580       -10.78423         3.97118
| 90>    H        4.58422        -8.79898         1.23424
| 91>    H        3.55651       -13.49243         5.32251
| 92>    H       -2.51839       -13.64621         3.77279
| 93>    H       -1.62743       -11.08677         2.30805
| 94>    H       -7.82486        -8.08257         0.27161
| 95>    H       -7.00837        -7.06474        -0.86321
| 96>    H       -4.82998       -13.43908         2.86023
| 97>    H       -8.66817        -9.93593        -0.88488
| 98>    H       -9.51294       -12.32266         0.84260
| 99>    H      -15.59120       -11.81246        -2.13090
|100>    H      -14.42553        -9.34060        -3.51542
|101>    H      -16.58625        -9.47969        -4.70177
|102>    H      -19.70124       -11.64632         0.32895
|103>    H      -21.68427       -10.78404        -4.15545
|104> *
|105>
|106>                          ****END OF INPUT****

CARTESIAN COORDINATES (ANGSTROEM)
---------------------------------
  C      3.803200  -10.814280    3.096600
  O      2.730660  -10.515880    2.616050
  C      5.105440  -10.209690    2.759780
  C      6.114530  -10.787600    3.550250
  C      7.426450  -10.368820    3.393360
  C      7.704210   -9.381710    2.454710
  C      6.691900   -8.811930    1.676850
  C      5.376170   -9.228480    1.828070
  Br     7.100010   -7.471730    0.410740
  Br     9.493340   -8.814510    2.239760
  C      5.513360  -11.781980    4.436070
  C      6.177540  -12.480750    5.404480
  C      7.561630  -12.348760    5.660210
  N      8.678660  -12.285010    5.912270
  C      5.602110  -13.405200    6.306080
  N      5.226630  -14.158510    7.085550
  C      4.090890  -11.843390    4.119500
  C      3.201140  -12.740740    4.627970
  C      1.816970  -12.882620    4.373130
  S      0.767530  -11.874650    3.387130
  C     -0.511330  -12.970480    3.853900
  N     -0.092930  -13.936010    4.647460
  N      1.162350  -13.879850    4.929430
  C     -1.860620  -12.864470    3.423760
  C     -2.307920  -11.863460    2.632830
  C     -3.637690  -11.722370    2.154210
  O     -3.901330  -10.624220    1.382100
  C     -5.181570  -10.719970    1.026550
  C     -6.184000  -10.056320    0.302890
  C     -6.027280   -8.798800   -0.477680
  O     -5.040730   -8.559000   -1.129240
  N     -7.086240   -7.953970   -0.396180
  C     -7.310530  -10.880560    0.437050
  O     -7.047900  -11.974030    1.218140
  C     -5.762290  -11.876700    1.576250
  C     -4.766060  -12.526630    2.306580
  C     -8.578880  -10.753590   -0.187210
  C     -9.616820  -11.585200    0.059750
  C    -10.890240  -11.512900   -0.595550
  C    -12.094190  -11.859940    0.061360
  C    -12.144170  -12.314440    1.464380
  O    -11.246110  -12.445210    2.239760
  S    -13.853300  -12.664340    1.911820
  C    -14.472220  -12.157520    0.325960
  O    -15.642000  -12.158050    0.059820
  C    -13.344470  -11.762710   -0.546600
  C    -13.516160  -11.299610   -1.864950
  C    -12.317390  -11.040680   -2.543150
  C    -11.064880  -11.144700   -1.944810
  C    -10.054460  -10.951570   -3.017560
  O     -8.864930  -10.994350   -2.988340
  O    -10.742920  -10.733010   -4.187270
  C    -12.096570  -10.767770   -3.988430
  O    -12.876280  -10.625720   -4.877420
  C    -14.832960  -11.100590   -2.427000
  C    -15.172550  -10.051660   -3.192670
  C    -16.504560   -9.820740   -3.673640
  C    -17.674800  -10.005970   -3.026260
  C    -18.950530  -10.002870   -3.809160
  O    -19.098810   -9.621410   -4.942530
  C    -19.949840  -10.611490   -2.908870
  C    -19.374220  -10.828350   -1.642400
  C    -18.006500  -10.315240   -1.640310
  C    -17.301990   -9.984740   -0.519670
  C    -16.048750   -9.338610   -0.500510
  N    -15.037360   -8.807920   -0.387010
  C    -17.772990  -10.201850    0.796470
  N    -18.109630  -10.340360    1.883330
  C    -20.116700  -11.436960   -0.643620
  C    -21.429230  -11.801080   -0.919170
  C    -22.001000  -11.561210   -2.172980
  C    -21.255800  -10.965930   -3.182030
  Br   -23.792400  -12.051800   -2.513220
  Br   -22.442580  -12.638190    0.436510
  H      8.235800  -10.784230    3.971180
  H      4.584220   -8.798980    1.234240
  H      3.556510  -13.492430    5.322510
  H     -2.518390  -13.646210    3.772790
  H     -1.627430  -11.086770    2.308050
  H     -7.824860   -8.082570    0.271610
  H     -7.008370   -7.064740   -0.863210
  H     -4.829980  -13.439080    2.860230
  H     -8.668170   -9.935930   -0.884880
  H     -9.512940  -12.322660    0.842600
  H    -15.591200  -11.812460   -2.130900
  H    -14.425530   -9.340600   -3.515420
  H    -16.586250   -9.479690   -4.701770
  H    -19.701240  -11.646320    0.328950
  H    -21.684270  -10.784040   -4.155450

 Total Charge           Charge          ....    0
 Multiplicity           Mult            ....    1
 Number of Electrons    NEL             ....  622
 Basis Dimension        Dim             .... 1191

ORBITAL ENERGIES
----------------

  NO   OCC          E(Eh)            E(eV)
   0   2.0000    -482.883793    -13139.9360
   1   2.0000    -482.883330    -13139.9234
   2   2.0000    -482.882294    -13139.8952
   3   2.0000    -482.882079    -13139.8894
   4   2.0000     -88.982767     -2421.3442
   5   2.0000     -88.968509     -2420.9562
   6   2.0000     -62.561385     -1702.3818
   7   2.0000     -62.560942     -1702.3698
   8   2.0000     -62.559915     -1702.3418
   9   2.0000     -62.559700     -1702.3360
  10   2.0000     -56.395344     -1534.5953
  11   2.0000     -56.394896     -1534.5831
  12   2.0000     -56.393880     -1534.5555
  13   2.0000     -56.393670     -1534.5498
  14   2.0000     -56.392686     -1534.5230
  15   2.0000     -56.392574     -1534.5200
  16   2.0000     -56.392235     -1534.5107
  17   2.0000     -56.392139     -1534.5081
  18   2.0000     -56.391208     -1534.4828
  19   2.0000     -56.391104     -1534.4799
  20   2.0000     -56.390990     -1534.4768
  21   2.0000     -56.390885     -1534.4740
  22   2.0000     -19.319407      -525.7078
  23   2.0000     -19.316637      -525.6324
  24   2.0000     -19.306373      -525.3531
  25   2.0000     -19.262307      -524.1540
  26   2.0000     -19.260610      -524.1078
  27   2.0000     -19.252815      -523.8957
  28   2.0000     -19.252545      -523.8884
  29   2.0000     -19.242416      -523.6128
  30   2.0000     -19.233199      -523.3620
  31   2.0000     -19.192553      -522.2559
  32   2.0000     -14.454074      -393.3153
  33   2.0000     -14.446262      -393.1028
  34   2.0000     -14.442919      -393.0118
  35   2.0000     -14.432517      -392.7288
  36   2.0000     -14.428414      -392.6171
  37   2.0000     -14.428089      -392.6083
  38   2.0000     -14.426960      -392.5775
  39   2.0000     -10.448031      -284.3054
  40   2.0000     -10.447780      -284.2986
  41   2.0000     -10.424656      -283.6693
  42   2.0000     -10.422212      -283.6028
  43   2.0000     -10.393048      -282.8092
  44   2.0000     -10.390779      -282.7475
  45   2.0000     -10.383781      -282.5570
  46   2.0000     -10.365783      -282.0673
  47   2.0000     -10.362217      -281.9703
  48   2.0000     -10.362055      -281.9658
  49   2.0000     -10.361806      -281.9591
  50   2.0000     -10.361273      -281.9446
  51   2.0000     -10.361220      -281.9431
  52   2.0000     -10.361179      -281.9420
  53   2.0000     -10.360908      -281.9346
  54   2.0000     -10.357517      -281.8424
  55   2.0000     -10.356684      -281.8197
  56   2.0000     -10.351860      -281.6884
  57   2.0000     -10.351545      -281.6799
  58   2.0000     -10.351420      -281.6765
  59   2.0000     -10.350350      -281.6473
  60   2.0000     -10.349858      -281.6340
  61   2.0000     -10.347800      -281.5780
  62   2.0000     -10.344700      -281.4936
  63   2.0000     -10.343927      -281.4726
  64   2.0000     -10.342904      -281.4447
  65   2.0000     -10.342717      -281.4396
  66   2.0000     -10.336931      -281.2822
  67   2.0000     -10.335163      -281.2341
  68   2.0000     -10.329731      -281.0863
  69   2.0000     -10.329127      -281.0698
  70   2.0000     -10.328936      -281.0646
  71   2.0000     -10.328562      -281.0545
  72   2.0000     -10.327904      -281.0366
  73   2.0000     -10.327617      -281.0287
  74   2.0000     -10.320936      -280.8469
  75   2.0000     -10.320268      -280.8288
  76   2.0000     -10.320236      -280.8279
  77   2.0000     -10.319752      -280.8147
  78   2.0000     -10.319412      -280.8055
  79   2.0000     -10.317547      -280.7547
  80   2.0000     -10.315696      -280.7043
  81   2.0000     -10.315361      -280.6953
  82   2.0000     -10.314616      -280.6750
  83   2.0000     -10.313551      -280.6460
  84   2.0000     -10.313468      -280.6437
  85   2.0000     -10.313020      -280.6315
  86   2.0000     -10.312238      -280.6103
  87   2.0000     -10.308210      -280.5007
  88   2.0000     -10.305176      -280.4181
  89   2.0000     -10.301688      -280.3232
  90   2.0000      -8.790700      -239.2071
  91   2.0000      -8.790273      -239.1955
  92   2.0000      -8.789242      -239.1674
  93   2.0000      -8.789032      -239.1617
  94   2.0000      -8.077015      -219.7868
  95   2.0000      -8.067729      -219.5341
  96   2.0000      -6.626866      -180.3262
  97   2.0000      -6.626410      -180.3138
  98   2.0000      -6.625431      -180.2872
  99   2.0000      -6.625231      -180.2817
 100   2.0000      -6.612830      -179.9443
 101   2.0000      -6.612395      -179.9324
 102   2.0000      -6.611996      -179.9216
 103   2.0000      -6.611598      -179.9107
 104   2.0000      -6.611347      -179.9039
 105   2.0000      -6.611135      -179.8981
 106   2.0000      -6.610531      -179.8817
 107   2.0000      -6.610311      -179.8757
 108   2.0000      -6.045849      -164.5159
 109   2.0000      -6.042056      -164.4127
 110   2.0000      -6.039526      -164.3439
 111   2.0000      -6.036584      -164.2638
 112   2.0000      -6.033281      -164.1739
 113   2.0000      -6.028803      -164.0521
 114   2.0000      -2.742744       -74.6339
 115   2.0000      -2.742346       -74.6230
 116   2.0000      -2.741335       -74.5955
 117   2.0000      -2.741120       -74.5897
 118   2.0000      -2.738979       -74.5314
 119   2.0000      -2.738547       -74.5197
 120   2.0000      -2.738398       -74.5156
 121   2.0000      -2.737921       -74.5026
 122   2.0000      -2.737532       -74.4920
 123   2.0000      -2.737336       -74.4867
 124   2.0000      -2.736931       -74.4757
 125   2.0000      -2.736723       -74.4700
 126   2.0000      -2.727196       -74.2108
 127   2.0000      -2.727175       -74.2102
 128   2.0000      -2.726771       -74.1992
 129   2.0000      -2.726769       -74.1992
 130   2.0000      -2.725712       -74.1704
 131   2.0000      -2.725698       -74.1700
 132   2.0000      -2.725492       -74.1644
 133   2.0000      -2.725477       -74.1640
 134   2.0000      -1.257361       -34.2145
 135   2.0000      -1.243937       -33.8493
 136   2.0000      -1.225929       -33.3592
 137   2.0000      -1.186882       -32.2967
 138   2.0000      -1.182655       -32.1817
 139   2.0000      -1.182003       -32.1639
 140   2.0000      -1.159113       -31.5411
 141   2.0000      -1.153657       -31.3926
 142   2.0000      -1.149701       -31.2850
 143   2.0000      -1.143776       -31.1237
 144   2.0000      -1.134321       -30.8665
 145   2.0000      -1.036031       -28.1918
 146   2.0000      -1.035661       -28.1818
 147   2.0000      -1.032442       -28.0942
 148   2.0000      -1.019783       -27.7497
 149   2.0000      -1.018656       -27.7190
 150   2.0000      -1.007652       -27.4196
 151   2.0000      -1.006285       -27.3824
 152   2.0000      -1.004269       -27.3275
 153   2.0000      -0.988487       -26.8981
 154   2.0000      -0.987563       -26.8729
 155   2.0000      -0.969859       -26.3912
 156   2.0000      -0.959095       -26.0983
 157   2.0000      -0.958004       -26.0686
 158   2.0000      -0.945352       -25.7243
 159   2.0000      -0.938441       -25.5363
 160   2.0000      -0.930898       -25.3310
 161   2.0000      -0.929690       -25.2982
 162   2.0000      -0.928904       -25.2768
 163   2.0000      -0.924306       -25.1517
 164   2.0000      -0.919997       -25.0344
 165   2.0000      -0.918990       -25.0070
 166   2.0000      -0.910163       -24.7668
 167   2.0000      -0.900142       -24.4941
 168   2.0000      -0.899573       -24.4786
 169   2.0000      -0.887719       -24.1561
 170   2.0000      -0.877115       -23.8675
 171   2.0000      -0.862356       -23.4659
 172   2.0000      -0.861502       -23.4427
 173   2.0000      -0.857549       -23.3351
 174   2.0000      -0.847823       -23.0704
 175   2.0000      -0.828365       -22.5410
 176   2.0000      -0.814602       -22.1665
 177   2.0000      -0.805608       -21.9217
 178   2.0000      -0.794494       -21.6193
 179   2.0000      -0.787700       -21.4344
 180   2.0000      -0.780919       -21.2499
 181   2.0000      -0.778671       -21.1887
 182   2.0000      -0.773534       -21.0489
 183   2.0000      -0.767135       -20.8748
 184   2.0000      -0.755204       -20.5502
 185   2.0000      -0.744267       -20.2525
 186   2.0000      -0.739831       -20.1318
 187   2.0000      -0.733697       -19.9649
 188   2.0000      -0.721579       -19.6352
 189   2.0000      -0.715975       -19.4827
 190   2.0000      -0.706363       -19.2211
 191   2.0000      -0.703148       -19.1336
 192   2.0000      -0.697789       -18.9878
 193   2.0000      -0.693222       -18.8635
 194   2.0000      -0.683595       -18.6016
 195   2.0000      -0.681814       -18.5531
 196   2.0000      -0.672942       -18.3117
 197   2.0000      -0.661809       -18.0087
 198   2.0000      -0.657678       -17.8963
 199   2.0000      -0.654006       -17.7964
 200   2.0000      -0.648843       -17.6559
 201   2.0000      -0.646924       -17.6037
 202   2.0000      -0.644834       -17.5468
 203   2.0000      -0.640663       -17.4333
 204   2.0000      -0.632710       -17.2169
 205   2.0000      -0.631189       -17.1755
 206   2.0000      -0.629410       -17.1271
 207   2.0000      -0.620664       -16.8891
 208   2.0000      -0.618053       -16.8181
 209   2.0000      -0.614464       -16.7204
 210   2.0000      -0.605666       -16.4810
 211   2.0000      -0.605145       -16.4668
 212   2.0000      -0.601135       -16.3577
 213   2.0000      -0.597238       -16.2517
 214   2.0000      -0.592222       -16.1152
 215   2.0000      -0.589449       -16.0397
 216   2.0000      -0.583328       -15.8732
 217   2.0000      -0.578952       -15.7541
 218   2.0000      -0.576379       -15.6841
 219   2.0000      -0.570327       -15.5194
 220   2.0000      -0.568613       -15.4727
 221   2.0000      -0.565240       -15.3810
 222   2.0000      -0.561986       -15.2924
 223   2.0000      -0.561248       -15.2723
 224   2.0000      -0.559174       -15.2159
 225   2.0000      -0.557664       -15.1748
 226   2.0000      -0.556333       -15.1386
 227   2.0000      -0.553757       -15.0685
 228   2.0000      -0.552459       -15.0332
 229   2.0000      -0.550682       -14.9848
 230   2.0000      -0.550197       -14.9716
 231   2.0000      -0.548896       -14.9362
 232   2.0000      -0.546282       -14.8651
 233   2.0000      -0.543009       -14.7760
 234   2.0000      -0.541549       -14.7363
 235   2.0000      -0.538702       -14.6588
 236   2.0000      -0.534573       -14.5465
 237   2.0000      -0.531705       -14.4684
 238   2.0000      -0.525421       -14.2974
 239   2.0000      -0.522535       -14.2189
 240   2.0000      -0.521404       -14.1881
 241   2.0000      -0.519618       -14.1395
 242   2.0000      -0.515635       -14.0311
 243   2.0000      -0.513873       -13.9832
 244   2.0000      -0.512323       -13.9410
 245   2.0000      -0.511006       -13.9052
 246   2.0000      -0.504248       -13.7213
 247   2.0000      -0.503559       -13.7025
 248   2.0000      -0.503461       -13.6999
 249   2.0000      -0.499399       -13.5893
 250   2.0000      -0.498558       -13.5664
 251   2.0000      -0.497003       -13.5241
 252   2.0000      -0.495232       -13.4760
 253   2.0000      -0.491141       -13.3646
 254   2.0000      -0.489815       -13.3285
 255   2.0000      -0.481774       -13.1097
 256   2.0000      -0.476613       -12.9693
 257   2.0000      -0.472813       -12.8659
 258   2.0000      -0.472085       -12.8461
 259   2.0000      -0.471699       -12.8356
 260   2.0000      -0.469320       -12.7709
 261   2.0000      -0.468010       -12.7352
 262   2.0000      -0.465609       -12.6699
 263   2.0000      -0.460682       -12.5358
 264   2.0000      -0.458981       -12.4895
 265   2.0000      -0.453933       -12.3521
 266   2.0000      -0.452406       -12.3106
 267   2.0000      -0.450580       -12.2609
 268   2.0000      -0.448003       -12.1908
 269   2.0000      -0.442514       -12.0414
 270   2.0000      -0.439888       -11.9700
 271   2.0000      -0.438048       -11.9199
 272   2.0000      -0.437658       -11.9093
 273   2.0000      -0.436822       -11.8865
 274   2.0000      -0.434603       -11.8262
 275   2.0000      -0.429032       -11.6745
 276   2.0000      -0.427476       -11.6322
 277   2.0000      -0.420660       -11.4467
 278   2.0000      -0.415924       -11.3179
 279   2.0000      -0.413222       -11.2443
 280   2.0000      -0.407758       -11.0957
 281   2.0000      -0.407552       -11.0900
 282   2.0000      -0.404991       -11.0204
 283   2.0000      -0.400344       -10.8939
 284   2.0000      -0.397252       -10.8098
 285   2.0000      -0.396411       -10.7869
 286   2.0000      -0.396373       -10.7859
 287   2.0000      -0.391411       -10.6508
 288   2.0000      -0.387646       -10.5484
 289   2.0000      -0.386921       -10.5287
 290   2.0000      -0.379402       -10.3240
 291   2.0000      -0.377965       -10.2850
 292   2.0000      -0.368938       -10.0393
 293   2.0000      -0.365071        -9.9341
 294   2.0000      -0.363622        -9.8947
 295   2.0000      -0.361114        -9.8264
 296   2.0000      -0.360539        -9.8108
 297   2.0000      -0.359014        -9.7693
 298   2.0000      -0.355455        -9.6724
 299   2.0000      -0.353017        -9.6061
 300   2.0000      -0.352293        -9.5864
 301   2.0000      -0.350061        -9.5256
 302   2.0000      -0.345028        -9.3887
 303   2.0000      -0.343295        -9.3415
 304   2.0000      -0.338154        -9.2016
 305   2.0000      -0.326861        -8.8944
 306   2.0000      -0.324779        -8.8377
 307   2.0000      -0.320800        -8.7294
 308   2.0000      -0.317344        -8.6354
 309   2.0000      -0.306999        -8.3539
 310   2.0000      -0.260437        -7.0869
 311   0.0000      -0.114499        -3.1157
 312   0.0000      -0.112255        -3.0546
 313   0.0000      -0.103087        -2.8051
 314   0.0000      -0.088093        -2.3971
 315   0.0000      -0.080674        -2.1953

MULLIKEN ATOMIC CHARGES
-----------------------
   0 C :    0.172438
   1 O :   -0.157395
   2 C :   -0.020171
   3 C :    0.036303
   4 C :   -0.004753
   5 C :   -0.026116
   6 C :   -0.017374
   7 C :   -0.013080
   8 Br:    0.022367
   9 Br:    0.029468
  10 C :    0.310618
  11 C :   -0.328402
  12 C :   -0.189145
  13 N :    0.167493
  14 C :   -0.198434
  15 N :    0.178245
  16 C :   -0.084218
  17 C :    0.020194
  18 C :   -0.098247
  19 S :    0.158195
  20 C :   -0.053722
  21 N :   -0.053883
  22 N :   -0.031558
  23 C :    0.034495
  24 C :    0.014910
  25 C :    0.171856
  26 O :   -0.172565
  27 C :    0.124909
  28 C :   -0.080515
  29 C :    0.084554
  30 O :   -0.179170
  31 N :   -0.095945
  32 C :    0.108848
  33 O :   -0.189704
  34 C :    0.212541
  35 C :   -0.136209
  36 C :    0.008870
  37 C :   -0.054086
  38 C :    0.052235
  39 C :    0.035085
  40 C :    0.031691
  41 O :   -0.119602
  42 S :    0.053862
  43 C :    0.052975
  44 O :   -0.151936
  45 C :    0.063763
  46 C :    0.028159
  47 C :   -0.084310
  48 C :   -0.080853
  49 C :    0.226709
  50 O :   -0.093367
  51 O :   -0.221565
  52 C :    0.226426
  53 O :   -0.097047
  54 C :   -0.027540
  55 C :    0.054625
  56 C :    0.011483
  57 C :   -0.107740
  58 C :    0.133878
  59 O :   -0.123041
  60 C :    0.001383
  61 C :    0.016404
  62 C :    0.275534
  63 C :   -0.306453
  64 C :   -0.199895
  65 N :    0.166967
  66 C :   -0.186657
  67 N :    0.173785
  68 C :   -0.009605
  69 C :   -0.022393
  70 C :   -0.014408
  71 C :   -0.021018
  72 Br:    0.019992
  73 Br:    0.027067
  74 H :    0.009225
  75 H :    0.009325
  76 H :    0.037204
  77 H :    0.009844
  78 H :    0.024792
  79 H :    0.128428
  80 H :    0.137107
  81 H :    0.007996
  82 H :    0.003230
  83 H :    0.034564
  84 H :    0.044105
  85 H :    0.028384
  86 H :    0.043532
  87 H :    0.016138
  88 H :    0.009923
Sum of atomic charges:   -0.0000000

LOEWDIN ATOMIC CHARGES
----------------------
   0 C :    0.085735
   1 O :   -0.147874
   2 C :   -0.044400
   3 C :   -0.010441
   4 C :   -0.005678
   5 C :   -0.116424
   6 C :   -0.122108
   7 C :    0.009274
   8 Br:    0.143765
   9 Br:    0.147601
  10 C :    0.070785
  11 C :   -0.119149
  12 C :   -0.018653
  13 N :   -0.036127
  14 C :   -0.026255
  15 N :   -0.025597
  16 C :   -0.089875
  17 C :    0.057962
  18 C :   -0.174292
  19 S :    0.464498
  20 C :   -0.145748
  21 N :   -0.081306
  22 N :   -0.041891
  23 C :   -0.039735
  24 C :   -0.007132
  25 C :    0.043181
  26 O :    0.028865
  27 C :    0.018598
  28 C :   -0.091296
  29 C :    0.062514
  30 O :   -0.185586
  31 N :   -0.001826
  32 C :    0.047580
  33 O :    0.017542
  34 C :    0.013417
  35 C :   -0.055592
  36 C :    0.000885
  37 C :   -0.035382
  38 C :    0.031491
  39 C :   -0.051773
  40 C :   -0.038704
  41 O :   -0.101987
  42 S :    0.332605
  43 C :   -0.038789
  44 O :   -0.119626
  45 C :   -0.041494
  46 C :    0.027748
  47 C :   -0.040881
  48 C :   -0.048830
  49 C :    0.106179
  50 O :   -0.089284
  51 O :   -0.049729
  52 C :    0.103941
  53 O :   -0.095204
  54 C :   -0.003693
  55 C :    0.013670
  56 C :    0.066947
  57 C :   -0.073415
  58 C :    0.084691
  59 O :   -0.123851
  60 C :   -0.046326
  61 C :   -0.007941
  62 C :    0.063234
  63 C :   -0.113888
  64 C :   -0.011842
  65 N :   -0.055029
  66 C :   -0.019908
  67 N :   -0.037268
  68 C :   -0.006311
  69 C :   -0.116515
  70 C :   -0.122863
  71 C :    0.008998
  72 Br:    0.142234
  73 Br:    0.146846
  74 H :    0.045341
  75 H :    0.047559
  76 H :    0.060628
  77 H :    0.043131
  78 H :    0.040759
  79 H :    0.076163
  80 H :    0.085399
  81 H :    0.041127
  82 H :    0.032258
  83 H :    0.038664
  84 H :    0.037496
  85 H :    0.040152
  86 H :    0.053898
  87 H :    0.046502
  88 H :    0.047649

  Mayer bond orders larger than 0.100000
B(  0-C ,  1-O ) :   2.1662 B(  0-C ,  2-C ) :   0.9612 B(  0-C , 16-C ) :   0.9531
B(  2-C ,  3-C ) :   1.3269 B(  2-C ,  7-C ) :   1.3653 B(  3-C ,  4-C ) :   1.3643
B(  3-C , 10-C ) :   0.9948 B(  4-C ,  5-C ) :   1.3726 B(  4-C , 74-H ) :   0.9785
B(  5-C ,  6-C ) :   1.4148 B(  5-C ,  9-Br) :   1.0633 B(  6-C ,  7-C ) :   1.3572
B(  6-C ,  8-Br) :   1.0382 B(  7-C , 75-H ) :   1.0079 B( 10-C , 11-C ) :   1.6666
B( 10-C , 16-C ) :   1.0563 B( 11-C , 12-C ) :   1.1396 B( 11-C , 14-C ) :   1.1349
B( 12-C , 13-N ) :   2.9725 B( 14-C , 15-N ) :   2.9787 B( 16-C , 17-C ) :   1.5730
B( 17-C , 18-C ) :   1.1633 B( 17-C , 76-H ) :   0.9447 B( 18-C , 19-S ) :   1.0868
B( 18-C , 22-N ) :   1.6014 B( 19-S , 20-C ) :   1.1077 B( 19-S , 22-N ) :   0.1055
B( 20-C , 21-N ) :   1.5598 B( 20-C , 23-C ) :   1.1579 B( 21-N , 22-N ) :   1.2913
B( 23-C , 24-C ) :   1.6152 B( 23-C , 77-H ) :   0.9797 B( 24-C , 25-C ) :   1.1495
B( 24-C , 78-H ) :   0.9645 B( 25-C , 26-O ) :   1.1064 B( 25-C , 35-C ) :   1.4373
B( 26-O , 27-C ) :   1.1782 B( 27-C , 28-C ) :   1.2865 B( 27-C , 34-C ) :   1.3298
B( 28-C , 29-C ) :   0.8411 B( 28-C , 32-C ) :   1.4259 B( 29-C , 30-O ) :   2.2467
B( 29-C , 31-N ) :   1.2265 B( 31-N , 79-H ) :   0.9451 B( 31-N , 80-H ) :   0.9389
B( 32-C , 33-O ) :   1.1230 B( 32-C , 36-C ) :   1.2146 B( 33-O , 34-C ) :   1.1360
B( 34-C , 35-C ) :   1.2330 B( 35-C , 81-H ) :   1.0239 B( 36-C , 37-C ) :   1.6470
B( 36-C , 82-H ) :   0.9326 B( 37-C , 38-C ) :   1.1099 B( 37-C , 83-H ) :   0.9536
B( 38-C , 39-C ) :   1.3429 B( 38-C , 48-C ) :   1.3042 B( 39-C , 40-C ) :   0.8511
B( 39-C , 45-C ) :   1.3222 B( 40-C , 41-O ) :   2.1678 B( 40-C , 42-S ) :   1.0233
B( 41-O , 42-S ) :   0.1019 B( 42-S , 43-C ) :   1.0624 B( 42-S , 44-O ) :   0.1065
B( 43-C , 44-O ) :   2.0861 B( 43-C , 45-C ) :   0.8497 B( 45-C , 46-C ) :   1.3737
B( 46-C , 47-C ) :   1.3396 B( 46-C , 54-C ) :   1.0923 B( 47-C , 48-C ) :   1.3671
B( 47-C , 52-C ) :   0.8984 B( 48-C , 49-C ) :   0.9050 B( 49-C , 50-O ) :   2.2513
B( 49-C , 51-O ) :   1.0502 B( 51-O , 52-C ) :   1.0619 B( 52-C , 53-O ) :   2.2582
B( 54-C , 55-C ) :   1.7673 B( 54-C , 84-H ) :   0.9393 B( 55-C , 56-C ) :   1.0838
B( 55-C , 85-H ) :   0.9380 B( 56-C , 57-C ) :   1.7709 B( 56-C , 86-H ) :   0.9276
B( 57-C , 58-C ) :   0.9269 B( 57-C , 62-C ) :   1.0026 B( 58-C , 59-O ) :   2.2877
B( 58-C , 60-C ) :   0.9205 B( 60-C , 61-C ) :   1.3254 B( 60-C , 71-C ) :   1.3654
B( 61-C , 62-C ) :   1.0061 B( 61-C , 68-C ) :   1.3649 B( 62-C , 63-C ) :   1.7036
B( 63-C , 64-C ) :   1.1693 B( 63-C , 66-C ) :   1.1170 B( 64-C , 65-N ) :   2.9734
B( 66-C , 67-N ) :   3.0032 B( 68-C , 69-C ) :   1.3750 B( 68-C , 87-H ) :   0.9825
B( 69-C , 70-C ) :   1.4118 B( 69-C , 73-Br) :   1.0567 B( 70-C , 71-C ) :   1.3622
B( 70-C , 72-Br) :   1.0375 B( 71-C , 88-H ) :   1.0080

-----------------------------------------------------------------------------
         ABSORPTION SPECTRUM VIA TRANSITION ELECTRIC DIPOLE MOMENTS
-----------------------------------------------------------------------------
State   Energy  Wavelength   fosc         T2         TX        TY        TZ
        (cm-1)    (nm)                  (au**2)     (au)      (au)      (au)
-----------------------------------------------------------------------------
   0   17201.5    581.3   0.096298036   1.84301   0.96888  -0.25680   0.91561
   1   17841.6    560.5   2.208535769  40.75167   6.17103  -0.04755   1.63333
   2   21853.3    457.6   0.076094174   1.14633  -0.99424   0.27648  -0.28525
   3   23189.3    431.2   0.001333317   0.01893  -0.00008   0.08740   0.10625
   4   24736.0    404.3   0.066555407   0.88579   0.72900   0.27216   0.52941
   5   25412.0    393.5   0.041666199   0.53979  -0.32083   0.14051  -0.64584
   6   26274.3    380.6   0.018610785   0.23319  -0.05527   0.14525  -0.45721
   7   27719.3    360.8   0.023034590   0.27357  -0.22176  -0.33922  -0.33065
   8   28296.1    353.4   0.049071230   0.57092  -0.56035   0.24225   0.44525
   9   28732.5    348.0   0.026713184   0.30607  -0.30976   0.45772  -0.02481
  10   29043.5    344.3   0.257026882   2.91343   1.60999  -0.29485   0.48418
  11   29551.3    338.4   0.237841641   2.64964  -1.24509  -0.71767   0.76442
  12   30036.0    332.9   0.010949813   0.12002   0.33053  -0.04933  -0.09128
  13   30794.8    324.7   0.058060814   0.62070   0.70115   0.35708  -0.03981
  14   30911.0    323.5   0.013933549   0.14840  -0.14161   0.14222  -0.32881
  15   31400.9    318.5   0.029567964   0.31000   0.51194   0.21803  -0.01926
  16   31873.9    313.7   0.004961017   0.05124   0.21182  -0.07721   0.02027
  17   32102.3    311.5   0.324875357   3.33162  -1.39650   0.49834  -1.06445
  18   32251.6    310.1   0.067023128   0.68415   0.76446  -0.19224   0.25058
  19   32763.4    305.2   0.040504570   0.40700  -0.33218  -0.48080  -0.25589
  20   33111.9    302.0   0.024314135   0.24174   0.38364   0.03377   0.30564
  21   33582.9    297.8   0.023960176   0.23488  -0.33095  -0.26443   0.23543
  22   33746.9    296.3   0.018975946   0.18512   0.14233   0.16386  -0.37149
  23   33978.5    294.3   0.172113462   1.66758   1.13088   0.57425   0.24274
  24   34102.8    293.2   0.033021709   0.31878  -0.42505  -0.22605  -0.29497
  25   34232.1    292.1   0.035489412   0.34130  -0.53194  -0.24144   0.00744
  26   34389.8    290.8   0.170350873   1.63076   1.02580   0.70447  -0.28672
  27   34564.7    289.3   0.401670177   3.82572   0.51146   1.40111  -1.26532
  28   34968.3    286.0   0.006332365   0.05962   0.09600   0.01016   0.22427
  29   35085.9    285.0   0.173220562   1.62533  -0.77320   0.31030  -0.96499
  30   35326.3    283.1   0.420137946   3.91534   1.11382  -0.99338   1.29921
  31   35429.4    282.3   0.063686997   0.59178   0.64655  -0.36942   0.19310
  32   35958.8    278.1   0.174250783   1.59531   0.90126   0.42906   0.77391
  33   36155.7    276.6   0.018587683   0.16925  -0.33367  -0.21022  -0.11715
  34   36367.5    275.0   0.061769186   0.55916  -0.60489   0.06333  -0.43504
  35   36754.3    272.1   0.031184146   0.27932   0.37427   0.07027   0.36648
  36   37270.9    268.3   0.140232373   1.23866  -1.00943  -0.08129  -0.46163
  37   37324.5    267.9   0.001735485   0.01531  -0.10923   0.00217  -0.05807
  38   37425.1    267.2   0.091516121   0.80503   0.68378   0.09268   0.57349
  39   37941.4    263.6   0.005447490   0.04727  -0.20063  -0.04881   0.06806
  40   38067.7    262.7   0.000692231   0.00599  -0.02524  -0.06086  -0.04057
  41   38131.9    262.2   0.005814395   0.05020  -0.13720   0.10944   0.13927
  42   38411.4    260.3   0.020551146   0.17614   0.41864  -0.01578  -0.02504
  43   38535.8    259.5   0.025972707   0.22189  -0.46296   0.07854  -0.03726
  44   38674.4    258.6   0.024971581   0.21257   0.43446  -0.07527  -0.13472
  45   38952.2    256.7   0.034568065   0.29216   0.51528   0.10648  -0.12374
  46   39238.1    254.9   0.002955276   0.02480   0.07376   0.02077   0.13756
  47   39307.0    254.4   0.026883788   0.22516  -0.19229  -0.05880  -0.42980
  48   39379.2    253.9   0.024828973   0.20757   0.42974   0.14343  -0.04821
  49   39424.3    253.7   0.040577020   0.33884  -0.49306  -0.05230   0.30495
  50   39779.2    251.4   0.026398175   0.21847  -0.04604   0.02565  -0.46443
  51   39829.7    251.1   0.023978845   0.19820  -0.11735  -0.32588   0.27969
  52   39965.0    250.2   0.023754561   0.19568  -0.21413  -0.26092   0.28591
  53   40077.6    249.5   0.033887966   0.27837   0.41167  -0.08215   0.31961
  54   40223.1    248.6   0.081678561   0.66851   0.35882   0.14911  -0.71939
  55   40292.5    248.2   0.085609569   0.69948   0.14243   0.43669  -0.69892

FINAL SINGLE POINT ENERGY    -14176.040350324427

DIPOLE MOMENT
-------------
                                X             Y             Z
Electronic contribution:     -1.10949      24.81781     -13.45405
Nuclear contribution   :     -1.16372     -23.76692      11.99889
                        -----------------------------------------
Total Dipole Moment    :     -2.27320       1.05089      -1.45516
                        -----------------------------------------
Magnitude (a.u.)       :      2.89643
Magnitude (Debye)      :      7.36215

Rotational constants in cm-1:     0.002134     0.000104     0.000101
Rotational constants in MHz :    63.974789     3.131908     3.018612

                             ****ORCA TERMINATED NORMALLY****
TOTAL RUN TIME: 0 days 0 hours 9 minutes 47 seconds 977 msec
