                         Program Version 4.2.0 -  RELEASE  -
|  1> # ORCA input file
|  2> # SCF done       -206.736108481627          0.000803023356
|  3> ! CAM-B3LYP def2-SVP def2/J RIJCOSX Grid4 TightSCF
|  4> %maxcore 5000
|  5> %tddft
|  6>     Mode sTDDFT
|  7>     Ethresh 5.0
|  8>     maxcore 5000
|  9> end
| 10>
| 11> %pal
| 12>   nprocs 6
| 13>   end
| 14> * xyz 0 1
| 15>    C       -3.44788        -3.29354        -3.84502
| 16>    O       -3.84564        -4.09209        -3.03455
| 17>    C       -4.28202        -2.54613        -4.81231
| 18>    C       -3.47894        -1.69470        -5.59027
| 19>    C       -4.06831        -0.88486        -6.54898
| 20>    C       -5.44669        -0.94474        -6.71590
| 21>    C       -6.23575        -1.80013        -5.94099
| 22>    C       -5.65071        -2.60906        -4.97623
| 23>   Br       -8.10597        -1.86277        -6.19307
| 24>   Br       -6.25171         0.16225        -8.01808
| 25>    C       -2.08603        -1.86199        -5.18997
| 26>    C       -1.00525        -1.31720        -5.82400
| 27>    C       -1.10116        -0.45244        -6.93791
| 28>    N       -1.12233         0.25569        -7.83964
| 29>    C        0.34808        -1.56639        -5.49987
| 30>    N        1.46920        -1.73330        -5.32487
| 31>    C       -2.05906        -2.78369        -4.05937
| 32>    C       -0.98625        -2.99803        -3.25638
| 33>    C       -0.86366        -3.91404        -2.17236
| 34>    O       -1.69773        -4.97176        -1.98863
| 35>    C       -1.23980        -5.59451        -0.89270
| 36>    C       -0.09676        -4.86548        -0.43128
| 37>    N        0.09354        -3.82766        -1.28828
| 38>    C        0.61409        -5.24559         0.69957
| 39>    C        0.13145        -6.38044         1.32704
| 40>    C       -1.00777        -7.09601         0.83751
| 41>    C       -1.73008        -6.73293        -0.27973
| 42>    O       -1.20917        -8.14380         1.66148
| 43>    C       -0.21540        -8.04149         2.60641
| 44>    N        0.57637        -7.02885         2.43972
| 45>    C       -0.07906        -8.99454         3.65675
| 46>    N       -0.82759       -10.13529         3.80947
| 47>    C       -1.96530       -10.56123         3.02929
| 48>    C       -3.23416        -9.81189         3.42592
| 49>    C       -0.39428       -10.88696         4.91795
| 50>    O       -0.90023       -11.94161         5.24987
| 51>    C        0.70226       -10.12347         5.46416
| 52>    C        0.86723        -8.96005         4.67084
| 53>    C        1.96339        -8.18324         5.23112
| 54>    O        2.46234        -7.12761         4.93518
| 55>    N        2.39026        -8.95844         6.33766
| 56>    C        3.51971        -8.54853         7.13901
| 57>    C        4.80021        -9.26582         6.72110
| 58>    C        1.66422       -10.10994         6.47621
| 59>    C        1.91684       -11.07500         7.48451
| 60>    C        1.20897       -12.22986         7.58423
| 61>    C        1.47296       -13.22832         8.55513
| 62>    S        0.52165       -14.69187         8.53685
| 63>    C        2.40821       -13.30575         9.57546
| 64>    C        3.47286       -12.46967        10.15373
| 65>    O        3.86370       -11.36839         9.84842
| 66>    N        3.99980       -13.22290        11.19544
| 67>    C        5.06656       -12.74802        12.05249
| 68>    C        4.51542       -12.01466        13.26969
| 69>    C        3.38329       -14.44944        11.36441
| 70>    O        3.66042       -15.24983        12.22690
| 71>    C        2.37634       -14.52072        10.29089
| 72>    C        1.41911       -15.41595         9.85470
| 73>    C        1.04094       -16.69981        10.32287
| 74>    C        1.75621       -17.63085        11.00483
| 75>    C        1.00732       -18.70887        11.72312
| 76>    O       -0.15539       -18.99586        11.58219
| 77>    C        1.98737       -19.28898        12.66315
| 78>    C        3.25318       -18.71833        12.43287
| 79>    C        3.16361       -17.79675        11.30343
| 80>    C        4.22230       -17.37140        10.55086
| 81>    C        4.09231       -16.63685         9.35644
| 82>    N        4.03727       -16.04221         8.37624
| 83>    C        5.57149       -17.64723        10.86083
| 84>    N        6.68422       -17.83349        11.06752
| 85>    C        4.32642       -19.07404        13.23103
| 86>    C        4.12102       -20.00610        14.24181
| 87>    C        2.86606       -20.58439        14.45123
| 88>    C        1.78425       -20.22303        13.65859
| 89>   Br        2.62112       -21.86001        15.82212
| 90>   Br        5.57758       -20.48522        15.34309
| 91>    H       -3.49410        -0.20886        -7.16141
| 92>    H       -6.24753        -3.27121        -4.36821
| 93>    H       -0.08941        -2.40723        -3.38802
| 94>    H        1.47058        -4.70570         1.06080
| 95>    H       -2.58996        -7.27073        -0.63885
| 96>    H       -2.08760       -11.62769         3.23919
| 97>    H       -1.75369       -10.42417         1.96715
| 98>    H       -3.44107        -9.96169         4.48290
| 99>    H       -4.07494       -10.18706         2.84955
|100>    H       -3.12985        -8.74674         3.23546
|101>    H        3.30662        -8.72974         8.19500
|102>    H        3.63060        -7.47324         6.97465
|103>    H        4.71082       -10.33907         6.87010
|104>    H        5.63145        -8.90208         7.31781
|105>    H        5.01146        -9.07203         5.67236
|106>    H        2.71479       -10.87481         8.18416
|107>    H        0.40584       -12.43659         6.88812
|108>    H        5.68955       -12.08025        11.45321
|109>    H        5.64874       -13.61879        12.36311
|110>    H        3.92928       -11.15327        12.95775
|111>    H        5.33639       -11.67193        13.89256
|112>    H        3.88536       -12.67927        13.85637
|113>    H       -0.00064       -16.96379        10.15874
|114>    H        5.30335       -18.63717        13.10165
|115>    H        0.80980       -20.65818        13.81780
|116> *
|117>
|118>                          ****END OF INPUT****

CARTESIAN COORDINATES (ANGSTROEM)
---------------------------------
  C     -3.447880   -3.293540   -3.845020
  O     -3.845640   -4.092090   -3.034550
  C     -4.282020   -2.546130   -4.812310
  C     -3.478940   -1.694700   -5.590270
  C     -4.068310   -0.884860   -6.548980
  C     -5.446690   -0.944740   -6.715900
  C     -6.235750   -1.800130   -5.940990
  C     -5.650710   -2.609060   -4.976230
  Br    -8.105970   -1.862770   -6.193070
  Br    -6.251710    0.162250   -8.018080
  C     -2.086030   -1.861990   -5.189970
  C     -1.005250   -1.317200   -5.824000
  C     -1.101160   -0.452440   -6.937910
  N     -1.122330    0.255690   -7.839640
  C      0.348080   -1.566390   -5.499870
  N      1.469200   -1.733300   -5.324870
  C     -2.059060   -2.783690   -4.059370
  C     -0.986250   -2.998030   -3.256380
  C     -0.863660   -3.914040   -2.172360
  O     -1.697730   -4.971760   -1.988630
  C     -1.239800   -5.594510   -0.892700
  C     -0.096760   -4.865480   -0.431280
  N      0.093540   -3.827660   -1.288280
  C      0.614090   -5.245590    0.699570
  C      0.131450   -6.380440    1.327040
  C     -1.007770   -7.096010    0.837510
  C     -1.730080   -6.732930   -0.279730
  O     -1.209170   -8.143800    1.661480
  C     -0.215400   -8.041490    2.606410
  N      0.576370   -7.028850    2.439720
  C     -0.079060   -8.994540    3.656750
  N     -0.827590  -10.135290    3.809470
  C     -1.965300  -10.561230    3.029290
  C     -3.234160   -9.811890    3.425920
  C     -0.394280  -10.886960    4.917950
  O     -0.900230  -11.941610    5.249870
  C      0.702260  -10.123470    5.464160
  C      0.867230   -8.960050    4.670840
  C      1.963390   -8.183240    5.231120
  O      2.462340   -7.127610    4.935180
  N      2.390260   -8.958440    6.337660
  C      3.519710   -8.548530    7.139010
  C      4.800210   -9.265820    6.721100
  C      1.664220  -10.109940    6.476210
  C      1.916840  -11.075000    7.484510
  C      1.208970  -12.229860    7.584230
  C      1.472960  -13.228320    8.555130
  S      0.521650  -14.691870    8.536850
  C      2.408210  -13.305750    9.575460
  C      3.472860  -12.469670   10.153730
  O      3.863700  -11.368390    9.848420
  N      3.999800  -13.222900   11.195440
  C      5.066560  -12.748020   12.052490
  C      4.515420  -12.014660   13.269690
  C      3.383290  -14.449440   11.364410
  O      3.660420  -15.249830   12.226900
  C      2.376340  -14.520720   10.290890
  C      1.419110  -15.415950    9.854700
  C      1.040940  -16.699810   10.322870
  C      1.756210  -17.630850   11.004830
  C      1.007320  -18.708870   11.723120
  O     -0.155390  -18.995860   11.582190
  C      1.987370  -19.288980   12.663150
  C      3.253180  -18.718330   12.432870
  C      3.163610  -17.796750   11.303430
  C      4.222300  -17.371400   10.550860
  C      4.092310  -16.636850    9.356440
  N      4.037270  -16.042210    8.376240
  C      5.571490  -17.647230   10.860830
  N      6.684220  -17.833490   11.067520
  C      4.326420  -19.074040   13.231030
  C      4.121020  -20.006100   14.241810
  C      2.866060  -20.584390   14.451230
  C      1.784250  -20.223030   13.658590
  Br     2.621120  -21.860010   15.822120
  Br     5.577580  -20.485220   15.343090
  H     -3.494100   -0.208860   -7.161410
  H     -6.247530   -3.271210   -4.368210
  H     -0.089410   -2.407230   -3.388020
  H      1.470580   -4.705700    1.060800
  H     -2.589960   -7.270730   -0.638850
  H     -2.087600  -11.627690    3.239190
  H     -1.753690  -10.424170    1.967150
  H     -3.441070   -9.961690    4.482900
  H     -4.074940  -10.187060    2.849550
  H     -3.129850   -8.746740    3.235460
  H      3.306620   -8.729740    8.195000
  H      3.630600   -7.473240    6.974650
  H      4.710820  -10.339070    6.870100
  H      5.631450   -8.902080    7.317810
  H      5.011460   -9.072030    5.672360
  H      2.714790  -10.874810    8.184160
  H      0.405840  -12.436590    6.888120
  H      5.689550  -12.080250   11.453210
  H      5.648740  -13.618790   12.363110
  H      3.929280  -11.153270   12.957750
  H      5.336390  -11.671930   13.892560
  H      3.885360  -12.679270   13.856370
  H     -0.000640  -16.963790   10.158740
  H      5.303350  -18.637170   13.101650
  H      0.809800  -20.658180   13.817800

 Total Charge           Charge          ....    0
 Multiplicity           Mult            ....    1
 Number of Electrons    NEL             ....  632
 Basis Dimension        Dim             .... 1265

ORBITAL ENERGIES
----------------

  NO   OCC          E(Eh)            E(eV)
   0   2.0000    -482.884101    -13139.9444
   1   2.0000    -482.882214    -13139.8931
   2   2.0000    -482.880264    -13139.8400
   3   2.0000    -482.879007    -13139.8058
   4   2.0000     -88.991971     -2421.5946
   5   2.0000     -62.561677     -1702.3898
   6   2.0000     -62.559811     -1702.3390
   7   2.0000     -62.557862     -1702.2860
   8   2.0000     -62.556671     -1702.2535
   9   2.0000     -56.395634     -1534.6032
  10   2.0000     -56.393782     -1534.5528
  11   2.0000     -56.392976     -1534.5309
  12   2.0000     -56.392872     -1534.5281
  13   2.0000     -56.391814     -1534.4993
  14   2.0000     -56.391102     -1534.4799
  15   2.0000     -56.391001     -1534.4771
  16   2.0000     -56.390629     -1534.4670
  17   2.0000     -56.389158     -1534.4270
  18   2.0000     -56.389065     -1534.4245
  19   2.0000     -56.387962     -1534.3945
  20   2.0000     -56.387861     -1534.3917
  21   2.0000     -19.316828      -525.6376
  22   2.0000     -19.311192      -525.4843
  23   2.0000     -19.232332      -523.3384
  24   2.0000     -19.232051      -523.3307
  25   2.0000     -19.231811      -523.3242
  26   2.0000     -19.231574      -523.3177
  27   2.0000     -19.196293      -522.3577
  28   2.0000     -19.194728      -522.3151
  29   2.0000     -14.470904      -393.7733
  30   2.0000     -14.462006      -393.5312
  31   2.0000     -14.457228      -393.4012
  32   2.0000     -14.430254      -392.6672
  33   2.0000     -14.429711      -392.6524
  34   2.0000     -14.429612      -392.6497
  35   2.0000     -14.429499      -392.6466
  36   2.0000     -14.424485      -392.5102
  37   2.0000     -14.420451      -392.4004
  38   2.0000     -10.413099      -283.3548
  39   2.0000     -10.412350      -283.3344
  40   2.0000     -10.388833      -282.6945
  41   2.0000     -10.387078      -282.6467
  42   2.0000     -10.385945      -282.6159
  43   2.0000     -10.382565      -282.5239
  44   2.0000     -10.379545      -282.4418
  45   2.0000     -10.379324      -282.4358
  46   2.0000     -10.363023      -281.9922
  47   2.0000     -10.362089      -281.9668
  48   2.0000     -10.361711      -281.9565
  49   2.0000     -10.360024      -281.9106
  50   2.0000     -10.358333      -281.8646
  51   2.0000     -10.358263      -281.8627
  52   2.0000     -10.358197      -281.8609
  53   2.0000     -10.357379      -281.8386
  54   2.0000     -10.355238      -281.7804
  55   2.0000     -10.352322      -281.7010
  56   2.0000     -10.350294      -281.6458
  57   2.0000     -10.349145      -281.6145
  58   2.0000     -10.348896      -281.6078
  59   2.0000     -10.347925      -281.5814
  60   2.0000     -10.336449      -281.2691
  61   2.0000     -10.335180      -281.2346
  62   2.0000     -10.331058      -281.1224
  63   2.0000     -10.330567      -281.1090
  64   2.0000     -10.329671      -281.0846
  65   2.0000     -10.327585      -281.0279
  66   2.0000     -10.326232      -280.9911
  67   2.0000     -10.324811      -280.9524
  68   2.0000     -10.322958      -280.9020
  69   2.0000     -10.320029      -280.8223
  70   2.0000     -10.319975      -280.8208
  71   2.0000     -10.319804      -280.8161
  72   2.0000     -10.319749      -280.8147
  73   2.0000     -10.317924      -280.7650
  74   2.0000     -10.317864      -280.7634
  75   2.0000     -10.317111      -280.7429
  76   2.0000     -10.316901      -280.7372
  77   2.0000     -10.315042      -280.6866
  78   2.0000     -10.312547      -280.6187
  79   2.0000     -10.310858      -280.5727
  80   2.0000     -10.309415      -280.5334
  81   2.0000     -10.308740      -280.5151
  82   2.0000     -10.307889      -280.4919
  83   2.0000     -10.306283      -280.4482
  84   2.0000     -10.305447      -280.4255
  85   2.0000     -10.300858      -280.3006
  86   2.0000     -10.295877      -280.1650
  87   2.0000     -10.276728      -279.6440
  88   2.0000     -10.269235      -279.4401
  89   2.0000     -10.268745      -279.4268
  90   2.0000     -10.263358      -279.2802
  91   2.0000     -10.259652      -279.1793
  92   2.0000      -8.790977      -239.2146
  93   2.0000      -8.789121      -239.1642
  94   2.0000      -8.787178      -239.1113
  95   2.0000      -8.786029      -239.0800
  96   2.0000      -8.087379      -220.0688
  97   2.0000      -6.627125      -180.3332
  98   2.0000      -6.625321      -180.2841
  99   2.0000      -6.623297      -180.2291
 100   2.0000      -6.622217      -180.1997
 101   2.0000      -6.613105      -179.9517
 102   2.0000      -6.612290      -179.9296
 103   2.0000      -6.611218      -179.9004
 104   2.0000      -6.610411      -179.8784
 105   2.0000      -6.609307      -179.8484
 106   2.0000      -6.608525      -179.8271
 107   2.0000      -6.608132      -179.8164
 108   2.0000      -6.607329      -179.7946
 109   2.0000      -6.056650      -164.8098
 110   2.0000      -6.052340      -164.6925
 111   2.0000      -6.049561      -164.6169
 112   2.0000      -2.743023       -74.6415
 113   2.0000      -2.741212       -74.5922
 114   2.0000      -2.739278       -74.5396
 115   2.0000      -2.739251       -74.5388
 116   2.0000      -2.738633       -74.5220
 117   2.0000      -2.738089       -74.5072
 118   2.0000      -2.737426       -74.4892
 119   2.0000      -2.736806       -74.4723
 120   2.0000      -2.735424       -74.4347
 121   2.0000      -2.734823       -74.4183
 122   2.0000      -2.734364       -74.4058
 123   2.0000      -2.733702       -74.3878
 124   2.0000      -2.727482       -74.2186
 125   2.0000      -2.727469       -74.2182
 126   2.0000      -2.725586       -74.1670
 127   2.0000      -2.725570       -74.1665
 128   2.0000      -2.723700       -74.1156
 129   2.0000      -2.723691       -74.1154
 130   2.0000      -2.722514       -74.0834
 131   2.0000      -2.722506       -74.0832
 132   2.0000      -1.246484       -33.9185
 133   2.0000      -1.244389       -33.8615
 134   2.0000      -1.177494       -32.0412
 135   2.0000      -1.154221       -31.4079
 136   2.0000      -1.149747       -31.2862
 137   2.0000      -1.148401       -31.2496
 138   2.0000      -1.139515       -31.0078
 139   2.0000      -1.132707       -30.8225
 140   2.0000      -1.070775       -29.1373
 141   2.0000      -1.068226       -29.0679
 142   2.0000      -1.061956       -28.8973
 143   2.0000      -1.040729       -28.3197
 144   2.0000      -1.036319       -28.1997
 145   2.0000      -1.034309       -28.1450
 146   2.0000      -1.033291       -28.1173
 147   2.0000      -1.019476       -27.7413
 148   2.0000      -1.018976       -27.7277
 149   2.0000      -1.015591       -27.6356
 150   2.0000      -1.007757       -27.4225
 151   2.0000      -1.004411       -27.3314
 152   2.0000      -0.988597       -26.9011
 153   2.0000      -0.983646       -26.7664
 154   2.0000      -0.969937       -26.3933
 155   2.0000      -0.937609       -25.5136
 156   2.0000      -0.932204       -25.3666
 157   2.0000      -0.931568       -25.3493
 158   2.0000      -0.926030       -25.1986
 159   2.0000      -0.924267       -25.1506
 160   2.0000      -0.921200       -25.0671
 161   2.0000      -0.918114       -24.9832
 162   2.0000      -0.915941       -24.9240
 163   2.0000      -0.904364       -24.6090
 164   2.0000      -0.889108       -24.1939
 165   2.0000      -0.880961       -23.9722
 166   2.0000      -0.873701       -23.7746
 167   2.0000      -0.866416       -23.5764
 168   2.0000      -0.861921       -23.4541
 169   2.0000      -0.860441       -23.4138
 170   2.0000      -0.857851       -23.3433
 171   2.0000      -0.845598       -23.0099
 172   2.0000      -0.841253       -22.8917
 173   2.0000      -0.824113       -22.4253
 174   2.0000      -0.822526       -22.3821
 175   2.0000      -0.802123       -21.8269
 176   2.0000      -0.789551       -21.4848
 177   2.0000      -0.786602       -21.4045
 178   2.0000      -0.777899       -21.1677
 179   2.0000      -0.775071       -21.0908
 180   2.0000      -0.762206       -20.7407
 181   2.0000      -0.758391       -20.6369
 182   2.0000      -0.757008       -20.5992
 183   2.0000      -0.750093       -20.4111
 184   2.0000      -0.740778       -20.1576
 185   2.0000      -0.726409       -19.7666
 186   2.0000      -0.724950       -19.7269
 187   2.0000      -0.716546       -19.4982
 188   2.0000      -0.715008       -19.4563
 189   2.0000      -0.710249       -19.3268
 190   2.0000      -0.704956       -19.1828
 191   2.0000      -0.703769       -19.1505
 192   2.0000      -0.696625       -18.9561
 193   2.0000      -0.691085       -18.8054
 194   2.0000      -0.685243       -18.6464
 195   2.0000      -0.680192       -18.5090
 196   2.0000      -0.679450       -18.4888
 197   2.0000      -0.669445       -18.2165
 198   2.0000      -0.664974       -18.0949
 199   2.0000      -0.657882       -17.9019
 200   2.0000      -0.649816       -17.6824
 201   2.0000      -0.634109       -17.2550
 202   2.0000      -0.629243       -17.1226
 203   2.0000      -0.628129       -17.0923
 204   2.0000      -0.623203       -16.9582
 205   2.0000      -0.616072       -16.7642
 206   2.0000      -0.609129       -16.5752
 207   2.0000      -0.602623       -16.3982
 208   2.0000      -0.600858       -16.3502
 209   2.0000      -0.597882       -16.2692
 210   2.0000      -0.594867       -16.1871
 211   2.0000      -0.593189       -16.1415
 212   2.0000      -0.591409       -16.0931
 213   2.0000      -0.587392       -15.9838
 214   2.0000      -0.579224       -15.7615
 215   2.0000      -0.579205       -15.7610
 216   2.0000      -0.577199       -15.7064
 217   2.0000      -0.571442       -15.5497
 218   2.0000      -0.570495       -15.5239
 219   2.0000      -0.567849       -15.4519
 220   2.0000      -0.565707       -15.3937
 221   2.0000      -0.560761       -15.2591
 222   2.0000      -0.556804       -15.1514
 223   2.0000      -0.556365       -15.1395
 224   2.0000      -0.554845       -15.0981
 225   2.0000      -0.554277       -15.0826
 226   2.0000      -0.553215       -15.0537
 227   2.0000      -0.552868       -15.0443
 228   2.0000      -0.542324       -14.7574
 229   2.0000      -0.539614       -14.6836
 230   2.0000      -0.537514       -14.6265
 231   2.0000      -0.536087       -14.5877
 232   2.0000      -0.534133       -14.5345
 233   2.0000      -0.531401       -14.4601
 234   2.0000      -0.530034       -14.4229
 235   2.0000      -0.526642       -14.3307
 236   2.0000      -0.524049       -14.2601
 237   2.0000      -0.521919       -14.2021
 238   2.0000      -0.518069       -14.0974
 239   2.0000      -0.516875       -14.0649
 240   2.0000      -0.515314       -14.0224
 241   2.0000      -0.513817       -13.9817
 242   2.0000      -0.511807       -13.9270
 243   2.0000      -0.511304       -13.9133
 244   2.0000      -0.508547       -13.8383
 245   2.0000      -0.505240       -13.7483
 246   2.0000      -0.499421       -13.5899
 247   2.0000      -0.498776       -13.5724
 248   2.0000      -0.496975       -13.5234
 249   2.0000      -0.492275       -13.3955
 250   2.0000      -0.488862       -13.3026
 251   2.0000      -0.486415       -13.2360
 252   2.0000      -0.479878       -13.0581
 253   2.0000      -0.476554       -12.9677
 254   2.0000      -0.472706       -12.8630
 255   2.0000      -0.471763       -12.8373
 256   2.0000      -0.469894       -12.7865
 257   2.0000      -0.468645       -12.7525
 258   2.0000      -0.467815       -12.7299
 259   2.0000      -0.466706       -12.6997
 260   2.0000      -0.464682       -12.6446
 261   2.0000      -0.462442       -12.5837
 262   2.0000      -0.460612       -12.5339
 263   2.0000      -0.460547       -12.5321
 264   2.0000      -0.459852       -12.5132
 265   2.0000      -0.457930       -12.4609
 266   2.0000      -0.456390       -12.4190
 267   2.0000      -0.455846       -12.4042
 268   2.0000      -0.455002       -12.3812
 269   2.0000      -0.452242       -12.3061
 270   2.0000      -0.449297       -12.2260
 271   2.0000      -0.447989       -12.1904
 272   2.0000      -0.446585       -12.1522
 273   2.0000      -0.440999       -12.0002
 274   2.0000      -0.440375       -11.9832
 275   2.0000      -0.438965       -11.9448
 276   2.0000      -0.438728       -11.9384
 277   2.0000      -0.436653       -11.8819
 278   2.0000      -0.435913       -11.8618
 279   2.0000      -0.433850       -11.8057
 280   2.0000      -0.432334       -11.7644
 281   2.0000      -0.428862       -11.6699
 282   2.0000      -0.425941       -11.5904
 283   2.0000      -0.423146       -11.5144
 284   2.0000      -0.421823       -11.4784
 285   2.0000      -0.410352       -11.1662
 286   2.0000      -0.407591       -11.0911
 287   2.0000      -0.405587       -11.0366
 288   2.0000      -0.403577       -10.9819
 289   2.0000      -0.397476       -10.8159
 290   2.0000      -0.396607       -10.7922
 291   2.0000      -0.393644       -10.7116
 292   2.0000      -0.386812       -10.5257
 293   2.0000      -0.385286       -10.4842
 294   2.0000      -0.377377       -10.2689
 295   2.0000      -0.376823       -10.2539
 296   2.0000      -0.374864       -10.2006
 297   2.0000      -0.363426        -9.8893
 298   2.0000      -0.361827        -9.8458
 299   2.0000      -0.357796        -9.7361
 300   2.0000      -0.355362        -9.6699
 301   2.0000      -0.351275        -9.5587
 302   2.0000      -0.350460        -9.5365
 303   2.0000      -0.349095        -9.4993
 304   2.0000      -0.347050        -9.4437
 305   2.0000      -0.345819        -9.4102
 306   2.0000      -0.342108        -9.3092
 307   2.0000      -0.336306        -9.1513
 308   2.0000      -0.334401        -9.0995
 309   2.0000      -0.322108        -8.7650
 310   2.0000      -0.320697        -8.7266
 311   2.0000      -0.316032        -8.5997
 312   2.0000      -0.313694        -8.5360
 313   2.0000      -0.304492        -8.2857
 314   2.0000      -0.301254        -8.1975
 315   2.0000      -0.248146        -6.7524
 316   0.0000      -0.114591        -3.1182
 317   0.0000      -0.107297        -2.9197
 318   0.0000      -0.090557        -2.4642
 319   0.0000      -0.077682        -2.1138
 320   0.0000      -0.073670        -2.0047

MULLIKEN ATOMIC CHARGES
-----------------------
   0 C :    0.144200
   1 O :   -0.108873
   2 C :   -0.025834
   3 C :    0.041637
   4 C :   -0.006788
   5 C :   -0.025295
   6 C :   -0.013301
   7 C :   -0.016418
   8 Br:    0.020946
   9 Br:    0.027633
  10 C :    0.291501
  11 C :   -0.323407
  12 C :   -0.186437
  13 N :    0.166713
  14 C :   -0.200138
  15 N :    0.180203
  16 C :   -0.052893
  17 C :   -0.029716
  18 C :    0.089753
  19 O :   -0.158459
  20 C :    0.213055
  21 C :    0.001793
  22 N :   -0.022672
  23 C :   -0.062611
  24 C :    0.018190
  25 C :    0.241248
  26 C :   -0.153882
  27 O :   -0.214050
  28 C :   -0.009909
  29 N :    0.022652
  30 C :    0.137845
  31 N :   -0.253461
  32 C :    0.113217
  33 C :    0.002183
  34 C :    0.162307
  35 O :   -0.212760
  36 C :   -0.074395
  37 C :   -0.037889
  38 C :    0.139199
  39 O :   -0.139934
  40 N :   -0.266620
  41 C :    0.093750
  42 C :    0.010058
  43 C :    0.140379
  44 C :   -0.019804
  45 C :    0.074799
  46 C :   -0.133388
  47 S :    0.216102
  48 C :    0.005233
  49 C :    0.212106
  50 O :   -0.175651
  51 N :   -0.295276
  52 C :    0.131523
  53 C :   -0.008266
  54 C :    0.197503
  55 O :   -0.171003
  56 C :    0.030080
  57 C :   -0.174246
  58 C :    0.060585
  59 C :   -0.116559
  60 C :    0.129205
  61 O :   -0.127650
  62 C :    0.006722
  63 C :    0.015326
  64 C :    0.327391
  65 C :   -0.320998
  66 C :   -0.217764
  67 N :    0.176797
  68 C :   -0.182270
  69 N :    0.169823
  70 C :   -0.001602
  71 C :   -0.022228
  72 C :   -0.017760
  73 C :   -0.019032
  74 Br:    0.016449
  75 Br:    0.024325
  76 H :    0.010476
  77 H :    0.008401
  78 H :    0.049442
  79 H :   -0.006891
  80 H :   -0.005181
  81 H :    0.041739
  82 H :    0.027417
  83 H :    0.024923
  84 H :    0.021285
  85 H :    0.015870
  86 H :    0.036984
  87 H :    0.042620
  88 H :    0.019645
  89 H :    0.025242
  90 H :    0.026477
  91 H :   -0.003153
  92 H :    0.001344
  93 H :    0.037134
  94 H :    0.036772
  95 H :    0.026516
  96 H :    0.028137
  97 H :    0.029164
  98 H :    0.031606
  99 H :    0.012757
 100 H :    0.008083
Sum of atomic charges:   -0.0000000

LOEWDIN ATOMIC CHARGES
----------------------
   0 C :    0.076762
   1 O :   -0.113858
   2 C :   -0.042647
   3 C :   -0.013069
   4 C :   -0.005963
   5 C :   -0.117411
   6 C :   -0.120948
   7 C :    0.008017
   8 Br:    0.143185
   9 Br:    0.146369
  10 C :    0.069112
  11 C :   -0.118014
  12 C :   -0.018711
  13 N :   -0.034582
  14 C :   -0.026576
  15 N :   -0.028122
  16 C :   -0.066329
  17 C :    0.051063
  18 C :    0.043688
  19 O :    0.026075
  20 C :    0.046955
  21 C :   -0.041528
  22 N :   -0.065957
  23 C :    0.000907
  24 C :   -0.034379
  25 C :    0.046662
  26 C :   -0.061370
  27 O :   -0.005417
  28 C :    0.053334
  29 N :   -0.059200
  30 C :    0.036776
  31 N :    0.005993
  32 C :    0.034130
  33 C :   -0.061455
  34 C :    0.077685
  35 O :   -0.204746
  36 C :   -0.124517
  37 C :   -0.085376
  38 C :    0.085142
  39 O :   -0.151817
  40 N :   -0.000597
  41 C :    0.036582
  42 C :   -0.058470
  43 C :    0.086934
  44 C :   -0.014684
  45 C :   -0.000068
  46 C :   -0.118739
  47 S :    0.502595
  48 C :   -0.086539
  49 C :    0.100881
  50 O :   -0.160564
  51 N :   -0.021504
  52 C :    0.045247
  53 C :   -0.059069
  54 C :    0.089814
  55 O :   -0.157250
  56 C :   -0.066921
  57 C :   -0.151112
  58 C :    0.034585
  59 C :   -0.064014
  60 C :    0.086761
  61 O :   -0.126462
  62 C :   -0.046125
  63 C :   -0.001421
  64 C :    0.074868
  65 C :   -0.120961
  66 C :   -0.018237
  67 N :   -0.040268
  68 C :   -0.018844
  69 N :   -0.040393
  70 C :   -0.004163
  71 C :   -0.116526
  72 C :   -0.124032
  73 C :    0.008786
  74 Br:    0.139593
  75 Br:    0.145146
  76 H :    0.045185
  77 H :    0.046861
  78 H :    0.062856
  79 H :    0.050120
  80 H :    0.047674
  81 H :    0.035484
  82 H :    0.022561
  83 H :    0.029344
  84 H :    0.030557
  85 H :    0.019434
  86 H :    0.028514
  87 H :    0.037384
  88 H :    0.023892
  89 H :    0.032522
  90 H :    0.030484
  91 H :    0.033126
  92 H :    0.036834
  93 H :    0.034673
  94 H :    0.034891
  95 H :    0.028131
  96 H :    0.032920
  97 H :    0.028936
  98 H :    0.049847
  99 H :    0.046170
 100 H :    0.046908

  Mayer bond orders larger than 0.100000
B(  0-C ,  1-O ) :   2.2883 B(  0-C ,  2-C ) :   0.9420 B(  0-C , 16-C ) :   0.9085
B(  2-C ,  3-C ) :   1.3271 B(  2-C ,  7-C ) :   1.3725 B(  3-C ,  4-C ) :   1.3578
B(  3-C , 10-C ) :   1.0023 B(  4-C ,  5-C ) :   1.3796 B(  4-C , 76-H ) :   0.9792
B(  5-C ,  6-C ) :   1.4111 B(  5-C ,  9-Br) :   1.0596 B(  6-C ,  7-C ) :   1.3591
B(  6-C ,  8-Br) :   1.0371 B(  7-C , 77-H ) :   1.0070 B( 10-C , 11-C ) :   1.6729
B( 10-C , 16-C ) :   1.0465 B( 11-C , 12-C ) :   1.1371 B( 11-C , 14-C ) :   1.1346
B( 12-C , 13-N ) :   2.9762 B( 14-C , 15-N ) :   2.9961 B( 16-C , 17-C ) :   1.6347
B( 17-C , 18-C ) :   1.1112 B( 17-C , 78-H ) :   0.9385 B( 18-C , 19-O ) :   1.1441
B( 18-C , 22-N ) :   1.6996 B( 19-O , 20-C ) :   1.1426 B( 20-C , 21-C ) :   1.2287
B( 20-C , 26-C ) :   1.3017 B( 21-C , 22-N ) :   1.3259 B( 21-C , 23-C ) :   1.2565
B( 23-C , 24-C ) :   1.2983 B( 23-C , 26-C ) :   0.1471 B( 23-C , 79-H ) :   1.0523
B( 24-C , 25-C ) :   1.2118 B( 24-C , 29-N ) :   1.2873 B( 25-C , 26-C ) :   1.3211
B( 25-C , 27-O ) :   1.1017 B( 26-C , 80-H ) :   1.0469 B( 27-O , 28-C ) :   1.1095
B( 28-C , 29-N ) :   1.8339 B( 28-C , 30-C ) :   1.0002 B( 30-C , 31-N ) :   1.1907
B( 30-C , 37-C ) :   1.4291 B( 31-N , 32-C ) :   0.9408 B( 31-N , 34-C ) :   1.0574
B( 32-C , 33-C ) :   1.1216 B( 32-C , 81-H ) :   0.9278 B( 32-C , 82-H ) :   0.9459
B( 33-C , 83-H ) :   0.9654 B( 33-C , 84-H ) :   0.9678 B( 33-C , 85-H ) :   0.9687
B( 34-C , 35-O ) :   2.0157 B( 34-C , 36-C ) :   0.9979 B( 35-O , 92-H ) :   0.1175
B( 36-C , 37-C ) :   1.2491 B( 36-C , 43-C ) :   1.3007 B( 37-C , 38-C ) :   0.9322
B( 38-C , 39-O ) :   2.2085 B( 38-C , 40-N ) :   1.0114 B( 40-N , 41-C ) :   0.9377
B( 40-N , 43-C ) :   1.1943 B( 41-C , 42-C ) :   1.1252 B( 41-C , 86-H ) :   0.9484
B( 41-C , 87-H ) :   0.9267 B( 42-C , 88-H ) :   0.9672 B( 42-C , 89-H ) :   0.9672
B( 42-C , 90-H ) :   0.9636 B( 43-C , 44-C ) :   1.1623 B( 44-C , 45-C ) :   1.6063
B( 44-C , 91-H ) :   0.9403 B( 45-C , 46-C ) :   1.1379 B( 45-C , 92-H ) :   0.9327
B( 46-C , 47-S ) :   1.1567 B( 46-C , 48-C ) :   1.4576 B( 47-S , 57-C ) :   1.1297
B( 48-C , 49-C ) :   0.9056 B( 48-C , 56-C ) :   1.2948 B( 49-C , 50-O ) :   2.0814
B( 49-C , 51-N ) :   1.0868 B( 50-O , 91-H ) :   0.1005 B( 51-N , 52-C ) :   0.9155
B( 51-N , 54-C ) :   1.0965 B( 52-C , 53-C ) :   1.1264 B( 52-C , 93-H ) :   0.9409
B( 52-C , 94-H ) :   0.9412 B( 53-C , 95-H ) :   0.9684 B( 53-C , 96-H ) :   0.9702
B( 53-C , 97-H ) :   0.9688 B( 54-C , 55-O ) :   2.1286 B( 54-C , 56-C ) :   0.8832
B( 56-C , 57-C ) :   1.4935 B( 57-C , 58-C ) :   1.1013 B( 58-C , 59-C ) :   1.7178
B( 58-C , 98-H ) :   0.9247 B( 59-C , 60-C ) :   0.9312 B( 59-C , 64-C ) :   1.0263
B( 60-C , 61-O ) :   2.2776 B( 60-C , 62-C ) :   0.9245 B( 62-C , 63-C ) :   1.3246
B( 62-C , 73-C ) :   1.3672 B( 63-C , 64-C ) :   1.0081 B( 63-C , 70-C ) :   1.3735
B( 64-C , 65-C ) :   1.6601 B( 65-C , 66-C ) :   1.1725 B( 65-C , 68-C ) :   1.1288
B( 66-C , 67-N ) :   3.0022 B( 68-C , 69-N ) :   2.9977 B( 70-C , 71-C ) :   1.3688
B( 70-C , 99-H ) :   0.9821 B( 71-C , 72-C ) :   1.4168 B( 71-C , 75-Br) :   1.0534
B( 72-C , 73-C ) :   1.3608 B( 72-C , 74-Br) :   1.0351 B( 73-C ,100-H ) :   1.0077

-----------------------------------------------------------------------------
         ABSORPTION SPECTRUM VIA TRANSITION ELECTRIC DIPOLE MOMENTS
-----------------------------------------------------------------------------
State   Energy  Wavelength   fosc         T2         TX        TY        TZ
        (cm-1)    (nm)                  (au**2)     (au)      (au)      (au)
-----------------------------------------------------------------------------
   0   14521.4    688.6   1.115807242  25.29621   1.60754  -2.95858   3.73615
   1   19249.3    519.5   0.094747158   1.62042   0.26794  -0.31305   1.20442
   2   20713.0    482.8   0.078533347   1.24821  -0.35515  -1.05721  -0.06630
   3   25130.6    397.9   0.869431589  11.38958   0.96066  -2.45800   2.10356
   4   25420.7    393.4   0.438284828   5.67602  -0.31619   1.35213  -1.93592
   5   25736.5    388.6   0.060090374   0.76865  -0.13368   0.82512   0.26450
   6   26286.1    380.4   0.017152332   0.21482  -0.02598   0.27899   0.36920
   7   26728.9    374.1   0.005881249   0.07244  -0.19320   0.09982  -0.15858
   8   26853.9    372.4   0.000502055   0.00615   0.02514  -0.06722   0.03168
   9   27209.2    367.5   0.179710602   2.17437   0.13875   0.97872  -1.09418
  10   27484.2    363.8   0.052094342   0.62400  -0.57538  -0.52048  -0.14844
  11   28264.0    353.8   0.115667140   1.34726   0.00716  -1.07988   0.42552
  12   28745.0    347.9   0.138529685   1.58656  -1.12447   0.40459  -0.39804
  13   29061.4    344.1   0.109552194   1.24102  -0.74447  -0.58127   0.59069
  14   29387.9    340.3   0.037864902   0.42417  -0.00780  -0.36123   0.54187
  15   29736.7    336.3   0.037099053   0.41072   0.06200   0.30121  -0.56227
  16   30354.1    329.4   0.006452352   0.06998   0.21320   0.15585  -0.01528
  17   30522.5    327.6   0.039362600   0.42456  -0.58009  -0.28551   0.08086
  18   31369.7    318.8   0.060802945   0.63810   0.37425  -0.49783   0.50020
  19   31889.4    313.6   0.074590708   0.77004   0.35563  -0.47788   0.64436
  20   32100.0    311.5   0.029934658   0.30700   0.42204  -0.33536   0.12815
  21   32196.9    310.6   0.065588503   0.67064  -0.80152  -0.13744  -0.09649
  22   32586.9    306.9   0.047308842   0.47794   0.14770  -0.22986   0.63505
  23   33024.5    302.8   0.123310986   1.22925  -0.94433   0.37335  -0.44508
  24   33060.5    302.5   0.103766850   1.03330   0.68920   0.54290  -0.51338
  25   33426.7    299.2   0.027068461   0.26659  -0.25962   0.30499   0.32583
  26   33670.0    297.0   0.037569558   0.36734   0.43045   0.35475  -0.23708
  27   34304.5    291.5   0.035671850   0.34233   0.34543   0.43419  -0.18571
  28   34477.7    290.0   0.575999854   5.49996   1.09732   1.52439  -1.40431
  29   34814.0    287.2   0.531282230   5.02397   2.01445   0.75987  -0.62334
  30   35039.2    285.4   0.049974594   0.46954   0.25996   0.30211  -0.55740
  31   35517.5    281.6   0.004862155   0.04507  -0.20716   0.04640   0.00098
  32   35725.5    279.9   0.000643874   0.00593  -0.06572  -0.02169   0.03382
  33   35927.8    278.3   0.012602754   0.11548  -0.10946   0.15670  -0.28097
  34   36061.5    277.3   0.006964474   0.06358   0.09258   0.19351   0.13253
  35   36877.0    271.2   0.021382019   0.19088   0.06283  -0.30590   0.30555
  36   36911.3    270.9   0.074819330   0.66731  -0.50419   0.41686  -0.48922
  37   37071.3    269.8   0.002552499   0.02267  -0.00855  -0.13282   0.07038
  38   37110.8    269.5   0.014078379   0.12489   0.16410   0.26572  -0.16540
  39   37766.4    264.8   0.007064855   0.06158  -0.15960   0.06788  -0.17750
  40   37838.2    264.3   0.017731338   0.15427   0.36071   0.14337  -0.06004
  41   37935.2    263.6   0.028834756   0.25024   0.06281   0.41565  -0.27116
  42   38064.1    262.7   0.163326206   1.41259  -0.14413  -1.02041   0.59209
  43   38284.8    261.2   0.142288553   1.22354  -0.93353  -0.55284  -0.21550
  44   38849.8    257.4   0.053507932   0.45342   0.30689   0.47352  -0.36745
  45   38901.5    257.1   0.023253510   0.19679  -0.13707   0.28982  -0.30660
  46   39066.0    256.0   0.081752898   0.68894   0.09709  -0.65923   0.49490
  47   39312.4    254.4   0.028609891   0.23959  -0.18214  -0.21259   0.40152
  48   39405.7    253.8   0.034515854   0.28836  -0.52437   0.11561  -0.00576
  49   39646.5    252.2   0.020698547   0.17187   0.23908  -0.21455   0.26208
  50   39763.3    251.5   0.016007523   0.13253   0.27771  -0.21837   0.08786
  51   40119.7    249.3   0.150408792   1.23422   0.72294  -0.66453   0.51959

FINAL SINGLE POINT ENERGY    -13857.348535213634

DIPOLE MOMENT
-------------
                                X             Y             Z
Electronic contribution:    -90.43210     -30.93741     -45.33381
Nuclear contribution   :     88.07393      30.22159      47.03182
                        -----------------------------------------
Total Dipole Moment    :     -2.35817      -0.71582       1.69800
                        -----------------------------------------
Magnitude (a.u.)       :      2.99276
Magnitude (Debye)      :      7.60698

Rotational constants in cm-1:     0.002264     0.000103     0.000100
Rotational constants in MHz :    67.877141     3.093612     3.000490

                             ****ORCA TERMINATED NORMALLY****
TOTAL RUN TIME: 0 days 0 hours 10 minutes 28 seconds 244 msec
