                         Program Version 4.2.0 -  RELEASE  -
|  1> # ORCA input file
|  2> # SCF done       -196.398533862557          0.000426022611
|  3> ! CAM-B3LYP def2-SVP def2/J RIJCOSX Grid4 TightSCF
|  4> %maxcore 5000
|  5> %tddft
|  6>     Mode sTDDFT
|  7>     Ethresh 5.0
|  8>     maxcore 5000
|  9> end
| 10>
| 11> %pal
| 12>   nprocs 6
| 13>   end
| 14> * xyz 0 1
| 15>    C       -8.43195        -5.34327         4.17581
| 16>    O       -7.31763        -5.12182         4.56969
| 17>    C       -9.60094        -4.44182         4.29604
| 18>    C      -10.75448        -5.07009         3.79525
| 19>    C      -11.97005        -4.40371         3.83452
| 20>    C      -12.00983        -3.12092         4.36694
| 21>    C      -10.85579        -2.50270         4.85858
| 22>    C       -9.63802        -3.16908         4.82806
| 23>   Br      -10.94069        -0.75828         5.57410
| 24>   Br      -13.66565        -2.21419         4.42440
| 25>    C      -10.39832        -6.39586         3.30195
| 26>    C      -11.23394        -7.25014         2.63843
| 27>    C      -12.59565        -6.97768         2.37467
| 28>    N      -13.70526        -6.81316         2.13644
| 29>    C      -10.86421        -8.50400         2.10128
| 30>    N      -10.64318        -9.52549         1.62836
| 31>    C       -8.97939        -6.59882         3.56849
| 32>    C       -8.30911        -7.76824         3.43729
| 33>    C       -6.90156        -7.96027         3.57324
| 34>    O       -6.46894        -9.24505         3.79078
| 35>    C       -5.12737        -9.15720         3.81347
| 36>    C       -4.78592        -7.78822         3.58087
| 37>    N       -5.94638        -7.09361         3.43910
| 38>    C       -3.46821        -7.35321         3.52517
| 39>    C       -2.53110        -8.34918         3.72295
| 40>    C       -2.89519        -9.70600         3.96115
| 41>    C       -4.19764       -10.15924         4.01565
| 42>    O       -1.75276       -10.41462         4.10104
| 43>    C       -0.75303        -9.51666         3.94420
| 44>    N       -1.16052        -8.30041         3.72532
| 45>    C        0.60447        -9.98549         3.99254
| 46>    C        0.90609       -11.36188         4.00059
| 47>    C        2.25128       -11.60905         4.06585
| 48>    S        2.98676       -13.18003         4.06592
| 49>    C        4.73331       -12.73828         4.27306
| 50>    S        3.16555       -10.14141         4.17411
| 51>    C        1.73658        -9.17987         4.09719
| 52>    C        1.75062        -7.73915         4.11178
| 53>    C        2.47927        -6.91192         4.98370
| 54>    C        3.41171        -7.40766         6.00963
| 55>    O        3.68812        -8.53916         6.28246
| 56>    S        4.12581        -6.01670         6.89013
| 57>    C        3.17912        -4.82394         5.96564
| 58>    O        3.27790        -3.64389         6.15973
| 59>    C        2.32182        -5.51833         4.98816
| 60>    C        1.38291        -4.85014         4.18441
| 61>    C        0.69890        -5.67785         3.27924
| 62>    C        0.92101        -7.04420         3.21845
| 63>    C        0.20703        -7.56266         2.01921
| 64>    O        0.32805        -8.59342         1.43129
| 65>    O       -0.52542        -6.51275         1.51800
| 66>    C       -0.26806        -5.35368         2.19745
| 67>    O       -0.77191        -4.31565         1.89646
| 68>    C        1.17065        -3.42417         4.30930
| 69>    C       -0.03138        -2.82792         4.28919
| 70>    C       -0.20759        -1.41448         4.46611
| 71>    C        0.45501        -0.58589         5.30180
| 72>    C        0.36898         0.89256         5.09142
| 73>    O       -0.42432         1.47897         4.39902
| 74>    C        1.49613         1.45163         5.86579
| 75>    C        2.11513         0.42611         6.60521
| 76>    C        1.38707        -0.82287         6.39802
| 77>    C        1.42759        -1.89612         7.23873
| 78>    C        0.61326        -3.04310         7.13410
| 79>    N       -0.01272        -4.00469         7.12972
| 80>    C        2.26760        -1.97102         8.37408
| 81>    N        2.91369        -2.07411         9.31533
| 82>    C        3.23396         0.70719         7.37208
| 83>    C        3.70624         2.01360         7.40332
| 84>    C        3.07222         3.03161         6.68419
| 85>    C        1.95924         2.75163         5.90276
| 86>   Br        3.72762         4.80139         6.75867
| 87>   Br        5.23747         2.40068         8.43874
| 88>    H      -12.88182        -4.84956         3.47151
| 89>    H       -8.73997        -2.70667         5.20744
| 90>    H       -8.84617        -8.68115         3.21358
| 91>    H       -3.21255        -6.32530         3.34062
| 92>    H       -4.46058       -11.18764         4.19100
| 93>    H        0.16179       -12.13416         3.95124
| 94>    H        5.28041       -13.67286         4.34249
| 95>    H        4.85443       -12.16051         5.18514
| 96>    H        5.06872       -12.16951         3.41064
| 97>    H        2.05553        -2.82984         4.49413
| 98>    H       -0.92645        -3.39710         4.08554
| 99>    H       -0.93798        -0.94168         3.81599
|100>    H        3.75134        -0.05862         7.92732
|101>    H        1.46844         3.52838         5.33707
|102> *
|103>
|104>                          ****END OF INPUT****

CARTESIAN COORDINATES (ANGSTROEM)
---------------------------------
  C     -8.431950   -5.343270    4.175810
  O     -7.317630   -5.121820    4.569690
  C     -9.600940   -4.441820    4.296040
  C    -10.754480   -5.070090    3.795250
  C    -11.970050   -4.403710    3.834520
  C    -12.009830   -3.120920    4.366940
  C    -10.855790   -2.502700    4.858580
  C     -9.638020   -3.169080    4.828060
  Br   -10.940690   -0.758280    5.574100
  Br   -13.665650   -2.214190    4.424400
  C    -10.398320   -6.395860    3.301950
  C    -11.233940   -7.250140    2.638430
  C    -12.595650   -6.977680    2.374670
  N    -13.705260   -6.813160    2.136440
  C    -10.864210   -8.504000    2.101280
  N    -10.643180   -9.525490    1.628360
  C     -8.979390   -6.598820    3.568490
  C     -8.309110   -7.768240    3.437290
  C     -6.901560   -7.960270    3.573240
  O     -6.468940   -9.245050    3.790780
  C     -5.127370   -9.157200    3.813470
  C     -4.785920   -7.788220    3.580870
  N     -5.946380   -7.093610    3.439100
  C     -3.468210   -7.353210    3.525170
  C     -2.531100   -8.349180    3.722950
  C     -2.895190   -9.706000    3.961150
  C     -4.197640  -10.159240    4.015650
  O     -1.752760  -10.414620    4.101040
  C     -0.753030   -9.516660    3.944200
  N     -1.160520   -8.300410    3.725320
  C      0.604470   -9.985490    3.992540
  C      0.906090  -11.361880    4.000590
  C      2.251280  -11.609050    4.065850
  S      2.986760  -13.180030    4.065920
  C      4.733310  -12.738280    4.273060
  S      3.165550  -10.141410    4.174110
  C      1.736580   -9.179870    4.097190
  C      1.750620   -7.739150    4.111780
  C      2.479270   -6.911920    4.983700
  C      3.411710   -7.407660    6.009630
  O      3.688120   -8.539160    6.282460
  S      4.125810   -6.016700    6.890130
  C      3.179120   -4.823940    5.965640
  O      3.277900   -3.643890    6.159730
  C      2.321820   -5.518330    4.988160
  C      1.382910   -4.850140    4.184410
  C      0.698900   -5.677850    3.279240
  C      0.921010   -7.044200    3.218450
  C      0.207030   -7.562660    2.019210
  O      0.328050   -8.593420    1.431290
  O     -0.525420   -6.512750    1.518000
  C     -0.268060   -5.353680    2.197450
  O     -0.771910   -4.315650    1.896460
  C      1.170650   -3.424170    4.309300
  C     -0.031380   -2.827920    4.289190
  C     -0.207590   -1.414480    4.466110
  C      0.455010   -0.585890    5.301800
  C      0.368980    0.892560    5.091420
  O     -0.424320    1.478970    4.399020
  C      1.496130    1.451630    5.865790
  C      2.115130    0.426110    6.605210
  C      1.387070   -0.822870    6.398020
  C      1.427590   -1.896120    7.238730
  C      0.613260   -3.043100    7.134100
  N     -0.012720   -4.004690    7.129720
  C      2.267600   -1.971020    8.374080
  N      2.913690   -2.074110    9.315330
  C      3.233960    0.707190    7.372080
  C      3.706240    2.013600    7.403320
  C      3.072220    3.031610    6.684190
  C      1.959240    2.751630    5.902760
  Br     3.727620    4.801390    6.758670
  Br     5.237470    2.400680    8.438740
  H    -12.881820   -4.849560    3.471510
  H     -8.739970   -2.706670    5.207440
  H     -8.846170   -8.681150    3.213580
  H     -3.212550   -6.325300    3.340620
  H     -4.460580  -11.187640    4.191000
  H      0.161790  -12.134160    3.951240
  H      5.280410  -13.672860    4.342490
  H      4.854430  -12.160510    5.185140
  H      5.068720  -12.169510    3.410640
  H      2.055530   -2.829840    4.494130
  H     -0.926450   -3.397100    4.085540
  H     -0.937980   -0.941680    3.815990
  H      3.751340   -0.058620    7.927320
  H      1.468440    3.528380    5.337070

 Total Charge           Charge          ....    0
 Multiplicity           Mult            ....    1
 Number of Electrons    NEL             ....  622
 Basis Dimension        Dim             .... 1176

ORBITAL ENERGIES
----------------

  NO   OCC          E(Eh)            E(eV)
   0   2.0000    -482.882085    -13139.8896
   1   2.0000    -482.880712    -13139.8522
   2   2.0000    -482.879357    -13139.8153
   3   2.0000    -482.878443    -13139.7905
   4   2.0000     -88.982073     -2421.3253
   5   2.0000     -88.960984     -2420.7515
   6   2.0000     -88.950229     -2420.4588
   7   2.0000     -62.559719     -1702.3365
   8   2.0000     -62.558320     -1702.2984
   9   2.0000     -62.556995     -1702.2624
  10   2.0000     -62.556060     -1702.2369
  11   2.0000     -56.393673     -1534.5498
  12   2.0000     -56.392289     -1534.5122
  13   2.0000     -56.391017     -1534.4776
  14   2.0000     -56.390945     -1534.4756
  15   2.0000     -56.390908     -1534.4746
  16   2.0000     -56.390023     -1534.4505
  17   2.0000     -56.389608     -1534.4392
  18   2.0000     -56.389512     -1534.4366
  19   2.0000     -56.388288     -1534.4033
  20   2.0000     -56.388195     -1534.4008
  21   2.0000     -56.387355     -1534.3779
  22   2.0000     -56.387253     -1534.3752
  23   2.0000     -19.322075      -525.7804
  24   2.0000     -19.314559      -525.5759
  25   2.0000     -19.292894      -524.9863
  26   2.0000     -19.253078      -523.9029
  27   2.0000     -19.252793      -523.8951
  28   2.0000     -19.239932      -523.5452
  29   2.0000     -19.228514      -523.2345
  30   2.0000     -19.228344      -523.2298
  31   2.0000     -19.227753      -523.2138
  32   2.0000     -14.433371      -392.7520
  33   2.0000     -14.431418      -392.6989
  34   2.0000     -14.429896      -392.6574
  35   2.0000     -14.427212      -392.5844
  36   2.0000     -14.425011      -392.5245
  37   2.0000     -14.421056      -392.4169
  38   2.0000     -10.436156      -283.9822
  39   2.0000     -10.433462      -283.9089
  40   2.0000     -10.415899      -283.4310
  41   2.0000     -10.415713      -283.4260
  42   2.0000     -10.399463      -282.9838
  43   2.0000     -10.386747      -282.6378
  44   2.0000     -10.381890      -282.5056
  45   2.0000     -10.378493      -282.4132
  46   2.0000     -10.363227      -281.9977
  47   2.0000     -10.362617      -281.9811
  48   2.0000     -10.360570      -281.9254
  49   2.0000     -10.360130      -281.9135
  50   2.0000     -10.359732      -281.9026
  51   2.0000     -10.358549      -281.8705
  52   2.0000     -10.357724      -281.8480
  53   2.0000     -10.356701      -281.8202
  54   2.0000     -10.354752      -281.7671
  55   2.0000     -10.349855      -281.6339
  56   2.0000     -10.343109      -281.4503
  57   2.0000     -10.342578      -281.4359
  58   2.0000     -10.338086      -281.3136
  59   2.0000     -10.336653      -281.2746
  60   2.0000     -10.335769      -281.2506
  61   2.0000     -10.333936      -281.2007
  62   2.0000     -10.332717      -281.1675
  63   2.0000     -10.331277      -281.1283
  64   2.0000     -10.331167      -281.1254
  65   2.0000     -10.328002      -281.0392
  66   2.0000     -10.327668      -281.0301
  67   2.0000     -10.327440      -281.0239
  68   2.0000     -10.327112      -281.0150
  69   2.0000     -10.326250      -280.9915
  70   2.0000     -10.325213      -280.9633
  71   2.0000     -10.322756      -280.8965
  72   2.0000     -10.322524      -280.8901
  73   2.0000     -10.322451      -280.8882
  74   2.0000     -10.322343      -280.8852
  75   2.0000     -10.318800      -280.7888
  76   2.0000     -10.317711      -280.7592
  77   2.0000     -10.315807      -280.7074
  78   2.0000     -10.314712      -280.6776
  79   2.0000     -10.313788      -280.6525
  80   2.0000     -10.311123      -280.5799
  81   2.0000     -10.311007      -280.5768
  82   2.0000     -10.310864      -280.5729
  83   2.0000     -10.309480      -280.5352
  84   2.0000     -10.308127      -280.4984
  85   2.0000     -10.305378      -280.4236
  86   2.0000     -10.304586      -280.4020
  87   2.0000     -10.300282      -280.2849
  88   2.0000     -10.289464      -279.9905
  89   2.0000      -8.789067      -239.1627
  90   2.0000      -8.787642      -239.1239
  91   2.0000      -8.786338      -239.0884
  92   2.0000      -8.785383      -239.0624
  93   2.0000      -8.076757      -219.7797
  94   2.0000      -8.060275      -219.3312
  95   2.0000      -8.046132      -218.9464
  96   2.0000      -6.625231      -180.2817
  97   2.0000      -6.623849      -180.2441
  98   2.0000      -6.622488      -180.2071
  99   2.0000      -6.621567      -180.1820
 100   2.0000      -6.611212      -179.9002
 101   2.0000      -6.610350      -179.8768
 102   2.0000      -6.609721      -179.8596
 103   2.0000      -6.608942      -179.8385
 104   2.0000      -6.608446      -179.8249
 105   2.0000      -6.607676      -179.8040
 106   2.0000      -6.607487      -179.7989
 107   2.0000      -6.606683      -179.7770
 108   2.0000      -6.046208      -164.5257
 109   2.0000      -6.041624      -164.4009
 110   2.0000      -6.038956      -164.3283
 111   2.0000      -6.029126      -164.0609
 112   2.0000      -6.025833      -163.9712
 113   2.0000      -6.021339      -163.8490
 114   2.0000      -6.016535      -163.7182
 115   2.0000      -6.012401      -163.6057
 116   2.0000      -6.005760      -163.4250
 117   2.0000      -2.741094       -74.5890
 118   2.0000      -2.739701       -74.5511
 119   2.0000      -2.738353       -74.5144
 120   2.0000      -2.737451       -74.4898
 121   2.0000      -2.737381       -74.4879
 122   2.0000      -2.736752       -74.4708
 123   2.0000      -2.735966       -74.4494
 124   2.0000      -2.735347       -74.4326
 125   2.0000      -2.734630       -74.4131
 126   2.0000      -2.734037       -74.3969
 127   2.0000      -2.733677       -74.3871
 128   2.0000      -2.733077       -74.3708
 129   2.0000      -2.725575       -74.1667
 130   2.0000      -2.725551       -74.1660
 131   2.0000      -2.724104       -74.1266
 132   2.0000      -2.724096       -74.1264
 133   2.0000      -2.722860       -74.0928
 134   2.0000      -2.722835       -74.0921
 135   2.0000      -2.721865       -74.0657
 136   2.0000      -2.721852       -74.0654
 137   2.0000      -1.255024       -34.1509
 138   2.0000      -1.244520       -33.8651
 139   2.0000      -1.242868       -33.8202
 140   2.0000      -1.178860       -32.0784
 141   2.0000      -1.174664       -31.9642
 142   2.0000      -1.165368       -31.7113
 143   2.0000      -1.146808       -31.2062
 144   2.0000      -1.144103       -31.1326
 145   2.0000      -1.127026       -30.6680
 146   2.0000      -1.047605       -28.5068
 147   2.0000      -1.039163       -28.2771
 148   2.0000      -1.035664       -28.1818
 149   2.0000      -1.029882       -28.0245
 150   2.0000      -1.026233       -27.9252
 151   2.0000      -1.018710       -27.7205
 152   2.0000      -1.013731       -27.5850
 153   2.0000      -1.009324       -27.4651
 154   2.0000      -1.008720       -27.4487
 155   2.0000      -1.001152       -27.2427
 156   2.0000      -0.987749       -26.8780
 157   2.0000      -0.982217       -26.7275
 158   2.0000      -0.973812       -26.4988
 159   2.0000      -0.960212       -26.1287
 160   2.0000      -0.946120       -25.7452
 161   2.0000      -0.931585       -25.3497
 162   2.0000      -0.928118       -25.2554
 163   2.0000      -0.924846       -25.1663
 164   2.0000      -0.921881       -25.0857
 165   2.0000      -0.917551       -24.9678
 166   2.0000      -0.915084       -24.9007
 167   2.0000      -0.908665       -24.7260
 168   2.0000      -0.894432       -24.3387
 169   2.0000      -0.886093       -24.1118
 170   2.0000      -0.880322       -23.9548
 171   2.0000      -0.873345       -23.7649
 172   2.0000      -0.867867       -23.6159
 173   2.0000      -0.859999       -23.4018
 174   2.0000      -0.856823       -23.3153
 175   2.0000      -0.848109       -23.0782
 176   2.0000      -0.837488       -22.7892
 177   2.0000      -0.826906       -22.5013
 178   2.0000      -0.805442       -21.9172
 179   2.0000      -0.800723       -21.7888
 180   2.0000      -0.791850       -21.5473
 181   2.0000      -0.780014       -21.2252
 182   2.0000      -0.777973       -21.1697
 183   2.0000      -0.771311       -20.9884
 184   2.0000      -0.763808       -20.7843
 185   2.0000      -0.762277       -20.7426
 186   2.0000      -0.751619       -20.4526
 187   2.0000      -0.741328       -20.1726
 188   2.0000      -0.733307       -19.9543
 189   2.0000      -0.724049       -19.7024
 190   2.0000      -0.722425       -19.6582
 191   2.0000      -0.709899       -19.3173
 192   2.0000      -0.708299       -19.2738
 193   2.0000      -0.704009       -19.1571
 194   2.0000      -0.694656       -18.9025
 195   2.0000      -0.690831       -18.7985
 196   2.0000      -0.683333       -18.5944
 197   2.0000      -0.677740       -18.4422
 198   2.0000      -0.669821       -18.2268
 199   2.0000      -0.666406       -18.1338
 200   2.0000      -0.659233       -17.9386
 201   2.0000      -0.645895       -17.5757
 202   2.0000      -0.643457       -17.5093
 203   2.0000      -0.638027       -17.3616
 204   2.0000      -0.633523       -17.2390
 205   2.0000      -0.628561       -17.1040
 206   2.0000      -0.626138       -17.0381
 207   2.0000      -0.623072       -16.9547
 208   2.0000      -0.616372       -16.7723
 209   2.0000      -0.610940       -16.6245
 210   2.0000      -0.610365       -16.6089
 211   2.0000      -0.604461       -16.4482
 212   2.0000      -0.599131       -16.3032
 213   2.0000      -0.595278       -16.1983
 214   2.0000      -0.591034       -16.0828
 215   2.0000      -0.586391       -15.9565
 216   2.0000      -0.583503       -15.8779
 217   2.0000      -0.581580       -15.8256
 218   2.0000      -0.575163       -15.6510
 219   2.0000      -0.571232       -15.5440
 220   2.0000      -0.567814       -15.4510
 221   2.0000      -0.561820       -15.2879
 222   2.0000      -0.559735       -15.2312
 223   2.0000      -0.559016       -15.2116
 224   2.0000      -0.555561       -15.1176
 225   2.0000      -0.554198       -15.0805
 226   2.0000      -0.553510       -15.0618
 227   2.0000      -0.553281       -15.0555
 228   2.0000      -0.551285       -15.0012
 229   2.0000      -0.548652       -14.9296
 230   2.0000      -0.545783       -14.8515
 231   2.0000      -0.544225       -14.8091
 232   2.0000      -0.540414       -14.7054
 233   2.0000      -0.537071       -14.6144
 234   2.0000      -0.533305       -14.5120
 235   2.0000      -0.532352       -14.4860
 236   2.0000      -0.531287       -14.4571
 237   2.0000      -0.530607       -14.4386
 238   2.0000      -0.525739       -14.3061
 239   2.0000      -0.519454       -14.1351
 240   2.0000      -0.517172       -14.0730
 241   2.0000      -0.512647       -13.9498
 242   2.0000      -0.511844       -13.9280
 243   2.0000      -0.510293       -13.8858
 244   2.0000      -0.509343       -13.8599
 245   2.0000      -0.506130       -13.7725
 246   2.0000      -0.501441       -13.6449
 247   2.0000      -0.498299       -13.5594
 248   2.0000      -0.497856       -13.5473
 249   2.0000      -0.496690       -13.5156
 250   2.0000      -0.494059       -13.4440
 251   2.0000      -0.491846       -13.3838
 252   2.0000      -0.490051       -13.3350
 253   2.0000      -0.483791       -13.1646
 254   2.0000      -0.482051       -13.1173
 255   2.0000      -0.474044       -12.8994
 256   2.0000      -0.470506       -12.8031
 257   2.0000      -0.470245       -12.7960
 258   2.0000      -0.468567       -12.7503
 259   2.0000      -0.467117       -12.7109
 260   2.0000      -0.463273       -12.6063
 261   2.0000      -0.462484       -12.5848
 262   2.0000      -0.461829       -12.5670
 263   2.0000      -0.461705       -12.5636
 264   2.0000      -0.457938       -12.4611
 265   2.0000      -0.456656       -12.4263
 266   2.0000      -0.453508       -12.3406
 267   2.0000      -0.448380       -12.2010
 268   2.0000      -0.446525       -12.1506
 269   2.0000      -0.444090       -12.0843
 270   2.0000      -0.441542       -12.0150
 271   2.0000      -0.439450       -11.9580
 272   2.0000      -0.436886       -11.8883
 273   2.0000      -0.435454       -11.8493
 274   2.0000      -0.432154       -11.7595
 275   2.0000      -0.430852       -11.7241
 276   2.0000      -0.423948       -11.5362
 277   2.0000      -0.423805       -11.5323
 278   2.0000      -0.418167       -11.3789
 279   2.0000      -0.411244       -11.1905
 280   2.0000      -0.408295       -11.1103
 281   2.0000      -0.405923       -11.0457
 282   2.0000      -0.404656       -11.0112
 283   2.0000      -0.402932       -10.9643
 284   2.0000      -0.400826       -10.9070
 285   2.0000      -0.395704       -10.7677
 286   2.0000      -0.395306       -10.7568
 287   2.0000      -0.392779       -10.6881
 288   2.0000      -0.392268       -10.6741
 289   2.0000      -0.386548       -10.5185
 290   2.0000      -0.384014       -10.4496
 291   2.0000      -0.376473       -10.2443
 292   2.0000      -0.371744       -10.1157
 293   2.0000      -0.366315        -9.9679
 294   2.0000      -0.363042        -9.8789
 295   2.0000      -0.359394        -9.7796
 296   2.0000      -0.354685        -9.6515
 297   2.0000      -0.352711        -9.5977
 298   2.0000      -0.351105        -9.5541
 299   2.0000      -0.349143        -9.5007
 300   2.0000      -0.345332        -9.3970
 301   2.0000      -0.342314        -9.3148
 302   2.0000      -0.339717        -9.2442
 303   2.0000      -0.338769        -9.2184
 304   2.0000      -0.335039        -9.1169
 305   2.0000      -0.319427        -8.6921
 306   2.0000      -0.317449        -8.6382
 307   2.0000      -0.311430        -8.4744
 308   2.0000      -0.309821        -8.4307
 309   2.0000      -0.296671        -8.0728
 310   2.0000      -0.272552        -7.4165
 311   0.0000      -0.110189        -2.9984
 312   0.0000      -0.101070        -2.7502
 313   0.0000      -0.094212        -2.5636
 314   0.0000      -0.077378        -2.1056
 315   0.0000      -0.073965        -2.0127

MULLIKEN ATOMIC CHARGES
-----------------------
   0 C :    0.147710
   1 O :   -0.087215
   2 C :   -0.025263
   3 C :    0.039620
   4 C :   -0.009154
   5 C :   -0.022696
   6 C :   -0.013251
   7 C :   -0.016917
   8 Br:    0.022598
   9 Br:    0.027145
  10 C :    0.298214
  11 C :   -0.332272
  12 C :   -0.184530
  13 N :    0.166269
  14 C :   -0.193750
  15 N :    0.175786
  16 C :   -0.050342
  17 C :   -0.047660
  18 C :    0.099461
  19 O :   -0.194239
  20 C :    0.215886
  21 C :   -0.003432
  22 N :    0.012804
  23 C :   -0.063292
  24 C :    0.085271
  25 C :    0.221649
  26 C :   -0.147370
  27 O :   -0.181965
  28 C :    0.122547
  29 N :   -0.156239
  30 C :    0.164676
  31 C :   -0.025554
  32 C :   -0.114895
  33 S :    0.023815
  34 C :   -0.104748
  35 S :    0.191503
  36 C :   -0.208069
  37 C :    0.058901
  38 C :    0.032558
  39 C :    0.029518
  40 O :   -0.127057
  41 S :    0.045998
  42 C :    0.048639
  43 O :   -0.157065
  44 C :    0.054325
  45 C :    0.036133
  46 C :   -0.087698
  47 C :   -0.025625
  48 C :    0.231810
  49 O :   -0.112780
  50 O :   -0.227191
  51 C :    0.224616
  52 O :   -0.111721
  53 C :   -0.041255
  54 C :    0.056652
  55 C :    0.013847
  56 C :   -0.107856
  57 C :    0.136096
  58 O :   -0.125087
  59 C :   -0.000792
  60 C :    0.016697
  61 C :    0.265591
  62 C :   -0.296759
  63 C :   -0.206989
  64 N :    0.172816
  65 C :   -0.184057
  66 N :    0.170443
  67 C :   -0.006656
  68 C :   -0.024250
  69 C :   -0.015801
  70 C :   -0.020136
  71 Br:    0.016624
  72 Br:    0.024037
  73 H :    0.008246
  74 H :    0.009000
  75 H :    0.042994
  76 H :   -0.017789
  77 H :   -0.004895
  78 H :   -0.000700
  79 H :    0.074018
  80 H :    0.081609
  81 H :    0.076184
  82 H :    0.045181
  83 H :    0.029908
  84 H :    0.043010
  85 H :    0.015564
  86 H :    0.009039
Sum of atomic charges:   -0.0000000

LOEWDIN ATOMIC CHARGES
----------------------
   0 C :    0.077240
   1 O :   -0.093482
   2 C :   -0.040677
   3 C :   -0.014742
   4 C :   -0.006034
   5 C :   -0.118205
   6 C :   -0.120178
   7 C :    0.008710
   8 Br:    0.144718
   9 Br:    0.145949
  10 C :    0.069723
  11 C :   -0.119125
  12 C :   -0.019065
  13 N :   -0.034105
  14 C :   -0.023573
  15 N :   -0.033181
  16 C :   -0.051805
  17 C :    0.042341
  18 C :    0.048099
  19 O :   -0.002108
  20 C :    0.042883
  21 C :   -0.033830
  22 N :   -0.046062
  23 C :   -0.006388
  24 C :   -0.024761
  25 C :    0.046770
  26 C :   -0.056031
  27 O :    0.012558
  28 C :    0.100593
  29 N :   -0.095585
  30 C :   -0.061748
  31 C :   -0.078644
  32 C :   -0.306433
  33 S :    0.314223
  34 C :   -0.159845
  35 S :    0.504292
  36 C :   -0.181634
  37 C :   -0.000666
  38 C :   -0.051236
  39 C :   -0.046048
  40 O :   -0.122283
  41 S :    0.328602
  42 C :   -0.036556
  43 O :   -0.124405
  44 C :   -0.059226
  45 C :    0.037396
  46 C :   -0.051859
  47 C :   -0.008430
  48 C :    0.101108
  49 O :   -0.119822
  50 O :   -0.047824
  51 C :    0.105212
  52 O :   -0.107549
  53 C :   -0.003471
  54 C :    0.012744
  55 C :    0.068419
  56 C :   -0.074961
  57 C :    0.084842
  58 O :   -0.125868
  59 C :   -0.046543
  60 C :   -0.007109
  61 C :    0.061552
  62 C :   -0.112744
  63 C :   -0.014436
  64 N :   -0.049835
  65 C :   -0.019338
  66 N :   -0.039581
  67 C :   -0.006405
  68 C :   -0.117038
  69 C :   -0.123904
  70 C :    0.008426
  71 Br:    0.139451
  72 Br:    0.144522
  73 H :    0.044760
  74 H :    0.047540
  75 H :    0.054688
  76 H :    0.045339
  77 H :    0.047938
  78 H :    0.035266
  79 H :    0.038818
  80 H :    0.028467
  81 H :    0.026353
  82 H :    0.037353
  83 H :    0.040291
  84 H :    0.053542
  85 H :    0.046479
  86 H :    0.047170

  Mayer bond orders larger than 0.100000
B(  0-C ,  1-O ) :   2.2982 B(  0-C ,  2-C ) :   0.9370 B(  0-C , 16-C ) :   0.9039
B(  2-C ,  3-C ) :   1.3276 B(  2-C ,  7-C ) :   1.3717 B(  3-C ,  4-C ) :   1.3543
B(  3-C , 10-C ) :   1.0008 B(  4-C ,  5-C ) :   1.3805 B(  4-C , 73-H ) :   0.9796
B(  5-C ,  6-C ) :   1.4094 B(  5-C ,  9-Br) :   1.0600 B(  6-C ,  7-C ) :   1.3568
B(  6-C ,  8-Br) :   1.0399 B(  7-C , 74-H ) :   1.0079 B( 10-C , 11-C ) :   1.6672
B( 10-C , 16-C ) :   1.0542 B( 11-C , 12-C ) :   1.1371 B( 11-C , 14-C ) :   1.1369
B( 12-C , 13-N ) :   2.9755 B( 14-C , 15-N ) :   2.9892 B( 16-C , 17-C ) :   1.6830
B( 17-C , 18-C ) :   1.1050 B( 17-C , 75-H ) :   0.9297 B( 18-C , 19-O ) :   1.1145
B( 18-C , 22-N ) :   1.7207 B( 19-O , 20-C ) :   1.1310 B( 20-C , 21-C ) :   1.2331
B( 20-C , 26-C ) :   1.3038 B( 21-C , 22-N ) :   1.3225 B( 21-C , 23-C ) :   1.2797
B( 23-C , 24-C ) :   1.3032 B( 23-C , 26-C ) :   0.1487 B( 23-C , 76-H ) :   1.0434
B( 24-C , 25-C ) :   1.2445 B( 24-C , 29-N ) :   1.2046 B( 25-C , 26-C ) :   1.3311
B( 25-C , 27-O ) :   1.0933 B( 26-C , 77-H ) :   1.0456 B( 27-O , 28-C ) :   1.2084
B( 28-C , 29-N ) :   1.6560 B( 28-C , 30-C ) :   1.0242 B( 30-C , 31-C ) :   1.2694
B( 30-C , 36-C ) :   1.4790 B( 31-C , 32-C ) :   1.5083 B( 31-C , 78-H ) :   1.0002
B( 32-C , 33-S ) :   1.0386 B( 32-C , 35-S ) :   1.1458 B( 33-S , 34-C ) :   1.0116
B( 34-C , 79-H ) :   0.9716 B( 34-C , 80-H ) :   0.9631 B( 34-C , 81-H ) :   0.9647
B( 35-S , 36-C ) :   1.1547 B( 36-C , 37-C ) :   1.0394 B( 37-C , 38-C ) :   1.4036
B( 37-C , 47-C ) :   1.3570 B( 38-C , 39-C ) :   0.8428 B( 38-C , 44-C ) :   1.2859
B( 39-C , 40-O ) :   2.1699 B( 39-C , 41-S ) :   1.0288 B( 40-O , 41-S ) :   0.1038
B( 41-S , 42-C ) :   1.0512 B( 41-S , 43-O ) :   0.1021 B( 42-C , 43-O ) :   2.0821
B( 42-C , 44-C ) :   0.8585 B( 44-C , 45-C ) :   1.3960 B( 45-C , 46-C ) :   1.3190
B( 45-C , 53-C ) :   1.0818 B( 46-C , 47-C ) :   1.4055 B( 46-C , 51-C ) :   0.8960
B( 47-C , 48-C ) :   0.8619 B( 48-C , 49-O ) :   2.2661 B( 48-C , 50-O ) :   1.0372
B( 50-O , 51-C ) :   1.0701 B( 51-C , 52-O ) :   2.2408 B( 53-C , 54-C ) :   1.7718
B( 53-C , 82-H ) :   0.9393 B( 54-C , 55-C ) :   1.0848 B( 54-C , 83-H ) :   0.9381
B( 55-C , 56-C ) :   1.7625 B( 55-C , 84-H ) :   0.9301 B( 56-C , 57-C ) :   0.9288
B( 56-C , 61-C ) :   1.0049 B( 57-C , 58-O ) :   2.2866 B( 57-C , 59-C ) :   0.9201
B( 59-C , 60-C ) :   1.3253 B( 59-C , 70-C ) :   1.3665 B( 60-C , 61-C ) :   1.0053
B( 60-C , 67-C ) :   1.3639 B( 61-C , 62-C ) :   1.7102 B( 62-C , 63-C ) :   1.1655
B( 62-C , 65-C ) :   1.1142 B( 63-C , 64-N ) :   2.9833 B( 65-C , 66-N ) :   3.0048
B( 67-C , 68-C ) :   1.3763 B( 67-C , 85-H ) :   0.9838 B( 68-C , 69-C ) :   1.4127
B( 68-C , 72-Br) :   1.0543 B( 69-C , 70-C ) :   1.3615 B( 69-C , 71-Br) :   1.0355
B( 70-C , 86-H ) :   1.0085

-----------------------------------------------------------------------------
         ABSORPTION SPECTRUM VIA TRANSITION ELECTRIC DIPOLE MOMENTS
-----------------------------------------------------------------------------
State   Energy  Wavelength   fosc         T2         TX        TY        TZ
        (cm-1)    (nm)                  (au**2)     (au)      (au)      (au)
-----------------------------------------------------------------------------
   0   19702.9    507.5   0.073632626   1.23031   0.68876   0.75314   0.43441
   1   21964.3    455.3   0.407647977   6.11003   1.84338   1.55270   0.54874
   2   23284.9    429.5   0.640412828   9.05443   2.46201  -1.72987   0.02229
   3   24708.9    404.7   0.171206566   2.28109   1.04795  -1.04020  -0.31759
   4   25557.0    391.3   0.099184116   1.27764   0.82057  -0.75408   0.18885
   5   26425.9    378.4   0.246025782   3.06497   1.51120  -0.79484   0.38661
   6   26873.8    372.1   0.134757696   1.65082   1.21728   0.23214  -0.33936
   7   27637.7    361.8   0.013097116   0.15601  -0.33424   0.10656   0.18148
   8   28171.7    355.0   0.048958645   0.57213  -0.25216  -0.53736  -0.46881
   9   28548.4    350.3   0.152520142   1.75882  -0.35999  -1.27544  -0.04988
  10   28603.1    349.6   0.104149202   1.19872  -0.08012  -0.97502  -0.49156
  11   29302.9    341.3   0.017409549   0.19559  -0.01831  -0.24080  -0.37050
  12   29479.4    339.2   0.054763265   0.61157   0.75249  -0.15530  -0.14566
  13   29602.0    337.8   0.142698443   1.58699   0.54044  -1.04620  -0.44762
  14   30355.7    329.4   0.079132791   0.85821  -0.72550  -0.31101  -0.48489
  15   31028.4    322.3   0.024013225   0.25478  -0.26814  -0.42427   0.05364
  16   31543.6    317.0   0.004857120   0.05069   0.08979  -0.20647  -0.00043
  17   31717.8    315.3   0.167285227   1.73632   0.53475  -1.14274  -0.38014
  18   31864.5    313.8   0.123992307   1.28104  -0.02100   1.13104  -0.03665
  19   32423.1    308.4   0.104339444   1.05942   0.41128  -0.79251  -0.51206
  20   32487.7    307.8   0.075615188   0.76624  -0.29058   0.80058  -0.20218
  21   32710.4    305.7   0.027262620   0.27438  -0.02244  -0.51853   0.07073
  22   32962.4    303.4   0.126029751   1.25872  -0.33511   1.07067  -0.00967
  23   33324.8    300.1   0.036276538   0.35837   0.08345   0.57604  -0.13996
  24   33556.0    298.0   0.027899867   0.27372  -0.24171   0.43025  -0.17373
  25   33738.1    296.4   0.036448047   0.35566  -0.19153   0.54783   0.13731
  26   34011.4    294.0   0.024381550   0.23600  -0.37665   0.24141   0.18934
  27   34274.1    291.8   0.073078461   0.70194   0.31505   0.75889   0.16359
  28   34493.2    289.9   0.040235902   0.38402  -0.53315   0.18538  -0.25576
  29   34646.4    288.6   0.021370602   0.20306  -0.16367  -0.41919   0.02356
  30   34905.1    286.5   0.006216973   0.05864  -0.17870  -0.02833   0.16093
  31   35093.4    285.0   0.485486551   4.55437  -0.94204  -1.75766  -0.75998
  32   35191.5    284.2   0.216260151   2.02309  -0.00353   1.26912  -0.64220
  33   35560.8    281.2   0.097952052   0.90681   0.39365   0.82879  -0.25489
  34   35728.3    279.9   0.149504837   1.37759   0.44499   1.03779   0.32026
  35   36025.7    277.6   0.095381692   0.87162   0.00910  -0.81282   0.45920
  36   36338.1    275.2   0.167045714   1.51338  -0.57107  -0.97844  -0.47950
  37   36504.4    273.9   0.002875342   0.02593   0.05033   0.13644   0.06916
  38   36865.9    271.3   0.007031733   0.06279   0.05026   0.24031  -0.05018
  39   37068.0    269.8   0.005717452   0.05078  -0.17354   0.11314  -0.08865
  40   37258.0    268.4   0.051664865   0.45651   0.48168   0.33426   0.33580
  41   37410.5    267.3   0.073975602   0.65098   0.17276  -0.78796   0.01631
  42   37630.1    265.7   0.044533887   0.38961   0.54548   0.20038   0.22782
  43   38026.3    263.0   0.038945297   0.33717   0.25550   0.15907   0.49657
  44   38242.7    261.5   0.018809731   0.16192  -0.25011   0.31295   0.03783
  45   38296.2    261.1   0.029312856   0.25199  -0.20676   0.45211  -0.06953
  46   38434.3    260.2   0.019602051   0.16790  -0.10538   0.32163   0.23098
  47   38863.2    257.3   0.053777806   0.45555   0.29171   0.10848   0.59891
  48   39183.7    255.2   0.165085005   1.38700  -1.07408   0.45925  -0.14979
  49   39234.3    254.9   0.053107873   0.44562   0.55348   0.14721   0.34295
  50   39310.2    254.4   0.141916761   1.18851   0.96553  -0.49852   0.08799
  51   39412.3    253.7   0.042398843   0.35416   0.02820  -0.56177  -0.19436
  52   39495.0    253.2   0.106341481   0.88641  -0.31720   0.87280  -0.15497
  53   39679.0    252.0   0.031868203   0.26441  -0.05633   0.06890   0.50644
  54   39980.9    250.1   0.049362266   0.40646  -0.54610   0.27703   0.17745

FINAL SINGLE POINT ENERGY    -14443.738558679503

DIPOLE MOMENT
-------------
                                X             Y             Z
Electronic contribution:    -71.74085     220.24897      57.92292
Nuclear contribution   :     73.68690    -220.86170     -57.47770
                        -----------------------------------------
Total Dipole Moment    :      1.94606      -0.61273       0.44522
                        -----------------------------------------
Magnitude (a.u.)       :      2.08826
Magnitude (Debye)      :      5.30792

Rotational constants in cm-1:     0.000557     0.000312     0.000208
Rotational constants in MHz :    16.686821     9.350009     6.225850

                             ****ORCA TERMINATED NORMALLY****
TOTAL RUN TIME: 0 days 0 hours 10 minutes 13 seconds 969 msec
