                         Program Version 4.2.0 -  RELEASE  -
|  1> # ORCA input file
|  2> # SCF done       -158.919328225719          0.000786859187
|  3> ! CAM-B3LYP def2-SVP def2/J RIJCOSX Grid4 TightSCF
|  4> %maxcore 5000
|  5> %tddft
|  6>     Mode sTDDFT
|  7>     Ethresh 5.0
|  8>     maxcore 5000
|  9> end
| 10>
| 11> %pal
| 12>   nprocs 6
| 13>   end
| 14> * xyz 0 1
| 15>    C       -0.45618         0.91559        -3.26667
| 16>    O       -0.90574        -0.06112        -3.82827
| 17>    C        0.30614         2.00856        -3.89882
| 18>    C        0.63379         2.97681        -2.93326
| 19>    C        1.35812         4.09676        -3.30979
| 20>    C        1.73900         4.22897        -4.64028
| 21>    C        1.40535         3.26096        -5.59187
| 22>    C        0.68082         2.13630        -5.22063
| 23>   Br        1.93601         3.46930        -7.39226
| 24>   Br        2.72821         5.75501        -5.15213
| 25>    C        0.09445         2.56037        -1.64063
| 26>    C        0.14867         3.29467        -0.48908
| 27>    C        0.76967         4.56073        -0.39175
| 28>    N        1.25677         5.58952        -0.25167
| 29>    C       -0.41453         2.93242         0.75573
| 30>    N       -0.84658         2.73327         1.79969
| 31>    C       -0.53898         1.26161        -1.83201
| 32>    C       -1.06156         0.47764        -0.84717
| 33>    C       -1.70439        -0.77715        -0.94000
| 34>    S       -2.12550        -1.70326        -2.37527
| 35>    C       -2.82632        -2.85720        -1.26903
| 36>    N       -2.69711        -2.50272        -0.00376
| 37>    N       -2.09544        -1.37831         0.16468
| 38>    C       -3.47625        -4.03923        -1.70549
| 39>    C       -4.02193        -4.92330        -0.83319
| 40>    C       -4.71868        -6.09684        -1.19963
| 41>    S       -5.38602        -7.13850         0.02907
| 42>    C       -6.09283        -8.23482        -1.12143
| 43>    C       -5.79020        -7.82139        -2.42264
| 44>    C       -5.02403        -6.62261        -2.44615
| 45>    S       -4.64342        -6.11430        -4.05502
| 46>    C       -5.48089        -7.52260        -4.69150
| 47>    C       -5.53695        -7.73184        -6.07383
| 48>    N       -5.58630        -7.90245        -7.20699
| 49>    C       -6.02477        -8.32019        -3.72711
| 50>    C       -6.85482        -9.32891        -0.63703
| 51>    C       -7.71145       -10.07571        -1.37024
| 52>    C       -8.48289       -11.17851        -0.87441
| 53>    C       -9.53776       -11.71382        -1.63641
| 54>    N      -10.27269       -12.72072        -1.23335
| 55>    C       -9.95885       -13.28455        -0.06631
| 56>    N       -8.98519       -12.85648         0.74451
| 57>    C       -8.27721       -11.82256         0.35778
| 58>    C      -10.78125       -14.39486         0.35425
| 59>    C      -10.48551       -15.34999         1.25979
| 60>    C      -11.58010       -16.18439         1.84656
| 61>    O      -12.70278       -16.30894         1.42832
| 62>    C      -10.99383       -16.76185         3.07489
| 63>    C       -9.62713       -16.43048         3.15028
| 64>    C       -9.25049       -15.68597         1.95222
| 65>    C       -7.98324       -15.55232         1.46627
| 66>    C       -7.67370       -15.06627         0.17624
| 67>    N       -7.34562       -14.74693        -0.87545
| 68>    C       -6.82888       -15.97299         2.16265
| 69>    N       -5.86417       -16.28776         2.69729
| 70>    C       -8.87793       -16.84261         4.24017
| 71>    C       -9.50249       -17.58719         5.23363
| 72>    C      -10.85622       -17.92490         5.14410
| 73>    C      -11.61331       -17.50803         4.05724
| 74>   Br      -11.67297       -18.94891         6.50444
| 75>   Br       -8.48782       -18.14338         6.72612
| 76>    H        1.63706         4.86437        -2.60659
| 77>    H        0.41654         1.38045        -5.94391
| 78>    H       -0.99642         0.81646         0.17971
| 79>    H       -3.52652        -4.19493        -2.77306
| 80>    H       -3.93231        -4.71658         0.22405
| 81>    H       -6.54296        -9.23146        -3.96126
| 82>    H       -6.75218        -9.51905         0.42285
| 83>    H       -7.88571        -9.82505        -2.40665
| 84>    H       -9.79792       -11.29233        -2.59994
| 85>    H       -7.50035       -11.50993         1.04331
| 86>    H      -11.77538       -14.41540        -0.07694
| 87>    H       -7.83362       -16.59470         4.34232
| 88>    H      -12.65954       -17.76028         3.98030
| 89> *
| 90>
| 91>                          ****END OF INPUT****

CARTESIAN COORDINATES (ANGSTROEM)
---------------------------------
  C     -0.456180    0.915590   -3.266670
  O     -0.905740   -0.061120   -3.828270
  C      0.306140    2.008560   -3.898820
  C      0.633790    2.976810   -2.933260
  C      1.358120    4.096760   -3.309790
  C      1.739000    4.228970   -4.640280
  C      1.405350    3.260960   -5.591870
  C      0.680820    2.136300   -5.220630
  Br     1.936010    3.469300   -7.392260
  Br     2.728210    5.755010   -5.152130
  C      0.094450    2.560370   -1.640630
  C      0.148670    3.294670   -0.489080
  C      0.769670    4.560730   -0.391750
  N      1.256770    5.589520   -0.251670
  C     -0.414530    2.932420    0.755730
  N     -0.846580    2.733270    1.799690
  C     -0.538980    1.261610   -1.832010
  C     -1.061560    0.477640   -0.847170
  C     -1.704390   -0.777150   -0.940000
  S     -2.125500   -1.703260   -2.375270
  C     -2.826320   -2.857200   -1.269030
  N     -2.697110   -2.502720   -0.003760
  N     -2.095440   -1.378310    0.164680
  C     -3.476250   -4.039230   -1.705490
  C     -4.021930   -4.923300   -0.833190
  C     -4.718680   -6.096840   -1.199630
  S     -5.386020   -7.138500    0.029070
  C     -6.092830   -8.234820   -1.121430
  C     -5.790200   -7.821390   -2.422640
  C     -5.024030   -6.622610   -2.446150
  S     -4.643420   -6.114300   -4.055020
  C     -5.480890   -7.522600   -4.691500
  C     -5.536950   -7.731840   -6.073830
  N     -5.586300   -7.902450   -7.206990
  C     -6.024770   -8.320190   -3.727110
  C     -6.854820   -9.328910   -0.637030
  C     -7.711450  -10.075710   -1.370240
  C     -8.482890  -11.178510   -0.874410
  C     -9.537760  -11.713820   -1.636410
  N    -10.272690  -12.720720   -1.233350
  C     -9.958850  -13.284550   -0.066310
  N     -8.985190  -12.856480    0.744510
  C     -8.277210  -11.822560    0.357780
  C    -10.781250  -14.394860    0.354250
  C    -10.485510  -15.349990    1.259790
  C    -11.580100  -16.184390    1.846560
  O    -12.702780  -16.308940    1.428320
  C    -10.993830  -16.761850    3.074890
  C     -9.627130  -16.430480    3.150280
  C     -9.250490  -15.685970    1.952220
  C     -7.983240  -15.552320    1.466270
  C     -7.673700  -15.066270    0.176240
  N     -7.345620  -14.746930   -0.875450
  C     -6.828880  -15.972990    2.162650
  N     -5.864170  -16.287760    2.697290
  C     -8.877930  -16.842610    4.240170
  C     -9.502490  -17.587190    5.233630
  C    -10.856220  -17.924900    5.144100
  C    -11.613310  -17.508030    4.057240
  Br   -11.672970  -18.948910    6.504440
  Br    -8.487820  -18.143380    6.726120
  H      1.637060    4.864370   -2.606590
  H      0.416540    1.380450   -5.943910
  H     -0.996420    0.816460    0.179710
  H     -3.526520   -4.194930   -2.773060
  H     -3.932310   -4.716580    0.224050
  H     -6.542960   -9.231460   -3.961260
  H     -6.752180   -9.519050    0.422850
  H     -7.885710   -9.825050   -2.406650
  H     -9.797920  -11.292330   -2.599940
  H     -7.500350  -11.509930    1.043310
  H    -11.775380  -14.415400   -0.076940
  H     -7.833620  -16.594700    4.342320
  H    -12.659540  -17.760280    3.980300

 Total Charge           Charge          ....    0
 Multiplicity           Mult            ....    1
 Number of Electrons    NEL             ....  538
 Basis Dimension        Dim             .... 1003

ORBITAL ENERGIES
----------------

  NO   OCC          E(Eh)            E(eV)
   0   2.0000    -482.884783    -13139.9630
   1   2.0000    -482.882941    -13139.9128
   2   2.0000    -482.882612    -13139.9039
   3   2.0000    -482.881881    -13139.8840
   4   2.0000     -88.994724     -2421.6696
   5   2.0000     -88.992585     -2421.6113
   6   2.0000     -88.986599     -2421.4485
   7   2.0000     -62.562384     -1702.4090
   8   2.0000     -62.560577     -1702.3598
   9   2.0000     -62.560226     -1702.3503
  10   2.0000     -62.559502     -1702.3306
  11   2.0000     -56.396342     -1534.6225
  12   2.0000     -56.394547     -1534.5736
  13   2.0000     -56.394179     -1534.5636
  14   2.0000     -56.393681     -1534.5501
  15   2.0000     -56.393573     -1534.5471
  16   2.0000     -56.393467     -1534.5443
  17   2.0000     -56.391862     -1534.5006
  18   2.0000     -56.391761     -1534.4978
  19   2.0000     -56.391517     -1534.4912
  20   2.0000     -56.391426     -1534.4887
  21   2.0000     -56.390792     -1534.4715
  22   2.0000     -56.390695     -1534.4688
  23   2.0000     -19.243759      -523.6493
  24   2.0000     -19.232454      -523.3417
  25   2.0000     -14.458592      -393.4383
  26   2.0000     -14.446644      -393.1132
  27   2.0000     -14.437557      -392.8659
  28   2.0000     -14.434162      -392.7735
  29   2.0000     -14.429520      -392.6472
  30   2.0000     -14.428891      -392.6301
  31   2.0000     -14.428669      -392.6241
  32   2.0000     -14.426780      -392.5726
  33   2.0000     -14.425801      -392.5460
  34   2.0000     -10.392059      -282.7823
  35   2.0000     -10.383253      -282.5427
  36   2.0000     -10.366624      -282.0902
  37   2.0000     -10.363225      -281.9977
  38   2.0000     -10.362835      -281.9871
  39   2.0000     -10.362030      -281.9652
  40   2.0000     -10.361485      -281.9503
  41   2.0000     -10.360439      -281.9219
  42   2.0000     -10.359156      -281.8870
  43   2.0000     -10.358448      -281.8677
  44   2.0000     -10.358043      -281.8567
  45   2.0000     -10.353958      -281.7455
  46   2.0000     -10.352590      -281.7083
  47   2.0000     -10.351474      -281.6779
  48   2.0000     -10.345019      -281.5023
  49   2.0000     -10.344638      -281.4919
  50   2.0000     -10.342521      -281.4343
  51   2.0000     -10.338382      -281.3217
  52   2.0000     -10.337903      -281.3086
  53   2.0000     -10.337048      -281.2854
  54   2.0000     -10.330601      -281.1099
  55   2.0000     -10.330311      -281.1020
  56   2.0000     -10.329870      -281.0900
  57   2.0000     -10.328882      -281.0632
  58   2.0000     -10.328606      -281.0557
  59   2.0000     -10.327282      -281.0196
  60   2.0000     -10.326974      -281.0112
  61   2.0000     -10.325903      -280.9821
  62   2.0000     -10.322051      -280.8773
  63   2.0000     -10.321892      -280.8730
  64   2.0000     -10.321135      -280.8524
  65   2.0000     -10.320749      -280.8419
  66   2.0000     -10.320696      -280.8404
  67   2.0000     -10.320343      -280.8308
  68   2.0000     -10.319499      -280.8078
  69   2.0000     -10.319489      -280.8076
  70   2.0000     -10.318873      -280.7908
  71   2.0000     -10.318277      -280.7746
  72   2.0000     -10.316660      -280.7306
  73   2.0000     -10.315329      -280.6944
  74   2.0000     -10.314657      -280.6761
  75   2.0000     -10.312407      -280.6149
  76   2.0000     -10.307995      -280.4948
  77   2.0000      -8.791713      -239.2347
  78   2.0000      -8.789921      -239.1859
  79   2.0000      -8.789558      -239.1760
  80   2.0000      -8.788832      -239.1563
  81   2.0000      -8.089948      -220.1387
  82   2.0000      -8.087485      -220.0716
  83   2.0000      -8.080934      -219.8934
  84   2.0000      -6.627874      -180.3536
  85   2.0000      -6.626135      -180.3063
  86   2.0000      -6.625712      -180.2948
  87   2.0000      -6.625029      -180.2762
  88   2.0000      -6.613840      -179.9717
  89   2.0000      -6.613008      -179.9491
  90   2.0000      -6.612004      -179.9218
  91   2.0000      -6.611679      -179.9129
  92   2.0000      -6.611203      -179.9000
  93   2.0000      -6.610935      -179.8927
  94   2.0000      -6.610869      -179.8909
  95   2.0000      -6.610116      -179.8704
  96   2.0000      -6.059094      -164.8763
  97   2.0000      -6.057368      -164.8294
  98   2.0000      -6.054991      -164.7647
  99   2.0000      -6.053036      -164.7115
 100   2.0000      -6.052326      -164.6922
 101   2.0000      -6.049767      -164.6225
 102   2.0000      -6.048573      -164.5900
 103   2.0000      -6.045900      -164.5173
 104   2.0000      -6.043493      -164.4518
 105   2.0000      -2.743773       -74.6619
 106   2.0000      -2.742013       -74.6140
 107   2.0000      -2.741613       -74.6031
 108   2.0000      -2.740903       -74.5838
 109   2.0000      -2.739996       -74.5591
 110   2.0000      -2.739394       -74.5427
 111   2.0000      -2.738245       -74.5114
 112   2.0000      -2.737839       -74.5004
 113   2.0000      -2.737605       -74.4940
 114   2.0000      -2.737235       -74.4839
 115   2.0000      -2.737144       -74.4815
 116   2.0000      -2.736526       -74.4647
 117   2.0000      -2.728204       -74.2382
 118   2.0000      -2.728188       -74.2378
 119   2.0000      -2.726380       -74.1886
 120   2.0000      -2.726363       -74.1881
 121   2.0000      -2.726058       -74.1798
 122   2.0000      -2.726047       -74.1795
 123   2.0000      -2.725305       -74.1593
 124   2.0000      -2.725290       -74.1589
 125   2.0000      -1.160605       -31.5817
 126   2.0000      -1.157025       -31.4842
 127   2.0000      -1.148841       -31.2616
 128   2.0000      -1.108526       -30.1645
 129   2.0000      -1.043526       -28.3958
 130   2.0000      -1.036692       -28.2098
 131   2.0000      -1.033772       -28.1304
 132   2.0000      -1.019716       -27.7479
 133   2.0000      -1.017454       -27.6863
 134   2.0000      -1.011590       -27.5268
 135   2.0000      -1.007298       -27.4100
 136   2.0000      -1.007287       -27.4097
 137   2.0000      -1.001090       -27.2410
 138   2.0000      -0.989605       -26.9285
 139   2.0000      -0.985860       -26.8266
 140   2.0000      -0.980879       -26.6911
 141   2.0000      -0.962115       -26.1805
 142   2.0000      -0.953023       -25.9331
 143   2.0000      -0.942715       -25.6526
 144   2.0000      -0.930801       -25.3284
 145   2.0000      -0.929298       -25.2875
 146   2.0000      -0.923656       -25.1340
 147   2.0000      -0.920978       -25.0611
 148   2.0000      -0.918318       -24.9887
 149   2.0000      -0.907388       -24.6913
 150   2.0000      -0.901306       -24.5258
 151   2.0000      -0.883686       -24.0463
 152   2.0000      -0.871849       -23.7242
 153   2.0000      -0.863716       -23.5029
 154   2.0000      -0.862602       -23.4726
 155   2.0000      -0.860610       -23.4184
 156   2.0000      -0.857528       -23.3345
 157   2.0000      -0.854140       -23.2423
 158   2.0000      -0.821226       -22.3467
 159   2.0000      -0.799922       -21.7670
 160   2.0000      -0.790463       -21.5096
 161   2.0000      -0.780514       -21.2389
 162   2.0000      -0.778774       -21.1915
 163   2.0000      -0.771784       -21.0013
 164   2.0000      -0.762532       -20.7495
 165   2.0000      -0.759113       -20.6565
 166   2.0000      -0.744618       -20.2621
 167   2.0000      -0.735097       -20.0030
 168   2.0000      -0.718531       -19.5522
 169   2.0000      -0.711862       -19.3707
 170   2.0000      -0.709849       -19.3160
 171   2.0000      -0.707010       -19.2387
 172   2.0000      -0.698745       -19.0138
 173   2.0000      -0.685540       -18.6545
 174   2.0000      -0.684598       -18.6289
 175   2.0000      -0.676481       -18.4080
 176   2.0000      -0.664161       -18.0727
 177   2.0000      -0.653006       -17.7692
 178   2.0000      -0.645226       -17.5575
 179   2.0000      -0.641764       -17.4633
 180   2.0000      -0.632840       -17.2205
 181   2.0000      -0.629118       -17.1192
 182   2.0000      -0.624357       -16.9896
 183   2.0000      -0.607383       -16.5277
 184   2.0000      -0.605426       -16.4745
 185   2.0000      -0.603815       -16.4306
 186   2.0000      -0.596701       -16.2371
 187   2.0000      -0.593325       -16.1452
 188   2.0000      -0.587108       -15.9760
 189   2.0000      -0.581764       -15.8306
 190   2.0000      -0.569574       -15.4989
 191   2.0000      -0.567258       -15.4359
 192   2.0000      -0.563688       -15.3387
 193   2.0000      -0.562740       -15.3129
 194   2.0000      -0.559445       -15.2233
 195   2.0000      -0.556752       -15.1500
 196   2.0000      -0.553734       -15.0679
 197   2.0000      -0.553261       -15.0550
 198   2.0000      -0.551184       -14.9985
 199   2.0000      -0.550388       -14.9768
 200   2.0000      -0.549428       -14.9507
 201   2.0000      -0.542569       -14.7640
 202   2.0000      -0.540031       -14.6950
 203   2.0000      -0.535908       -14.5828
 204   2.0000      -0.527382       -14.3508
 205   2.0000      -0.522680       -14.2228
 206   2.0000      -0.518274       -14.1029
 207   2.0000      -0.515055       -14.0154
 208   2.0000      -0.513844       -13.9824
 209   2.0000      -0.513194       -13.9647
 210   2.0000      -0.507494       -13.8096
 211   2.0000      -0.504921       -13.7396
 212   2.0000      -0.499235       -13.5849
 213   2.0000      -0.497776       -13.5452
 214   2.0000      -0.494431       -13.4542
 215   2.0000      -0.492331       -13.3970
 216   2.0000      -0.490560       -13.3488
 217   2.0000      -0.485664       -13.2156
 218   2.0000      -0.480527       -13.0758
 219   2.0000      -0.472889       -12.8680
 220   2.0000      -0.470892       -12.8136
 221   2.0000      -0.470559       -12.8046
 222   2.0000      -0.467421       -12.7192
 223   2.0000      -0.464493       -12.6395
 224   2.0000      -0.461163       -12.5489
 225   2.0000      -0.460016       -12.5177
 226   2.0000      -0.458286       -12.4706
 227   2.0000      -0.455005       -12.3813
 228   2.0000      -0.454160       -12.3583
 229   2.0000      -0.453068       -12.3286
 230   2.0000      -0.448730       -12.2106
 231   2.0000      -0.445030       -12.1099
 232   2.0000      -0.443033       -12.0555
 233   2.0000      -0.441105       -12.0031
 234   2.0000      -0.439546       -11.9607
 235   2.0000      -0.438855       -11.9418
 236   2.0000      -0.437756       -11.9120
 237   2.0000      -0.434729       -11.8296
 238   2.0000      -0.427180       -11.6242
 239   2.0000      -0.425663       -11.5829
 240   2.0000      -0.423499       -11.5240
 241   2.0000      -0.421404       -11.4670
 242   2.0000      -0.415982       -11.3194
 243   2.0000      -0.409369       -11.1395
 244   2.0000      -0.408701       -11.1213
 245   2.0000      -0.406577       -11.0635
 246   2.0000      -0.404752       -11.0139
 247   2.0000      -0.403692       -10.9850
 248   2.0000      -0.397599       -10.8192
 249   2.0000      -0.397539       -10.8176
 250   2.0000      -0.396075       -10.7778
 251   2.0000      -0.387839       -10.5536
 252   2.0000      -0.381901       -10.3921
 253   2.0000      -0.365161        -9.9365
 254   2.0000      -0.363399        -9.8886
 255   2.0000      -0.359256        -9.7758
 256   2.0000      -0.354710        -9.6521
 257   2.0000      -0.353932        -9.6310
 258   2.0000      -0.349958        -9.5229
 259   2.0000      -0.346384        -9.4256
 260   2.0000      -0.344750        -9.3811
 261   2.0000      -0.342028        -9.3071
 262   2.0000      -0.335295        -9.1238
 263   2.0000      -0.330337        -8.9889
 264   2.0000      -0.329924        -8.9777
 265   2.0000      -0.322369        -8.7721
 266   2.0000      -0.316867        -8.6224
 267   2.0000      -0.310629        -8.4526
 268   2.0000      -0.264842        -7.2067
 269   0.0000      -0.117466        -3.1964
 270   0.0000      -0.104697        -2.8490
 271   0.0000      -0.086875        -2.3640
 272   0.0000      -0.080181        -2.1818
 273   0.0000      -0.069605        -1.8940

MULLIKEN ATOMIC CHARGES
-----------------------
   0 C :    0.171016
   1 O :   -0.160035
   2 C :   -0.014985
   3 C :    0.036631
   4 C :   -0.008364
   5 C :   -0.022850
   6 C :   -0.017131
   7 C :   -0.016825
   8 Br:    0.022052
   9 Br:    0.029818
  10 C :    0.312756
  11 C :   -0.336550
  12 C :   -0.188872
  13 N :    0.167686
  14 C :   -0.196054
  15 N :    0.178512
  16 C :   -0.084183
  17 C :    0.018612
  18 C :   -0.108534
  19 S :    0.179479
  20 C :   -0.079346
  21 N :   -0.059962
  22 N :   -0.024948
  23 C :    0.028632
  24 C :    0.066321
  25 C :   -0.143131
  26 S :    0.189055
  27 C :   -0.133562
  28 C :    0.131382
  29 C :   -0.029703
  30 S :    0.174611
  31 C :   -0.223316
  32 C :   -0.136728
  33 N :    0.143365
  34 C :    0.027395
  35 C :    0.082132
  36 C :   -0.004461
  37 C :    0.041111
  38 C :    0.035252
  39 N :   -0.033621
  40 C :   -0.088311
  41 N :   -0.072977
  42 C :    0.047365
  43 C :    0.095664
  44 C :   -0.090817
  45 C :    0.138703
  46 O :   -0.120118
  47 C :   -0.006819
  48 C :    0.024643
  49 C :    0.286395
  50 C :   -0.298849
  51 C :   -0.180233
  52 N :    0.163123
  53 C :   -0.194295
  54 N :    0.166863
  55 C :   -0.008523
  56 C :   -0.022988
  57 C :   -0.016562
  58 C :   -0.015930
  59 Br:    0.019721
  60 Br:    0.026165
  61 H :    0.009087
  62 H :    0.008534
  63 H :    0.036872
  64 H :   -0.009734
  65 H :    0.018564
  66 H :    0.013318
  67 H :   -0.006584
  68 H :   -0.012643
  69 H :    0.010901
  70 H :    0.011219
  71 H :    0.033716
  72 H :    0.011580
  73 H :    0.010291
Sum of atomic charges:   -0.0000000

LOEWDIN ATOMIC CHARGES
----------------------
   0 C :    0.085924
   1 O :   -0.149997
   2 C :   -0.044374
   3 C :   -0.010299
   4 C :   -0.005764
   5 C :   -0.116357
   6 C :   -0.121984
   7 C :    0.008771
   8 Br:    0.143664
   9 Br:    0.147727
  10 C :    0.070867
  11 C :   -0.120198
  12 C :   -0.018713
  13 N :   -0.036389
  14 C :   -0.025994
  15 N :   -0.026737
  16 C :   -0.092283
  17 C :    0.058241
  18 C :   -0.179362
  19 S :    0.470827
  20 C :   -0.145788
  21 N :   -0.087112
  22 N :   -0.037928
  23 C :   -0.070713
  24 C :    0.008976
  25 C :   -0.197933
  26 S :    0.489648
  27 C :   -0.158331
  28 C :   -0.073335
  29 C :   -0.173462
  30 S :    0.446685
  31 C :   -0.193108
  32 C :   -0.054321
  33 N :   -0.031504
  34 C :   -0.005897
  35 C :   -0.026981
  36 C :   -0.012907
  37 C :   -0.055568
  38 C :    0.057190
  39 N :   -0.058010
  40 C :    0.014024
  41 N :   -0.063523
  42 C :    0.062851
  43 C :    0.062810
  44 C :   -0.057606
  45 C :    0.085648
  46 O :   -0.120889
  47 C :   -0.045848
  48 C :   -0.006954
  49 C :    0.071280
  50 C :   -0.110076
  51 C :   -0.016437
  52 N :   -0.048119
  53 C :   -0.020025
  54 N :   -0.038250
  55 C :   -0.008453
  56 C :   -0.116433
  57 C :   -0.123228
  58 C :    0.009337
  59 Br:    0.141824
  60 Br:    0.146100
  61 H :    0.045435
  62 H :    0.047264
  63 H :    0.060435
  64 H :    0.019739
  65 H :    0.043429
  66 H :    0.042004
  67 H :    0.032432
  68 H :    0.031582
  69 H :    0.028530
  70 H :    0.026291
  71 H :    0.054781
  72 H :    0.045127
  73 H :    0.047748

  Mayer bond orders larger than 0.100000
B(  0-C ,  1-O ) :   2.1639 B(  0-C ,  2-C ) :   0.9605 B(  0-C , 16-C ) :   0.9557
B(  2-C ,  3-C ) :   1.3270 B(  2-C ,  7-C ) :   1.3648 B(  3-C ,  4-C ) :   1.3638
B(  3-C , 10-C ) :   0.9936 B(  4-C ,  5-C ) :   1.3721 B(  4-C , 61-H ) :   0.9786
B(  5-C ,  6-C ) :   1.4148 B(  5-C ,  9-Br) :   1.0632 B(  6-C ,  7-C ) :   1.3561
B(  6-C ,  8-Br) :   1.0387 B(  7-C , 62-H ) :   1.0079 B( 10-C , 11-C ) :   1.6640
B( 10-C , 16-C ) :   1.0591 B( 11-C , 12-C ) :   1.1420 B( 11-C , 14-C ) :   1.1363
B( 12-C , 13-N ) :   2.9721 B( 14-C , 15-N ) :   2.9777 B( 16-C , 17-C ) :   1.5653
B( 17-C , 18-C ) :   1.1726 B( 17-C , 63-H ) :   0.9446 B( 18-C , 19-S ) :   1.0808
B( 18-C , 22-N ) :   1.5933 B( 19-S , 20-C ) :   1.1196 B( 19-S , 22-N ) :   0.1034
B( 20-C , 21-N ) :   1.5701 B( 20-C , 23-C ) :   1.1627 B( 21-N , 22-N ) :   1.2992
B( 23-C , 24-C ) :   1.6641 B( 23-C , 64-H ) :   0.9382 B( 24-C , 25-C ) :   1.1447
B( 24-C , 65-H ) :   0.9644 B( 25-C , 26-S ) :   1.1241 B( 25-C , 27-C ) :   0.1003
B( 25-C , 29-C ) :   1.4463 B( 26-S , 27-C ) :   1.1589 B( 27-C , 28-C ) :   1.3458
B( 27-C , 35-C ) :   1.1473 B( 28-C , 29-C ) :   1.2613 B( 28-C , 34-C ) :   1.1527
B( 29-C , 30-S ) :   1.0668 B( 30-S , 31-C ) :   1.0659 B( 31-C , 32-C ) :   1.1530
B( 31-C , 34-C ) :   1.6372 B( 32-C , 33-N ) :   3.0232 B( 34-C , 66-H ) :   0.9938
B( 35-C , 36-C ) :   1.6766 B( 35-C , 67-H ) :   0.9481 B( 36-C , 37-C ) :   1.0953
B( 36-C , 68-H ) :   0.9757 B( 37-C , 38-C ) :   1.2967 B( 37-C , 42-C ) :   1.2949
B( 38-C , 39-N ) :   1.5752 B( 38-C , 69-H ) :   0.9871 B( 39-N , 40-C ) :   1.5105
B( 40-C , 41-N ) :   1.4647 B( 40-C , 43-C ) :   1.0106 B( 41-N , 42-C ) :   1.5727
B( 42-C , 70-H ) :   0.9824 B( 43-C , 44-C ) :   1.7169 B( 43-C , 71-H ) :   0.9494
B( 44-C , 45-C ) :   0.9230 B( 44-C , 49-C ) :   1.0045 B( 45-C , 46-O ) :   2.2934
B( 45-C , 47-C ) :   0.9204 B( 47-C , 48-C ) :   1.3243 B( 47-C , 58-C ) :   1.3697
B( 48-C , 49-C ) :   1.0096 B( 48-C , 55-C ) :   1.3622 B( 49-C , 50-C ) :   1.7052
B( 50-C , 51-C ) :   1.1551 B( 50-C , 53-C ) :   1.1320 B( 51-C , 52-N ) :   2.9827
B( 53-C , 54-N ) :   2.9920 B( 55-C , 56-C ) :   1.3757 B( 55-C , 72-H ) :   0.9828
B( 56-C , 57-C ) :   1.4129 B( 56-C , 60-Br) :   1.0557 B( 57-C , 58-C ) :   1.3630
B( 57-C , 59-Br) :   1.0375 B( 58-C , 73-H ) :   1.0071

-----------------------------------------------------------------------------
         ABSORPTION SPECTRUM VIA TRANSITION ELECTRIC DIPOLE MOMENTS
-----------------------------------------------------------------------------
State   Energy  Wavelength   fosc         T2         TX        TY        TZ
        (cm-1)    (nm)                  (au**2)     (au)      (au)      (au)
-----------------------------------------------------------------------------
   0   17795.7    561.9   2.204214937  40.77698   3.13963   5.48678  -0.90273
   1   21859.0    457.5   0.060548688   0.91191  -0.15017   0.15858  -0.92963
   2   23682.2    422.3   0.001627222   0.02262  -0.05893   0.13809   0.00881
   3   25767.9    388.1   0.100860908   1.28861   0.92970   0.58893  -0.27825
   4   26238.8    381.1   0.025284694   0.31724  -0.40073  -0.20177   0.34051
   5   26653.6    375.2   0.018982221   0.23446  -0.39640  -0.26410  -0.08702
   6   28057.0    356.4   0.032270655   0.37865   0.34271   0.29349   0.41841
   7   28604.4    349.6   0.090776530   1.04476  -0.41851   0.30289   0.88196
   8   29377.8    340.4   0.059728665   0.66933  -0.36525  -0.22753   0.69581
   9   30173.3    331.4   0.059453802   0.64868   0.03138  -0.61453   0.51966
  10   30289.4    330.1   0.003920085   0.04261   0.15648  -0.05123  -0.12448
  11   30576.9    327.0   0.112449265   1.21071   0.43463   0.57278  -0.83290
  12   31158.9    320.9   0.228758020   2.41696   0.58708   1.43783  -0.07023
  13   31551.9    316.9   0.188428332   1.96606   0.03620  -0.84076   1.12155
  14   32408.5    308.6   0.015788405   0.16038   0.16147   0.32539  -0.16860
  15   33053.7    302.5   0.079105752   0.78789   0.13982  -0.52708  -0.70038
  16   33339.7    299.9   0.003856319   0.03808   0.05336  -0.12159   0.14300
  17   33633.9    297.3   0.407556428   3.98920   1.27105   0.95502  -1.20895
  18   33717.5    296.6   0.070013467   0.68360  -0.09469  -0.33171   0.75140
  19   33873.2    295.2   0.166168601   1.61498  -0.02287  -0.45050  -1.18807
  20   34058.8    293.6   0.236776136   2.28868   0.33521   0.36153  -1.43025
  21   34567.9    289.3   0.444642755   4.23461   0.05954   0.91956   1.83997
  22   34619.9    288.9   0.068457842   0.65099   0.63605  -0.02308  -0.49588
  23   34846.8    287.0   0.263929456   2.49345  -0.93975  -1.00704   0.77213
  24   35441.7    282.2   0.132688226   1.23252   0.69332   0.73216  -0.46452
  25   36107.6    277.0   0.193919348   1.76807   1.14588   0.33822  -0.58364
  26   36287.9    275.6   0.029679932   0.26926   0.04637   0.17840  -0.48506
  27   36904.3    271.0   0.009357131   0.08347  -0.28298   0.05706  -0.01182
  28   37258.3    268.4   0.000314245   0.00278   0.04322   0.00189  -0.03008
  29   38037.1    262.9   0.039332650   0.34043  -0.20243   0.53271  -0.12516
  30   38095.4    262.5   0.073722588   0.63709   0.46312  -0.16544   0.62868
  31   38264.1    261.3   0.014851862   0.12778   0.00489  -0.34685   0.08632
  32   38337.0    260.8   0.005016493   0.04308   0.04103   0.20285   0.01565
  33   38471.7    259.9   0.012289851   0.10517  -0.00531   0.26898  -0.18108
  34   38657.4    258.7   0.104101562   0.88654  -0.15636  -0.09446  -0.92367
  35   38853.6    257.4   0.012754487   0.10807  -0.28105  -0.16298   0.05015
  36   38877.9    257.2   0.090615745   0.76732   0.31042  -0.52549   0.62835
  37   39067.0    256.0   0.026141793   0.22029   0.16562  -0.41926   0.13072
  38   39855.9    250.9   0.175920408   1.45311   0.44847   0.67131  -0.89517
  39   40028.0    249.8   0.261161346   2.14793   1.22270   0.76360   0.26430

FINAL SINGLE POINT ENERGY    -13776.629789943947

DIPOLE MOMENT
-------------
                                X             Y             Z
Electronic contribution:     45.09213       9.04514      29.42238
Nuclear contribution   :    -46.05362      -9.44502     -29.71716
                        -----------------------------------------
Total Dipole Moment    :     -0.96149      -0.39988      -0.29477
                        -----------------------------------------
Magnitude (a.u.)       :      1.08225
Magnitude (Debye)      :      2.75085

Rotational constants in cm-1:     0.002225     0.000136     0.000131
Rotational constants in MHz :    66.712730     4.080887     3.918677

                             ****ORCA TERMINATED NORMALLY****
TOTAL RUN TIME: 0 days 0 hours 6 minutes 25 seconds 92 msec
