                         Program Version 4.2.0 -  RELEASE  -
|  1> # ORCA input file
|  2> # SCF done       -217.006744449876          0.000695016880
|  3> ! CAM-B3LYP def2-SVP def2/J RIJCOSX Grid4 TightSCF
|  4> %maxcore 5000
|  5> %tddft
|  6>     Mode sTDDFT
|  7>     Ethresh 5.0
|  8>     maxcore 5000
|  9> end
| 10>
| 11> %pal
| 12>   nprocs 6
| 13>   end
| 14> * xyz 0 1
| 15>    C        1.03470         1.25161         0.63864
| 16>    O        1.04135         0.72059        -0.44727
| 17>    C        1.66930         2.53546         0.99919
| 18>    C        1.27326         2.91567         2.29421
| 19>    C        1.73873         4.10585         2.83028
| 20>    C        2.59525         4.89081         2.06714
| 21>    C        2.98487         4.50254         0.78213
| 22>    C        2.51412         3.31517         0.23674
| 23>   Br        4.15394         5.58669        -0.22847
| 24>   Br        3.23175         6.51134         2.79968
| 25>    C        0.39484         1.88778         2.84643
| 26>    C       -0.14448         1.88937         4.10369
| 27>    C        0.02991         2.93483         5.03764
| 28>    N        0.13179         3.75587         5.83223
| 29>    C       -0.93287         0.85309         4.65098
| 30>    N       -1.56318         0.04662         5.16925
| 31>    C        0.26569         0.84238         1.84551
| 32>    C       -0.53172        -0.26061         1.91077
| 33>    C       -0.48259        -1.35495         1.01317
| 34>    S       -1.88293        -2.37469         0.76198
| 35>    C       -1.05291        -3.45254        -0.35432
| 36>    C        0.25230        -3.00909        -0.47903
| 37>    C        0.56261        -1.86815         0.27219
| 38>    O        1.88540        -1.61009         0.12944
| 39>    C        2.38260        -2.53897        -0.72938
| 40>    O        3.50585        -2.61179        -1.08778
| 41>    O        1.39167        -3.40057        -1.11339
| 42>    C       -1.78715        -4.53856        -0.89985
| 43>    N       -1.37020        -5.49711        -1.78319
| 44>    C       -0.05553        -5.69613        -2.34745
| 45>    C        0.85359        -6.45673        -1.38697
| 46>    C       -2.40105        -6.43403        -2.06355
| 47>    O       -2.26602        -7.36503        -2.82062
| 48>    C       -3.52323        -5.97205        -1.27522
| 49>    C       -3.12100        -4.80833        -0.58997
| 50>    C       -4.23502        -4.35984         0.20872
| 51>    O       -4.34801        -3.41587         0.96557
| 52>    N       -5.25562        -5.29467        -0.04794
| 53>    C       -6.53200        -5.15591         0.61369
| 54>    C       -7.54168        -4.39716        -0.24436
| 55>    C       -4.84172        -6.26405        -0.92965
| 56>    C       -5.51685        -7.42154        -1.40366
| 57>    C       -6.82281        -7.75362        -1.30555
| 58>    C       -7.33715        -8.99887        -1.80969
| 59>    C       -8.60275        -9.11212        -2.42404
| 60>    C       -9.51893        -7.96208        -2.55978
| 61>    O       -9.32479        -6.82416        -2.24713
| 62>    S      -11.05528        -8.51359        -3.29143
| 63>    C      -10.48202       -10.20356        -3.46007
| 64>    O      -11.18916       -11.07067        -3.87787
| 65>    C       -9.08680       -10.30179        -2.97167
| 66>    C       -8.33556       -11.49479        -2.95441
| 67>    C       -7.13153       -11.39988        -2.23614
| 68>    C       -6.64655       -10.21815        -1.69543
| 69>    C       -5.42002       -10.56167        -0.92548
| 70>    O       -4.73884        -9.89292        -0.21457
| 71>    O       -5.19438       -11.90409        -1.10954
| 72>    C       -6.16552       -12.47492        -1.88846
| 73>    O       -6.17191       -13.63214        -2.16882
| 74>    C       -8.66819       -12.74456        -3.59065
| 75>    C       -9.25587       -12.86856        -4.79733
| 76>    C       -9.41812       -14.13244        -5.43125
| 77>    C       -9.67296       -14.34616        -6.74591
| 78>    C      -10.15156       -15.68371        -7.20717
| 79>    O      -10.12238       -16.71616        -6.58667
| 80>    C      -10.71046       -15.44094        -8.55395
| 81>    C      -10.47402       -14.10489        -8.93115
| 82>    C       -9.69916       -13.44313        -7.88276
| 83>    C       -8.97359       -12.29493        -8.04305
| 84>    C       -8.03659       -11.78577        -7.11648
| 85>    N       -7.23765       -11.32860        -6.43110
| 86>    C       -9.00410       -11.51042        -9.21889
| 87>    N       -9.00285       -10.83213       -10.14343
| 88>    C      -10.94704       -13.64014       -10.14715
| 89>    C      -11.63842       -14.51919       -10.97296
| 90>    C      -11.85386       -15.84907       -10.59816
| 91>    C      -11.38935       -16.31717        -9.37565
| 92>   Br      -12.78362       -17.02546       -11.74525
| 93>   Br      -12.29217       -13.88273       -12.62643
| 94>    H        1.45742         4.44143         3.81521
| 95>    H        2.80517         3.00426        -0.75463
| 96>    H       -1.28240        -0.33804         2.68627
| 97>    H        0.37912        -4.73506        -2.61880
| 98>    H       -0.20449        -6.29057        -3.25305
| 99>    H        0.96319        -5.92019        -0.44793
|100>    H        1.83588        -6.57523        -1.83377
|101>    H        0.43902        -7.44062        -1.18145
|102>    H       -6.33641        -4.58072         1.52397
|103>    H       -6.89999        -6.14460         0.89552
|104>    H       -7.16931        -3.39624        -0.44762
|105>    H       -8.48365        -4.31286         0.29009
|106>    H       -7.72527        -4.89677        -1.19225
|107>    H       -4.85042        -8.07904        -1.94728
|108>    H       -7.55477        -7.06389        -0.91814
|109>    H       -8.26001       -13.62708        -3.11497
|110>    H       -9.60393       -11.99701        -5.32977
|111>    H       -9.38145       -15.01709        -4.80471
|112>    H      -10.80542       -12.61990       -10.46565
|113>    H      -11.55421       -17.33986        -9.07371
|114> *
|115>
|116>                          ****END OF INPUT****

CARTESIAN COORDINATES (ANGSTROEM)
---------------------------------
  C      1.034700    1.251610    0.638640
  O      1.041350    0.720590   -0.447270
  C      1.669300    2.535460    0.999190
  C      1.273260    2.915670    2.294210
  C      1.738730    4.105850    2.830280
  C      2.595250    4.890810    2.067140
  C      2.984870    4.502540    0.782130
  C      2.514120    3.315170    0.236740
  Br     4.153940    5.586690   -0.228470
  Br     3.231750    6.511340    2.799680
  C      0.394840    1.887780    2.846430
  C     -0.144480    1.889370    4.103690
  C      0.029910    2.934830    5.037640
  N      0.131790    3.755870    5.832230
  C     -0.932870    0.853090    4.650980
  N     -1.563180    0.046620    5.169250
  C      0.265690    0.842380    1.845510
  C     -0.531720   -0.260610    1.910770
  C     -0.482590   -1.354950    1.013170
  S     -1.882930   -2.374690    0.761980
  C     -1.052910   -3.452540   -0.354320
  C      0.252300   -3.009090   -0.479030
  C      0.562610   -1.868150    0.272190
  O      1.885400   -1.610090    0.129440
  C      2.382600   -2.538970   -0.729380
  O      3.505850   -2.611790   -1.087780
  O      1.391670   -3.400570   -1.113390
  C     -1.787150   -4.538560   -0.899850
  N     -1.370200   -5.497110   -1.783190
  C     -0.055530   -5.696130   -2.347450
  C      0.853590   -6.456730   -1.386970
  C     -2.401050   -6.434030   -2.063550
  O     -2.266020   -7.365030   -2.820620
  C     -3.523230   -5.972050   -1.275220
  C     -3.121000   -4.808330   -0.589970
  C     -4.235020   -4.359840    0.208720
  O     -4.348010   -3.415870    0.965570
  N     -5.255620   -5.294670   -0.047940
  C     -6.532000   -5.155910    0.613690
  C     -7.541680   -4.397160   -0.244360
  C     -4.841720   -6.264050   -0.929650
  C     -5.516850   -7.421540   -1.403660
  C     -6.822810   -7.753620   -1.305550
  C     -7.337150   -8.998870   -1.809690
  C     -8.602750   -9.112120   -2.424040
  C     -9.518930   -7.962080   -2.559780
  O     -9.324790   -6.824160   -2.247130
  S    -11.055280   -8.513590   -3.291430
  C    -10.482020  -10.203560   -3.460070
  O    -11.189160  -11.070670   -3.877870
  C     -9.086800  -10.301790   -2.971670
  C     -8.335560  -11.494790   -2.954410
  C     -7.131530  -11.399880   -2.236140
  C     -6.646550  -10.218150   -1.695430
  C     -5.420020  -10.561670   -0.925480
  O     -4.738840   -9.892920   -0.214570
  O     -5.194380  -11.904090   -1.109540
  C     -6.165520  -12.474920   -1.888460
  O     -6.171910  -13.632140   -2.168820
  C     -8.668190  -12.744560   -3.590650
  C     -9.255870  -12.868560   -4.797330
  C     -9.418120  -14.132440   -5.431250
  C     -9.672960  -14.346160   -6.745910
  C    -10.151560  -15.683710   -7.207170
  O    -10.122380  -16.716160   -6.586670
  C    -10.710460  -15.440940   -8.553950
  C    -10.474020  -14.104890   -8.931150
  C     -9.699160  -13.443130   -7.882760
  C     -8.973590  -12.294930   -8.043050
  C     -8.036590  -11.785770   -7.116480
  N     -7.237650  -11.328600   -6.431100
  C     -9.004100  -11.510420   -9.218890
  N     -9.002850  -10.832130  -10.143430
  C    -10.947040  -13.640140  -10.147150
  C    -11.638420  -14.519190  -10.972960
  C    -11.853860  -15.849070  -10.598160
  C    -11.389350  -16.317170   -9.375650
  Br   -12.783620  -17.025460  -11.745250
  Br   -12.292170  -13.882730  -12.626430
  H      1.457420    4.441430    3.815210
  H      2.805170    3.004260   -0.754630
  H     -1.282400   -0.338040    2.686270
  H      0.379120   -4.735060   -2.618800
  H     -0.204490   -6.290570   -3.253050
  H      0.963190   -5.920190   -0.447930
  H      1.835880   -6.575230   -1.833770
  H      0.439020   -7.440620   -1.181450
  H     -6.336410   -4.580720    1.523970
  H     -6.899990   -6.144600    0.895520
  H     -7.169310   -3.396240   -0.447620
  H     -8.483650   -4.312860    0.290090
  H     -7.725270   -4.896770   -1.192250
  H     -4.850420   -8.079040   -1.947280
  H     -7.554770   -7.063890   -0.918140
  H     -8.260010  -13.627080   -3.114970
  H     -9.603930  -11.997010   -5.329770
  H     -9.381450  -15.017090   -4.804710
  H    -10.805420  -12.619900  -10.465650
  H    -11.554210  -17.339860   -9.073710

 Total Charge           Charge          ....    0
 Multiplicity           Mult            ....    1
 Number of Electrons    NEL             ....  660
 Basis Dimension        Dim             .... 1286

ORBITAL ENERGIES
----------------

  NO   OCC          E(Eh)            E(eV)
   0   2.0000    -482.885138    -13139.9726
   1   2.0000    -482.884032    -13139.9425
   2   2.0000    -482.881891    -13139.8843
   3   2.0000    -482.880326    -13139.8417
   4   2.0000     -88.990922     -2421.5661
   5   2.0000     -88.970158     -2421.0011
   6   2.0000     -62.562714     -1702.4180
   7   2.0000     -62.561637     -1702.3887
   8   2.0000     -62.559467     -1702.3296
   9   2.0000     -62.557926     -1702.2877
  10   2.0000     -56.396671     -1534.6314
  11   2.0000     -56.395605     -1534.6024
  12   2.0000     -56.394011     -1534.5590
  13   2.0000     -56.393911     -1534.5563
  14   2.0000     -56.393420     -1534.5430
  15   2.0000     -56.392926     -1534.5295
  16   2.0000     -56.392826     -1534.5268
  17   2.0000     -56.391892     -1534.5014
  18   2.0000     -56.390769     -1534.4708
  19   2.0000     -56.390662     -1534.4679
  20   2.0000     -56.389217     -1534.4286
  21   2.0000     -56.389118     -1534.4259
  22   2.0000     -19.330631      -526.0132
  23   2.0000     -19.328020      -525.9422
  24   2.0000     -19.306794      -525.3646
  25   2.0000     -19.263342      -524.1822
  26   2.0000     -19.261460      -524.1310
  27   2.0000     -19.255571      -523.9707
  28   2.0000     -19.252422      -523.8850
  29   2.0000     -19.239043      -523.5210
  30   2.0000     -19.234987      -523.4106
  31   2.0000     -19.233517      -523.3706
  32   2.0000     -19.208075      -522.6783
  33   2.0000     -19.206382      -522.6322
  34   2.0000     -14.471715      -393.7954
  35   2.0000     -14.468899      -393.7188
  36   2.0000     -14.434218      -392.7750
  37   2.0000     -14.432939      -392.7402
  38   2.0000     -14.429705      -392.6522
  39   2.0000     -14.427671      -392.5969
  40   2.0000     -10.483653      -285.2747
  41   2.0000     -10.449091      -284.3342
  42   2.0000     -10.447947      -284.3031
  43   2.0000     -10.425720      -283.6983
  44   2.0000     -10.425127      -283.6821
  45   2.0000     -10.390995      -282.7533
  46   2.0000     -10.389235      -282.7055
  47   2.0000     -10.385512      -282.6042
  48   2.0000     -10.383840      -282.5587
  49   2.0000     -10.382105      -282.5115
  50   2.0000     -10.380379      -282.4645
  51   2.0000     -10.372415      -282.2478
  52   2.0000     -10.367032      -282.1013
  53   2.0000     -10.363915      -282.0165
  54   2.0000     -10.363367      -282.0015
  55   2.0000     -10.362491      -281.9777
  56   2.0000     -10.360237      -281.9164
  57   2.0000     -10.359867      -281.9063
  58   2.0000     -10.359439      -281.8947
  59   2.0000     -10.358308      -281.8639
  60   2.0000     -10.356876      -281.8249
  61   2.0000     -10.354242      -281.7532
  62   2.0000     -10.354054      -281.7481
  63   2.0000     -10.353507      -281.7332
  64   2.0000     -10.349246      -281.6173
  65   2.0000     -10.346496      -281.5425
  66   2.0000     -10.344777      -281.4957
  67   2.0000     -10.344336      -281.4837
  68   2.0000     -10.343581      -281.4632
  69   2.0000     -10.340952      -281.3916
  70   2.0000     -10.336583      -281.2727
  71   2.0000     -10.334296      -281.2105
  72   2.0000     -10.331241      -281.1274
  73   2.0000     -10.331145      -281.1248
  74   2.0000     -10.330377      -281.1039
  75   2.0000     -10.329371      -281.0765
  76   2.0000     -10.325534      -280.9721
  77   2.0000     -10.322142      -280.8798
  78   2.0000     -10.321897      -280.8731
  79   2.0000     -10.319252      -280.8011
  80   2.0000     -10.318443      -280.7791
  81   2.0000     -10.318256      -280.7740
  82   2.0000     -10.317882      -280.7639
  83   2.0000     -10.317763      -280.7606
  84   2.0000     -10.316391      -280.7233
  85   2.0000     -10.315886      -280.7095
  86   2.0000     -10.315503      -280.6991
  87   2.0000     -10.315350      -280.6949
  88   2.0000     -10.312515      -280.6178
  89   2.0000     -10.310971      -280.5758
  90   2.0000     -10.310901      -280.5739
  91   2.0000     -10.280502      -279.7467
  92   2.0000     -10.280160      -279.7374
  93   2.0000     -10.266298      -279.3602
  94   2.0000     -10.265477      -279.3378
  95   2.0000      -8.792023      -239.2431
  96   2.0000      -8.790962      -239.2142
  97   2.0000      -8.788778      -239.1548
  98   2.0000      -8.787243      -239.1130
  99   2.0000      -8.084749      -219.9972
 100   2.0000      -8.069454      -219.5810
 101   2.0000      -6.628161      -180.3614
 102   2.0000      -6.627139      -180.3336
 103   2.0000      -6.624898      -180.2726
 104   2.0000      -6.623413      -180.2322
 105   2.0000      -6.614153      -179.9803
 106   2.0000      -6.613339      -179.9581
 107   2.0000      -6.613069      -179.9508
 108   2.0000      -6.612258      -179.9287
 109   2.0000      -6.610925      -179.8924
 110   2.0000      -6.610093      -179.8698
 111   2.0000      -6.609348      -179.8495
 112   2.0000      -6.608555      -179.8279
 113   2.0000      -6.054389      -164.7483
 114   2.0000      -6.050241      -164.6354
 115   2.0000      -6.045928      -164.5181
 116   2.0000      -6.038323      -164.3111
 117   2.0000      -6.035029      -164.2215
 118   2.0000      -6.030484      -164.0978
 119   2.0000      -2.744098       -74.6707
 120   2.0000      -2.743084       -74.6431
 121   2.0000      -2.740856       -74.5825
 122   2.0000      -2.740296       -74.5672
 123   2.0000      -2.739663       -74.5500
 124   2.0000      -2.739351       -74.5415
 125   2.0000      -2.739243       -74.5386
 126   2.0000      -2.738606       -74.5213
 127   2.0000      -2.737048       -74.4789
 128   2.0000      -2.736391       -74.4610
 129   2.0000      -2.735525       -74.4374
 130   2.0000      -2.734898       -74.4203
 131   2.0000      -2.728517       -74.2467
 132   2.0000      -2.728503       -74.2464
 133   2.0000      -2.727428       -74.2171
 134   2.0000      -2.727412       -74.2166
 135   2.0000      -2.725281       -74.1587
 136   2.0000      -2.725273       -74.1585
 137   2.0000      -2.723725       -74.1163
 138   2.0000      -2.723703       -74.1157
 139   2.0000      -1.307309       -35.5737
 140   2.0000      -1.257500       -34.2183
 141   2.0000      -1.191916       -32.4337
 142   2.0000      -1.188400       -32.3380
 143   2.0000      -1.184279       -32.2259
 144   2.0000      -1.182712       -32.1832
 145   2.0000      -1.163898       -31.6713
 146   2.0000      -1.151303       -31.3286
 147   2.0000      -1.150709       -31.3124
 148   2.0000      -1.149314       -31.2744
 149   2.0000      -1.144920       -31.1548
 150   2.0000      -1.143641       -31.1201
 151   2.0000      -1.081741       -29.4357
 152   2.0000      -1.071870       -29.1671
 153   2.0000      -1.039272       -28.2800
 154   2.0000      -1.035380       -28.1741
 155   2.0000      -1.034786       -28.1580
 156   2.0000      -1.022007       -27.8102
 157   2.0000      -1.021644       -27.8003
 158   2.0000      -1.017646       -27.6916
 159   2.0000      -1.011855       -27.5340
 160   2.0000      -1.006831       -27.3973
 161   2.0000      -0.990295       -26.9473
 162   2.0000      -0.985919       -26.8282
 163   2.0000      -0.971942       -26.4479
 164   2.0000      -0.961227       -26.1563
 165   2.0000      -0.944537       -25.7021
 166   2.0000      -0.937227       -25.5032
 167   2.0000      -0.933265       -25.3954
 168   2.0000      -0.931773       -25.3548
 169   2.0000      -0.927114       -25.2280
 170   2.0000      -0.921731       -25.0816
 171   2.0000      -0.917668       -24.9710
 172   2.0000      -0.910561       -24.7776
 173   2.0000      -0.899247       -24.4698
 174   2.0000      -0.892383       -24.2830
 175   2.0000      -0.887309       -24.1449
 176   2.0000      -0.880859       -23.9694
 177   2.0000      -0.872863       -23.7518
 178   2.0000      -0.863755       -23.5040
 179   2.0000      -0.859883       -23.3986
 180   2.0000      -0.854589       -23.2546
 181   2.0000      -0.851069       -23.1588
 182   2.0000      -0.829806       -22.5802
 183   2.0000      -0.825063       -22.4511
 184   2.0000      -0.816508       -22.2183
 185   2.0000      -0.809923       -22.0391
 186   2.0000      -0.795634       -21.6503
 187   2.0000      -0.790213       -21.5028
 188   2.0000      -0.785877       -21.3848
 189   2.0000      -0.778229       -21.1767
 190   2.0000      -0.776432       -21.1278
 191   2.0000      -0.771778       -21.0012
 192   2.0000      -0.769145       -20.9295
 193   2.0000      -0.759110       -20.6564
 194   2.0000      -0.745999       -20.2997
 195   2.0000      -0.738484       -20.0952
 196   2.0000      -0.729312       -19.8456
 197   2.0000      -0.725001       -19.7283
 198   2.0000      -0.719149       -19.5691
 199   2.0000      -0.716131       -19.4869
 200   2.0000      -0.711448       -19.3595
 201   2.0000      -0.704683       -19.1754
 202   2.0000      -0.702600       -19.1187
 203   2.0000      -0.695628       -18.9290
 204   2.0000      -0.690656       -18.7937
 205   2.0000      -0.688469       -18.7342
 206   2.0000      -0.682919       -18.5832
 207   2.0000      -0.667441       -18.1620
 208   2.0000      -0.662450       -18.0262
 209   2.0000      -0.655928       -17.8487
 210   2.0000      -0.654797       -17.8179
 211   2.0000      -0.647219       -17.6117
 212   2.0000      -0.645859       -17.5747
 213   2.0000      -0.643025       -17.4976
 214   2.0000      -0.639050       -17.3894
 215   2.0000      -0.636271       -17.3138
 216   2.0000      -0.628691       -17.1076
 217   2.0000      -0.627092       -17.0641
 218   2.0000      -0.618269       -16.8240
 219   2.0000      -0.609241       -16.5783
 220   2.0000      -0.607016       -16.5177
 221   2.0000      -0.602180       -16.3862
 222   2.0000      -0.596691       -16.2368
 223   2.0000      -0.588234       -16.0067
 224   2.0000      -0.586939       -15.9714
 225   2.0000      -0.586554       -15.9609
 226   2.0000      -0.584372       -15.9016
 227   2.0000      -0.581113       -15.8129
 228   2.0000      -0.578778       -15.7493
 229   2.0000      -0.571617       -15.5545
 230   2.0000      -0.569942       -15.5089
 231   2.0000      -0.567745       -15.4491
 232   2.0000      -0.562980       -15.3195
 233   2.0000      -0.560536       -15.2530
 234   2.0000      -0.559744       -15.2314
 235   2.0000      -0.558190       -15.1891
 236   2.0000      -0.556442       -15.1415
 237   2.0000      -0.555992       -15.1293
 238   2.0000      -0.555591       -15.1184
 239   2.0000      -0.551389       -15.0041
 240   2.0000      -0.546484       -14.8706
 241   2.0000      -0.545442       -14.8422
 242   2.0000      -0.543202       -14.7813
 243   2.0000      -0.540908       -14.7189
 244   2.0000      -0.540496       -14.7076
 245   2.0000      -0.539014       -14.6673
 246   2.0000      -0.533231       -14.5100
 247   2.0000      -0.532813       -14.4986
 248   2.0000      -0.532085       -14.4788
 249   2.0000      -0.529977       -14.4214
 250   2.0000      -0.528330       -14.3766
 251   2.0000      -0.524107       -14.2617
 252   2.0000      -0.523030       -14.2324
 253   2.0000      -0.520076       -14.1520
 254   2.0000      -0.519314       -14.1313
 255   2.0000      -0.517128       -14.0718
 256   2.0000      -0.516817       -14.0633
 257   2.0000      -0.514909       -14.0114
 258   2.0000      -0.513187       -13.9645
 259   2.0000      -0.510128       -13.8813
 260   2.0000      -0.507174       -13.8009
 261   2.0000      -0.505720       -13.7613
 262   2.0000      -0.503156       -13.6916
 263   2.0000      -0.502236       -13.6665
 264   2.0000      -0.500950       -13.6315
 265   2.0000      -0.500439       -13.6176
 266   2.0000      -0.494521       -13.4566
 267   2.0000      -0.492755       -13.4085
 268   2.0000      -0.481106       -13.0915
 269   2.0000      -0.479075       -13.0363
 270   2.0000      -0.477594       -12.9960
 271   2.0000      -0.475742       -12.9456
 272   2.0000      -0.474552       -12.9132
 273   2.0000      -0.472257       -12.8508
 274   2.0000      -0.470211       -12.7951
 275   2.0000      -0.469797       -12.7838
 276   2.0000      -0.467705       -12.7269
 277   2.0000      -0.466312       -12.6890
 278   2.0000      -0.462105       -12.5745
 279   2.0000      -0.461401       -12.5554
 280   2.0000      -0.460252       -12.5241
 281   2.0000      -0.460101       -12.5200
 282   2.0000      -0.456010       -12.4087
 283   2.0000      -0.454953       -12.3799
 284   2.0000      -0.450689       -12.2639
 285   2.0000      -0.448539       -12.2054
 286   2.0000      -0.446398       -12.1471
 287   2.0000      -0.444738       -12.1019
 288   2.0000      -0.440717       -11.9925
 289   2.0000      -0.440190       -11.9782
 290   2.0000      -0.439311       -11.9543
 291   2.0000      -0.437575       -11.9070
 292   2.0000      -0.435310       -11.8454
 293   2.0000      -0.434132       -11.8133
 294   2.0000      -0.431707       -11.7473
 295   2.0000      -0.429073       -11.6757
 296   2.0000      -0.428452       -11.6588
 297   2.0000      -0.422132       -11.4868
 298   2.0000      -0.420462       -11.4413
 299   2.0000      -0.411955       -11.2099
 300   2.0000      -0.411415       -11.1952
 301   2.0000      -0.408967       -11.1285
 302   2.0000      -0.405972       -11.0470
 303   2.0000      -0.405018       -11.0211
 304   2.0000      -0.400531       -10.8990
 305   2.0000      -0.398059       -10.8317
 306   2.0000      -0.394742       -10.7415
 307   2.0000      -0.393701       -10.7132
 308   2.0000      -0.390417       -10.6238
 309   2.0000      -0.386581       -10.5194
 310   2.0000      -0.382230       -10.4010
 311   2.0000      -0.368750       -10.0342
 312   2.0000      -0.367460        -9.9991
 313   2.0000      -0.364699        -9.9240
 314   2.0000      -0.361036        -9.8243
 315   2.0000      -0.358186        -9.7467
 316   2.0000      -0.357694        -9.7333
 317   2.0000      -0.352858        -9.6018
 318   2.0000      -0.350857        -9.5473
 319   2.0000      -0.349071        -9.4987
 320   2.0000      -0.345711        -9.4073
 321   2.0000      -0.343657        -9.3514
 322   2.0000      -0.342248        -9.3130
 323   2.0000      -0.333777        -9.0825
 324   2.0000      -0.328225        -8.9315
 325   2.0000      -0.323077        -8.7914
 326   2.0000      -0.320392        -8.7183
 327   2.0000      -0.313929        -8.5424
 328   2.0000      -0.311558        -8.4779
 329   2.0000      -0.256720        -6.9857
 330   0.0000      -0.124796        -3.3959
 331   0.0000      -0.113887        -3.0990
 332   0.0000      -0.108632        -2.9560
 333   0.0000      -0.091381        -2.4866
 334   0.0000      -0.081916        -2.2291

MULLIKEN ATOMIC CHARGES
-----------------------
   0 C :    0.147302
   1 O :   -0.137252
   2 C :   -0.019503
   3 C :    0.036409
   4 C :   -0.006450
   5 C :   -0.024906
   6 C :   -0.017205
   7 C :   -0.011603
   8 Br:    0.021923
   9 Br:    0.026887
  10 C :    0.303425
  11 C :   -0.333869
  12 C :   -0.186529
  13 N :    0.166360
  14 C :   -0.195128
  15 N :    0.169977
  16 C :   -0.084361
  17 C :    0.049739
  18 C :   -0.185008
  19 S :    0.239460
  20 C :   -0.266958
  21 C :    0.165979
  22 C :    0.213059
  23 O :   -0.188998
  24 C :    0.301804
  25 O :   -0.112613
  26 O :   -0.228674
  27 C :    0.243799
  28 N :   -0.273496
  29 C :    0.096799
  30 C :    0.010260
  31 C :    0.156782
  32 O :   -0.171840
  33 C :   -0.021802
  34 C :   -0.116519
  35 C :    0.164569
  36 O :   -0.205300
  37 N :   -0.262139
  38 C :    0.101052
  39 C :    0.002111
  40 C :    0.089843
  41 C :    0.033864
  42 C :   -0.048784
  43 C :    0.041967
  44 C :    0.041132
  45 C :    0.038378
  46 O :   -0.126799
  47 S :    0.039070
  48 C :    0.032184
  49 O :   -0.120654
  50 C :    0.030167
  51 C :    0.049069
  52 C :   -0.058960
  53 C :   -0.087752
  54 C :    0.234380
  55 O :   -0.088825
  56 O :   -0.221738
  57 C :    0.247940
  58 O :   -0.100561
  59 C :   -0.033308
  60 C :    0.062850
  61 C :    0.011338
  62 C :   -0.097111
  63 C :    0.145834
  64 O :   -0.122301
  65 C :   -0.005913
  66 C :    0.023745
  67 C :    0.277184
  68 C :   -0.318776
  69 C :   -0.212486
  70 N :    0.172947
  71 C :   -0.186362
  72 N :    0.170394
  73 C :   -0.005958
  74 C :   -0.023734
  75 C :   -0.016098
  76 C :   -0.017327
  77 Br:    0.023191
  78 Br:    0.028621
  79 H :    0.008985
  80 H :    0.009338
  81 H :    0.033241
  82 H :    0.036925
  83 H :    0.044767
  84 H :    0.010958
  85 H :    0.031595
  86 H :    0.030933
  87 H :    0.043221
  88 H :    0.025523
  89 H :    0.026625
  90 H :    0.024830
  91 H :    0.032356
  92 H :    0.018712
  93 H :    0.027833
  94 H :    0.035966
  95 H :    0.034842
  96 H :    0.031185
  97 H :    0.012988
  98 H :    0.010985
Sum of atomic charges:   -0.0000000

LOEWDIN ATOMIC CHARGES
----------------------
   0 C :    0.080754
   1 O :   -0.126299
   2 C :   -0.040693
   3 C :   -0.012648
   4 C :   -0.006005
   5 C :   -0.118002
   6 C :   -0.121367
   7 C :    0.009028
   8 Br:    0.143951
   9 Br:    0.145827
  10 C :    0.070902
  11 C :   -0.123654
  12 C :   -0.019620
  13 N :   -0.037130
  14 C :   -0.023152
  15 N :   -0.035995
  16 C :   -0.079878
  17 C :    0.049714
  18 C :   -0.196700
  19 S :    0.541391
  20 C :   -0.185696
  21 C :   -0.003095
  22 C :    0.018766
  23 O :   -0.005878
  24 C :    0.112670
  25 O :   -0.108921
  26 O :   -0.024214
  27 C :    0.064542
  28 N :    0.000134
  29 C :    0.033360
  30 C :   -0.058495
  31 C :    0.087210
  32 O :   -0.172676
  33 C :   -0.101701
  34 C :   -0.128681
  35 C :    0.073026
  36 O :   -0.199309
  37 N :    0.005129
  38 C :    0.036677
  39 C :   -0.062210
  40 C :    0.072574
  41 C :    0.017034
  42 C :   -0.024368
  43 C :    0.032307
  44 C :   -0.049047
  45 C :   -0.041682
  46 O :   -0.110834
  47 S :    0.321480
  48 C :   -0.044463
  49 O :   -0.106958
  50 C :   -0.045921
  51 C :    0.028528
  52 C :   -0.032524
  53 C :   -0.042633
  54 C :    0.107887
  55 O :   -0.086970
  56 O :   -0.047572
  57 C :    0.110409
  58 O :   -0.092557
  59 C :    0.010981
  60 C :    0.013908
  61 C :    0.071888
  62 C :   -0.075937
  63 C :    0.084499
  64 O :   -0.122422
  65 C :   -0.043815
  66 C :   -0.010255
  67 C :    0.069612
  68 C :   -0.124160
  69 C :   -0.021414
  70 N :   -0.044381
  71 C :   -0.021263
  72 N :   -0.033717
  73 C :   -0.007215
  74 C :   -0.116890
  75 C :   -0.121574
  76 C :    0.009542
  77 Br:    0.144699
  78 Br:    0.147823
  79 H :    0.045022
  80 H :    0.047732
  81 H :    0.049794
  82 H :    0.023274
  83 H :    0.038686
  84 H :    0.018361
  85 H :    0.035391
  86 H :    0.031317
  87 H :    0.038112
  88 H :    0.024347
  89 H :    0.032343
  90 H :    0.032816
  91 H :    0.024351
  92 H :    0.046767
  93 H :    0.035576
  94 H :    0.042980
  95 H :    0.032272
  96 H :    0.051685
  97 H :    0.045361
  98 H :    0.048153

  Mayer bond orders larger than 0.100000
B(  0-C ,  1-O ) :   2.2271 B(  0-C ,  2-C ) :   0.9421 B(  0-C , 16-C ) :   0.9421
B(  2-C ,  3-C ) :   1.3289 B(  2-C ,  7-C ) :   1.3718 B(  3-C ,  4-C ) :   1.3620
B(  3-C , 10-C ) :   0.9969 B(  4-C ,  5-C ) :   1.3742 B(  4-C , 79-H ) :   0.9784
B(  5-C ,  6-C ) :   1.4153 B(  5-C ,  9-Br) :   1.0610 B(  6-C ,  7-C ) :   1.3538
B(  6-C ,  8-Br) :   1.0393 B(  7-C , 80-H ) :   1.0075 B( 10-C , 11-C ) :   1.6598
B( 10-C , 16-C ) :   1.0677 B( 11-C , 12-C ) :   1.1382 B( 11-C , 14-C ) :   1.1398
B( 12-C , 13-N ) :   2.9732 B( 14-C , 15-N ) :   2.9806 B( 16-C , 17-C ) :   1.6331
B( 17-C , 18-C ) :   1.1519 B( 17-C , 81-H ) :   0.9291 B( 18-C , 19-S ) :   1.0639
B( 18-C , 20-C ) :   0.1217 B( 18-C , 22-C ) :   1.4664 B( 19-S , 20-C ) :   1.1517
B( 20-C , 21-C ) :   1.4310 B( 20-C , 27-C ) :   1.1670 B( 21-C , 22-C ) :   1.2713
B( 21-C , 26-O ) :   1.0750 B( 22-C , 23-O ) :   1.1001 B( 23-O , 24-C ) :   1.0672
B( 24-C , 25-O ) :   2.2742 B( 24-C , 26-O ) :   1.0403 B( 27-C , 28-N ) :   1.2294
B( 27-C , 34-C ) :   1.3210 B( 28-N , 29-C ) :   0.9285 B( 28-N , 31-C ) :   1.0093
B( 29-C , 30-C ) :   1.1191 B( 29-C , 82-H ) :   0.9466 B( 29-C , 83-H ) :   0.9257
B( 30-C , 84-H ) :   0.9689 B( 30-C , 85-H ) :   0.9680 B( 30-C , 86-H ) :   0.9646
B( 31-C , 32-O ) :   2.1461 B( 31-C , 33-C ) :   0.9694 B( 33-C , 34-C ) :   1.2506
B( 33-C , 40-C ) :   1.3530 B( 34-C , 35-C ) :   0.9743 B( 35-C , 36-O ) :   2.0709
B( 35-C , 37-N ) :   1.0614 B( 37-N , 38-C ) :   0.9342 B( 37-N , 40-C ) :   1.1737
B( 38-C , 39-C ) :   1.1203 B( 38-C , 87-H ) :   0.9259 B( 38-C , 88-H ) :   0.9490
B( 39-C , 89-H ) :   0.9591 B( 39-C , 90-H ) :   0.9682 B( 39-C , 91-H ) :   0.9641
B( 40-C , 41-C ) :   1.2001 B( 41-C , 42-C ) :   1.6256 B( 41-C , 92-H ) :   0.9365
B( 42-C , 43-C ) :   1.0992 B( 42-C , 93-H ) :   0.9445 B( 43-C , 44-C ) :   1.3554
B( 43-C , 53-C ) :   1.3223 B( 44-C , 45-C ) :   0.8545 B( 44-C , 50-C ) :   1.3268
B( 45-C , 46-O ) :   2.1440 B( 45-C , 47-S ) :   1.0387 B( 46-O , 47-S ) :   0.1043
B( 47-S , 48-C ) :   1.0316 B( 47-S , 49-O ) :   0.1057 B( 48-C , 49-O ) :   2.1809
B( 48-C , 50-C ) :   0.8382 B( 50-C , 51-C ) :   1.3465 B( 51-C , 52-C ) :   1.3399
B( 51-C , 59-C ) :   1.0756 B( 52-C , 53-C ) :   1.3794 B( 52-C , 57-C ) :   0.9051
B( 53-C , 54-C ) :   0.8992 B( 54-C , 55-O ) :   2.2657 B( 54-C , 56-O ) :   1.0485
B( 56-O , 57-C ) :   1.0668 B( 57-C , 58-O ) :   2.2266 B( 59-C , 60-C ) :   1.7092
B( 59-C , 94-H ) :   0.9546 B( 60-C , 61-C ) :   1.1143 B( 60-C , 95-H ) :   0.9417
B( 61-C , 62-C ) :   1.6632 B( 61-C , 96-H ) :   0.9597 B( 62-C , 63-C ) :   0.9282
B( 62-C , 67-C ) :   1.0251 B( 63-C , 64-O ) :   2.2866 B( 63-C , 65-C ) :   0.9235
B( 65-C , 66-C ) :   1.3268 B( 65-C , 76-C ) :   1.3712 B( 66-C , 67-C ) :   1.0070
B( 66-C , 73-C ) :   1.3664 B( 67-C , 68-C ) :   1.6656 B( 68-C , 69-C ) :   1.1575
B( 68-C , 71-C ) :   1.1267 B( 69-C , 70-N ) :   3.0088 B( 71-C , 72-N ) :   2.9918
B( 73-C , 74-C ) :   1.3711 B( 73-C , 97-H ) :   0.9813 B( 74-C , 75-C ) :   1.4153
B( 74-C , 78-Br) :   1.0585 B( 75-C , 76-C ) :   1.3579 B( 75-C , 77-Br) :   1.0404
B( 76-C , 98-H ) :   1.0079

-----------------------------------------------------------------------------
         ABSORPTION SPECTRUM VIA TRANSITION ELECTRIC DIPOLE MOMENTS
-----------------------------------------------------------------------------
State   Energy  Wavelength   fosc         T2         TX        TY        TZ
        (cm-1)    (nm)                  (au**2)     (au)      (au)      (au)
-----------------------------------------------------------------------------
   0   14023.3    713.1   1.055424222  24.77725   3.32495   3.43825   1.37854
   1   16397.9    609.8   0.029237278   0.58698  -0.74420  -0.05120  -0.17472
   2   19322.0    517.5   0.024378438   0.41536  -0.55762   0.02341  -0.32230
   3   23105.2    432.8   0.194333654   2.76895   0.89656  -0.40857  -1.34097
   4   24024.0    416.3   0.093372290   1.27952   0.16448  -0.75423  -0.82681
   5   25017.8    399.7   0.239693209   3.15415  -0.15167   1.39515   1.08844
   6   25383.6    394.0   0.172134369   2.23249   0.14036   1.05072   1.05299
   7   25873.1    386.5   0.021907148   0.27875  -0.03360  -0.52666  -0.01568
   8   26092.8    383.2   0.441014036   5.56427   0.92651   0.76498   2.02994
   9   27229.7    367.2   0.002116729   0.02559   0.09753  -0.02877  -0.12350
  10   27675.8    361.3   0.030922702   0.36783  -0.58776   0.03232   0.14603
  11   27866.1    358.9   0.081627724   0.96435   0.00496  -0.34955   0.91769
  12   28310.1    353.2   0.095720241   1.11311   0.67226   0.60731   0.54070
  13   28447.0    351.5   0.279504405   3.23466  -0.59404  -1.44562  -0.88992
  14   28796.4    347.3   0.163936091   1.87419  -0.99314  -0.90565   0.26009
  15   29363.0    340.6   0.296385716   3.32302   0.64839   1.56221   0.67978
  16   29824.2    335.3   0.008843048   0.09761   0.01676   0.09464   0.29728
  17   30115.7    332.1   0.083714058   0.91513  -0.91924  -0.12627   0.23278
  18   30610.9    326.7   0.167993030   1.80672  -0.50276  -1.24553  -0.05113
  19   30745.6    325.2   0.042024444   0.44998  -0.15222   0.56645   0.32549
  20   31575.5    316.7   0.015377701   0.16033  -0.26935  -0.24673  -0.16402
  21   31617.9    316.3   0.081665011   0.85031  -0.66591  -0.63130   0.09134
  22   31735.4    315.1   0.014768971   0.15321   0.10614   0.06141  -0.37171
  23   32529.7    307.4   0.156732129   1.58618  -0.68859  -1.05131   0.08223
  24   32611.6    306.6   0.001796304   0.01813   0.11641   0.01828   0.06518
  25   32767.6    305.2   0.011267037   0.11320  -0.04328  -0.25687  -0.21293
  26   33148.2    301.7   0.000589687   0.00586   0.01789   0.05340   0.05182
  27   33283.4    300.4   0.133065937   1.31618  -0.36056  -0.66039  -0.86606
  28   33613.6    297.5   0.120437292   1.17956   0.21277   0.42507   0.97653
  29   33680.0    296.9   0.059496418   0.58156  -0.64202  -0.32229  -0.25595
  30   33776.0    296.1   0.006423071   0.06261  -0.22968  -0.05395  -0.08332
  31   34011.7    294.0   0.010015177   0.09694  -0.27715   0.07070   0.12300
  32   34262.9    291.9   0.066337887   0.63740   0.35192   0.61249   0.37204
  33   34600.9    289.0   0.058415932   0.55580   0.32980  -0.35373  -0.56737
  34   34688.3    288.3   0.035935731   0.34105   0.31241   0.48381  -0.09682
  35   34829.3    287.1   0.460276483   4.35060  -1.00419  -0.51953   1.75279
  36   35192.2    284.2   0.191055540   1.78726   0.40834   0.88594   0.91413
  37   35244.7    283.7   0.223809372   2.09055   0.82516   1.16903  -0.20744
  38   35460.2    282.0   0.067425223   0.62597   0.45287   0.64368   0.08102
  39   35918.8    278.4   0.172714818   1.58301  -0.78219  -0.97645   0.13315
  40   36466.6    274.2   0.030452330   0.27492  -0.24740  -0.32643  -0.32734
  41   36542.1    273.7   0.001856242   0.01672  -0.01938  -0.10843  -0.06775
  42   36820.8    271.6   0.026186896   0.23414  -0.05003   0.38384   0.29035
  43   36889.1    271.1   0.014260528   0.12727  -0.25163  -0.22311   0.11903
  44   37081.0    269.7   0.003996227   0.03548  -0.01128   0.18697   0.01981
  45   37103.4    269.5   0.000695813   0.00617  -0.04237  -0.06528  -0.01081
  46   37206.6    268.8   0.081335843   0.71968   0.46209  -0.49909  -0.50701
  47   37463.5    266.9   0.028389800   0.24948  -0.20292   0.45396   0.04710
  48   37503.3    266.6   0.071362690   0.62644  -0.23008   0.53657  -0.53441
  49   37657.4    265.6   0.054363422   0.47526   0.32045   0.12562   0.59732
  50   37719.7    265.1   0.066649444   0.58171   0.25057   0.21426   0.68776
  51   37885.8    264.0   0.037720023   0.32777   0.43497   0.10538  -0.35703
  52   37996.6    263.2   0.014664887   0.12706  -0.30491  -0.15868   0.09440
  53   38145.6    262.2   0.024986629   0.21564   0.09207   0.45511  -0.00671
  54   38291.7    261.2   0.013540941   0.11642  -0.27601   0.02724   0.19873
  55   38665.7    258.6   0.052960563   0.45092   0.00171   0.63880  -0.20703
  56   38845.6    257.4   0.055166546   0.46753  -0.18102  -0.39225  -0.53000
  57   39018.7    256.3   0.045290520   0.38213   0.50691   0.31097   0.16874
  58   39280.5    254.6   0.076633478   0.64227   0.37224  -0.07772   0.70546
  59   39421.7    253.7   0.118542316   0.98995   0.15472  -0.77803   0.60056
  60   39623.6    252.4   0.068053745   0.56542   0.26380   0.12303   0.69332
  61   39820.7    251.1   0.067488372   0.55795  -0.16767  -0.65244  -0.32273
  62   40169.1    248.9   0.003457410   0.02834  -0.05316   0.11024   0.11557
  63   40277.7    248.3   0.000737378   0.00603  -0.04930   0.04792   0.03606

FINAL SINGLE POINT ENERGY    -14426.953675066758

DIPOLE MOMENT
-------------
                                X             Y             Z
Electronic contribution:      3.87998      61.06308    -116.00835
Nuclear contribution   :     -5.74539     -61.81402     115.02546
                        -----------------------------------------
Total Dipole Moment    :     -1.86541      -0.75094      -0.98289
                        -----------------------------------------
Magnitude (a.u.)       :      2.23824
Magnitude (Debye)      :      5.68917

Rotational constants in cm-1:     0.001451     0.000119     0.000116
Rotational constants in MHz :    43.487212     3.557256     3.468059

                             ****ORCA TERMINATED NORMALLY****
TOTAL RUN TIME: 0 days 0 hours 11 minutes 24 seconds 189 msec
