                         Program Version 4.2.0 -  RELEASE  -
|  1> # ORCA input file
|  2> # SCF done       -154.149208238403          0.000646675475
|  3> ! CAM-B3LYP def2-SVP def2/J RIJCOSX Grid4 TightSCF
|  4> %maxcore 5000
|  5> %tddft
|  6>     Mode sTDDFT
|  7>     Ethresh 5.0
|  8>     maxcore 5000
|  9> end
| 10>
| 11> %pal
| 12>   nprocs 6
| 13>   end
| 14> * xyz 0 1
| 15>    C        1.19806         0.41493         2.11176
| 16>    O        1.03729        -0.75269         2.35850
| 17>    C        2.01957         1.36902         2.89299
| 18>    C        2.06058         2.61524         2.24520
| 19>    C        2.78870         3.65409         2.80467
| 20>    C        3.45743         3.42972         4.00187
| 21>    C        3.40964         2.18632         4.63836
| 22>    C        2.68736         1.14104         4.07838
| 23>   Br        4.32486         1.90983         6.26710
| 24>   Br        4.44721         4.84783         4.76425
| 25>    C        1.25982         2.54416         1.02629
| 26>    C        1.00348         3.59115         0.18305
| 27>    C        1.52361         4.89283         0.35797
| 28>    N        1.91895         5.96635         0.44457
| 29>    C        0.17868         3.53819        -0.96215
| 30>    N       -0.48406         3.58141        -1.89810
| 31>    C        0.73301         1.19248         0.92506
| 32>    C        0.05275         0.68004        -0.13505
| 33>    C       -0.60144        -0.57682        -0.18176
| 34>    S       -1.00774        -1.32636        -1.73703
| 35>    C       -1.75760        -2.58791        -0.78021
| 36>    N       -1.67639        -2.35275         0.50877
| 37>    N       -1.05066        -1.27008         0.82369
| 38>    C       -2.38085        -3.72434        -1.35581
| 39>    C       -2.95612        -4.68113        -0.58990
| 40>    C       -3.59353        -5.84462        -1.08177
| 41>    S       -3.72221        -6.24059        -2.77055
| 42>    C       -4.56328        -7.68660        -2.41093
| 43>    C       -4.74990        -7.88077        -1.07729
| 44>    C       -4.19873        -6.83315        -0.30594
| 45>    O       -4.20668        -6.68179         1.03939
| 46>    C       -4.68493        -7.62491         1.86003
| 47>    C       -4.71518        -7.41567         3.18885
| 48>    C       -5.20811        -8.40407         4.08572
| 49>    S       -5.24032        -8.15748         5.82072
| 50>    C       -5.92661        -9.78038         5.90523
| 51>    N       -6.06605       -10.31835         4.72689
| 52>    N       -5.67881        -9.57247         3.73572
| 53>    C       -6.26612       -10.39888         7.13724
| 54>    C       -6.65527       -11.69420         7.21235
| 55>    C       -7.00396       -12.32286         8.43244
| 56>    C       -7.18698       -13.65630         8.63572
| 57>    C       -7.93531       -14.14495         9.82459
| 58>    O       -8.22601       -13.51695        10.81369
| 59>    C       -8.29268       -15.54424         9.49740
| 60>    C       -7.70585       -15.90791         8.27026
| 61>    C       -6.89094       -14.79370         7.78888
| 62>    C       -5.87651       -14.88422         6.87483
| 63>    C       -4.90089       -13.88059         6.68038
| 64>    N       -4.04218       -13.13344         6.53934
| 65>    C       -5.60995       -16.04512         6.11733
| 66>    N       -5.37341       -16.96157         5.46917
| 67>    C       -7.92978       -17.16958         7.74620
| 68>    C       -8.73205       -18.05287         8.45978
| 69>    C       -9.29927       -17.68961         9.68370
| 70>    C       -9.08134       -16.42297        10.21077
| 71>   Br      -10.37527       -18.91572        10.63722
| 72>   Br       -9.05025       -19.77169         7.74188
| 73>    H        2.85498         4.62481         2.34090
| 74>    H        2.64301         0.17463         4.55623
| 75>    H       -0.02032         1.25912        -1.04639
| 76>    H       -2.37989        -3.80085        -2.43383
| 77>    H       -2.93847        -4.56600         0.48530
| 78>    H       -4.88195        -8.32421        -3.21134
| 79>    H       -5.26599        -8.73553        -0.68089
| 80>    H       -5.03937        -8.55976         1.44769
| 81>    H       -4.35819        -6.48668         3.60490
| 82>    H       -6.15636        -9.80225         8.03195
| 83>    H       -6.71737       -12.25675         6.29186
| 84>    H       -7.22049       -11.68376         9.28202
| 85>    H       -7.51008       -17.48045         6.80287
| 86>    H       -9.51660       -16.13197        11.15420
| 87> *
| 88>
| 89>                          ****END OF INPUT****

CARTESIAN COORDINATES (ANGSTROEM)
---------------------------------
  C      1.198060    0.414930    2.111760
  O      1.037290   -0.752690    2.358500
  C      2.019570    1.369020    2.892990
  C      2.060580    2.615240    2.245200
  C      2.788700    3.654090    2.804670
  C      3.457430    3.429720    4.001870
  C      3.409640    2.186320    4.638360
  C      2.687360    1.141040    4.078380
  Br     4.324860    1.909830    6.267100
  Br     4.447210    4.847830    4.764250
  C      1.259820    2.544160    1.026290
  C      1.003480    3.591150    0.183050
  C      1.523610    4.892830    0.357970
  N      1.918950    5.966350    0.444570
  C      0.178680    3.538190   -0.962150
  N     -0.484060    3.581410   -1.898100
  C      0.733010    1.192480    0.925060
  C      0.052750    0.680040   -0.135050
  C     -0.601440   -0.576820   -0.181760
  S     -1.007740   -1.326360   -1.737030
  C     -1.757600   -2.587910   -0.780210
  N     -1.676390   -2.352750    0.508770
  N     -1.050660   -1.270080    0.823690
  C     -2.380850   -3.724340   -1.355810
  C     -2.956120   -4.681130   -0.589900
  C     -3.593530   -5.844620   -1.081770
  S     -3.722210   -6.240590   -2.770550
  C     -4.563280   -7.686600   -2.410930
  C     -4.749900   -7.880770   -1.077290
  C     -4.198730   -6.833150   -0.305940
  O     -4.206680   -6.681790    1.039390
  C     -4.684930   -7.624910    1.860030
  C     -4.715180   -7.415670    3.188850
  C     -5.208110   -8.404070    4.085720
  S     -5.240320   -8.157480    5.820720
  C     -5.926610   -9.780380    5.905230
  N     -6.066050  -10.318350    4.726890
  N     -5.678810   -9.572470    3.735720
  C     -6.266120  -10.398880    7.137240
  C     -6.655270  -11.694200    7.212350
  C     -7.003960  -12.322860    8.432440
  C     -7.186980  -13.656300    8.635720
  C     -7.935310  -14.144950    9.824590
  O     -8.226010  -13.516950   10.813690
  C     -8.292680  -15.544240    9.497400
  C     -7.705850  -15.907910    8.270260
  C     -6.890940  -14.793700    7.788880
  C     -5.876510  -14.884220    6.874830
  C     -4.900890  -13.880590    6.680380
  N     -4.042180  -13.133440    6.539340
  C     -5.609950  -16.045120    6.117330
  N     -5.373410  -16.961570    5.469170
  C     -7.929780  -17.169580    7.746200
  C     -8.732050  -18.052870    8.459780
  C     -9.299270  -17.689610    9.683700
  C     -9.081340  -16.422970   10.210770
  Br   -10.375270  -18.915720   10.637220
  Br    -9.050250  -19.771690    7.741880
  H      2.854980    4.624810    2.340900
  H      2.643010    0.174630    4.556230
  H     -0.020320    1.259120   -1.046390
  H     -2.379890   -3.800850   -2.433830
  H     -2.938470   -4.566000    0.485300
  H     -4.881950   -8.324210   -3.211340
  H     -5.265990   -8.735530   -0.680890
  H     -5.039370   -8.559760    1.447690
  H     -4.358190   -6.486680    3.604900
  H     -6.156360   -9.802250    8.031950
  H     -6.717370  -12.256750    6.291860
  H     -7.220490  -11.683760    9.282020
  H     -7.510080  -17.480450    6.802870
  H     -9.516600  -16.131970   11.154200

 Total Charge           Charge          ....    0
 Multiplicity           Mult            ....    1
 Number of Electrons    NEL             ....  522
 Basis Dimension        Dim             ....  966

ORBITAL ENERGIES
----------------

  NO   OCC          E(Eh)            E(eV)
   0   2.0000    -482.879598    -13139.8219
   1   2.0000    -482.878564    -13139.7937
   2   2.0000    -482.878490    -13139.7917
   3   2.0000    -482.876851    -13139.7471
   4   2.0000     -88.981250     -2421.3029
   5   2.0000     -88.980764     -2421.2897
   6   2.0000     -88.978841     -2421.2374
   7   2.0000     -62.557176     -1702.2673
   8   2.0000     -62.556183     -1702.2403
   9   2.0000     -62.556091     -1702.2378
  10   2.0000     -62.554473     -1702.1938
  11   2.0000     -56.391126     -1534.4805
  12   2.0000     -56.390130     -1534.4534
  13   2.0000     -56.390055     -1534.4514
  14   2.0000     -56.388473     -1534.4084
  15   2.0000     -56.388436     -1534.4073
  16   2.0000     -56.388382     -1534.4059
  17   2.0000     -56.387484     -1534.3814
  18   2.0000     -56.387382     -1534.3787
  19   2.0000     -56.387380     -1534.3786
  20   2.0000     -56.387288     -1534.3761
  21   2.0000     -56.385763     -1534.3346
  22   2.0000     -56.385668     -1534.3320
  23   2.0000     -19.305943      -525.3414
  24   2.0000     -19.226567      -523.1815
  25   2.0000     -19.220903      -523.0274
  26   2.0000     -14.450111      -393.2075
  27   2.0000     -14.448440      -393.1621
  28   2.0000     -14.442980      -393.0135
  29   2.0000     -14.441801      -392.9814
  30   2.0000     -14.426670      -392.5696
  31   2.0000     -14.424162      -392.5014
  32   2.0000     -14.423949      -392.4956
  33   2.0000     -14.420132      -392.3917
  34   2.0000     -10.377547      -282.3874
  35   2.0000     -10.373954      -282.2896
  36   2.0000     -10.368379      -282.1379
  37   2.0000     -10.366839      -282.0960
  38   2.0000     -10.357343      -281.8376
  39   2.0000     -10.356681      -281.8196
  40   2.0000     -10.356105      -281.8040
  41   2.0000     -10.356069      -281.8030
  42   2.0000     -10.355498      -281.7874
  43   2.0000     -10.355482      -281.7870
  44   2.0000     -10.354939      -281.7722
  45   2.0000     -10.354728      -281.7665
  46   2.0000     -10.352534      -281.7068
  47   2.0000     -10.351139      -281.6688
  48   2.0000     -10.347490      -281.5695
  49   2.0000     -10.347142      -281.5600
  50   2.0000     -10.331816      -281.1430
  51   2.0000     -10.328592      -281.0553
  52   2.0000     -10.325934      -280.9830
  53   2.0000     -10.325615      -280.9743
  54   2.0000     -10.324706      -280.9495
  55   2.0000     -10.323531      -280.9175
  56   2.0000     -10.322564      -280.8913
  57   2.0000     -10.321712      -280.8681
  58   2.0000     -10.320556      -280.8366
  59   2.0000     -10.317444      -280.7519
  60   2.0000     -10.317133      -280.7435
  61   2.0000     -10.315361      -280.6952
  62   2.0000     -10.314948      -280.6840
  63   2.0000     -10.313812      -280.6531
  64   2.0000     -10.313761      -280.6517
  65   2.0000     -10.312653      -280.6215
  66   2.0000     -10.308569      -280.5104
  67   2.0000     -10.307836      -280.4905
  68   2.0000     -10.307149      -280.4718
  69   2.0000     -10.305190      -280.4185
  70   2.0000     -10.302627      -280.3487
  71   2.0000     -10.302040      -280.3328
  72   2.0000     -10.297119      -280.1989
  73   2.0000     -10.295951      -280.1671
  74   2.0000      -8.786480      -239.0923
  75   2.0000      -8.785515      -239.0660
  76   2.0000      -8.785400      -239.0629
  77   2.0000      -8.783803      -239.0194
  78   2.0000      -8.077803      -219.8082
  79   2.0000      -8.077082      -219.7886
  80   2.0000      -8.074659      -219.7226
  81   2.0000      -6.622592      -180.2099
  82   2.0000      -6.621647      -180.1842
  83   2.0000      -6.621567      -180.1820
  84   2.0000      -6.619983      -180.1389
  85   2.0000      -6.608612      -179.8295
  86   2.0000      -6.607825      -179.8081
  87   2.0000      -6.607661      -179.8036
  88   2.0000      -6.607511      -179.7995
  89   2.0000      -6.606832      -179.7810
  90   2.0000      -6.606716      -179.7779
  91   2.0000      -6.605897      -179.7556
  92   2.0000      -6.605117      -179.7344
  93   2.0000      -6.046460      -164.5325
  94   2.0000      -6.045640      -164.5102
  95   2.0000      -6.043874      -164.4622
  96   2.0000      -6.043133      -164.4420
  97   2.0000      -6.042437      -164.4231
  98   2.0000      -6.040110      -164.3597
  99   2.0000      -6.039782      -164.3508
 100   2.0000      -6.039502      -164.3432
 101   2.0000      -6.036822      -164.2703
 102   2.0000      -2.738531       -74.5192
 103   2.0000      -2.737536       -74.4921
 104   2.0000      -2.737480       -74.4906
 105   2.0000      -2.735864       -74.4466
 106   2.0000      -2.734717       -74.4154
 107   2.0000      -2.734142       -74.3998
 108   2.0000      -2.733801       -74.3905
 109   2.0000      -2.733667       -74.3869
 110   2.0000      -2.733179       -74.3736
 111   2.0000      -2.733083       -74.3710
 112   2.0000      -2.732072       -74.3434
 113   2.0000      -2.731525       -74.3286
 114   2.0000      -2.722999       -74.0966
 115   2.0000      -2.722988       -74.0963
 116   2.0000      -2.722038       -74.0704
 117   2.0000      -2.722024       -74.0700
 118   2.0000      -2.721888       -74.0663
 119   2.0000      -2.721878       -74.0661
 120   2.0000      -2.720286       -74.0227
 121   2.0000      -2.720273       -74.0224
 122   2.0000      -1.216393       -33.0997
 123   2.0000      -1.153738       -31.3948
 124   2.0000      -1.150228       -31.2993
 125   2.0000      -1.142142       -31.0793
 126   2.0000      -1.137968       -30.9657
 127   2.0000      -1.030257       -28.0347
 128   2.0000      -1.029645       -28.0181
 129   2.0000      -1.013678       -27.5836
 130   2.0000      -1.012408       -27.5490
 131   2.0000      -1.007657       -27.4198
 132   2.0000      -1.003498       -27.3066
 133   2.0000      -1.000488       -27.2247
 134   2.0000      -0.982505       -26.7353
 135   2.0000      -0.982077       -26.7237
 136   2.0000      -0.959983       -26.1225
 137   2.0000      -0.954365       -25.9696
 138   2.0000      -0.939575       -25.5671
 139   2.0000      -0.936505       -25.4836
 140   2.0000      -0.925392       -25.1812
 141   2.0000      -0.924068       -25.1452
 142   2.0000      -0.918009       -24.9803
 143   2.0000      -0.914408       -24.8823
 144   2.0000      -0.912525       -24.8311
 145   2.0000      -0.900626       -24.5073
 146   2.0000      -0.893887       -24.3239
 147   2.0000      -0.888327       -24.1726
 148   2.0000      -0.880499       -23.9596
 149   2.0000      -0.856712       -23.3123
 150   2.0000      -0.856204       -23.2985
 151   2.0000      -0.852703       -23.2032
 152   2.0000      -0.846668       -23.0390
 153   2.0000      -0.835768       -22.7424
 154   2.0000      -0.823895       -22.4193
 155   2.0000      -0.788921       -21.4676
 156   2.0000      -0.787204       -21.4209
 157   2.0000      -0.771864       -21.0035
 158   2.0000      -0.770529       -20.9672
 159   2.0000      -0.762301       -20.7433
 160   2.0000      -0.742584       -20.2067
 161   2.0000      -0.738870       -20.1057
 162   2.0000      -0.731317       -19.9002
 163   2.0000      -0.712668       -19.3927
 164   2.0000      -0.708949       -19.2915
 165   2.0000      -0.702748       -19.1228
 166   2.0000      -0.697666       -18.9844
 167   2.0000      -0.692479       -18.8433
 168   2.0000      -0.688716       -18.7409
 169   2.0000      -0.680235       -18.5101
 170   2.0000      -0.678336       -18.4585
 171   2.0000      -0.669495       -18.2179
 172   2.0000      -0.657193       -17.8831
 173   2.0000      -0.635804       -17.3011
 174   2.0000      -0.631922       -17.1955
 175   2.0000      -0.629669       -17.1342
 176   2.0000      -0.621609       -16.9148
 177   2.0000      -0.620748       -16.8914
 178   2.0000      -0.608698       -16.5635
 179   2.0000      -0.605563       -16.4782
 180   2.0000      -0.599799       -16.3214
 181   2.0000      -0.585028       -15.9194
 182   2.0000      -0.582092       -15.8395
 183   2.0000      -0.579942       -15.7810
 184   2.0000      -0.574227       -15.6255
 185   2.0000      -0.568772       -15.4771
 186   2.0000      -0.562268       -15.3001
 187   2.0000      -0.556359       -15.1393
 188   2.0000      -0.555233       -15.1087
 189   2.0000      -0.553046       -15.0491
 190   2.0000      -0.548658       -14.9297
 191   2.0000      -0.547664       -14.9027
 192   2.0000      -0.546454       -14.8698
 193   2.0000      -0.544133       -14.8066
 194   2.0000      -0.540655       -14.7120
 195   2.0000      -0.538317       -14.6484
 196   2.0000      -0.533546       -14.5185
 197   2.0000      -0.531836       -14.4720
 198   2.0000      -0.528272       -14.3750
 199   2.0000      -0.524172       -14.2635
 200   2.0000      -0.521900       -14.2016
 201   2.0000      -0.512533       -13.9467
 202   2.0000      -0.508127       -13.8268
 203   2.0000      -0.507268       -13.8035
 204   2.0000      -0.505583       -13.7576
 205   2.0000      -0.504113       -13.7176
 206   2.0000      -0.500070       -13.6076
 207   2.0000      -0.495846       -13.4927
 208   2.0000      -0.494364       -13.4523
 209   2.0000      -0.493056       -13.4167
 210   2.0000      -0.487209       -13.2576
 211   2.0000      -0.486224       -13.2308
 212   2.0000      -0.473669       -12.8892
 213   2.0000      -0.473156       -12.8752
 214   2.0000      -0.467386       -12.7182
 215   2.0000      -0.465327       -12.6622
 216   2.0000      -0.463902       -12.6234
 217   2.0000      -0.462341       -12.5809
 218   2.0000      -0.457586       -12.4515
 219   2.0000      -0.455792       -12.4027
 220   2.0000      -0.453352       -12.3363
 221   2.0000      -0.452144       -12.3035
 222   2.0000      -0.451570       -12.2879
 223   2.0000      -0.447611       -12.1801
 224   2.0000      -0.440419       -11.9844
 225   2.0000      -0.439743       -11.9660
 226   2.0000      -0.436835       -11.8869
 227   2.0000      -0.434462       -11.8223
 228   2.0000      -0.433121       -11.7858
 229   2.0000      -0.431677       -11.7465
 230   2.0000      -0.429668       -11.6919
 231   2.0000      -0.427528       -11.6336
 232   2.0000      -0.419088       -11.4040
 233   2.0000      -0.418705       -11.3935
 234   2.0000      -0.405249       -11.0274
 235   2.0000      -0.403985       -10.9930
 236   2.0000      -0.402406       -10.9500
 237   2.0000      -0.401861       -10.9352
 238   2.0000      -0.399268       -10.8646
 239   2.0000      -0.399169       -10.8619
 240   2.0000      -0.392926       -10.6921
 241   2.0000      -0.391207       -10.6453
 242   2.0000      -0.386897       -10.5280
 243   2.0000      -0.378851       -10.3091
 244   2.0000      -0.371928       -10.1207
 245   2.0000      -0.369418       -10.0524
 246   2.0000      -0.353127        -9.6091
 247   2.0000      -0.350196        -9.5293
 248   2.0000      -0.349750        -9.5172
 249   2.0000      -0.345402        -9.3989
 250   2.0000      -0.344525        -9.3750
 251   2.0000      -0.340593        -9.2680
 252   2.0000      -0.338431        -9.2092
 253   2.0000      -0.332494        -9.0476
 254   2.0000      -0.329591        -8.9686
 255   2.0000      -0.321737        -8.7549
 256   2.0000      -0.318845        -8.6762
 257   2.0000      -0.314645        -8.5619
 258   2.0000      -0.311501        -8.4764
 259   2.0000      -0.288157        -7.8412
 260   2.0000      -0.267752        -7.2859
 261   0.0000      -0.106132        -2.8880
 262   0.0000      -0.102864        -2.7991
 263   0.0000      -0.074447        -2.0258
 264   0.0000      -0.072372        -1.9693
 265   0.0000      -0.051721        -1.4074

MULLIKEN ATOMIC CHARGES
-----------------------
   0 C :    0.146737
   1 O :   -0.093151
   2 C :   -0.026959
   3 C :    0.039331
   4 C :   -0.008375
   5 C :   -0.025884
   6 C :   -0.013582
   7 C :   -0.017281
   8 Br:    0.017628
   9 Br:    0.022892
  10 C :    0.304505
  11 C :   -0.338325
  12 C :   -0.186581
  13 N :    0.162379
  14 C :   -0.191483
  15 N :    0.163594
  16 C :   -0.072174
  17 C :    0.048180
  18 C :   -0.139982
  19 S :    0.112598
  20 C :   -0.077891
  21 N :   -0.067882
  22 N :    0.017152
  23 C :    0.029099
  24 C :    0.047339
  25 C :   -0.158045
  26 S :    0.143289
  27 C :   -0.042128
  28 C :   -0.035600
  29 C :    0.229990
  30 O :   -0.211560
  31 C :    0.176376
  32 C :    0.035954
  33 C :   -0.091326
  34 S :    0.112299
  35 C :   -0.108866
  36 N :   -0.032718
  37 N :   -0.069243
  38 C :    0.075380
  39 C :    0.021810
  40 C :    0.030628
  41 C :   -0.107149
  42 C :    0.146798
  43 O :   -0.129339
  44 C :   -0.008845
  45 C :    0.026989
  46 C :    0.261617
  47 C :   -0.308312
  48 C :   -0.208346
  49 N :    0.177787
  50 C :   -0.180189
  51 N :    0.160075
  52 C :   -0.007649
  53 C :   -0.023019
  54 C :   -0.017014
  55 C :   -0.018253
  56 Br:    0.016497
  57 Br:    0.023041
  58 H :    0.007183
  59 H :    0.007817
  60 H :    0.025484
  61 H :   -0.005178
  62 H :    0.034090
  63 H :    0.045140
  64 H :    0.010096
  65 H :    0.038654
  66 H :    0.010671
  67 H :    0.005697
  68 H :    0.047249
  69 H :    0.021894
  70 H :    0.010585
  71 H :    0.007799
Sum of atomic charges:   -0.0000000

LOEWDIN ATOMIC CHARGES
----------------------
   0 C :    0.076835
   1 O :   -0.099043
   2 C :   -0.039326
   3 C :   -0.014802
   4 C :   -0.006863
   5 C :   -0.119354
   6 C :   -0.120924
   7 C :    0.007090
   8 Br:    0.140482
   9 Br:    0.142117
  10 C :    0.072622
  11 C :   -0.127739
  12 C :   -0.019534
  13 N :   -0.040194
  14 C :   -0.022131
  15 N :   -0.041856
  16 C :   -0.068733
  17 C :    0.037048
  18 C :   -0.171108
  19 S :    0.396918
  20 C :   -0.126372
  21 N :   -0.084194
  22 N :   -0.018613
  23 C :   -0.084585
  24 C :    0.029675
  25 C :   -0.213612
  26 S :    0.457813
  27 C :   -0.150295
  28 C :   -0.092267
  29 C :    0.033317
  30 O :   -0.009006
  31 C :    0.109130
  32 C :   -0.103037
  33 C :   -0.132791
  34 S :    0.397589
  35 C :   -0.159639
  36 N :   -0.056525
  37 N :   -0.092956
  38 C :   -0.001844
  39 C :   -0.001180
  40 C :    0.067051
  41 C :   -0.084686
  42 C :    0.083039
  43 O :   -0.131382
  44 C :   -0.044486
  45 C :   -0.008904
  46 C :    0.066105
  47 C :   -0.123128
  48 C :   -0.023661
  49 N :   -0.035549
  50 C :   -0.019777
  51 N :   -0.038922
  52 C :   -0.008641
  53 C :   -0.117638
  54 C :   -0.123588
  55 C :    0.007867
  56 Br:    0.139017
  57 Br:    0.143323
  58 H :    0.044428
  59 H :    0.047037
  60 H :    0.046461
  61 H :    0.025903
  62 H :    0.048232
  63 H :    0.032415
  64 H :    0.038130
  65 H :    0.029603
  66 H :    0.041201
  67 H :    0.038081
  68 H :    0.041869
  69 H :    0.046708
  70 H :    0.044878
  71 H :    0.046898

  Mayer bond orders larger than 0.100000
B(  0-C ,  1-O ) :   2.2929 B(  0-C ,  2-C ) :   0.9324 B(  0-C , 16-C ) :   0.9134
B(  2-C ,  3-C ) :   1.3300 B(  2-C ,  7-C ) :   1.3738 B(  3-C ,  4-C ) :   1.3554
B(  3-C , 10-C ) :   0.9973 B(  4-C ,  5-C ) :   1.3779 B(  4-C , 58-H ) :   0.9789
B(  5-C ,  6-C ) :   1.4153 B(  5-C ,  9-Br) :   1.0592 B(  6-C ,  7-C ) :   1.3532
B(  6-C ,  8-Br) :   1.0366 B(  7-C , 59-H ) :   1.0079 B( 10-C , 11-C ) :   1.6517
B( 10-C , 16-C ) :   1.0664 B( 11-C , 12-C ) :   1.1376 B( 11-C , 14-C ) :   1.1401
B( 12-C , 13-N ) :   2.9729 B( 14-C , 15-N ) :   2.9789 B( 16-C , 17-C ) :   1.6719
B( 17-C , 18-C ) :   1.1363 B( 17-C , 60-H ) :   0.9212 B( 18-C , 19-S ) :   1.0611
B( 18-C , 22-N ) :   1.6339 B( 19-S , 20-C ) :   1.1284 B( 19-S , 22-N ) :   0.1096
B( 20-C , 21-N ) :   1.6088 B( 20-C , 23-C ) :   1.1340 B( 21-N , 22-N ) :   1.2781
B( 23-C , 24-C ) :   1.6582 B( 23-C , 61-H ) :   0.9524 B( 24-C , 25-C ) :   1.1635
B( 24-C , 62-H ) :   0.9773 B( 25-C , 26-S ) :   1.1053 B( 25-C , 29-C ) :   1.4508
B( 26-S , 27-C ) :   1.1976 B( 27-C , 28-C ) :   1.5476 B( 27-C , 63-H ) :   0.9668
B( 28-C , 29-C ) :   1.2242 B( 28-C , 64-H ) :   1.0000 B( 29-C , 30-O ) :   1.1084
B( 30-O , 31-C ) :   1.0846 B( 31-C , 32-C ) :   1.7435 B( 31-C , 65-H ) :   0.9545
B( 32-C , 33-C ) :   1.1052 B( 32-C , 66-H ) :   0.9515 B( 33-C , 34-S ) :   1.1145
B( 33-C , 37-N ) :   1.6482 B( 34-S , 35-C ) :   1.0764 B( 34-S , 36-N ) :   0.1004
B( 35-C , 36-N ) :   1.6791 B( 35-C , 38-C ) :   1.1014 B( 36-N , 37-N ) :   1.2413
B( 38-C , 39-C ) :   1.7097 B( 38-C , 67-H ) :   0.9593 B( 39-C , 40-C ) :   1.1067
B( 39-C , 68-H ) :   0.9533 B( 40-C , 41-C ) :   1.6352 B( 40-C , 69-H ) :   0.9581
B( 41-C , 42-C ) :   0.9380 B( 41-C , 46-C ) :   1.0351 B( 42-C , 43-O ) :   2.2821
B( 42-C , 44-C ) :   0.9229 B( 44-C , 45-C ) :   1.3283 B( 44-C , 55-C ) :   1.3728
B( 45-C , 46-C ) :   1.0050 B( 45-C , 52-C ) :   1.3691 B( 46-C , 47-C ) :   1.6670
B( 47-C , 48-C ) :   1.1486 B( 47-C , 50-C ) :   1.1294 B( 48-C , 49-N ) :   3.0174
B( 50-C , 51-N ) :   2.9873 B( 52-C , 53-C ) :   1.3678 B( 52-C , 70-H ) :   0.9830
B( 53-C , 54-C ) :   1.4207 B( 53-C , 57-Br) :   1.0543 B( 54-C , 55-C ) :   1.3566
B( 54-C , 56-Br) :   1.0358 B( 55-C , 71-H ) :   1.0080

-----------------------------------------------------------------------------
         ABSORPTION SPECTRUM VIA TRANSITION ELECTRIC DIPOLE MOMENTS
-----------------------------------------------------------------------------
State   Energy  Wavelength   fosc         T2         TX        TY        TZ
        (cm-1)    (nm)                  (au**2)     (au)      (au)      (au)
-----------------------------------------------------------------------------
   0   19989.9    500.3   1.583631512  26.08071  -2.25362  -4.55356   0.51677
   1   21933.8    455.9   0.394834750   5.92622   0.19846   1.68145  -1.74916
   2   22570.6    443.1   0.082754877   1.20705  -0.65430  -0.05082  -0.88111
   3   27015.6    370.2   0.004020065   0.04899  -0.03749   0.14014  -0.16717
   4   27332.5    365.9   0.092734931   1.11697  -0.59997   0.00744   0.87003
   5   27391.9    365.1   0.005481654   0.06588  -0.09699  -0.11246   0.20935
   6   27657.4    361.6   0.018977943   0.22590   0.11719  -0.36353  -0.28287
   7   27896.4    358.5   0.026000540   0.30684  -0.50025   0.17893  -0.15674
   8   28705.7    348.4   0.079488904   0.91162  -0.35871   0.84855  -0.25080
   9   29269.0    341.7   0.382685810   4.30437   0.46747  -0.03232   2.02109
  10   29688.7    336.8   0.403222215   4.47125  -1.13129  -1.73255   0.43553
  11   30128.4    331.9   0.229502222   2.50776   0.98582   1.04526  -0.66586
  12   30403.9    328.9   0.061581679   0.66680   0.43797   0.40122   0.56036
  13   31763.1    314.8   0.172077631   1.78351  -0.45116  -1.15970   0.48484
  14   32562.1    307.1   0.053502868   0.54093   0.33838  -0.14711  -0.63623
  15   32614.6    306.6   0.058264883   0.58813  -0.65762  -0.39235   0.04154
  16   33466.7    298.8   0.015091277   0.14845  -0.12780   0.28037   0.23133
  17   34296.6    291.6   0.187538092   1.80017  -0.35116  -0.75437   1.05252
  18   34533.4    289.6   0.124366747   1.18561  -0.23648   0.39835  -0.98539
  19   34587.6    289.1   0.198465198   1.88903  -0.86527  -0.57150  -0.90206
  20   35092.3    285.0   0.649035117   6.08881  -1.14302  -0.88233   2.00095
  21   35451.8    282.1   0.321855087   2.98881  -0.66690   1.58530  -0.17573
  22   35537.1    281.4   0.254054963   2.35354   0.93305   0.32917   1.17243
  23   35894.9    278.6   0.096892560   0.88865  -0.26729  -0.89142  -0.15025
  24   36768.2    272.0   0.085856162   0.76873   0.08420   0.09483   0.86755
  25   37068.6    269.8   0.021916800   0.19465   0.16116   0.30772  -0.27200
  26   37130.5    269.3   0.081798742   0.72526  -0.31819  -0.75449   0.23400
  27   37457.2    267.0   0.014722849   0.12940   0.00488  -0.35802  -0.03460
  28   37941.4    263.6   0.030482902   0.26450  -0.20886   0.28191  -0.37603
  29   38063.2    262.7   0.002643992   0.02287   0.14034   0.05181  -0.02211
  30   38225.8    261.6   0.002864246   0.02467   0.13439  -0.07435  -0.03286
  31   38531.7    259.5   0.011599479   0.09911  -0.03877   0.05669   0.30723
  32   38999.3    256.4   0.093685942   0.79085  -0.49672  -0.71545  -0.17959
  33   39490.3    253.2   0.153951364   1.28342  -0.66392  -0.65198  -0.64618
  34   39904.4    250.6   0.003538152   0.02919   0.10960   0.02831   0.12797
  35   40081.9    249.5   0.010599033   0.08705   0.12069   0.26063  -0.06754
  36   40203.1    248.7   0.324554207   2.65769   0.03729   1.32581   0.94791

FINAL SINGLE POINT ENERGY    -13683.473915013314

DIPOLE MOMENT
-------------
                                X             Y             Z
Electronic contribution:     27.11734     -38.55432     120.96197
Nuclear contribution   :    -28.41916      37.50109    -121.38262
                        -----------------------------------------
Total Dipole Moment    :     -1.30182      -1.05322      -0.42065
                        -----------------------------------------
Magnitude (a.u.)       :      1.72654
Magnitude (Debye)      :      4.38853

Rotational constants in cm-1:     0.001437     0.000152     0.000140
Rotational constants in MHz :    43.076063     4.564038     4.205881

                             ****ORCA TERMINATED NORMALLY****
TOTAL RUN TIME: 0 days 0 hours 7 minutes 38 seconds 897 msec
