                         Program Version 4.2.0 -  RELEASE  -
|  1> # ORCA input file
|  2> # SCF done       -202.655067278287          0.000936403244
|  3> ! CAM-B3LYP def2-SVP def2/J RIJCOSX Grid4 TightSCF
|  4> %maxcore 5000
|  5> %tddft
|  6>     Mode sTDDFT
|  7>     Ethresh 5.0
|  8>     maxcore 5000
|  9> end
| 10>
| 11> %pal
| 12>   nprocs 6
| 13>   end
| 14> * xyz 0 1
| 15>    C       -0.57040        -2.18532        -2.06350
| 16>    O        0.21791        -3.04943        -1.78336
| 17>    C       -0.42429        -1.18998        -3.15238
| 18>    C       -1.49701        -0.28286        -3.12857
| 19>    C       -1.54375         0.74669        -4.05663
| 20>    C       -0.52232         0.84654        -4.99320
| 21>    C        0.53823        -0.06385        -5.01081
| 22>    C        0.59302        -1.09189        -4.07918
| 23>   Br        1.90906         0.09452        -6.29935
| 24>   Br       -0.58580         2.24866        -6.25813
| 25>    C       -2.40625        -0.64965        -2.04710
| 26>    C       -3.60227        -0.04243        -1.77918
| 27>    C       -4.10591         1.06380        -2.50012
| 28>    N       -4.56463         1.96632        -3.03910
| 29>    C       -4.51816        -0.42809        -0.77477
| 30>    N       -5.32078        -0.67316         0.00785
| 31>    C       -1.83843        -1.80651        -1.36665
| 32>    C       -2.31830        -2.35975        -0.22461
| 33>    C       -1.86694        -3.54624         0.41861
| 34>    O       -2.31460        -3.75159         1.70250
| 35>    C       -1.79530        -4.93810         2.06315
| 36>    C       -1.04630        -5.43204         0.94916
| 37>    N       -1.13575        -4.51303        -0.04674
| 38>    C       -0.37682        -6.64932         0.98859
| 39>    C       -0.48834        -7.32746         2.18688
| 40>    C       -1.23963        -6.80924         3.28678
| 41>    C       -1.91651        -5.60757         3.26628
| 42>    O       -1.13952        -7.69745         4.29664
| 43>    C       -0.34999        -8.70161         3.80253
| 44>    N        0.04762        -8.52544         2.58140
| 45>    C       -0.04070        -9.79040         4.66635
| 46>    S       -0.61995        -9.73871         6.29689
| 47>    C        0.18707       -11.23158         6.63840
| 48>    C        0.84236       -11.74301         5.54334
| 49>    C        0.70209       -10.92242         4.39923
| 50>    C        1.35041       -11.18579         3.08147
| 51>    C        2.73642       -10.53577         3.04324
| 52>    C        1.50262       -13.08565         5.54473
| 53>    C        0.50373       -14.16545         5.12077
| 54>    C        0.17387       -11.74535         7.99433
| 55>    C       -0.98636       -12.17653         8.65670
| 56>    C       -2.27766       -12.32146         7.95130
| 57>    O       -2.51487       -12.09901         6.80385
| 58>    S       -3.49128       -12.98178         9.09366
| 59>    C       -2.31485       -13.09892        10.44150
| 60>    O       -2.60086       -13.57965        11.49614
| 61>    C       -1.00200       -12.57412         9.99517
| 62>    C        0.15889       -12.56142        10.78990
| 63>    C        1.32652       -12.21227        10.09661
| 64>    C        1.33737       -11.81599         8.76600
| 65>    C        2.73103       -11.43557         8.42577
| 66>    O        3.19468       -11.02182         7.41314
| 67>    O        3.48787       -11.64756         9.56121
| 68>    C        2.71979       -12.10027        10.59319
| 69>    O        3.16419       -12.34279        11.67558
| 70>    C        0.25759       -12.80896        12.21189
| 71>    C       -0.61034       -12.37927        13.13970
| 72>    C       -0.38840       -12.54037        14.54993
| 73>    C        0.76100       -12.38140        15.23863
| 74>    C        0.84794       -12.89953        16.64186
| 75>    O       -0.07182       -13.25474        17.33425
| 76>    C        2.29128       -12.92575        16.94834
| 77>    C        3.00867       -12.33450        15.89099
| 78>    C        2.07073       -11.84530        14.88425
| 79>    C        2.36126       -10.88954        13.95526
| 80>    C        1.44144       -10.30514        13.06113
| 81>    N        0.76710        -9.77865        12.29601
| 82>    C        3.64165       -10.30444        13.80858
| 83>    N        4.64851        -9.77566        13.66753
| 84>    C        4.39266       -12.29140        15.93588
| 85>    C        5.03811       -12.81967        17.04732
| 86>    C        4.31695       -13.38420        18.10494
| 87>    C        2.93064       -13.44533        18.05628
| 88>   Br        5.22043       -14.07860        19.61024
| 89>   Br        6.92413       -12.76928        17.11084
| 90>    H       -2.34151         1.47128        -4.07240
| 91>    H        1.40728        -1.79984        -4.07706
| 92>    H       -3.13394        -1.88121         0.30229
| 93>    H        0.19010        -7.02107         0.15437
| 94>    H       -2.47896        -5.22997         4.10218
| 95>    H        0.73966       -10.75401         2.28923
| 96>    H        1.44142       -12.25991         2.92058
| 97>    H        2.63475        -9.45570         3.09336
| 98>    H        3.24231       -10.79357         2.11693
| 99>    H        3.34348       -10.86804         3.88225
|100>    H        1.87732       -13.31658         6.54312
|101>    H        2.35185       -13.07620         4.86245
|102>    H       -0.34181       -14.18897         5.80520
|103>    H        0.98093       -15.14220         5.12240
|104>    H        0.12269       -13.96546         4.12279
|105>    H        1.18118       -13.27641        12.52895
|106>    H       -1.54721       -11.92061        12.85758
|107>    H       -1.24621       -12.86040        15.13483
|108>    H        4.97658       -11.87702        15.12992
|109>    H        2.36577       -13.88715        18.86245
|110> *
|111>
|112>                          ****END OF INPUT****

CARTESIAN COORDINATES (ANGSTROEM)
---------------------------------
  C     -0.570400   -2.185320   -2.063500
  O      0.217910   -3.049430   -1.783360
  C     -0.424290   -1.189980   -3.152380
  C     -1.497010   -0.282860   -3.128570
  C     -1.543750    0.746690   -4.056630
  C     -0.522320    0.846540   -4.993200
  C      0.538230   -0.063850   -5.010810
  C      0.593020   -1.091890   -4.079180
  Br     1.909060    0.094520   -6.299350
  Br    -0.585800    2.248660   -6.258130
  C     -2.406250   -0.649650   -2.047100
  C     -3.602270   -0.042430   -1.779180
  C     -4.105910    1.063800   -2.500120
  N     -4.564630    1.966320   -3.039100
  C     -4.518160   -0.428090   -0.774770
  N     -5.320780   -0.673160    0.007850
  C     -1.838430   -1.806510   -1.366650
  C     -2.318300   -2.359750   -0.224610
  C     -1.866940   -3.546240    0.418610
  O     -2.314600   -3.751590    1.702500
  C     -1.795300   -4.938100    2.063150
  C     -1.046300   -5.432040    0.949160
  N     -1.135750   -4.513030   -0.046740
  C     -0.376820   -6.649320    0.988590
  C     -0.488340   -7.327460    2.186880
  C     -1.239630   -6.809240    3.286780
  C     -1.916510   -5.607570    3.266280
  O     -1.139520   -7.697450    4.296640
  C     -0.349990   -8.701610    3.802530
  N      0.047620   -8.525440    2.581400
  C     -0.040700   -9.790400    4.666350
  S     -0.619950   -9.738710    6.296890
  C      0.187070  -11.231580    6.638400
  C      0.842360  -11.743010    5.543340
  C      0.702090  -10.922420    4.399230
  C      1.350410  -11.185790    3.081470
  C      2.736420  -10.535770    3.043240
  C      1.502620  -13.085650    5.544730
  C      0.503730  -14.165450    5.120770
  C      0.173870  -11.745350    7.994330
  C     -0.986360  -12.176530    8.656700
  C     -2.277660  -12.321460    7.951300
  O     -2.514870  -12.099010    6.803850
  S     -3.491280  -12.981780    9.093660
  C     -2.314850  -13.098920   10.441500
  O     -2.600860  -13.579650   11.496140
  C     -1.002000  -12.574120    9.995170
  C      0.158890  -12.561420   10.789900
  C      1.326520  -12.212270   10.096610
  C      1.337370  -11.815990    8.766000
  C      2.731030  -11.435570    8.425770
  O      3.194680  -11.021820    7.413140
  O      3.487870  -11.647560    9.561210
  C      2.719790  -12.100270   10.593190
  O      3.164190  -12.342790   11.675580
  C      0.257590  -12.808960   12.211890
  C     -0.610340  -12.379270   13.139700
  C     -0.388400  -12.540370   14.549930
  C      0.761000  -12.381400   15.238630
  C      0.847940  -12.899530   16.641860
  O     -0.071820  -13.254740   17.334250
  C      2.291280  -12.925750   16.948340
  C      3.008670  -12.334500   15.890990
  C      2.070730  -11.845300   14.884250
  C      2.361260  -10.889540   13.955260
  C      1.441440  -10.305140   13.061130
  N      0.767100   -9.778650   12.296010
  C      3.641650  -10.304440   13.808580
  N      4.648510   -9.775660   13.667530
  C      4.392660  -12.291400   15.935880
  C      5.038110  -12.819670   17.047320
  C      4.316950  -13.384200   18.104940
  C      2.930640  -13.445330   18.056280
  Br     5.220430  -14.078600   19.610240
  Br     6.924130  -12.769280   17.110840
  H     -2.341510    1.471280   -4.072400
  H      1.407280   -1.799840   -4.077060
  H     -3.133940   -1.881210    0.302290
  H      0.190100   -7.021070    0.154370
  H     -2.478960   -5.229970    4.102180
  H      0.739660  -10.754010    2.289230
  H      1.441420  -12.259910    2.920580
  H      2.634750   -9.455700    3.093360
  H      3.242310  -10.793570    2.116930
  H      3.343480  -10.868040    3.882250
  H      1.877320  -13.316580    6.543120
  H      2.351850  -13.076200    4.862450
  H     -0.341810  -14.188970    5.805200
  H      0.980930  -15.142200    5.122400
  H      0.122690  -13.965460    4.122790
  H      1.181180  -13.276410   12.528950
  H     -1.547210  -11.920610   12.857580
  H     -1.246210  -12.860400   15.134830
  H      4.976580  -11.877020   15.129920
  H      2.365770  -13.887150   18.862450

 Total Charge           Charge          ....    0
 Multiplicity           Mult            ....    1
 Number of Electrons    NEL             ....  630
 Basis Dimension        Dim             .... 1230

ORBITAL ENERGIES
----------------

  NO   OCC          E(Eh)            E(eV)
   0   2.0000    -482.883299    -13139.9226
   1   2.0000    -482.881847    -13139.8831
   2   2.0000    -482.880219    -13139.8388
   3   2.0000    -482.878525    -13139.7927
   4   2.0000     -88.967246     -2420.9218
   5   2.0000     -88.965839     -2420.8835
   6   2.0000     -62.560913     -1702.3690
   7   2.0000     -62.559479     -1702.3300
   8   2.0000     -62.557796     -1702.2842
   9   2.0000     -62.556098     -1702.2380
  10   2.0000     -56.394868     -1534.5824
  11   2.0000     -56.393445     -1534.5437
  12   2.0000     -56.392207     -1534.5100
  13   2.0000     -56.392111     -1534.5074
  14   2.0000     -56.391745     -1534.4974
  15   2.0000     -56.390770     -1534.4709
  16   2.0000     -56.390664     -1534.4680
  17   2.0000     -56.390063     -1534.4516
  18   2.0000     -56.389100     -1534.4254
  19   2.0000     -56.388994     -1534.4225
  20   2.0000     -56.387391     -1534.3789
  21   2.0000     -56.387294     -1534.3763
  22   2.0000     -19.310174      -525.4565
  23   2.0000     -19.308470      -525.4102
  24   2.0000     -19.307989      -525.3971
  25   2.0000     -19.260004      -524.0914
  26   2.0000     -19.257947      -524.0354
  27   2.0000     -19.256541      -523.9971
  28   2.0000     -19.256276      -523.9899
  29   2.0000     -19.234330      -523.3927
  30   2.0000     -19.223741      -523.1046
  31   2.0000     -14.434200      -392.7745
  32   2.0000     -14.428489      -392.6192
  33   2.0000     -14.426588      -392.5674
  34   2.0000     -14.425935      -392.5497
  35   2.0000     -14.421979      -392.4420
  36   2.0000     -14.414746      -392.2452
  37   2.0000     -10.453768      -284.4615
  38   2.0000     -10.449230      -284.3380
  39   2.0000     -10.422534      -283.6116
  40   2.0000     -10.418845      -283.5112
  41   2.0000     -10.385448      -282.6024
  42   2.0000     -10.384914      -282.5879
  43   2.0000     -10.380312      -282.4626
  44   2.0000     -10.377247      -282.3792
  45   2.0000     -10.362029      -281.9652
  46   2.0000     -10.361911      -281.9619
  47   2.0000     -10.361350      -281.9467
  48   2.0000     -10.359245      -281.8894
  49   2.0000     -10.357787      -281.8497
  50   2.0000     -10.357275      -281.8358
  51   2.0000     -10.357209      -281.8340
  52   2.0000     -10.355301      -281.7821
  53   2.0000     -10.355030      -281.7747
  54   2.0000     -10.353925      -281.7446
  55   2.0000     -10.353607      -281.7360
  56   2.0000     -10.352524      -281.7065
  57   2.0000     -10.346914      -281.5538
  58   2.0000     -10.345349      -281.5113
  59   2.0000     -10.344834      -281.4972
  60   2.0000     -10.343528      -281.4617
  61   2.0000     -10.336557      -281.2720
  62   2.0000     -10.331694      -281.1397
  63   2.0000     -10.330274      -281.1011
  64   2.0000     -10.329988      -281.0933
  65   2.0000     -10.328296      -281.0472
  66   2.0000     -10.327792      -281.0335
  67   2.0000     -10.327329      -281.0209
  68   2.0000     -10.322824      -280.8983
  69   2.0000     -10.320551      -280.8365
  70   2.0000     -10.320277      -280.8290
  71   2.0000     -10.319457      -280.8067
  72   2.0000     -10.319251      -280.8011
  73   2.0000     -10.316582      -280.7285
  74   2.0000     -10.316188      -280.7177
  75   2.0000     -10.315747      -280.7058
  76   2.0000     -10.315478      -280.6984
  77   2.0000     -10.314698      -280.6772
  78   2.0000     -10.314612      -280.6749
  79   2.0000     -10.314497      -280.6717
  80   2.0000     -10.313531      -280.6454
  81   2.0000     -10.311278      -280.5841
  82   2.0000     -10.307369      -280.4778
  83   2.0000     -10.300724      -280.2970
  84   2.0000     -10.291502      -280.0460
  85   2.0000     -10.290630      -280.0223
  86   2.0000     -10.290333      -280.0142
  87   2.0000     -10.282021      -279.7880
  88   2.0000     -10.267275      -279.3868
  89   2.0000     -10.265177      -279.3297
  90   2.0000     -10.251022      -278.9445
  91   2.0000      -8.790246      -239.1947
  92   2.0000      -8.788820      -239.1559
  93   2.0000      -8.787103      -239.1092
  94   2.0000      -8.785400      -239.0629
  95   2.0000      -8.065121      -219.4631
  96   2.0000      -8.062536      -219.3928
  97   2.0000      -6.626403      -180.3136
  98   2.0000      -6.625012      -180.2757
  99   2.0000      -6.623208      -180.2266
 100   2.0000      -6.621549      -180.1815
 101   2.0000      -6.612361      -179.9315
 102   2.0000      -6.611558      -179.9096
 103   2.0000      -6.610937      -179.8927
 104   2.0000      -6.610103      -179.8701
 105   2.0000      -6.609262      -179.8472
 106   2.0000      -6.608426      -179.8244
 107   2.0000      -6.607502      -179.7993
 108   2.0000      -6.606727      -179.7782
 109   2.0000      -6.033936      -164.1918
 110   2.0000      -6.031892      -164.1361
 111   2.0000      -6.030694      -164.1035
 112   2.0000      -6.027746      -164.0233
 113   2.0000      -6.026209      -163.9815
 114   2.0000      -6.024473      -163.9343
 115   2.0000      -2.742294       -74.6216
 116   2.0000      -2.740898       -74.5836
 117   2.0000      -2.739175       -74.5367
 118   2.0000      -2.738551       -74.5198
 119   2.0000      -2.737914       -74.5024
 120   2.0000      -2.737499       -74.4911
 121   2.0000      -2.737135       -74.4812
 122   2.0000      -2.736489       -74.4637
 123   2.0000      -2.735361       -74.4330
 124   2.0000      -2.734719       -74.4155
 125   2.0000      -2.733657       -74.3866
 126   2.0000      -2.733056       -74.3702
 127   2.0000      -2.726739       -74.1984
 128   2.0000      -2.726732       -74.1982
 129   2.0000      -2.725294       -74.1590
 130   2.0000      -2.725261       -74.1581
 131   2.0000      -2.723622       -74.1135
 132   2.0000      -2.723618       -74.1134
 133   2.0000      -2.721876       -74.0660
 134   2.0000      -2.721869       -74.0658
 135   2.0000      -1.260244       -34.2930
 136   2.0000      -1.238955       -33.7137
 137   2.0000      -1.237464       -33.6731
 138   2.0000      -1.185881       -32.2695
 139   2.0000      -1.183963       -32.2173
 140   2.0000      -1.179341       -32.0915
 141   2.0000      -1.150892       -31.3174
 142   2.0000      -1.148395       -31.2494
 143   2.0000      -1.142103       -31.0782
 144   2.0000      -1.037816       -28.2404
 145   2.0000      -1.035497       -28.1773
 146   2.0000      -1.035019       -28.1643
 147   2.0000      -1.032494       -28.0956
 148   2.0000      -1.028692       -27.9921
 149   2.0000      -1.020566       -27.7710
 150   2.0000      -1.015707       -27.6388
 151   2.0000      -1.007474       -27.4148
 152   2.0000      -1.005607       -27.3640
 153   2.0000      -1.001785       -27.2600
 154   2.0000      -0.987955       -26.8836
 155   2.0000      -0.984284       -26.7837
 156   2.0000      -0.969409       -26.3790
 157   2.0000      -0.965034       -26.2599
 158   2.0000      -0.952698       -25.9242
 159   2.0000      -0.931518       -25.3479
 160   2.0000      -0.927953       -25.2509
 161   2.0000      -0.925839       -25.1934
 162   2.0000      -0.920018       -25.0350
 163   2.0000      -0.918497       -24.9936
 164   2.0000      -0.914126       -24.8746
 165   2.0000      -0.902676       -24.5631
 166   2.0000      -0.898945       -24.4615
 167   2.0000      -0.887262       -24.1436
 168   2.0000      -0.880489       -23.9593
 169   2.0000      -0.874341       -23.7920
 170   2.0000      -0.861599       -23.4453
 171   2.0000      -0.858234       -23.3537
 172   2.0000      -0.857319       -23.3288
 173   2.0000      -0.852693       -23.2030
 174   2.0000      -0.846286       -23.0286
 175   2.0000      -0.822471       -22.3806
 176   2.0000      -0.817054       -22.2332
 177   2.0000      -0.807678       -21.9780
 178   2.0000      -0.802615       -21.8403
 179   2.0000      -0.791367       -21.5342
 180   2.0000      -0.784944       -21.3594
 181   2.0000      -0.780609       -21.2414
 182   2.0000      -0.774109       -21.0646
 183   2.0000      -0.771362       -20.9898
 184   2.0000      -0.757153       -20.6032
 185   2.0000      -0.740651       -20.1541
 186   2.0000      -0.734667       -19.9913
 187   2.0000      -0.723380       -19.6842
 188   2.0000      -0.722866       -19.6702
 189   2.0000      -0.713370       -19.4118
 190   2.0000      -0.711741       -19.3674
 191   2.0000      -0.706325       -19.2201
 192   2.0000      -0.703690       -19.1484
 193   2.0000      -0.700713       -19.0674
 194   2.0000      -0.697010       -18.9666
 195   2.0000      -0.696587       -18.9551
 196   2.0000      -0.682610       -18.5748
 197   2.0000      -0.677462       -18.4347
 198   2.0000      -0.668313       -18.1857
 199   2.0000      -0.657222       -17.8839
 200   2.0000      -0.653755       -17.7896
 201   2.0000      -0.650932       -17.7128
 202   2.0000      -0.642678       -17.4881
 203   2.0000      -0.640762       -17.4360
 204   2.0000      -0.634924       -17.2772
 205   2.0000      -0.630164       -17.1476
 206   2.0000      -0.622777       -16.9466
 207   2.0000      -0.622010       -16.9258
 208   2.0000      -0.619737       -16.8639
 209   2.0000      -0.617444       -16.8015
 210   2.0000      -0.606953       -16.5160
 211   2.0000      -0.602814       -16.4034
 212   2.0000      -0.594176       -16.1683
 213   2.0000      -0.593517       -16.1504
 214   2.0000      -0.591548       -16.0968
 215   2.0000      -0.584250       -15.8983
 216   2.0000      -0.581228       -15.8160
 217   2.0000      -0.579772       -15.7764
 218   2.0000      -0.573351       -15.6017
 219   2.0000      -0.571459       -15.5502
 220   2.0000      -0.570854       -15.5337
 221   2.0000      -0.567989       -15.4558
 222   2.0000      -0.567268       -15.4361
 223   2.0000      -0.559834       -15.2339
 224   2.0000      -0.557801       -15.1785
 225   2.0000      -0.555748       -15.1227
 226   2.0000      -0.554795       -15.0967
 227   2.0000      -0.552429       -15.0324
 228   2.0000      -0.550694       -14.9851
 229   2.0000      -0.550089       -14.9687
 230   2.0000      -0.549968       -14.9654
 231   2.0000      -0.547165       -14.8891
 232   2.0000      -0.543737       -14.7958
 233   2.0000      -0.541712       -14.7407
 234   2.0000      -0.538625       -14.6567
 235   2.0000      -0.535979       -14.5847
 236   2.0000      -0.532250       -14.4833
 237   2.0000      -0.529214       -14.4006
 238   2.0000      -0.526286       -14.3210
 239   2.0000      -0.524154       -14.2629
 240   2.0000      -0.521988       -14.2040
 241   2.0000      -0.517547       -14.0832
 242   2.0000      -0.513674       -13.9778
 243   2.0000      -0.510700       -13.8969
 244   2.0000      -0.508722       -13.8430
 245   2.0000      -0.506300       -13.7771
 246   2.0000      -0.504291       -13.7225
 247   2.0000      -0.503552       -13.7023
 248   2.0000      -0.499471       -13.5913
 249   2.0000      -0.498227       -13.5575
 250   2.0000      -0.495665       -13.4877
 251   2.0000      -0.495066       -13.4714
 252   2.0000      -0.493236       -13.4216
 253   2.0000      -0.489959       -13.3325
 254   2.0000      -0.488035       -13.2801
 255   2.0000      -0.482800       -13.1377
 256   2.0000      -0.476604       -12.9690
 257   2.0000      -0.472069       -12.8456
 258   2.0000      -0.468955       -12.7609
 259   2.0000      -0.467996       -12.7348
 260   2.0000      -0.467439       -12.7197
 261   2.0000      -0.466184       -12.6855
 262   2.0000      -0.465600       -12.6696
 263   2.0000      -0.458956       -12.4888
 264   2.0000      -0.458336       -12.4719
 265   2.0000      -0.456419       -12.4198
 266   2.0000      -0.453947       -12.3525
 267   2.0000      -0.453660       -12.3447
 268   2.0000      -0.450719       -12.2647
 269   2.0000      -0.449272       -12.2253
 270   2.0000      -0.443942       -12.0803
 271   2.0000      -0.443498       -12.0682
 272   2.0000      -0.439500       -11.9594
 273   2.0000      -0.438505       -11.9323
 274   2.0000      -0.437492       -11.9048
 275   2.0000      -0.435808       -11.8589
 276   2.0000      -0.433960       -11.8087
 277   2.0000      -0.430848       -11.7240
 278   2.0000      -0.429488       -11.6870
 279   2.0000      -0.428295       -11.6545
 280   2.0000      -0.423842       -11.5333
 281   2.0000      -0.421970       -11.4824
 282   2.0000      -0.419992       -11.4286
 283   2.0000      -0.416344       -11.3293
 284   2.0000      -0.413193       -11.2435
 285   2.0000      -0.410884       -11.1807
 286   2.0000      -0.408667       -11.1204
 287   2.0000      -0.406698       -11.0668
 288   2.0000      -0.403135       -10.9699
 289   2.0000      -0.398428       -10.8418
 290   2.0000      -0.396385       -10.7862
 291   2.0000      -0.395341       -10.7578
 292   2.0000      -0.393168       -10.6987
 293   2.0000      -0.391195       -10.6450
 294   2.0000      -0.387949       -10.5566
 295   2.0000      -0.383973       -10.4484
 296   2.0000      -0.382345       -10.4041
 297   2.0000      -0.371882       -10.1194
 298   2.0000      -0.369304       -10.0493
 299   2.0000      -0.363690        -9.8965
 300   2.0000      -0.362052        -9.8519
 301   2.0000      -0.357756        -9.7350
 302   2.0000      -0.354721        -9.6524
 303   2.0000      -0.350589        -9.5400
 304   2.0000      -0.350386        -9.5345
 305   2.0000      -0.343491        -9.3469
 306   2.0000      -0.338694        -9.2163
 307   2.0000      -0.333494        -9.0748
 308   2.0000      -0.331092        -9.0095
 309   2.0000      -0.321660        -8.7528
 310   2.0000      -0.316504        -8.6125
 311   2.0000      -0.314857        -8.5677
 312   2.0000      -0.314676        -8.5628
 313   2.0000      -0.299327        -8.1451
 314   2.0000      -0.274943        -7.4816
 315   0.0000      -0.111435        -3.0323
 316   0.0000      -0.106938        -2.9099
 317   0.0000      -0.104904        -2.8546
 318   0.0000      -0.081268        -2.2114
 319   0.0000      -0.072048        -1.9605

MULLIKEN ATOMIC CHARGES
-----------------------
   0 C :    0.144782
   1 O :   -0.084928
   2 C :   -0.027620
   3 C :    0.037719
   4 C :   -0.006708
   5 C :   -0.026847
   6 C :   -0.013292
   7 C :   -0.016868
   8 Br:    0.019235
   9 Br:    0.024596
  10 C :    0.301865
  11 C :   -0.334988
  12 C :   -0.186135
  13 N :    0.166141
  14 C :   -0.195053
  15 N :    0.172509
  16 C :   -0.050828
  17 C :   -0.044126
  18 C :    0.084889
  19 O :   -0.193563
  20 C :    0.220710
  21 C :   -0.003462
  22 N :    0.021088
  23 C :   -0.076806
  24 C :    0.042100
  25 C :    0.222007
  26 C :   -0.157315
  27 O :   -0.205334
  28 C :    0.139278
  29 N :   -0.060675
  30 C :   -0.157413
  31 S :    0.203713
  32 C :   -0.205470
  33 C :   -0.005101
  34 C :   -0.104334
  35 C :    0.102715
  36 C :    0.027381
  37 C :    0.091217
  38 C :    0.033502
  39 C :   -0.016632
  40 C :    0.059925
  41 C :    0.030340
  42 O :   -0.104002
  43 S :    0.033049
  44 C :    0.027122
  45 O :   -0.119267
  46 C :    0.017183
  47 C :    0.050431
  48 C :   -0.047777
  49 C :   -0.055050
  50 C :    0.238777
  51 O :   -0.073881
  52 O :   -0.219057
  53 C :    0.252251
  54 O :   -0.124858
  55 C :   -0.041494
  56 C :    0.069724
  57 C :    0.002748
  58 C :   -0.105519
  59 C :    0.135307
  60 O :   -0.123243
  61 C :    0.000900
  62 C :    0.013242
  63 C :    0.278173
  64 C :   -0.301078
  65 C :   -0.204035
  66 N :    0.164642
  67 C :   -0.186981
  68 N :    0.178845
  69 C :   -0.002179
  70 C :   -0.026210
  71 C :   -0.015687
  72 C :   -0.018895
  73 Br:    0.020488
  74 Br:    0.028590
  75 H :    0.009767
  76 H :    0.010086
  77 H :    0.035999
  78 H :   -0.015782
  79 H :   -0.007198
  80 H :    0.020430
  81 H :   -0.006938
  82 H :    0.019415
  83 H :    0.013951
  84 H :    0.014790
  85 H :   -0.012836
  86 H :    0.015717
  87 H :    0.005778
  88 H :    0.018561
  89 H :    0.018658
  90 H :    0.041179
  91 H :    0.030297
  92 H :    0.043569
  93 H :    0.019860
  94 H :    0.010229
Sum of atomic charges:   -0.0000000

LOEWDIN ATOMIC CHARGES
----------------------
   0 C :    0.075187
   1 O :   -0.092782
   2 C :   -0.040285
   3 C :   -0.015341
   4 C :   -0.006697
   5 C :   -0.119067
   6 C :   -0.120538
   7 C :    0.007062
   8 Br:    0.142250
   9 Br:    0.143786
  10 C :    0.070921
  11 C :   -0.121996
  12 C :   -0.019095
  13 N :   -0.036822
  14 C :   -0.023523
  15 N :   -0.034964
  16 C :   -0.057478
  17 C :    0.043426
  18 C :    0.042292
  19 O :   -0.003073
  20 C :    0.041375
  21 C :   -0.039974
  22 N :   -0.044176
  23 C :   -0.008315
  24 C :   -0.031882
  25 C :    0.046060
  26 C :   -0.062274
  27 O :   -0.014527
  28 C :    0.062895
  29 N :   -0.102900
  30 C :   -0.204390
  31 S :    0.473587
  32 C :   -0.181766
  33 C :   -0.028807
  34 C :   -0.010395
  35 C :   -0.031289
  36 C :   -0.043962
  37 C :   -0.027808
  38 C :   -0.045990
  39 C :    0.013020
  40 C :   -0.047409
  41 C :   -0.051910
  42 O :   -0.098400
  43 S :    0.315713
  44 C :   -0.046805
  45 O :   -0.108886
  46 C :   -0.049632
  47 C :    0.037857
  48 C :   -0.038753
  49 C :   -0.036193
  50 C :    0.111457
  51 O :   -0.075702
  52 O :   -0.045194
  53 C :    0.114503
  54 O :   -0.105050
  55 C :   -0.008380
  56 C :    0.020645
  57 C :    0.064591
  58 C :   -0.070697
  59 C :    0.085296
  60 O :   -0.123551
  61 C :   -0.046853
  62 C :   -0.007601
  63 C :    0.063678
  64 C :   -0.112747
  65 C :   -0.012267
  66 N :   -0.052907
  67 C :   -0.021183
  68 N :   -0.032350
  69 C :   -0.004351
  70 C :   -0.116297
  71 C :   -0.122796
  72 C :    0.009023
  73 Br:    0.142752
  74 Br:    0.148287
  75 H :    0.044793
  76 H :    0.047347
  77 H :    0.054310
  78 H :    0.046376
  79 H :    0.046562
  80 H :    0.033971
  81 H :    0.023323
  82 H :    0.026392
  83 H :    0.024794
  84 H :    0.022989
  85 H :    0.022515
  86 H :    0.033252
  87 H :    0.022525
  88 H :    0.025555
  89 H :    0.026663
  90 H :    0.038912
  91 H :    0.040941
  92 H :    0.053706
  93 H :    0.047757
  94 H :    0.047686

  Mayer bond orders larger than 0.100000
B(  0-C ,  1-O ) :   2.3029 B(  0-C ,  2-C ) :   0.9355 B(  0-C , 16-C ) :   0.9036
B(  2-C ,  3-C ) :   1.3290 B(  2-C ,  7-C ) :   1.3755 B(  3-C ,  4-C ) :   1.3554
B(  3-C , 10-C ) :   1.0005 B(  4-C ,  5-C ) :   1.3817 B(  4-C , 75-H ) :   0.9779
B(  5-C ,  6-C ) :   1.4114 B(  5-C ,  9-Br) :   1.0596 B(  6-C ,  7-C ) :   1.3563
B(  6-C ,  8-Br) :   1.0373 B(  7-C , 76-H ) :   1.0067 B( 10-C , 11-C ) :   1.6553
B( 10-C , 16-C ) :   1.0636 B( 11-C , 12-C ) :   1.1383 B( 11-C , 14-C ) :   1.1401
B( 12-C , 13-N ) :   2.9727 B( 14-C , 15-N ) :   2.9813 B( 16-C , 17-C ) :   1.6590
B( 17-C , 18-C ) :   1.1202 B( 17-C , 77-H ) :   0.9258 B( 18-C , 19-O ) :   1.1170
B( 18-C , 22-N ) :   1.7157 B( 19-O , 20-C ) :   1.1335 B( 20-C , 21-C ) :   1.2327
B( 20-C , 26-C ) :   1.2951 B( 21-C , 22-N ) :   1.3288 B( 21-C , 23-C ) :   1.2525
B( 23-C , 24-C ) :   1.3082 B( 23-C , 26-C ) :   0.1482 B( 23-C , 78-H ) :   1.0510
B( 24-C , 25-C ) :   1.2241 B( 24-C , 29-N ) :   1.2698 B( 25-C , 26-C ) :   1.3338
B( 25-C , 27-O ) :   1.1066 B( 26-C , 79-H ) :   1.0461 B( 27-O , 28-C ) :   1.1715
B( 28-C , 29-N ) :   1.7305 B( 28-C , 30-C ) :   1.0412 B( 30-C , 31-S ) :   1.1276
B( 30-C , 32-C ) :   0.1380 B( 30-C , 34-C ) :   1.5667 B( 31-S , 32-C ) :   1.1245
B( 32-C , 33-C ) :   1.5755 B( 32-C , 39-C ) :   0.9806 B( 33-C , 34-C ) :   1.2729
B( 33-C , 37-C ) :   1.0947 B( 34-C , 35-C ) :   1.1055 B( 35-C , 36-C ) :   1.1049
B( 35-C , 80-H ) :   0.8887 B( 35-C , 81-H ) :   0.9067 B( 36-C , 82-H ) :   0.9639
B( 36-C , 83-H ) :   0.9672 B( 36-C , 84-H ) :   0.9681 B( 37-C , 38-C ) :   1.1096
B( 37-C , 85-H ) :   0.9036 B( 37-C , 86-H ) :   0.9102 B( 38-C , 87-H ) :   0.9645
B( 38-C , 88-H ) :   0.9664 B( 38-C , 89-H ) :   0.9677 B( 39-C , 40-C ) :   1.4128
B( 39-C , 49-C ) :   1.3998 B( 40-C , 41-C ) :   0.8323 B( 40-C , 46-C ) :   1.3007
B( 41-C , 42-O ) :   2.1900 B( 41-C , 43-S ) :   1.0234 B( 42-O , 43-S ) :   0.1089
B( 43-S , 44-C ) :   1.0361 B( 43-S , 45-O ) :   0.1081 B( 44-C , 45-O ) :   2.1912
B( 44-C , 46-C ) :   0.8327 B( 46-C , 47-C ) :   1.3592 B( 47-C , 48-C ) :   1.3445
B( 47-C , 55-C ) :   1.0891 B( 48-C , 49-C ) :   1.3499 B( 48-C , 53-C ) :   0.9102
B( 49-C , 50-C ) :   0.8891 B( 50-C , 51-O ) :   2.2809 B( 50-C , 52-O ) :   1.0363
B( 52-O , 53-C ) :   1.0895 B( 53-C , 54-O ) :   2.1643 B( 55-C , 56-C ) :   1.7792
B( 55-C , 90-H ) :   0.9422 B( 56-C , 57-C ) :   1.0787 B( 56-C , 91-H ) :   0.9378
B( 57-C , 58-C ) :   1.7790 B( 57-C , 92-H ) :   0.9267 B( 58-C , 59-C ) :   0.9245
B( 58-C , 63-C ) :   1.0010 B( 59-C , 60-O ) :   2.2864 B( 59-C , 61-C ) :   0.9229
B( 61-C , 62-C ) :   1.3235 B( 61-C , 72-C ) :   1.3637 B( 62-C , 63-C ) :   1.0062
B( 62-C , 69-C ) :   1.3660 B( 63-C , 64-C ) :   1.7025 B( 64-C , 65-C ) :   1.1719
B( 64-C , 67-C ) :   1.1143 B( 65-C , 66-N ) :   2.9666 B( 67-C , 68-N ) :   3.0051
B( 69-C , 70-C ) :   1.3765 B( 69-C , 93-H ) :   0.9817 B( 70-C , 71-C ) :   1.4100
B( 70-C , 74-Br) :   1.0575 B( 71-C , 72-C ) :   1.3636 B( 71-C , 73-Br) :   1.0374
B( 72-C , 94-H ) :   1.0078

-----------------------------------------------------------------------------
         ABSORPTION SPECTRUM VIA TRANSITION ELECTRIC DIPOLE MOMENTS
-----------------------------------------------------------------------------
State   Energy  Wavelength   fosc         T2         TX        TY        TZ
        (cm-1)    (nm)                  (au**2)     (au)      (au)      (au)
-----------------------------------------------------------------------------
   0   18676.1    535.4   0.014515771   0.25588   0.38765   0.24769  -0.21037
   1   21897.5    456.7   1.306495718  19.64212   0.83521  -3.06532   3.09004
   2   23678.0    422.3   0.122836017   1.70787  -0.00606  -0.12667  -1.30069
   3   24182.0    413.5   0.032506537   0.44254  -0.18870  -0.63525   0.05821
   4   24491.5    408.3   0.006600254   0.08872  -0.09920  -0.05030  -0.27631
   5   25503.6    392.1   0.026466652   0.34164   0.39140  -0.17102   0.39900
   6   26751.1    373.8   0.191395400   2.35540   0.39191  -1.37308   0.56255
   7   27095.4    369.1   0.072252271   0.87787  -0.46874  -0.80342  -0.11260
   8   28300.5    353.4   0.066457757   0.77309   0.78848  -0.37435  -0.10602
   9   28410.7    352.0   0.051614729   0.59809  -0.49773   0.41155   0.42542
  10   28832.5    346.8   0.108158610   1.23496   0.87908   0.24619   0.63370
  11   29011.0    344.7   0.224608744   2.54882   0.56075   0.68206  -1.33010
  12   29371.5    340.5   0.181201676   2.03101  -0.53167   0.37561  -1.26777
  13   30022.8    333.1   0.020589432   0.22577  -0.06004   0.21513   0.41939
  14   30587.4    326.9   0.140721966   1.51459  -0.49822  -0.66928   0.90467
  15   30760.2    325.1   0.038888815   0.41621   0.46962  -0.22655   0.37992
  16   30838.3    324.3   0.024001492   0.25623  -0.03034  -0.27263   0.42542
  17   31500.7    317.5   0.027072937   0.28294   0.26205   0.18139  -0.42587
  18   32217.7    310.4   0.043830036   0.44787   0.17414   0.03936  -0.64498
  19   32473.6    307.9   0.086723370   0.87919   0.58628   0.37152  -0.63042
  20   32709.6    305.7   0.061246455   0.61643  -0.32764  -0.06739  -0.71031
  21   33135.5    301.8   0.006071582   0.06032  -0.11634   0.01277   0.21593
  22   33409.2    299.3   0.121211226   1.19441   0.18699  -0.38395   1.00600
  23   33643.5    297.2   0.007142784   0.06989  -0.10566  -0.17968  -0.16261
  24   33886.4    295.1   0.047605189   0.46249   0.50152  -0.11550   0.44456
  25   34074.4    293.5   0.102588297   0.99116   0.38062  -0.43374   0.81127
  26   34123.9    293.0   0.212331703   2.04848   0.31725  -0.64061   1.23994
  27   34650.0    288.6   0.156784169   1.48962  -0.73529  -0.17118   0.95899
  28   34851.4    286.9   0.051714838   0.48851   0.28242   0.35047  -0.53471
  29   34944.2    286.2   0.251696487   2.37125   0.73057  -0.84382   1.06089
  30   35061.2    285.2   0.300567389   2.82222   0.68501   0.47767  -1.45767
  31   35139.6    284.6   0.186008461   1.74265  -0.85019   0.88835  -0.48028
  32   35415.0    282.4   0.241004114   2.24033  -1.28052   0.76205   0.14094
  33   35680.0    280.3   0.168149519   1.55148  -0.57033   0.76913  -0.79664
  34   35856.2    278.9   0.059326595   0.54470  -0.17346   0.31381  -0.64509
  35   36113.8    276.9   0.013246613   0.12076   0.29187  -0.12110  -0.14457
  36   36530.5    273.7   0.168840791   1.52159   0.01304  -1.17705   0.36874
  37   36574.0    273.4   0.058976152   0.53086  -0.13081   0.70694  -0.11824
  38   37159.3    269.1   0.007815929   0.06925  -0.05807  -0.05964   0.24963
  39   37526.4    266.5   0.026625964   0.23358  -0.38300  -0.02987  -0.29326
  40   37631.7    265.7   0.012588343   0.11013   0.25163  -0.19984  -0.08289
  41   37700.6    265.2   0.003996344   0.03490  -0.01200  -0.18035   0.04719
  42   38133.2    262.2   0.050617472   0.43699  -0.07563  -0.46690   0.46182
  43   38473.7    259.9   0.164860022   1.41068   0.00561  -0.67176   0.97948
  44   38675.7    258.6   0.010599382   0.09022  -0.03012   0.18411  -0.23542
  45   38892.6    257.1   0.059417673   0.50295   0.40046   0.34952  -0.46949
  46   39112.4    255.7   0.016217154   0.13650   0.28981   0.21159   0.08798
  47   39254.6    254.7   0.025654367   0.21515   0.42875   0.16598  -0.06147
  48   39548.7    252.9   0.093304846   0.77669   0.04845   0.58032  -0.66149
  49   39790.2    251.3   0.025474283   0.21077  -0.44955  -0.09187   0.01526
  50   40246.6    248.5   0.075718552   0.61937  -0.74503  -0.25317  -0.01431

FINAL SINGLE POINT ENERGY    -14163.467642998354

DIPOLE MOMENT
-------------
                                X             Y             Z
Electronic contribution:     96.20087     105.90160       4.09632
Nuclear contribution   :    -95.39982    -108.49398      -3.18549
                        -----------------------------------------
Total Dipole Moment    :      0.80105      -2.59237       0.91083
                        -----------------------------------------
Magnitude (a.u.)       :      2.86212
Magnitude (Debye)      :      7.27492

Rotational constants in cm-1:     0.001369     0.000126     0.000123
Rotational constants in MHz :    41.043366     3.786548     3.683783

                             ****ORCA TERMINATED NORMALLY****
TOTAL RUN TIME: 0 days 0 hours 9 minutes 53 seconds 548 msec
