                         Program Version 4.2.0 -  RELEASE  -
|  1> # ORCA input file
|  2> # SCF done       -186.096184205945          0.000876565544
|  3> ! CAM-B3LYP def2-SVP def2/J RIJCOSX Grid4 TightSCF
|  4> %maxcore 5000
|  5> %tddft
|  6>     Mode sTDDFT
|  7>     Ethresh 5.0
|  8>     maxcore 5000
|  9> end
| 10>
| 11> %pal
| 12>   nprocs 6
| 13>   end
| 14> * xyz 0 1
| 15>    C       -3.78595        -2.30080         6.45896
| 16>    O       -3.57953        -3.48602         6.36370
| 17>    C       -5.11381        -1.64563         6.46317
| 18>    C       -4.96566        -0.25417         6.59149
| 19>    C       -6.09113         0.55312         6.64079
| 20>    C       -7.34304        -0.04456         6.55438
| 21>    C       -7.47933        -1.42858         6.41818
| 22>    C       -6.35466        -2.24181         6.37357
| 23>   Br       -9.19518        -2.20862         6.29781
| 24>   Br       -8.88066         1.05116         6.63169
| 25>    C       -3.54207         0.06544         6.64310
| 26>    C       -3.00884         1.32461         6.60169
| 27>    C       -3.78312         2.50594         6.58255
| 28>    N       -4.36354         3.49526         6.57088
| 29>    C       -1.63067         1.62476         6.51653
| 30>    N       -0.53418         1.94635         6.41187
| 31>    C       -2.80964        -1.19152         6.64907
| 32>    C       -1.48218        -1.31510         6.94031
| 33>    C       -0.68291        -2.47968         6.94132
| 34>    O       -1.05454        -3.66385         6.43609
| 35>    C       -0.05779        -4.54570         6.61328
| 36>    C        1.01209        -3.92659         7.24974
| 37>    C        0.62229        -2.59699         7.45671
| 38>    C        1.36053        -1.58184         8.08523
| 39>    N        1.96502        -0.76278         8.61096
| 40>    C       -0.25254        -5.88323         6.16231
| 41>    C        0.62999        -6.88518         6.35786
| 42>    C        0.37939        -8.21793         5.92222
| 43>    S        1.44514        -9.55247         6.34363
| 44>    C        0.31254       -10.56114         5.45706
| 45>    N       -0.67442        -9.87730         4.95433
| 46>    N       -0.64100        -8.60423         5.20895
| 47>    C        0.47289       -11.97693         5.37445
| 48>    C       -0.34786       -12.75176         4.64595
| 49>    C       -0.27013       -14.19363         4.60044
| 50>    C       -0.42062       -14.91918         3.40230
| 51>    C       -0.60864       -14.26383         2.08901
| 52>    O       -0.65579       -13.09404         1.85375
| 53>    S       -0.74184       -15.52123         0.82173
| 54>    C       -0.43229       -16.86172         1.98230
| 55>    O       -0.25312       -17.98655         1.62924
| 56>    C       -0.37057       -16.30706         3.35094
| 57>    C       -0.20570       -17.11921         4.49779
| 58>    C       -0.06422       -16.39003         5.69566
| 59>    C       -0.08994       -14.99528         5.73684
| 60>    C       -0.05099       -14.59510         7.16717
| 61>    O       -0.07120       -13.51856         7.67723
| 62>    O       -0.00395       -15.74850         7.90569
| 63>    C        0.00158       -16.86165         7.10029
| 64>    O        0.04721       -17.96116         7.56020
| 65>    C       -0.28296       -18.54795         4.40493
| 66>    C        0.40703       -19.42629         5.16726
| 67>    C        0.22167       -20.83078         5.05306
| 68>    N        0.95176       -21.75503         5.76087
| 69>    C        1.99874       -21.47514         6.71358
| 70>    C        3.32340       -21.15284         6.02620
| 71>    C        0.57322       -23.07404         5.45526
| 72>    O        1.08617       -24.05176         5.96054
| 73>    C       -0.48980       -22.92329         4.48450
| 74>    C       -0.68446       -21.53305         4.26673
| 75>    C       -1.77314       -21.37994         3.32699
| 76>    O       -2.32819       -20.40044         2.87279
| 77>    N       -2.15205       -22.70112         3.01828
| 78>    C       -3.17863       -22.96662         2.03941
| 79>    C       -2.58146       -23.32764         0.68143
| 80>    C       -1.39816       -23.62317         3.69932
| 81>    C       -1.58744       -25.04039         3.58339
| 82>    C       -0.84416       -25.92622         4.25108
| 83>    H       -6.02628         1.62346         6.75011
| 84>    H       -6.44485        -3.31224         6.27163
| 85>    H       -0.93758        -0.43018         7.24702
| 86>    H        1.94844        -4.36621         7.52518
| 87>    H       -1.18653        -6.08186         5.65684
| 88>    H        1.56081        -6.71913         6.88000
| 89>    H        1.29737       -12.39382         5.93335
| 90>    H       -1.09556       -12.27718         4.02573
| 91>    H       -0.93884       -18.93219         3.63309
| 92>    H        1.14354       -19.08047         5.87488
| 93>    H        2.11126       -22.38247         7.31373
| 94>    H        1.68457       -20.65596         7.36607
| 95>    H        3.64089       -21.99617         5.41774
| 96>    H        4.08689       -20.95751         6.77403
| 97>    H        3.22962       -20.27963         5.38404
| 98>    H       -3.75737       -22.04290         1.95091
| 99>    H       -3.83716       -23.76059         2.40178
|100>    H       -1.97194       -22.50524         0.31513
|101>    H       -3.37800       -23.51497        -0.03322
|102>    H       -1.95760       -24.21601         0.75316
|103>    H       -2.37457       -25.37619         2.92264
|104>    H       -0.05265       -25.61523         4.91265
|105>    H       -1.01113       -26.98422         4.14507
|106> *
|107>
|108>                          ****END OF INPUT****

CARTESIAN COORDINATES (ANGSTROEM)
---------------------------------
  C     -3.785950   -2.300800    6.458960
  O     -3.579530   -3.486020    6.363700
  C     -5.113810   -1.645630    6.463170
  C     -4.965660   -0.254170    6.591490
  C     -6.091130    0.553120    6.640790
  C     -7.343040   -0.044560    6.554380
  C     -7.479330   -1.428580    6.418180
  C     -6.354660   -2.241810    6.373570
  Br    -9.195180   -2.208620    6.297810
  Br    -8.880660    1.051160    6.631690
  C     -3.542070    0.065440    6.643100
  C     -3.008840    1.324610    6.601690
  C     -3.783120    2.505940    6.582550
  N     -4.363540    3.495260    6.570880
  C     -1.630670    1.624760    6.516530
  N     -0.534180    1.946350    6.411870
  C     -2.809640   -1.191520    6.649070
  C     -1.482180   -1.315100    6.940310
  C     -0.682910   -2.479680    6.941320
  O     -1.054540   -3.663850    6.436090
  C     -0.057790   -4.545700    6.613280
  C      1.012090   -3.926590    7.249740
  C      0.622290   -2.596990    7.456710
  C      1.360530   -1.581840    8.085230
  N      1.965020   -0.762780    8.610960
  C     -0.252540   -5.883230    6.162310
  C      0.629990   -6.885180    6.357860
  C      0.379390   -8.217930    5.922220
  S      1.445140   -9.552470    6.343630
  C      0.312540  -10.561140    5.457060
  N     -0.674420   -9.877300    4.954330
  N     -0.641000   -8.604230    5.208950
  C      0.472890  -11.976930    5.374450
  C     -0.347860  -12.751760    4.645950
  C     -0.270130  -14.193630    4.600440
  C     -0.420620  -14.919180    3.402300
  C     -0.608640  -14.263830    2.089010
  O     -0.655790  -13.094040    1.853750
  S     -0.741840  -15.521230    0.821730
  C     -0.432290  -16.861720    1.982300
  O     -0.253120  -17.986550    1.629240
  C     -0.370570  -16.307060    3.350940
  C     -0.205700  -17.119210    4.497790
  C     -0.064220  -16.390030    5.695660
  C     -0.089940  -14.995280    5.736840
  C     -0.050990  -14.595100    7.167170
  O     -0.071200  -13.518560    7.677230
  O     -0.003950  -15.748500    7.905690
  C      0.001580  -16.861650    7.100290
  O      0.047210  -17.961160    7.560200
  C     -0.282960  -18.547950    4.404930
  C      0.407030  -19.426290    5.167260
  C      0.221670  -20.830780    5.053060
  N      0.951760  -21.755030    5.760870
  C      1.998740  -21.475140    6.713580
  C      3.323400  -21.152840    6.026200
  C      0.573220  -23.074040    5.455260
  O      1.086170  -24.051760    5.960540
  C     -0.489800  -22.923290    4.484500
  C     -0.684460  -21.533050    4.266730
  C     -1.773140  -21.379940    3.326990
  O     -2.328190  -20.400440    2.872790
  N     -2.152050  -22.701120    3.018280
  C     -3.178630  -22.966620    2.039410
  C     -2.581460  -23.327640    0.681430
  C     -1.398160  -23.623170    3.699320
  C     -1.587440  -25.040390    3.583390
  C     -0.844160  -25.926220    4.251080
  H     -6.026280    1.623460    6.750110
  H     -6.444850   -3.312240    6.271630
  H     -0.937580   -0.430180    7.247020
  H      1.948440   -4.366210    7.525180
  H     -1.186530   -6.081860    5.656840
  H      1.560810   -6.719130    6.880000
  H      1.297370  -12.393820    5.933350
  H     -1.095560  -12.277180    4.025730
  H     -0.938840  -18.932190    3.633090
  H      1.143540  -19.080470    5.874880
  H      2.111260  -22.382470    7.313730
  H      1.684570  -20.655960    7.366070
  H      3.640890  -21.996170    5.417740
  H      4.086890  -20.957510    6.774030
  H      3.229620  -20.279630    5.384040
  H     -3.757370  -22.042900    1.950910
  H     -3.837160  -23.760590    2.401780
  H     -1.971940  -22.505240    0.315130
  H     -3.378000  -23.514970   -0.033220
  H     -1.957600  -24.216010    0.753160
  H     -2.374570  -25.376190    2.922640
  H     -0.052650  -25.615230    4.912650
  H     -1.011130  -26.984220    4.145070

 Total Charge           Charge          ....    0
 Multiplicity           Mult            ....    1
 Number of Electrons    NEL             ....  534
 Basis Dimension        Dim             .... 1111

ORBITAL ENERGIES
----------------

  NO   OCC          E(Eh)            E(eV)
   0   2.0000    -482.879770    -13139.8266
   1   2.0000    -482.878262    -13139.7855
   2   2.0000     -88.985204     -2421.4105
   3   2.0000     -88.958365     -2420.6802
   4   2.0000     -62.557398     -1702.2733
   5   2.0000     -62.555865     -1702.2316
   6   2.0000     -56.391349     -1534.4866
   7   2.0000     -56.389831     -1534.4453
   8   2.0000     -56.388697     -1534.4145
   9   2.0000     -56.388592     -1534.4116
  10   2.0000     -56.387156     -1534.3725
  11   2.0000     -56.387058     -1534.3698
  12   2.0000     -19.327324      -525.9232
  13   2.0000     -19.303893      -525.2856
  14   2.0000     -19.252252      -523.8804
  15   2.0000     -19.251312      -523.8548
  16   2.0000     -19.251110      -523.8493
  17   2.0000     -19.249879      -523.8158
  18   2.0000     -19.227115      -523.1964
  19   2.0000     -19.198506      -522.4179
  20   2.0000     -19.189360      -522.1690
  21   2.0000     -14.458387      -393.4327
  22   2.0000     -14.453990      -393.3131
  23   2.0000     -14.449073      -393.1793
  24   2.0000     -14.448273      -393.1575
  25   2.0000     -14.425311      -392.5327
  26   2.0000     -14.425278      -392.5318
  27   2.0000     -14.424553      -392.5120
  28   2.0000     -10.446400      -284.2610
  29   2.0000     -10.445157      -284.2272
  30   2.0000     -10.414149      -283.3834
  31   2.0000     -10.412818      -283.3472
  32   2.0000     -10.380843      -282.4771
  33   2.0000     -10.379504      -282.4407
  34   2.0000     -10.376826      -282.3678
  35   2.0000     -10.374023      -282.2915
  36   2.0000     -10.373546      -282.2785
  37   2.0000     -10.357571      -281.8438
  38   2.0000     -10.357209      -281.8340
  39   2.0000     -10.356985      -281.8279
  40   2.0000     -10.354695      -281.7656
  41   2.0000     -10.353478      -281.7325
  42   2.0000     -10.352819      -281.7145
  43   2.0000     -10.346224      -281.5351
  44   2.0000     -10.345976      -281.5283
  45   2.0000     -10.343958      -281.4734
  46   2.0000     -10.342369      -281.4302
  47   2.0000     -10.340743      -281.3859
  48   2.0000     -10.340317      -281.3743
  49   2.0000     -10.339057      -281.3400
  50   2.0000     -10.338837      -281.3341
  51   2.0000     -10.337629      -281.3012
  52   2.0000     -10.337457      -281.2965
  53   2.0000     -10.326484      -280.9979
  54   2.0000     -10.326332      -280.9938
  55   2.0000     -10.324447      -280.9425
  56   2.0000     -10.322716      -280.8954
  57   2.0000     -10.318601      -280.7834
  58   2.0000     -10.318160      -280.7714
  59   2.0000     -10.315480      -280.6985
  60   2.0000     -10.315282      -280.6931
  61   2.0000     -10.315196      -280.6908
  62   2.0000     -10.313519      -280.6451
  63   2.0000     -10.312326      -280.6127
  64   2.0000     -10.310526      -280.5637
  65   2.0000     -10.307763      -280.4885
  66   2.0000     -10.307709      -280.4870
  67   2.0000     -10.303826      -280.3814
  68   2.0000     -10.303091      -280.3614
  69   2.0000     -10.295671      -280.1595
  70   2.0000     -10.291653      -280.0501
  71   2.0000     -10.283942      -279.8403
  72   2.0000     -10.267030      -279.3801
  73   2.0000     -10.266039      -279.3531
  74   2.0000     -10.265492      -279.3382
  75   2.0000     -10.261350      -279.2255
  76   2.0000      -8.786736      -239.0993
  77   2.0000      -8.785177      -239.0568
  78   2.0000      -8.081705      -219.9144
  79   2.0000      -8.057581      -219.2579
  80   2.0000      -6.622887      -180.2179
  81   2.0000      -6.621354      -180.1762
  82   2.0000      -6.608863      -179.8363
  83   2.0000      -6.608054      -179.8143
  84   2.0000      -6.607284      -179.7933
  85   2.0000      -6.606479      -179.7714
  86   2.0000      -6.050289      -164.6367
  87   2.0000      -6.046997      -164.5472
  88   2.0000      -6.044148      -164.4696
  89   2.0000      -6.026441      -163.9878
  90   2.0000      -6.023180      -163.8991
  91   2.0000      -6.018624      -163.7751
  92   2.0000      -2.738755       -74.5253
  93   2.0000      -2.737275       -74.4850
  94   2.0000      -2.735048       -74.4244
  95   2.0000      -2.734406       -74.4070
  96   2.0000      -2.733454       -74.3811
  97   2.0000      -2.732854       -74.3648
  98   2.0000      -2.723255       -74.1035
  99   2.0000      -2.723233       -74.1029
 100   2.0000      -2.721662       -74.0602
 101   2.0000      -2.721640       -74.0596
 102   2.0000      -1.255069       -34.1522
 103   2.0000      -1.253268       -34.1032
 104   2.0000      -1.179499       -32.0958
 105   2.0000      -1.177348       -32.0373
 106   2.0000      -1.173170       -31.9236
 107   2.0000      -1.154323       -31.4107
 108   2.0000      -1.144321       -31.1385
 109   2.0000      -1.140911       -31.0458
 110   2.0000      -1.138088       -30.9689
 111   2.0000      -1.128769       -30.7154
 112   2.0000      -1.067670       -29.0528
 113   2.0000      -1.058102       -28.7924
 114   2.0000      -1.031537       -28.0695
 115   2.0000      -1.027543       -27.9609
 116   2.0000      -1.014392       -27.6030
 117   2.0000      -1.010319       -27.4922
 118   2.0000      -1.003161       -27.2974
 119   2.0000      -0.984360       -26.7858
 120   2.0000      -0.966541       -26.3009
 121   2.0000      -0.962079       -26.1795
 122   2.0000      -0.952338       -25.9144
 123   2.0000      -0.949454       -25.8360
 124   2.0000      -0.937990       -25.5240
 125   2.0000      -0.932303       -25.3693
 126   2.0000      -0.929800       -25.3011
 127   2.0000      -0.925268       -25.1778
 128   2.0000      -0.915801       -24.9202
 129   2.0000      -0.906857       -24.6768
 130   2.0000      -0.901801       -24.5392
 131   2.0000      -0.896194       -24.3867
 132   2.0000      -0.885312       -24.0906
 133   2.0000      -0.877406       -23.8754
 134   2.0000      -0.871977       -23.7277
 135   2.0000      -0.860665       -23.4199
 136   2.0000      -0.856995       -23.3200
 137   2.0000      -0.837308       -22.7843
 138   2.0000      -0.823020       -22.3955
 139   2.0000      -0.811587       -22.0844
 140   2.0000      -0.810376       -22.0514
 141   2.0000      -0.793943       -21.6043
 142   2.0000      -0.789422       -21.4813
 143   2.0000      -0.780375       -21.2351
 144   2.0000      -0.776524       -21.1303
 145   2.0000      -0.772503       -21.0209
 146   2.0000      -0.767297       -20.8792
 147   2.0000      -0.763294       -20.7703
 148   2.0000      -0.749783       -20.4026
 149   2.0000      -0.749266       -20.3886
 150   2.0000      -0.724212       -19.7068
 151   2.0000      -0.722970       -19.6730
 152   2.0000      -0.712128       -19.3780
 153   2.0000      -0.710570       -19.3356
 154   2.0000      -0.705136       -19.1877
 155   2.0000      -0.700070       -19.0499
 156   2.0000      -0.697613       -18.9830
 157   2.0000      -0.684883       -18.6366
 158   2.0000      -0.679523       -18.4908
 159   2.0000      -0.663868       -18.0648
 160   2.0000      -0.657709       -17.8972
 161   2.0000      -0.651885       -17.7387
 162   2.0000      -0.648297       -17.6411
 163   2.0000      -0.638711       -17.3802
 164   2.0000      -0.638001       -17.3609
 165   2.0000      -0.635668       -17.2974
 166   2.0000      -0.629228       -17.1222
 167   2.0000      -0.623816       -16.9749
 168   2.0000      -0.619182       -16.8488
 169   2.0000      -0.615399       -16.7459
 170   2.0000      -0.614082       -16.7100
 171   2.0000      -0.603172       -16.4132
 172   2.0000      -0.598061       -16.2741
 173   2.0000      -0.594395       -16.1743
 174   2.0000      -0.590343       -16.0640
 175   2.0000      -0.588207       -16.0059
 176   2.0000      -0.582078       -15.8391
 177   2.0000      -0.580030       -15.7834
 178   2.0000      -0.577510       -15.7148
 179   2.0000      -0.571871       -15.5614
 180   2.0000      -0.565905       -15.3991
 181   2.0000      -0.562787       -15.3142
 182   2.0000      -0.561286       -15.2734
 183   2.0000      -0.558772       -15.2050
 184   2.0000      -0.557067       -15.1586
 185   2.0000      -0.554851       -15.0983
 186   2.0000      -0.552178       -15.0255
 187   2.0000      -0.551553       -15.0085
 188   2.0000      -0.549880       -14.9630
 189   2.0000      -0.549522       -14.9532
 190   2.0000      -0.546553       -14.8725
 191   2.0000      -0.538721       -14.6593
 192   2.0000      -0.536115       -14.5884
 193   2.0000      -0.534268       -14.5382
 194   2.0000      -0.532036       -14.4774
 195   2.0000      -0.530724       -14.4417
 196   2.0000      -0.526729       -14.3330
 197   2.0000      -0.523838       -14.2543
 198   2.0000      -0.522210       -14.2101
 199   2.0000      -0.519160       -14.1270
 200   2.0000      -0.517152       -14.0724
 201   2.0000      -0.515704       -14.0330
 202   2.0000      -0.513991       -13.9864
 203   2.0000      -0.510873       -13.9016
 204   2.0000      -0.508410       -13.8345
 205   2.0000      -0.507121       -13.7995
 206   2.0000      -0.505892       -13.7660
 207   2.0000      -0.502914       -13.6850
 208   2.0000      -0.500404       -13.6167
 209   2.0000      -0.499450       -13.5907
 210   2.0000      -0.495356       -13.4793
 211   2.0000      -0.489850       -13.3295
 212   2.0000      -0.484155       -13.1745
 213   2.0000      -0.481333       -13.0977
 214   2.0000      -0.478814       -13.0292
 215   2.0000      -0.477097       -12.9825
 216   2.0000      -0.475332       -12.9344
 217   2.0000      -0.472760       -12.8644
 218   2.0000      -0.467561       -12.7230
 219   2.0000      -0.467318       -12.7164
 220   2.0000      -0.464913       -12.6509
 221   2.0000      -0.463055       -12.6004
 222   2.0000      -0.458414       -12.4741
 223   2.0000      -0.456155       -12.4126
 224   2.0000      -0.453196       -12.3321
 225   2.0000      -0.451375       -12.2825
 226   2.0000      -0.451270       -12.2797
 227   2.0000      -0.450716       -12.2646
 228   2.0000      -0.444814       -12.1040
 229   2.0000      -0.443693       -12.0735
 230   2.0000      -0.438617       -11.9354
 231   2.0000      -0.437026       -11.8921
 232   2.0000      -0.436134       -11.8678
 233   2.0000      -0.433997       -11.8097
 234   2.0000      -0.429501       -11.6873
 235   2.0000      -0.426225       -11.5982
 236   2.0000      -0.425527       -11.5792
 237   2.0000      -0.425081       -11.5671
 238   2.0000      -0.422005       -11.4833
 239   2.0000      -0.418658       -11.3923
 240   2.0000      -0.409370       -11.1395
 241   2.0000      -0.406936       -11.0733
 242   2.0000      -0.402829       -10.9615
 243   2.0000      -0.401499       -10.9254
 244   2.0000      -0.393135       -10.6977
 245   2.0000      -0.392508       -10.6807
 246   2.0000      -0.385884       -10.5005
 247   2.0000      -0.385190       -10.4816
 248   2.0000      -0.383713       -10.4414
 249   2.0000      -0.378242       -10.2925
 250   2.0000      -0.375983       -10.2310
 251   2.0000      -0.360614        -9.8128
 252   2.0000      -0.354949        -9.6587
 253   2.0000      -0.353982        -9.6323
 254   2.0000      -0.353479        -9.6187
 255   2.0000      -0.351237        -9.5577
 256   2.0000      -0.349480        -9.5098
 257   2.0000      -0.344864        -9.3842
 258   2.0000      -0.341477        -9.2920
 259   2.0000      -0.335744        -9.1361
 260   2.0000      -0.333679        -9.0799
 261   2.0000      -0.333412        -9.0726
 262   2.0000      -0.317717        -8.6455
 263   2.0000      -0.317328        -8.6349
 264   2.0000      -0.311662        -8.4808
 265   2.0000      -0.279657        -7.6098
 266   2.0000      -0.246285        -6.7018
 267   0.0000      -0.112857        -3.0710
 268   0.0000      -0.104669        -2.8482
 269   0.0000      -0.097553        -2.6546
 270   0.0000      -0.076856        -2.0913
 271   0.0000      -0.067210        -1.8289

MULLIKEN ATOMIC CHARGES
-----------------------
   0 C :    0.139418
   1 O :   -0.115924
   2 C :   -0.023496
   3 C :    0.038503
   4 C :   -0.006409
   5 C :   -0.026468
   6 C :   -0.014915
   7 C :   -0.020285
   8 Br:    0.018722
   9 Br:    0.025486
  10 C :    0.290960
  11 C :   -0.324621
  12 C :   -0.188538
  13 N :    0.164629
  14 C :   -0.201318
  15 N :    0.179693
  16 C :   -0.060490
  17 C :   -0.092922
  18 C :    0.149375
  19 O :   -0.127781
  20 C :    0.192877
  21 C :   -0.046789
  22 C :   -0.065903
  23 C :   -0.179468
  24 N :    0.178375
  25 C :    0.023806
  26 C :    0.066719
  27 C :   -0.110688
  28 S :    0.114138
  29 C :   -0.123771
  30 N :   -0.033718
  31 N :   -0.038352
  32 C :    0.120698
  33 C :   -0.023036
  34 C :    0.018519
  35 C :    0.041489
  36 C :    0.037179
  37 O :   -0.119712
  38 S :    0.029046
  39 C :    0.035618
  40 O :   -0.109136
  41 C :    0.033099
  42 C :    0.059517
  43 C :   -0.076211
  44 C :   -0.076673
  45 C :    0.225627
  46 O :   -0.097060
  47 O :   -0.221557
  48 C :    0.230579
  49 O :   -0.101817
  50 C :   -0.061878
  51 C :    0.045608
  52 C :    0.093242
  53 N :   -0.256589
  54 C :    0.092862
  55 C :    0.004253
  56 C :    0.161358
  57 O :   -0.206133
  58 C :   -0.065543
  59 C :   -0.057327
  60 C :    0.171936
  61 O :   -0.198794
  62 N :   -0.257237
  63 C :    0.095879
  64 C :    0.003295
  65 C :    0.110598
  66 C :   -0.035444
  67 C :    0.013991
  68 H :    0.009760
  69 H :    0.009656
  70 H :    0.044190
  71 H :    0.003919
  72 H :    0.043165
  73 H :   -0.003608
  74 H :   -0.002417
  75 H :    0.052505
  76 H :    0.050994
  77 H :   -0.015228
  78 H :    0.043008
  79 H :    0.037018
  80 H :    0.029991
  81 H :    0.023690
  82 H :    0.011135
  83 H :    0.044351
  84 H :    0.025780
  85 H :    0.033306
  86 H :    0.024333
  87 H :    0.016833
  88 H :   -0.017374
  89 H :    0.060344
  90 H :    0.033561
Sum of atomic charges:   -0.0000000

LOEWDIN ATOMIC CHARGES
----------------------
   0 C :    0.075763
   1 O :   -0.121510
   2 C :   -0.042100
   3 C :   -0.012976
   4 C :   -0.006809
   5 C :   -0.118290
   6 C :   -0.121685
   7 C :    0.007262
   8 Br:    0.141095
   9 Br:    0.144109
  10 C :    0.069605
  11 C :   -0.123985
  12 C :   -0.019417
  13 N :   -0.038048
  14 C :   -0.027919
  15 N :   -0.030809
  16 C :   -0.075725
  17 C :    0.043852
  18 C :    0.039564
  19 O :    0.070401
  20 C :    0.056011
  21 C :   -0.027478
  22 C :   -0.068948
  23 C :   -0.036314
  24 N :   -0.022210
  25 C :    0.004956
  26 C :   -0.031533
  27 C :   -0.150537
  28 S :    0.399918
  29 C :   -0.143576
  30 N :   -0.062829
  31 N :   -0.066946
  32 C :   -0.018378
  33 C :    0.006198
  34 C :    0.021964
  35 C :   -0.046234
  36 C :   -0.046828
  37 O :   -0.102193
  38 S :    0.309814
  39 C :   -0.042321
  40 O :   -0.091701
  41 C :   -0.047084
  42 C :    0.030071
  43 C :   -0.048475
  44 C :   -0.045440
  45 C :    0.104415
  46 O :   -0.094520
  47 O :   -0.050852
  48 C :    0.109202
  49 O :   -0.097361
  50 C :   -0.002475
  51 C :    0.000156
  52 C :    0.067251
  53 N :    0.002559
  54 C :    0.036330
  55 C :   -0.061484
  56 C :    0.079304
  57 O :   -0.200645
  58 C :   -0.127108
  59 C :   -0.109056
  60 C :    0.084706
  61 O :   -0.187365
  62 N :    0.001657
  63 C :    0.036493
  64 C :   -0.060825
  65 C :    0.087937
  66 C :   -0.055722
  67 C :    0.031806
  68 H :    0.045112
  69 H :    0.047165
  70 H :    0.058999
  71 H :    0.041063
  72 H :    0.056435
  73 H :    0.033305
  74 H :    0.031055
  75 H :    0.047250
  76 H :    0.041751
  77 H :    0.028418
  78 H :    0.037972
  79 H :    0.028021
  80 H :    0.032346
  81 H :    0.030754
  82 H :    0.020067
  83 H :    0.037740
  84 H :    0.023656
  85 H :    0.033569
  86 H :    0.030956
  87 H :    0.022713
  88 H :    0.030161
  89 H :    0.033941
  90 H :    0.030865

  Mayer bond orders larger than 0.100000
B(  0-C ,  1-O ) :   2.2824 B(  0-C ,  2-C ) :   0.9396 B(  0-C , 16-C ) :   0.9186
B(  2-C ,  3-C ) :   1.3286 B(  2-C ,  7-C ) :   1.3735 B(  3-C ,  4-C ) :   1.3609
B(  3-C , 10-C ) :   0.9998 B(  4-C ,  5-C ) :   1.3756 B(  4-C , 68-H ) :   0.9791
B(  5-C ,  6-C ) :   1.4163 B(  5-C ,  9-Br) :   1.0592 B(  6-C ,  7-C ) :   1.3551
B(  6-C ,  8-Br) :   1.0368 B(  7-C , 69-H ) :   1.0079 B( 10-C , 11-C ) :   1.6612
B( 10-C , 16-C ) :   1.0555 B( 11-C , 12-C ) :   1.1361 B( 11-C , 14-C ) :   1.1375
B( 12-C , 13-N ) :   2.9757 B( 14-C , 15-N ) :   2.9932 B( 16-C , 17-C ) :   1.5820
B( 17-C , 18-C ) :   1.2324 B( 17-C , 70-H ) :   0.9264 B( 18-C , 19-O ) :   1.1884
B( 18-C , 22-C ) :   1.3497 B( 19-O , 20-C ) :   1.1617 B( 20-C , 21-C ) :   1.4063
B( 20-C , 25-C ) :   1.0944 B( 21-C , 22-C ) :   1.3103 B( 21-C , 71-H ) :   1.0143
B( 22-C , 23-C ) :   1.1049 B( 23-C , 24-N ) :   3.0289 B( 25-C , 26-C ) :   1.7099
B( 25-C , 72-H ) :   0.9691 B( 26-C , 27-C ) :   1.1101 B( 26-C , 73-H ) :   0.9481
B( 27-C , 28-S ) :   1.0999 B( 27-C , 31-N ) :   1.6791 B( 28-S , 29-C ) :   1.0988
B( 29-C , 30-N ) :   1.6864 B( 29-C , 32-C ) :   1.1144 B( 30-N , 31-N ) :   1.2379
B( 32-C , 33-C ) :   1.7706 B( 32-C , 74-H ) :   0.9367 B( 33-C , 34-C ) :   1.0705
B( 33-C , 75-H ) :   0.9420 B( 34-C , 35-C ) :   1.3584 B( 34-C , 44-C ) :   1.3464
B( 35-C , 36-C ) :   0.8427 B( 35-C , 41-C ) :   1.3316 B( 36-C , 37-O ) :   2.1702
B( 36-C , 38-S ) :   1.0394 B( 37-O , 38-S ) :   0.1091 B( 38-S , 39-C ) :   1.0208
B( 38-S , 40-O ) :   0.1062 B( 39-C , 40-O ) :   2.1801 B( 39-C , 41-C ) :   0.8460
B( 41-C , 42-C ) :   1.3379 B( 42-C , 43-C ) :   1.3157 B( 42-C , 50-C ) :   1.1082
B( 43-C , 44-C ) :   1.3562 B( 43-C , 48-C ) :   0.9084 B( 44-C , 45-C ) :   0.9010
B( 45-C , 46-O ) :   2.2545 B( 45-C , 47-O ) :   1.0586 B( 47-O , 48-C ) :   1.0579
B( 48-C , 49-O ) :   2.2352 B( 50-C , 51-C ) :   1.6555 B( 50-C , 76-H ) :   0.9167
B( 51-C , 52-C ) :   1.1706 B( 51-C , 77-H ) :   0.9454 B( 52-C , 53-N ) :   1.1589
B( 52-C , 59-C ) :   1.3667 B( 53-N , 54-C ) :   0.9439 B( 53-N , 56-C ) :   1.0576
B( 54-C , 55-C ) :   1.1193 B( 54-C , 78-H ) :   0.9284 B( 54-C , 79-H ) :   0.9498
B( 55-C , 80-H ) :   0.9636 B( 55-C , 81-H ) :   0.9679 B( 55-C , 82-H ) :   0.9688
B( 56-C , 57-O ) :   2.0489 B( 56-C , 58-C ) :   0.9845 B( 58-C , 59-C ) :   1.2431
B( 58-C , 65-C ) :   1.3631 B( 59-C , 60-C ) :   0.9787 B( 60-C , 61-O ) :   2.0397
B( 60-C , 62-N ) :   1.0517 B( 61-O , 76-H ) :   0.1046 B( 62-N , 63-C ) :   0.9447
B( 62-N , 65-C ) :   1.1754 B( 63-C , 64-C ) :   1.1200 B( 63-C , 83-H ) :   0.9287
B( 63-C , 84-H ) :   0.9506 B( 64-C , 85-H ) :   0.9640 B( 64-C , 86-H ) :   0.9678
B( 64-C , 87-H ) :   0.9687 B( 65-C , 66-C ) :   1.1292 B( 66-C , 67-C ) :   1.8805
B( 66-C , 88-H ) :   0.9545 B( 67-C , 89-H ) :   0.9267 B( 67-C , 90-H ) :   0.9455

-----------------------------------------------------------------------------
         ABSORPTION SPECTRUM VIA TRANSITION ELECTRIC DIPOLE MOMENTS
-----------------------------------------------------------------------------
State   Energy  Wavelength   fosc         T2         TX        TY        TZ
        (cm-1)    (nm)                  (au**2)     (au)      (au)      (au)
-----------------------------------------------------------------------------
   0   14725.9    679.1   0.011605150   0.25944  -0.00829  -0.18582   0.47418
   1   16170.8    618.4   0.715245263  14.56123  -0.66654  -3.67486  -0.78252
   2   20612.1    485.2   1.352587720  21.60325  -2.21280   4.08558   0.12162
   3   23147.5    432.0   0.058514418   0.83221   0.26782  -0.82835  -0.27263
   4   23210.2    430.8   0.020801303   0.29504  -0.09855   0.10933  -0.52286
   5   25952.1    385.3   0.132025254   1.67479   0.37092  -1.21007   0.27007
   6   26345.9    379.6   0.035224549   0.44016  -0.16492   0.60314   0.22177
   7   26662.4    375.1   0.297045301   3.66774  -0.77807  -1.61403  -0.67620
   8   27071.6    369.4   0.021263828   0.25858   0.13262   0.46521   0.15677
   9   27568.0    362.7   0.011294013   0.13487  -0.01632   0.33003   0.16026
  10   27839.4    359.2   0.004592773   0.05431  -0.13647   0.09908   0.16084
  11   28182.3    354.8   0.001886803   0.02204   0.08053  -0.12416  -0.01184
  12   28474.9    351.2   0.205422784   2.37500   1.33549   0.76529  -0.07608
  13   28833.4    346.8   0.015144591   0.17292  -0.38903  -0.08926  -0.11664
  14   29071.7    344.0   0.038352268   0.43431   0.47271  -0.09325   0.44962
  15   30022.4    333.1   0.026364242   0.28910  -0.04749  -0.06912  -0.53110
  16   30700.0    325.7   0.094780459   1.01638   0.93417   0.36592   0.09907
  17   31483.0    317.6   0.009359605   0.09787  -0.18241  -0.22872   0.11085
  18   31609.6    316.4   0.003256865   0.03392  -0.12414  -0.02301  -0.13409
  19   31776.8    314.7   0.004153197   0.04303   0.03544  -0.12224   0.16379
  20   31891.8    313.6   0.084113613   0.86829   0.58042   0.29301   0.66749
  21   32108.9    311.4   0.009273632   0.09508   0.16243  -0.08072   0.24937
  22   32572.4    307.0   0.035965048   0.36350   0.11030  -0.57927  -0.12562
  23   32732.7    305.5   0.204371604   2.05548  -1.17417  -0.73883  -0.36184
  24   32821.7    304.7   0.105560962   1.05881  -0.78889  -0.55220  -0.36268
  25   33577.0    297.8   0.228234020   2.23776   0.72299  -1.28800   0.23687
  26   34055.8    293.6   0.007187042   0.06948  -0.16254   0.15916   0.13314
  27   34272.7    291.8   0.002309957   0.02219  -0.01264  -0.14645   0.02411
  28   34410.3    290.6   0.001155061   0.01105   0.03089   0.09125   0.04207
  29   34572.6    289.2   0.035658454   0.33955   0.13729  -0.55069  -0.13210
  30   34940.6    286.2   0.426439453   4.01793   1.02762   1.71364   0.15919
  31   34983.6    285.8   0.108640537   1.02236   0.87614   0.50444  -0.01659
  32   35099.0    284.9   0.192123680   1.80203   0.27922   1.28710  -0.25968
  33   36086.6    277.1   0.035790433   0.32651  -0.03175   0.53945  -0.18574
  34   36103.1    277.0   0.001218368   0.01111  -0.09059  -0.04837  -0.02374
  35   36393.4    274.8   0.027165548   0.24574  -0.07787  -0.48655  -0.05427
  36   36523.0    273.8   0.000519432   0.00468  -0.06763  -0.00965   0.00381
  37   37225.6    268.6   0.045012476   0.39808   0.24166  -0.40008   0.42380
  38   37810.4    264.5   0.030366052   0.26439   0.38401  -0.29629  -0.17072
  39   37831.3    264.3   0.084422466   0.73465   0.37315  -0.68018  -0.36438
  40   38308.2    261.0   0.221512676   1.90363   1.19498   0.51441   0.45939
  41   38509.8    259.7   0.043584498   0.37259  -0.23334  -0.14515   0.54505
  42   38959.5    256.7   0.000004639   0.00004  -0.00378  -0.00206   0.00454
  43   39263.1    254.7   0.053882676   0.45179  -0.08638   0.66079  -0.08772
  44   39389.0    253.9   0.001111173   0.00929  -0.04438  -0.03662   0.07731
  45   39939.3    250.4   0.029364320   0.24204   0.20344  -0.21124  -0.39501
  46   40075.7    249.5   0.009205175   0.07562  -0.14196  -0.10675  -0.20993
  47   40269.4    248.3   0.046398129   0.37932  -0.52501  -0.32175  -0.01270

FINAL SINGLE POINT ENERGY     -8843.663226378496

DIPOLE MOMENT
-------------
                                X             Y             Z
Electronic contribution:   -161.03563     314.02526      33.23500
Nuclear contribution   :    161.25611    -318.03717     -33.77658
                        -----------------------------------------
Total Dipole Moment    :      0.22048      -4.01191      -0.54158
                        -----------------------------------------
Magnitude (a.u.)       :      4.05430
Magnitude (Debye)      :     10.30521

Rotational constants in cm-1:     0.001589     0.000180     0.000168
Rotational constants in MHz :    47.630360     5.388893     5.044199

                             ****ORCA TERMINATED NORMALLY****
TOTAL RUN TIME: 0 days 0 hours 8 minutes 34 seconds 226 msec
