                         Program Version 4.2.0 -  RELEASE  -
|  1> # ORCA input file
|  2> # SCF done       -148.222219375199          0.000509330528
|  3> ! CAM-B3LYP def2-SVP def2/J RIJCOSX Grid4 TightSCF
|  4> %maxcore 5000
|  5> %tddft
|  6>     Mode sTDDFT
|  7>     Ethresh 5.0
|  8>     maxcore 5000
|  9> end
| 10>
| 11> %pal
| 12>   nprocs 6
| 13>   end
| 14> * xyz 0 1
| 15>    C       -0.55736         2.11006        -3.46067
| 16>    O       -1.60693         1.93216        -2.90184
| 17>    C       -0.02912         3.40127        -3.95667
| 18>    C        1.18834         3.20192        -4.63110
| 19>    C        1.84372         4.28490        -5.19735
| 20>    C        1.27452         5.54653        -5.07473
| 21>    C        0.06557         5.73518        -4.39746
| 22>    C       -0.59760         4.65270        -3.83475
| 23>   Br       -0.68041         7.46183        -4.24215
| 24>   Br        2.16509         7.02159        -5.84832
| 25>    C        1.53033         1.78438        -4.58894
| 26>    C        2.69755         1.23015        -5.03532
| 27>    C        3.73457         1.96348        -5.65516
| 28>    N        4.60422         2.50583        -6.16959
| 29>    C        3.04522        -0.13471        -4.92087
| 30>    N        3.40222        -1.22298        -4.85291
| 31>    C        0.44344         1.09052        -3.91091
| 32>    C        0.27336        -0.25113        -3.84202
| 33>    C       -0.71771        -0.92837        -3.07484
| 34>    O       -1.05146        -2.20609        -3.39567
| 35>    C       -1.92863        -2.54202        -2.42987
| 36>    N       -2.08651        -1.55149        -1.57642
| 37>    N       -1.33383        -0.55035        -1.98090
| 38>    C       -2.56687        -3.81537        -2.40896
| 39>    C       -3.45277        -4.14440        -1.44803
| 40>    C       -4.12143        -5.40194        -1.42320
| 41>    S       -5.27154        -5.82756        -0.16262
| 42>    C       -5.45461        -7.34645        -1.02630
| 43>    N       -4.70398        -7.40711        -2.09102
| 44>    N       -3.97930        -6.35054        -2.30563
| 45>    C       -6.34406        -8.37216        -0.58668
| 46>    C       -6.52984        -9.50428        -1.29148
| 47>    C       -7.43105       -10.56509        -0.92817
| 48>    C       -7.99010       -10.74245         0.34780
| 49>    N       -8.84349       -11.70162         0.62032
| 50>    C       -9.20478       -12.51075        -0.37382
| 51>    N       -8.68739       -12.47869        -1.60551
| 52>    C       -7.81006       -11.53805        -1.86711
| 53>    C      -10.17615       -13.53724        -0.05785
| 54>    C      -11.00969       -14.16257        -0.91127
| 55>    C      -11.67961       -15.43944        -0.50786
| 56>    O      -11.79568       -15.87757         0.60773
| 57>    C      -12.10247       -16.05775        -1.78228
| 58>    C      -11.85115       -15.17174        -2.84814
| 59>    C      -11.32079       -13.92147        -2.31392
| 60>    C      -11.34697       -12.71277        -2.94407
| 61>    C      -11.07182       -11.48026        -2.30997
| 62>    N      -10.92514       -10.44103        -1.84749
| 63>    C      -11.74335       -12.53966        -4.28891
| 64>    N      -12.04570       -12.35670        -5.37980
| 65>    C      -12.14221       -15.55635        -4.14694
| 66>    C      -12.69054       -16.81517        -4.36105
| 67>    C      -12.95184       -17.68319        -3.29594
| 68>    C      -12.65334       -17.30598        -1.99333
| 69>   Br      -13.70840       -19.38328        -3.61615
| 70>   Br      -13.07846       -17.34677        -6.13094
| 71>    H        2.77329         4.17807        -5.73256
| 72>    H       -1.53314         4.78176        -3.31282
| 73>    H        0.91827        -0.91566        -4.40246
| 74>    H       -2.32031        -4.50662        -3.20051
| 75>    H       -3.68106        -3.43702        -0.66437
| 76>    H       -6.88005        -8.17777         0.33040
| 77>    H       -5.99208        -9.62164        -2.22279
| 78>    H       -7.72126       -10.10674         1.18087
| 79>    H       -7.39786       -11.53794        -2.86873
| 80>    H      -10.18533       -13.86343         0.97550
| 81>    H      -11.94729       -14.91334        -4.99026
| 82>    H      -12.84776       -17.96973        -1.16512
| 83> *
| 84>
| 85>                          ****END OF INPUT****

CARTESIAN COORDINATES (ANGSTROEM)
---------------------------------
  C     -0.557360    2.110060   -3.460670
  O     -1.606930    1.932160   -2.901840
  C     -0.029120    3.401270   -3.956670
  C      1.188340    3.201920   -4.631100
  C      1.843720    4.284900   -5.197350
  C      1.274520    5.546530   -5.074730
  C      0.065570    5.735180   -4.397460
  C     -0.597600    4.652700   -3.834750
  Br    -0.680410    7.461830   -4.242150
  Br     2.165090    7.021590   -5.848320
  C      1.530330    1.784380   -4.588940
  C      2.697550    1.230150   -5.035320
  C      3.734570    1.963480   -5.655160
  N      4.604220    2.505830   -6.169590
  C      3.045220   -0.134710   -4.920870
  N      3.402220   -1.222980   -4.852910
  C      0.443440    1.090520   -3.910910
  C      0.273360   -0.251130   -3.842020
  C     -0.717710   -0.928370   -3.074840
  O     -1.051460   -2.206090   -3.395670
  C     -1.928630   -2.542020   -2.429870
  N     -2.086510   -1.551490   -1.576420
  N     -1.333830   -0.550350   -1.980900
  C     -2.566870   -3.815370   -2.408960
  C     -3.452770   -4.144400   -1.448030
  C     -4.121430   -5.401940   -1.423200
  S     -5.271540   -5.827560   -0.162620
  C     -5.454610   -7.346450   -1.026300
  N     -4.703980   -7.407110   -2.091020
  N     -3.979300   -6.350540   -2.305630
  C     -6.344060   -8.372160   -0.586680
  C     -6.529840   -9.504280   -1.291480
  C     -7.431050  -10.565090   -0.928170
  C     -7.990100  -10.742450    0.347800
  N     -8.843490  -11.701620    0.620320
  C     -9.204780  -12.510750   -0.373820
  N     -8.687390  -12.478690   -1.605510
  C     -7.810060  -11.538050   -1.867110
  C    -10.176150  -13.537240   -0.057850
  C    -11.009690  -14.162570   -0.911270
  C    -11.679610  -15.439440   -0.507860
  O    -11.795680  -15.877570    0.607730
  C    -12.102470  -16.057750   -1.782280
  C    -11.851150  -15.171740   -2.848140
  C    -11.320790  -13.921470   -2.313920
  C    -11.346970  -12.712770   -2.944070
  C    -11.071820  -11.480260   -2.309970
  N    -10.925140  -10.441030   -1.847490
  C    -11.743350  -12.539660   -4.288910
  N    -12.045700  -12.356700   -5.379800
  C    -12.142210  -15.556350   -4.146940
  C    -12.690540  -16.815170   -4.361050
  C    -12.951840  -17.683190   -3.295940
  C    -12.653340  -17.305980   -1.993330
  Br   -13.708400  -19.383280   -3.616150
  Br   -13.078460  -17.346770   -6.130940
  H      2.773290    4.178070   -5.732560
  H     -1.533140    4.781760   -3.312820
  H      0.918270   -0.915660   -4.402460
  H     -2.320310   -4.506620   -3.200510
  H     -3.681060   -3.437020   -0.664370
  H     -6.880050   -8.177770    0.330400
  H     -5.992080   -9.621640   -2.222790
  H     -7.721260  -10.106740    1.180870
  H     -7.397860  -11.537940   -2.868730
  H    -10.185330  -13.863430    0.975500
  H    -11.947290  -14.913340   -4.990260
  H    -12.847760  -17.969730   -1.165120

 Total Charge           Charge          ....    0
 Multiplicity           Mult            ....    1
 Number of Electrons    NEL             ....  490
 Basis Dimension        Dim             ....  920

ORBITAL ENERGIES
----------------

  NO   OCC          E(Eh)            E(eV)
   0   2.0000    -482.883000    -13139.9145
   1   2.0000    -482.882193    -13139.8925
   2   2.0000    -482.881572    -13139.8756
   3   2.0000    -482.881437    -13139.8719
   4   2.0000     -88.988421     -2421.4980
   5   2.0000     -62.560627     -1702.3612
   6   2.0000     -62.559814     -1702.3391
   7   2.0000     -62.559202     -1702.3224
   8   2.0000     -62.559041     -1702.3180
   9   2.0000     -56.394581     -1534.5746
  10   2.0000     -56.393765     -1534.5524
  11   2.0000     -56.393169     -1534.5361
  12   2.0000     -56.393004     -1534.5317
  13   2.0000     -56.391923     -1534.5022
  14   2.0000     -56.391819     -1534.4994
  15   2.0000     -56.391104     -1534.4800
  16   2.0000     -56.391015     -1534.4775
  17   2.0000     -56.390491     -1534.4633
  18   2.0000     -56.390390     -1534.4605
  19   2.0000     -56.390332     -1534.4589
  20   2.0000     -56.390234     -1534.4563
  21   2.0000     -19.334544      -526.1197
  22   2.0000     -19.232219      -523.3353
  23   2.0000     -19.229898      -523.2721
  24   2.0000     -14.454124      -393.3167
  25   2.0000     -14.453416      -393.2974
  26   2.0000     -14.450998      -393.2316
  27   2.0000     -14.449365      -393.1872
  28   2.0000     -14.434030      -392.7699
  29   2.0000     -14.432755      -392.7352
  30   2.0000     -14.432346      -392.7241
  31   2.0000     -14.430786      -392.6817
  32   2.0000     -14.427678      -392.5971
  33   2.0000     -14.425989      -392.5511
  34   2.0000     -10.389680      -282.7176
  35   2.0000     -10.385116      -282.5934
  36   2.0000     -10.383012      -282.5361
  37   2.0000     -10.382869      -282.5322
  38   2.0000     -10.365839      -282.0688
  39   2.0000     -10.364162      -282.0232
  40   2.0000     -10.361518      -281.9513
  41   2.0000     -10.361137      -281.9409
  42   2.0000     -10.361126      -281.9406
  43   2.0000     -10.360018      -281.9104
  44   2.0000     -10.359832      -281.9054
  45   2.0000     -10.358837      -281.8783
  46   2.0000     -10.357509      -281.8421
  47   2.0000     -10.356260      -281.8082
  48   2.0000     -10.353807      -281.7414
  49   2.0000     -10.342061      -281.4218
  50   2.0000     -10.341015      -281.3933
  51   2.0000     -10.340664      -281.3838
  52   2.0000     -10.334077      -281.2045
  53   2.0000     -10.332190      -281.1532
  54   2.0000     -10.328885      -281.0633
  55   2.0000     -10.328462      -281.0517
  56   2.0000     -10.327373      -281.0221
  57   2.0000     -10.326531      -280.9992
  58   2.0000     -10.326109      -280.9877
  59   2.0000     -10.321215      -280.8545
  60   2.0000     -10.319730      -280.8141
  61   2.0000     -10.319159      -280.7986
  62   2.0000     -10.318972      -280.7935
  63   2.0000     -10.318679      -280.7855
  64   2.0000     -10.318333      -280.7761
  65   2.0000     -10.316022      -280.7132
  66   2.0000     -10.315469      -280.6982
  67   2.0000     -10.314581      -280.6740
  68   2.0000     -10.312138      -280.6076
  69   2.0000     -10.312101      -280.6065
  70   2.0000     -10.311831      -280.5992
  71   2.0000     -10.310421      -280.5608
  72   2.0000      -8.789967      -239.1872
  73   2.0000      -8.789150      -239.1649
  74   2.0000      -8.788543      -239.1484
  75   2.0000      -8.788365      -239.1436
  76   2.0000      -8.084873      -220.0006
  77   2.0000      -6.626128      -180.3061
  78   2.0000      -6.625295      -180.2834
  79   2.0000      -6.624744      -180.2684
  80   2.0000      -6.624532      -180.2627
  81   2.0000      -6.612096      -179.9243
  82   2.0000      -6.611273      -179.9019
  83   2.0000      -6.611270      -179.9018
  84   2.0000      -6.610642      -179.8847
  85   2.0000      -6.610480      -179.8803
  86   2.0000      -6.610477      -179.8802
  87   2.0000      -6.609822      -179.8624
  88   2.0000      -6.609664      -179.8581
  89   2.0000      -6.053448      -164.7227
  90   2.0000      -6.050152      -164.6330
  91   2.0000      -6.047329      -164.5562
  92   2.0000      -2.742010       -74.6139
  93   2.0000      -2.741213       -74.5922
  94   2.0000      -2.740636       -74.5765
  95   2.0000      -2.740467       -74.5719
  96   2.0000      -2.738286       -74.5125
  97   2.0000      -2.737625       -74.4946
  98   2.0000      -2.737432       -74.4893
  99   2.0000      -2.736820       -74.4727
 100   2.0000      -2.736804       -74.4722
 101   2.0000      -2.736637       -74.4677
 102   2.0000      -2.736260       -74.4574
 103   2.0000      -2.736031       -74.4512
 104   2.0000      -2.726475       -74.1912
 105   2.0000      -2.726452       -74.1905
 106   2.0000      -2.725658       -74.1689
 107   2.0000      -2.725648       -74.1687
 108   2.0000      -2.725004       -74.1511
 109   2.0000      -2.724990       -74.1508
 110   2.0000      -2.724835       -74.1465
 111   2.0000      -2.724827       -74.1463
 112   2.0000      -1.279124       -34.8067
 113   2.0000      -1.157389       -31.4941
 114   2.0000      -1.148666       -31.2568
 115   2.0000      -1.148366       -31.2486
 116   2.0000      -1.106637       -30.1131
 117   2.0000      -1.104576       -30.0570
 118   2.0000      -1.037073       -28.2202
 119   2.0000      -1.033251       -28.1162
 120   2.0000      -1.019748       -27.7487
 121   2.0000      -1.016895       -27.6711
 122   2.0000      -1.009824       -27.4787
 123   2.0000      -1.006255       -27.3816
 124   2.0000      -0.999351       -27.1937
 125   2.0000      -0.990075       -26.9413
 126   2.0000      -0.985326       -26.8121
 127   2.0000      -0.974555       -26.5190
 128   2.0000      -0.962054       -26.1788
 129   2.0000      -0.945465       -25.7274
 130   2.0000      -0.933938       -25.4137
 131   2.0000      -0.931009       -25.3340
 132   2.0000      -0.927290       -25.2328
 133   2.0000      -0.920294       -25.0425
 134   2.0000      -0.918733       -25.0000
 135   2.0000      -0.912350       -24.8263
 136   2.0000      -0.906740       -24.6737
 137   2.0000      -0.885024       -24.0827
 138   2.0000      -0.874341       -23.7920
 139   2.0000      -0.861412       -23.4402
 140   2.0000      -0.860120       -23.4050
 141   2.0000      -0.856078       -23.2951
 142   2.0000      -0.843311       -22.9477
 143   2.0000      -0.802907       -21.8482
 144   2.0000      -0.801237       -21.8028
 145   2.0000      -0.789771       -21.4908
 146   2.0000      -0.779161       -21.2020
 147   2.0000      -0.777959       -21.1693
 148   2.0000      -0.768731       -20.9182
 149   2.0000      -0.759071       -20.6554
 150   2.0000      -0.752882       -20.4870
 151   2.0000      -0.727071       -19.7846
 152   2.0000      -0.721288       -19.6273
 153   2.0000      -0.715645       -19.4737
 154   2.0000      -0.712693       -19.3934
 155   2.0000      -0.704449       -19.1690
 156   2.0000      -0.698769       -19.0145
 157   2.0000      -0.697269       -18.9736
 158   2.0000      -0.686794       -18.6886
 159   2.0000      -0.684087       -18.6150
 160   2.0000      -0.655961       -17.8496
 161   2.0000      -0.652906       -17.7665
 162   2.0000      -0.644755       -17.5447
 163   2.0000      -0.629161       -17.1203
 164   2.0000      -0.628392       -17.0994
 165   2.0000      -0.625925       -17.0323
 166   2.0000      -0.614976       -16.7343
 167   2.0000      -0.613109       -16.6835
 168   2.0000      -0.606316       -16.4987
 169   2.0000      -0.602413       -16.3925
 170   2.0000      -0.597654       -16.2630
 171   2.0000      -0.589029       -16.0283
 172   2.0000      -0.584087       -15.8938
 173   2.0000      -0.576841       -15.6966
 174   2.0000      -0.564303       -15.3555
 175   2.0000      -0.560349       -15.2479
 176   2.0000      -0.557032       -15.1576
 177   2.0000      -0.555797       -15.1240
 178   2.0000      -0.555090       -15.1048
 179   2.0000      -0.552626       -15.0377
 180   2.0000      -0.551833       -15.0161
 181   2.0000      -0.548902       -14.9364
 182   2.0000      -0.548096       -14.9145
 183   2.0000      -0.540110       -14.6972
 184   2.0000      -0.536117       -14.5885
 185   2.0000      -0.534431       -14.5426
 186   2.0000      -0.530647       -14.4397
 187   2.0000      -0.522685       -14.2230
 188   2.0000      -0.519797       -14.1444
 189   2.0000      -0.513887       -13.9836
 190   2.0000      -0.512985       -13.9590
 191   2.0000      -0.510788       -13.8992
 192   2.0000      -0.508420       -13.8348
 193   2.0000      -0.501341       -13.6422
 194   2.0000      -0.499327       -13.5874
 195   2.0000      -0.498191       -13.5565
 196   2.0000      -0.494203       -13.4480
 197   2.0000      -0.490857       -13.3569
 198   2.0000      -0.487702       -13.2710
 199   2.0000      -0.471268       -12.8239
 200   2.0000      -0.470380       -12.7997
 201   2.0000      -0.470066       -12.7911
 202   2.0000      -0.466916       -12.7054
 203   2.0000      -0.463050       -12.6002
 204   2.0000      -0.461951       -12.5703
 205   2.0000      -0.459161       -12.4944
 206   2.0000      -0.457716       -12.4551
 207   2.0000      -0.453558       -12.3419
 208   2.0000      -0.451992       -12.2993
 209   2.0000      -0.446210       -12.1420
 210   2.0000      -0.442723       -12.0471
 211   2.0000      -0.441767       -12.0211
 212   2.0000      -0.441011       -12.0005
 213   2.0000      -0.439608       -11.9623
 214   2.0000      -0.437069       -11.8932
 215   2.0000      -0.433049       -11.7839
 216   2.0000      -0.430838       -11.7237
 217   2.0000      -0.424586       -11.5536
 218   2.0000      -0.423971       -11.5368
 219   2.0000      -0.413953       -11.2642
 220   2.0000      -0.407321       -11.0838
 221   2.0000      -0.406421       -11.0593
 222   2.0000      -0.406128       -11.0513
 223   2.0000      -0.405880       -11.0446
 224   2.0000      -0.402354       -10.9486
 225   2.0000      -0.399359       -10.8671
 226   2.0000      -0.395995       -10.7756
 227   2.0000      -0.395499       -10.7621
 228   2.0000      -0.386461       -10.5161
 229   2.0000      -0.383999       -10.4491
 230   2.0000      -0.364659        -9.9229
 231   2.0000      -0.360759        -9.8168
 232   2.0000      -0.356194        -9.6925
 233   2.0000      -0.353081        -9.6078
 234   2.0000      -0.352104        -9.5812
 235   2.0000      -0.348429        -9.4812
 236   2.0000      -0.344224        -9.3668
 237   2.0000      -0.342575        -9.3219
 238   2.0000      -0.340392        -9.2625
 239   2.0000      -0.337008        -9.1705
 240   2.0000      -0.335929        -9.1411
 241   2.0000      -0.321291        -8.7428
 242   2.0000      -0.317474        -8.6389
 243   2.0000      -0.312289        -8.4978
 244   2.0000      -0.286546        -7.7973
 245   0.0000      -0.113203        -3.0804
 246   0.0000      -0.104081        -2.8322
 247   0.0000      -0.081989        -2.2310
 248   0.0000      -0.075546        -2.0557
 249   0.0000      -0.064553        -1.7566

MULLIKEN ATOMIC CHARGES
-----------------------
   0 C :    0.149621
   1 O :   -0.087533
   2 C :   -0.030397
   3 C :    0.041031
   4 C :   -0.004988
   5 C :   -0.026595
   6 C :   -0.013961
   7 C :   -0.012483
   8 Br:    0.022968
   9 Br:    0.027782
  10 C :    0.296110
  11 C :   -0.331391
  12 C :   -0.186725
  13 N :    0.170009
  14 C :   -0.194379
  15 N :    0.172935
  16 C :   -0.063041
  17 C :   -0.040714
  18 C :    0.109200
  19 O :   -0.176746
  20 C :    0.145218
  21 N :   -0.082021
  22 N :   -0.021274
  23 C :   -0.011651
  24 C :    0.079910
  25 C :   -0.107953
  26 S :    0.122073
  27 C :   -0.106773
  28 N :   -0.045329
  29 N :   -0.037091
  30 C :    0.073479
  31 C :    0.023785
  32 C :    0.043070
  33 C :    0.045465
  34 N :   -0.036822
  35 C :   -0.090898
  36 N :   -0.071227
  37 C :    0.047679
  38 C :    0.098485
  39 C :   -0.095311
  40 C :    0.139985
  41 O :   -0.121539
  42 C :   -0.002925
  43 C :    0.023600
  44 C :    0.287659
  45 C :   -0.299883
  46 C :   -0.179845
  47 N :    0.161156
  48 C :   -0.193406
  49 N :    0.169857
  50 C :   -0.008093
  51 C :   -0.022677
  52 C :   -0.015546
  53 C :   -0.018039
  54 Br:    0.019903
  55 Br:    0.027050
  56 H :    0.008409
  57 H :    0.010485
  58 H :    0.045766
  59 H :    0.036753
  60 H :    0.030132
  61 H :   -0.001487
  62 H :    0.025604
  63 H :    0.011834
  64 H :    0.013594
  65 H :    0.035153
  66 H :    0.012677
  67 H :    0.010306
Sum of atomic charges:    0.0000000

LOEWDIN ATOMIC CHARGES
----------------------
   0 C :    0.077378
   1 O :   -0.092650
   2 C :   -0.040791
   3 C :   -0.014433
   4 C :   -0.006079
   5 C :   -0.118013
   6 C :   -0.120327
   7 C :    0.009104
   8 Br:    0.144883
   9 Br:    0.146324
  10 C :    0.069866
  11 C :   -0.120065
  12 C :   -0.019661
  13 N :   -0.033695
  14 C :   -0.023218
  15 N :   -0.034438
  16 C :   -0.055570
  17 C :    0.039703
  18 C :    0.010002
  19 O :    0.021817
  20 C :    0.037942
  21 N :   -0.080895
  22 N :   -0.028342
  23 C :   -0.015569
  24 C :   -0.001914
  25 C :   -0.155235
  26 S :    0.405024
  27 C :   -0.143795
  28 N :   -0.073235
  29 N :   -0.064642
  30 C :   -0.044483
  31 C :    0.024817
  32 C :   -0.057085
  33 C :    0.066118
  34 N :   -0.060139
  35 C :    0.015628
  36 N :   -0.068582
  37 C :    0.063054
  38 C :    0.064079
  39 C :   -0.056664
  40 C :    0.086186
  41 O :   -0.120684
  42 C :   -0.045582
  43 C :   -0.006748
  44 C :    0.072776
  45 C :   -0.110368
  46 C :   -0.016289
  47 N :   -0.046809
  48 C :   -0.020186
  49 N :   -0.037020
  50 C :   -0.007833
  51 C :   -0.116232
  52 C :   -0.123037
  53 C :    0.009223
  54 Br:    0.142052
  55 Br:    0.146695
  56 H :    0.044928
  57 H :    0.048143
  58 H :    0.055917
  59 H :    0.051209
  60 H :    0.045654
  61 H :    0.032924
  62 H :    0.043213
  63 H :    0.027408
  64 H :    0.030342
  65 H :    0.054691
  66 H :    0.045489
  67 H :    0.047720

  Mayer bond orders larger than 0.100000
B(  0-C ,  1-O ) :   2.2964 B(  0-C ,  2-C ) :   0.9366 B(  0-C , 16-C ) :   0.9040
B(  2-C ,  3-C ) :   1.3266 B(  2-C ,  7-C ) :   1.3757 B(  3-C ,  4-C ) :   1.3551
B(  3-C , 10-C ) :   1.0028 B(  4-C ,  5-C ) :   1.3806 B(  4-C , 56-H ) :   0.9788
B(  5-C ,  6-C ) :   1.4107 B(  5-C ,  9-Br) :   1.0616 B(  6-C ,  7-C ) :   1.3553
B(  6-C ,  8-Br) :   1.0397 B(  7-C , 57-H ) :   1.0070 B( 10-C , 11-C ) :   1.6670
B( 10-C , 16-C ) :   1.0535 B( 11-C , 12-C ) :   1.1370 B( 11-C , 14-C ) :   1.1387
B( 12-C , 13-N ) :   2.9768 B( 14-C , 15-N ) :   2.9886 B( 16-C , 17-C ) :   1.6851
B( 17-C , 18-C ) :   1.1267 B( 17-C , 58-H ) :   0.9291 B( 18-C , 19-O ) :   1.1276
B( 18-C , 22-N ) :   1.6332 B( 19-O , 20-C ) :   1.1678 B( 20-C , 21-N ) :   1.6362
B( 20-C , 23-C ) :   1.1018 B( 21-N , 22-N ) :   1.2470 B( 23-C , 24-C ) :   1.7375
B( 23-C , 59-H ) :   0.9605 B( 24-C , 25-C ) :   1.0882 B( 24-C , 60-H ) :   0.9543
B( 25-C , 26-S ) :   1.0961 B( 25-C , 29-N ) :   1.6853 B( 26-S , 27-C ) :   1.1074
B( 27-C , 28-N ) :   1.6738 B( 27-C , 30-C ) :   1.0989 B( 28-N , 29-N ) :   1.2377
B( 30-C , 31-C ) :   1.7473 B( 30-C , 61-H ) :   0.9469 B( 31-C , 32-C ) :   1.0499
B( 31-C , 62-H ) :   0.9802 B( 32-C , 33-C ) :   1.3084 B( 32-C , 37-C ) :   1.3044
B( 33-C , 34-N ) :   1.5770 B( 33-C , 63-H ) :   0.9816 B( 34-N , 35-C ) :   1.5039
B( 35-C , 36-N ) :   1.4788 B( 35-C , 38-C ) :   0.9975 B( 36-N , 37-C ) :   1.5525
B( 37-C , 64-H ) :   0.9893 B( 38-C , 39-C ) :   1.7408 B( 38-C , 65-H ) :   0.9495
B( 39-C , 40-C ) :   0.9214 B( 39-C , 44-C ) :   0.9998 B( 40-C , 41-O ) :   2.2932
B( 40-C , 42-C ) :   0.9189 B( 42-C , 43-C ) :   1.3250 B( 42-C , 53-C ) :   1.3682
B( 43-C , 44-C ) :   1.0117 B( 43-C , 50-C ) :   1.3613 B( 44-C , 45-C ) :   1.7080
B( 45-C , 46-C ) :   1.1521 B( 45-C , 48-C ) :   1.1302 B( 46-C , 47-N ) :   2.9885
B( 48-C , 49-N ) :   2.9943 B( 50-C , 51-C ) :   1.3752 B( 50-C , 66-H ) :   0.9833
B( 51-C , 52-C ) :   1.4124 B( 51-C , 55-Br) :   1.0568 B( 52-C , 53-C ) :   1.3622
B( 52-C , 54-Br) :   1.0382 B( 53-C , 67-H ) :   1.0077

-----------------------------------------------------------------------------
         ABSORPTION SPECTRUM VIA TRANSITION ELECTRIC DIPOLE MOMENTS
-----------------------------------------------------------------------------
State   Energy  Wavelength   fosc         T2         TX        TY        TZ
        (cm-1)    (nm)                  (au**2)     (au)      (au)      (au)
-----------------------------------------------------------------------------
   0   22229.3    449.9   1.669273547  24.72160   3.14117   3.69923  -1.08180
   1   24836.6    402.6   0.427376236   5.66492   1.40297   1.88806   0.36308
   2   25988.9    384.8   0.093302376   1.18190  -0.13482   0.58376  -0.90716
   3   26432.5    378.3   0.036147360   0.45021   0.25752   0.58470   0.20498
   4   28411.2    352.0   0.050424406   0.58429  -0.65776   0.26830   0.28223
   5   28675.0    348.7   0.034974165   0.40153  -0.04373   0.62750   0.07657
   6   28827.8    346.9   0.030717473   0.35079  -0.22327  -0.54798   0.02577
   7   29119.0    343.4   0.248604487   2.81066   0.48567  -1.60458   0.01057
   8   29797.2    335.6   0.232484897   2.56859   0.44274   1.52352  -0.22689
   9   30401.5    328.9   0.064730636   0.70096  -0.18611  -0.76654  -0.28061
  10   31117.5    321.4   0.298574672   3.15881  -0.69536  -1.60377   0.32128
  11   31740.1    315.1   0.039742373   0.41221  -0.16252   0.09674   0.61355
  12   32482.4    307.9   0.009211496   0.09336  -0.09288  -0.27111   0.10597
  13   32805.4    304.8   0.101021116   1.01378   0.77163  -0.47836   0.43535
  14   33165.1    301.5   0.013137092   0.13040  -0.28187   0.15315  -0.16583
  15   33682.5    296.9   0.023749034   0.23212  -0.12523  -0.43217   0.17226
  16   34127.9    293.0   0.017191181   0.16583  -0.22990  -0.30750   0.13572
  17   34712.6    288.1   0.742851052   7.04515   1.09873   2.40968   0.17715
  18   35340.0    283.0   0.168265406   1.56749  -0.12579   1.11714  -0.55106
  19   35724.5    279.9   0.540205061   4.97816  -1.76409   1.08678   0.82767
  20   35816.7    279.2   0.010946461   0.10062   0.22837  -0.22014   0.00014
  21   36403.6    274.7   0.000811465   0.00734  -0.01410  -0.08394   0.00972
  22   37271.9    268.3   0.038624286   0.34116  -0.08464  -0.56417   0.12533
  23   37359.1    267.7   0.038375374   0.33817  -0.06995  -0.45902   0.35010
  24   37811.0    264.5   0.004659057   0.04057   0.19747  -0.02790   0.02817
  25   38012.9    263.1   0.002032151   0.01760  -0.04936   0.05673   0.10929
  26   38134.5    262.2   0.003842904   0.03318  -0.09307  -0.12911   0.08856
  27   38891.6    257.1   0.317274998   2.68569   0.47292   1.48487  -0.50714
  28   39010.1    256.3   0.005616115   0.04740   0.19780   0.05743   0.07050
  29   39208.4    255.0   0.193720845   1.62657   0.64740   0.59316   0.92499
  30   40175.0    248.9   0.115818632   0.94907  -0.12804   0.10469   0.96006
  31   40315.6    248.0   0.022782844   0.18604  -0.06401   0.39312  -0.16552

FINAL SINGLE POINT ENERGY    -12919.420243176239

DIPOLE MOMENT
-------------
                                X             Y             Z
Electronic contribution:    -30.93158      30.63462     -72.40897
Nuclear contribution   :     30.30034     -31.20372      73.20534
                        -----------------------------------------
Total Dipole Moment    :     -0.63124      -0.56910       0.79637
                        -----------------------------------------
Magnitude (a.u.)       :      1.16471
Magnitude (Debye)      :      2.96045

Rotational constants in cm-1:     0.002812     0.000136     0.000135
Rotational constants in MHz :    84.293084     4.074867     4.043221

                             ****ORCA TERMINATED NORMALLY****
TOTAL RUN TIME: 0 days 0 hours 5 minutes 45 seconds 504 msec
