                         Program Version 4.2.0 -  RELEASE  -
|  1> # ORCA input file
|  2> # SCF done       -165.823804109913          0.000756790271
|  3> ! CAM-B3LYP def2-SVP def2/J RIJCOSX Grid4 TightSCF
|  4> %maxcore 5000
|  5> %tddft
|  6>     Mode sTDDFT
|  7>     Ethresh 5.0
|  8>     maxcore 5000
|  9> end
| 10>
| 11> %pal
| 12>   nprocs 6
| 13>   end
| 14> * xyz 0 1
| 15>    C        2.54596        -1.85504        -0.82564
| 16>    O        2.08613        -2.82175        -0.27481
| 17>    C        3.70584        -1.05443        -0.36670
| 18>    C        4.01212        -0.06021        -1.31137
| 19>    C        5.08161         0.79297        -1.08620
| 20>    C        5.82050         0.64100         0.08066
| 21>    C        5.50447        -0.34781         1.01647
| 22>    C        4.43923        -1.20958         0.79139
| 23>   Br        6.52393        -0.52778         2.59589
| 24>   Br        7.27859         1.80367         0.38710
| 25>    C        3.06100        -0.14429        -2.41554
| 26>    C        2.99156         0.72363        -3.47108
| 27>    C        3.87694         1.80770        -3.66270
| 28>    N        4.56771         2.69844        -3.87509
| 29>    C        2.02949         0.68397        -4.50462
| 30>    N        1.28076         0.72857        -5.37304
| 31>    C        2.16988        -1.26192        -2.14325
| 32>    C        1.25180        -1.76868        -3.00789
| 33>    C        0.28577        -2.76978        -2.73397
| 34>    S       -0.49941        -3.63171        -4.06992
| 35>    C       -1.42731        -4.44055        -2.82454
| 36>    N       -1.12163        -4.02103        -1.62011
| 37>    N       -0.19681        -3.12225        -1.57823
| 38>    C       -2.40683        -5.42130        -3.13388
| 39>    C       -3.13182        -6.01992        -2.15982
| 40>    C       -4.15244        -7.00099        -2.28427
| 41>    S       -4.68603        -7.73270        -0.79959
| 42>    C       -5.81150        -8.76201        -1.62814
| 43>    C       -5.74786        -8.55668        -2.99907
| 44>    C       -4.83913        -7.54196        -3.36897
| 45>    C       -4.69698        -7.07739        -4.78260
| 46>    S       -5.03657        -5.26247        -4.91294
| 47>    C       -5.60974        -7.82296        -5.75285
| 48>    C       -5.70354        -9.29020        -5.36758
| 49>    C       -6.44532        -9.41403        -4.03223
| 50>    O       -6.57240       -10.75854        -3.64064
| 51>    C       -6.62364        -9.62042        -0.82178
| 52>    C       -7.81528       -10.14158        -1.17363
| 53>    C       -8.61343       -11.01525        -0.35866
| 54>    C       -9.92051       -11.35352        -0.75266
| 55>    N      -10.68663       -12.16934        -0.07067
| 56>    C      -10.16658       -12.73449         1.02008
| 57>    N       -8.94641       -12.47311         1.49965
| 58>    C       -8.19737       -11.62301         0.83712
| 59>    C      -11.02932       -13.64062         1.74066
| 60>    C      -10.68931       -14.56928         2.65884
| 61>    C      -11.73918       -15.14383         3.55557
| 62>    O      -12.93361       -15.08798         3.40668
| 63>    C      -10.98789       -15.73503         4.68377
| 64>    C       -9.60550       -15.65280         4.42846
| 65>    C       -9.39973       -15.07692         3.10242
| 66>    C       -8.27509       -15.21708         2.34395
| 67>    C       -8.20161       -14.91004         0.96655
| 68>    N       -8.08509       -14.76671        -0.16550
| 69>    C       -7.07468       -15.78770         2.82061
| 70>    N       -6.07559       -16.22924         3.17047
| 71>    C       -8.70272       -16.11862         5.37033
| 72>    C       -9.19441       -16.66955         6.54761
| 73>    C      -10.56877       -16.76351         6.78596
| 74>    C      -11.47756       -16.29008         5.84892
| 75>   Br      -11.20843       -17.53221         8.38829
| 76>   Br       -7.96545       -17.29718         7.83738
| 77>    H        5.35930         1.56394        -1.78638
| 78>    H        4.18571        -1.98039         1.50260
| 79>    H        1.22743        -1.39526        -4.02354
| 80>    H       -2.52936        -5.64063        -4.18040
| 81>    H       -2.89438        -5.73570        -1.14219
| 82>    H       -3.65628        -7.17304        -5.10411
| 83>    H       -6.28148        -5.32819        -4.44696
| 84>    H       -5.22494        -7.70893        -6.76643
| 85>    H       -6.61151        -7.38715        -5.72738
| 86>    H       -4.70274        -9.72006        -5.26852
| 87>    H       -6.24436        -9.85493        -6.12726
| 88>    H       -7.47774        -9.06290        -4.16823
| 89>    H       -5.69591       -11.14453        -3.53198
| 90>    H       -6.23775        -9.78811         0.17537
| 91>    H       -8.23917        -9.91235        -2.13885
| 92>    H      -10.35471       -10.93392        -1.65185
| 93>    H       -7.22022       -11.43789         1.26401
| 94>    H      -12.08769       -13.50505         1.54963
| 95>    H       -7.63687       -16.05678         5.21966
| 96>    H      -12.54025       -16.35417         6.02459
| 97> *
| 98>
| 99>                          ****END OF INPUT****

CARTESIAN COORDINATES (ANGSTROEM)
---------------------------------
  C      2.545960   -1.855040   -0.825640
  O      2.086130   -2.821750   -0.274810
  C      3.705840   -1.054430   -0.366700
  C      4.012120   -0.060210   -1.311370
  C      5.081610    0.792970   -1.086200
  C      5.820500    0.641000    0.080660
  C      5.504470   -0.347810    1.016470
  C      4.439230   -1.209580    0.791390
  Br     6.523930   -0.527780    2.595890
  Br     7.278590    1.803670    0.387100
  C      3.061000   -0.144290   -2.415540
  C      2.991560    0.723630   -3.471080
  C      3.876940    1.807700   -3.662700
  N      4.567710    2.698440   -3.875090
  C      2.029490    0.683970   -4.504620
  N      1.280760    0.728570   -5.373040
  C      2.169880   -1.261920   -2.143250
  C      1.251800   -1.768680   -3.007890
  C      0.285770   -2.769780   -2.733970
  S     -0.499410   -3.631710   -4.069920
  C     -1.427310   -4.440550   -2.824540
  N     -1.121630   -4.021030   -1.620110
  N     -0.196810   -3.122250   -1.578230
  C     -2.406830   -5.421300   -3.133880
  C     -3.131820   -6.019920   -2.159820
  C     -4.152440   -7.000990   -2.284270
  S     -4.686030   -7.732700   -0.799590
  C     -5.811500   -8.762010   -1.628140
  C     -5.747860   -8.556680   -2.999070
  C     -4.839130   -7.541960   -3.368970
  C     -4.696980   -7.077390   -4.782600
  S     -5.036570   -5.262470   -4.912940
  C     -5.609740   -7.822960   -5.752850
  C     -5.703540   -9.290200   -5.367580
  C     -6.445320   -9.414030   -4.032230
  O     -6.572400  -10.758540   -3.640640
  C     -6.623640   -9.620420   -0.821780
  C     -7.815280  -10.141580   -1.173630
  C     -8.613430  -11.015250   -0.358660
  C     -9.920510  -11.353520   -0.752660
  N    -10.686630  -12.169340   -0.070670
  C    -10.166580  -12.734490    1.020080
  N     -8.946410  -12.473110    1.499650
  C     -8.197370  -11.623010    0.837120
  C    -11.029320  -13.640620    1.740660
  C    -10.689310  -14.569280    2.658840
  C    -11.739180  -15.143830    3.555570
  O    -12.933610  -15.087980    3.406680
  C    -10.987890  -15.735030    4.683770
  C     -9.605500  -15.652800    4.428460
  C     -9.399730  -15.076920    3.102420
  C     -8.275090  -15.217080    2.343950
  C     -8.201610  -14.910040    0.966550
  N     -8.085090  -14.766710   -0.165500
  C     -7.074680  -15.787700    2.820610
  N     -6.075590  -16.229240    3.170470
  C     -8.702720  -16.118620    5.370330
  C     -9.194410  -16.669550    6.547610
  C    -10.568770  -16.763510    6.785960
  C    -11.477560  -16.290080    5.848920
  Br   -11.208430  -17.532210    8.388290
  Br    -7.965450  -17.297180    7.837380
  H      5.359300    1.563940   -1.786380
  H      4.185710   -1.980390    1.502600
  H      1.227430   -1.395260   -4.023540
  H     -2.529360   -5.640630   -4.180400
  H     -2.894380   -5.735700   -1.142190
  H     -3.656280   -7.173040   -5.104110
  H     -6.281480   -5.328190   -4.446960
  H     -5.224940   -7.708930   -6.766430
  H     -6.611510   -7.387150   -5.727380
  H     -4.702740   -9.720060   -5.268520
  H     -6.244360   -9.854930   -6.127260
  H     -7.477740   -9.062900   -4.168230
  H     -5.695910  -11.144530   -3.531980
  H     -6.237750   -9.788110    0.175370
  H     -8.239170   -9.912350   -2.138850
  H    -10.354710  -10.933920   -1.651850
  H     -7.220220  -11.437890    1.264010
  H    -12.087690  -13.505050    1.549630
  H     -7.636870  -16.056780    5.219660
  H    -12.540250  -16.354170    6.024590

 Total Charge           Charge          ....    0
 Multiplicity           Mult            ....    1
 Number of Electrons    NEL             ....  552
 Basis Dimension        Dim             .... 1052

ORBITAL ENERGIES
----------------

  NO   OCC          E(Eh)            E(eV)
   0   2.0000    -482.879743    -13139.8258
   1   2.0000    -482.878928    -13139.8036
   2   2.0000    -482.878841    -13139.8013
   3   2.0000    -482.877258    -13139.7582
   4   2.0000     -88.981619     -2421.3129
   5   2.0000     -88.971991     -2421.0510
   6   2.0000     -88.927423     -2419.8382
   7   2.0000     -62.557343     -1702.2718
   8   2.0000     -62.556529     -1702.2497
   9   2.0000     -62.556488     -1702.2486
  10   2.0000     -62.554861     -1702.2043
  11   2.0000     -56.391293     -1534.4851
  12   2.0000     -56.390477     -1534.4629
  13   2.0000     -56.390448     -1534.4621
  14   2.0000     -56.388826     -1534.4180
  15   2.0000     -56.388635     -1534.4128
  16   2.0000     -56.388549     -1534.4104
  17   2.0000     -56.387832     -1534.3909
  18   2.0000     -56.387776     -1534.3894
  19   2.0000     -56.387727     -1534.3881
  20   2.0000     -56.387683     -1534.3869
  21   2.0000     -56.386153     -1534.3452
  22   2.0000     -56.386057     -1534.3426
  23   2.0000     -19.227921      -523.2183
  24   2.0000     -19.226476      -523.1790
  25   2.0000     -19.221447      -523.0422
  26   2.0000     -14.450847      -393.2275
  27   2.0000     -14.443501      -393.0276
  28   2.0000     -14.430330      -392.6693
  29   2.0000     -14.427294      -392.5866
  30   2.0000     -14.426556      -392.5665
  31   2.0000     -14.424698      -392.5160
  32   2.0000     -14.424591      -392.5131
  33   2.0000     -14.420081      -392.3904
  34   2.0000     -10.378694      -282.4186
  35   2.0000     -10.374572      -282.3064
  36   2.0000     -10.358324      -281.8643
  37   2.0000     -10.357998      -281.8554
  38   2.0000     -10.357033      -281.8292
  39   2.0000     -10.356490      -281.8144
  40   2.0000     -10.356347      -281.8105
  41   2.0000     -10.355906      -281.7985
  42   2.0000     -10.354768      -281.7676
  43   2.0000     -10.354311      -281.7551
  44   2.0000     -10.353222      -281.7255
  45   2.0000     -10.349035      -281.6116
  46   2.0000     -10.348805      -281.6053
  47   2.0000     -10.341369      -281.4029
  48   2.0000     -10.336026      -281.2576
  49   2.0000     -10.332755      -281.1685
  50   2.0000     -10.332517      -281.1621
  51   2.0000     -10.329198      -281.0718
  52   2.0000     -10.326860      -281.0082
  53   2.0000     -10.326527      -280.9991
  54   2.0000     -10.326009      -280.9850
  55   2.0000     -10.323235      -280.9095
  56   2.0000     -10.323067      -280.9049
  57   2.0000     -10.322564      -280.8913
  58   2.0000     -10.321063      -280.8504
  59   2.0000     -10.319005      -280.7944
  60   2.0000     -10.316597      -280.7289
  61   2.0000     -10.315957      -280.7115
  62   2.0000     -10.315163      -280.6899
  63   2.0000     -10.315000      -280.6854
  64   2.0000     -10.314248      -280.6650
  65   2.0000     -10.312991      -280.6308
  66   2.0000     -10.310955      -280.5753
  67   2.0000     -10.309320      -280.5308
  68   2.0000     -10.308393      -280.5056
  69   2.0000     -10.307018      -280.4682
  70   2.0000     -10.305736      -280.4333
  71   2.0000     -10.304826      -280.4086
  72   2.0000     -10.302569      -280.3472
  73   2.0000     -10.298925      -280.2480
  74   2.0000     -10.297401      -280.2065
  75   2.0000     -10.296331      -280.1774
  76   2.0000     -10.288431      -279.9624
  77   2.0000     -10.282377      -279.7977
  78   2.0000      -8.786661      -239.0972
  79   2.0000      -8.785849      -239.0751
  80   2.0000      -8.785831      -239.0746
  81   2.0000      -8.784175      -239.0296
  82   2.0000      -8.077926      -219.8115
  83   2.0000      -8.067969      -219.5406
  84   2.0000      -8.022682      -218.3083
  85   2.0000      -6.622783      -180.2151
  86   2.0000      -6.622020      -180.1943
  87   2.0000      -6.621976      -180.1931
  88   2.0000      -6.620350      -180.1489
  89   2.0000      -6.608779      -179.8340
  90   2.0000      -6.608014      -179.8132
  91   2.0000      -6.608000      -179.8128
  92   2.0000      -6.607924      -179.8107
  93   2.0000      -6.607161      -179.7900
  94   2.0000      -6.607148      -179.7896
  95   2.0000      -6.606275      -179.7659
  96   2.0000      -6.605489      -179.7445
  97   2.0000      -6.046459      -164.5325
  98   2.0000      -6.043244      -164.4450
  99   2.0000      -6.040412      -164.3680
 100   2.0000      -6.036937      -164.2734
 101   2.0000      -6.033084      -164.1686
 102   2.0000      -6.030348      -164.0941
 103   2.0000      -5.993363      -163.0877
 104   2.0000      -5.989153      -162.9731
 105   2.0000      -5.982105      -162.7813
 106   2.0000      -2.738719       -74.5243
 107   2.0000      -2.737884       -74.5016
 108   2.0000      -2.737871       -74.5013
 109   2.0000      -2.736242       -74.4569
 110   2.0000      -2.734919       -74.4209
 111   2.0000      -2.734315       -74.4045
 112   2.0000      -2.734164       -74.4004
 113   2.0000      -2.734106       -74.3988
 114   2.0000      -2.733536       -74.3833
 115   2.0000      -2.733505       -74.3824
 116   2.0000      -2.732432       -74.3533
 117   2.0000      -2.731894       -74.3386
 118   2.0000      -2.723186       -74.1017
 119   2.0000      -2.723162       -74.1010
 120   2.0000      -2.722368       -74.0794
 121   2.0000      -2.722358       -74.0791
 122   2.0000      -2.722328       -74.0783
 123   2.0000      -2.722300       -74.0775
 124   2.0000      -2.720662       -74.0330
 125   2.0000      -2.720643       -74.0325
 126   2.0000      -1.154836       -31.4247
 127   2.0000      -1.144168       -31.1344
 128   2.0000      -1.138666       -30.9847
 129   2.0000      -1.120531       -30.4912
 130   2.0000      -1.100600       -29.9488
 131   2.0000      -1.030941       -28.0533
 132   2.0000      -1.029317       -28.0091
 133   2.0000      -1.014244       -27.5990
 134   2.0000      -1.013197       -27.5705
 135   2.0000      -1.009195       -27.4616
 136   2.0000      -1.004221       -27.3262
 137   2.0000      -1.002136       -27.2695
 138   2.0000      -0.993331       -27.0299
 139   2.0000      -0.983136       -26.7525
 140   2.0000      -0.981509       -26.7082
 141   2.0000      -0.955416       -25.9982
 142   2.0000      -0.947970       -25.7956
 143   2.0000      -0.939190       -25.5567
 144   2.0000      -0.936739       -25.4900
 145   2.0000      -0.924691       -25.1621
 146   2.0000      -0.924378       -25.1536
 147   2.0000      -0.916596       -24.9419
 148   2.0000      -0.914781       -24.8924
 149   2.0000      -0.910281       -24.7700
 150   2.0000      -0.899929       -24.4883
 151   2.0000      -0.893440       -24.3117
 152   2.0000      -0.876103       -23.8400
 153   2.0000      -0.868206       -23.6251
 154   2.0000      -0.857053       -23.3216
 155   2.0000      -0.856441       -23.3049
 156   2.0000      -0.854204       -23.2441
 157   2.0000      -0.850051       -23.1311
 158   2.0000      -0.843711       -22.9585
 159   2.0000      -0.816257       -22.2115
 160   2.0000      -0.791680       -21.5427
 161   2.0000      -0.789966       -21.4961
 162   2.0000      -0.783130       -21.3101
 163   2.0000      -0.774149       -21.0657
 164   2.0000      -0.771285       -20.9877
 165   2.0000      -0.763525       -20.7766
 166   2.0000      -0.754500       -20.5310
 167   2.0000      -0.737407       -20.0659
 168   2.0000      -0.732370       -19.9288
 169   2.0000      -0.724001       -19.7011
 170   2.0000      -0.716903       -19.5079
 171   2.0000      -0.710910       -19.3448
 172   2.0000      -0.704482       -19.1699
 173   2.0000      -0.698409       -19.0047
 174   2.0000      -0.694342       -18.8940
 175   2.0000      -0.688154       -18.7256
 176   2.0000      -0.680332       -18.5128
 177   2.0000      -0.675921       -18.3928
 178   2.0000      -0.663274       -18.0486
 179   2.0000      -0.660212       -17.9653
 180   2.0000      -0.647318       -17.6144
 181   2.0000      -0.637305       -17.3420
 182   2.0000      -0.633415       -17.2361
 183   2.0000      -0.623963       -16.9789
 184   2.0000      -0.621351       -16.9078
 185   2.0000      -0.608150       -16.5486
 186   2.0000      -0.605160       -16.4672
 187   2.0000      -0.599712       -16.3190
 188   2.0000      -0.595555       -16.2059
 189   2.0000      -0.588062       -16.0020
 190   2.0000      -0.582477       -15.8500
 191   2.0000      -0.577140       -15.7048
 192   2.0000      -0.566384       -15.4121
 193   2.0000      -0.563570       -15.3355
 194   2.0000      -0.559583       -15.2270
 195   2.0000      -0.556704       -15.1487
 196   2.0000      -0.553849       -15.0710
 197   2.0000      -0.553155       -15.0521
 198   2.0000      -0.552196       -15.0260
 199   2.0000      -0.548644       -14.9294
 200   2.0000      -0.545586       -14.8461
 201   2.0000      -0.544101       -14.8057
 202   2.0000      -0.542229       -14.7548
 203   2.0000      -0.535659       -14.5760
 204   2.0000      -0.534926       -14.5561
 205   2.0000      -0.533146       -14.5077
 206   2.0000      -0.529262       -14.4020
 207   2.0000      -0.524753       -14.2793
 208   2.0000      -0.521447       -14.1893
 209   2.0000      -0.519245       -14.1294
 210   2.0000      -0.513838       -13.9822
 211   2.0000      -0.511311       -13.9135
 212   2.0000      -0.510018       -13.8783
 213   2.0000      -0.508852       -13.8466
 214   2.0000      -0.506405       -13.7800
 215   2.0000      -0.502545       -13.6749
 216   2.0000      -0.501170       -13.6375
 217   2.0000      -0.494545       -13.4572
 218   2.0000      -0.493496       -13.4287
 219   2.0000      -0.491239       -13.3673
 220   2.0000      -0.485883       -13.2215
 221   2.0000      -0.484904       -13.1949
 222   2.0000      -0.478427       -13.0187
 223   2.0000      -0.468415       -12.7462
 224   2.0000      -0.467192       -12.7129
 225   2.0000      -0.465755       -12.6738
 226   2.0000      -0.464467       -12.6388
 227   2.0000      -0.463537       -12.6135
 228   2.0000      -0.461397       -12.5552
 229   2.0000      -0.458163       -12.4672
 230   2.0000      -0.456578       -12.4241
 231   2.0000      -0.452305       -12.3079
 232   2.0000      -0.449521       -12.2321
 233   2.0000      -0.447101       -12.1662
 234   2.0000      -0.442915       -12.0523
 235   2.0000      -0.439860       -11.9692
 236   2.0000      -0.439112       -11.9488
 237   2.0000      -0.437662       -11.9094
 238   2.0000      -0.437520       -11.9055
 239   2.0000      -0.435138       -11.8407
 240   2.0000      -0.433586       -11.7985
 241   2.0000      -0.431866       -11.7517
 242   2.0000      -0.430179       -11.7058
 243   2.0000      -0.426314       -11.6006
 244   2.0000      -0.420180       -11.4337
 245   2.0000      -0.419248       -11.4083
 246   2.0000      -0.414941       -11.2911
 247   2.0000      -0.405586       -11.0366
 248   2.0000      -0.403387       -10.9767
 249   2.0000      -0.402395       -10.9497
 250   2.0000      -0.402008       -10.9392
 251   2.0000      -0.400106       -10.8874
 252   2.0000      -0.399111       -10.8603
 253   2.0000      -0.395045       -10.7497
 254   2.0000      -0.393233       -10.7004
 255   2.0000      -0.391716       -10.6591
 256   2.0000      -0.390343       -10.6218
 257   2.0000      -0.379348       -10.3226
 258   2.0000      -0.374796       -10.1987
 259   2.0000      -0.363252        -9.8846
 260   2.0000      -0.355951        -9.6859
 261   2.0000      -0.350877        -9.5478
 262   2.0000      -0.350502        -9.5377
 263   2.0000      -0.346023        -9.4158
 264   2.0000      -0.344811        -9.3828
 265   2.0000      -0.341839        -9.3019
 266   2.0000      -0.337956        -9.1962
 267   2.0000      -0.336123        -9.1464
 268   2.0000      -0.332679        -9.0527
 269   2.0000      -0.328405        -8.9364
 270   2.0000      -0.320575        -8.7233
 271   2.0000      -0.316347        -8.6082
 272   2.0000      -0.312429        -8.5016
 273   2.0000      -0.311410        -8.4739
 274   2.0000      -0.300802        -8.1852
 275   2.0000      -0.263183        -7.1616
 276   0.0000      -0.108382        -2.9492
 277   0.0000      -0.099286        -2.7017
 278   0.0000      -0.076030        -2.0689
 279   0.0000      -0.070671        -1.9231
 280   0.0000      -0.056338        -1.5330

MULLIKEN ATOMIC CHARGES
-----------------------
   0 C :    0.144287
   1 O :   -0.090168
   2 C :   -0.023383
   3 C :    0.038046
   4 C :   -0.008150
   5 C :   -0.026333
   6 C :   -0.014570
   7 C :   -0.019221
   8 Br:    0.018266
   9 Br:    0.023598
  10 C :    0.301953
  11 C :   -0.335656
  12 C :   -0.188597
  13 N :    0.162328
  14 C :   -0.191661
  15 N :    0.166151
  16 C :   -0.070601
  17 C :    0.051629
  18 C :   -0.141122
  19 S :    0.112207
  20 C :   -0.098225
  21 N :   -0.058032
  22 N :    0.018900
  23 C :    0.069284
  24 C :    0.075353
  25 C :   -0.112654
  26 S :    0.152391
  27 C :   -0.132241
  28 C :   -0.080566
  29 C :    0.042935
  30 C :   -0.218544
  31 S :   -0.021628
  32 C :    0.123288
  33 C :    0.048388
  34 C :    0.193859
  35 O :   -0.287530
  36 C :    0.042907
  37 C :    0.056338
  38 C :    0.029695
  39 C :    0.032987
  40 N :   -0.034105
  41 C :   -0.086554
  42 N :   -0.076247
  43 C :    0.050848
  44 C :    0.093229
  45 C :   -0.091289
  46 C :    0.139186
  47 O :   -0.122614
  48 C :   -0.005191
  49 C :    0.026058
  50 C :    0.282168
  51 C :   -0.297588
  52 C :   -0.182502
  53 N :    0.163466
  54 C :   -0.193872
  55 N :    0.166422
  56 C :   -0.014145
  57 C :   -0.019840
  58 C :   -0.014606
  59 C :   -0.022587
  60 Br:    0.016946
  61 Br:    0.023372
  62 H :    0.007999
  63 H :    0.009136
  64 H :    0.022941
  65 H :   -0.023484
  66 H :    0.020279
  67 H :    0.059532
  68 H :    0.054101
  69 H :    0.015075
  70 H :    0.000170
  71 H :   -0.003441
  72 H :    0.018651
  73 H :    0.011722
  74 H :    0.170756
  75 H :   -0.009813
  76 H :   -0.010960
  77 H :    0.008848
  78 H :    0.007970
  79 H :    0.031010
  80 H :    0.012852
  81 H :    0.010195
Sum of atomic charges:   -0.0000000

LOEWDIN ATOMIC CHARGES
----------------------
   0 C :    0.076156
   1 O :   -0.096703
   2 C :   -0.039212
   3 C :   -0.015216
   4 C :   -0.006861
   5 C :   -0.119448
   6 C :   -0.120643
   7 C :    0.007066
   8 Br:    0.140982
   9 Br:    0.142380
  10 C :    0.072421
  11 C :   -0.127284
  12 C :   -0.019397
  13 N :   -0.039674
  14 C :   -0.022727
  15 N :   -0.040938
  16 C :   -0.067279
  17 C :    0.035879
  18 C :   -0.169507
  19 S :    0.400233
  20 C :   -0.126853
  21 N :   -0.080955
  22 N :   -0.018161
  23 C :   -0.069221
  24 C :    0.008850
  25 C :   -0.175962
  26 S :    0.465279
  27 C :   -0.162831
  28 C :   -0.080132
  29 C :   -0.064220
  30 C :   -0.119605
  31 S :    0.182574
  32 C :   -0.036505
  33 C :   -0.038425
  34 C :    0.059361
  35 O :   -0.108565
  36 C :   -0.037087
  37 C :   -0.000282
  38 C :   -0.050148
  39 C :    0.055422
  40 N :   -0.059713
  41 C :    0.009653
  42 N :   -0.063554
  43 C :    0.062645
  44 C :    0.064296
  45 C :   -0.061498
  46 C :    0.085599
  47 O :   -0.123160
  48 C :   -0.045917
  49 C :   -0.006351
  50 C :    0.070397
  51 C :   -0.109744
  52 C :   -0.017121
  53 N :   -0.048279
  54 C :   -0.019589
  55 N :   -0.040898
  56 C :   -0.009335
  57 C :   -0.116720
  58 C :   -0.123883
  59 C :    0.008479
  60 Br:    0.139750
  61 Br:    0.144034
  62 H :    0.044589
  63 H :    0.047309
  64 H :    0.046343
  65 H :    0.018745
  66 H :    0.040428
  67 H :    0.032103
  68 H :   -0.032889
  69 H :    0.032659
  70 H :    0.021630
  71 H :    0.020668
  72 H :    0.031732
  73 H :    0.025140
  74 H :    0.079372
  75 H :    0.027100
  76 H :    0.033185
  77 H :    0.028117
  78 H :    0.025386
  79 H :    0.053956
  80 H :    0.045134
  81 H :    0.047437

  Mayer bond orders larger than 0.100000
B(  0-C ,  1-O ) :   2.2963 B(  0-C ,  2-C ) :   0.9322 B(  0-C , 16-C ) :   0.9123
B(  2-C ,  3-C ) :   1.3300 B(  2-C ,  7-C ) :   1.3727 B(  3-C ,  4-C ) :   1.3564
B(  3-C , 10-C ) :   0.9990 B(  4-C ,  5-C ) :   1.3792 B(  4-C , 62-H ) :   0.9790
B(  5-C ,  6-C ) :   1.4154 B(  5-C ,  9-Br) :   1.0590 B(  6-C ,  7-C ) :   1.3540
B(  6-C ,  8-Br) :   1.0377 B(  7-C , 63-H ) :   1.0081 B( 10-C , 11-C ) :   1.6531
B( 10-C , 16-C ) :   1.0631 B( 11-C , 12-C ) :   1.1389 B( 11-C , 14-C ) :   1.1389
B( 12-C , 13-N ) :   2.9735 B( 14-C , 15-N ) :   2.9817 B( 16-C , 17-C ) :   1.6748
B( 17-C , 18-C ) :   1.1373 B( 17-C , 64-H ) :   0.9195 B( 18-C , 19-S ) :   1.0647
B( 18-C , 22-N ) :   1.6355 B( 19-S , 20-C ) :   1.1319 B( 19-S , 22-N ) :   0.1101
B( 20-C , 21-N ) :   1.6077 B( 20-C , 23-C ) :   1.1423 B( 21-N , 22-N ) :   1.2745
B( 23-C , 24-C ) :   1.6835 B( 23-C , 65-H ) :   0.9364 B( 24-C , 25-C ) :   1.1359
B( 24-C , 66-H ) :   0.9481 B( 25-C , 26-S ) :   1.1311 B( 25-C , 29-C ) :   1.4615
B( 26-S , 27-C ) :   1.1482 B( 27-C , 28-C ) :   1.5008 B( 27-C , 36-C ) :   1.1012
B( 28-C , 29-C ) :   1.3449 B( 28-C , 34-C ) :   0.9550 B( 29-C , 30-C ) :   0.9642
B( 30-C , 31-S ) :   1.0537 B( 30-C , 32-C ) :   1.0203 B( 30-C , 67-H ) :   0.8980
B( 31-S , 68-H ) :   0.9531 B( 32-C , 33-C ) :   1.0553 B( 32-C , 69-H ) :   0.9266
B( 32-C , 70-H ) :   0.9306 B( 33-C , 34-C ) :   1.0762 B( 33-C , 71-H ) :   0.9315
B( 33-C , 72-H ) :   0.9291 B( 34-C , 35-O ) :   1.0559 B( 34-C , 73-H ) :   0.8823
B( 35-O , 74-H ) :   0.9737 B( 36-C , 37-C ) :   1.7163 B( 36-C , 75-H ) :   0.9436
B( 37-C , 38-C ) :   1.1002 B( 37-C , 76-H ) :   0.9691 B( 38-C , 39-C ) :   1.2972
B( 38-C , 43-C ) :   1.2986 B( 39-C , 40-N ) :   1.5738 B( 39-C , 77-H ) :   0.9870
B( 40-N , 41-C ) :   1.5126 B( 41-C , 42-N ) :   1.4657 B( 41-C , 44-C ) :   1.0161
B( 42-N , 43-C ) :   1.5671 B( 43-C , 78-H ) :   0.9817 B( 44-C , 45-C ) :   1.7060
B( 44-C , 79-H ) :   0.9499 B( 45-C , 46-C ) :   0.9252 B( 45-C , 50-C ) :   1.0063
B( 46-C , 47-O ) :   2.2910 B( 46-C , 48-C ) :   0.9208 B( 48-C , 49-C ) :   1.3261
B( 48-C , 59-C ) :   1.3668 B( 49-C , 50-C ) :   1.0090 B( 49-C , 56-C ) :   1.3616
B( 50-C , 51-C ) :   1.7057 B( 51-C , 52-C ) :   1.1539 B( 51-C , 54-C ) :   1.1344
B( 52-C , 53-N ) :   2.9827 B( 54-C , 55-N ) :   2.9919 B( 56-C , 57-C ) :   1.3721
B( 56-C , 80-H ) :   0.9838 B( 57-C , 58-C ) :   1.4146 B( 57-C , 61-Br) :   1.0540
B( 58-C , 59-C ) :   1.3612 B( 58-C , 60-Br) :   1.0360 B( 59-C , 81-H ) :   1.0086

-----------------------------------------------------------------------------
         ABSORPTION SPECTRUM VIA TRANSITION ELECTRIC DIPOLE MOMENTS
-----------------------------------------------------------------------------
State   Energy  Wavelength   fosc         T2         TX        TY        TZ
        (cm-1)    (nm)                  (au**2)     (au)      (au)      (au)
-----------------------------------------------------------------------------
   0   19246.1    519.6   1.906802054  32.61659   3.85443   4.06969  -1.09434
   1   22051.7    453.5   0.045233003   0.67529   0.33361   0.54170  -0.52015
   2   22567.3    443.1   0.114703084   1.67329   0.33933  -0.63349   1.07556
   3   26334.6    379.7   0.028512246   0.35643  -0.32064  -0.19125   0.46588
   4   27177.3    368.0   0.049279991   0.59695   0.68933   0.33808  -0.08650
   5   27413.6    364.8   0.109314281   1.31276  -0.99137  -0.56063   0.12508
   6   28349.1    352.7   0.184769977   2.14570  -0.99668  -0.87484   0.62208
   7   28675.9    348.7   0.028956133   0.33243  -0.33894  -0.29250  -0.36331
   8   28887.6    346.2   0.149277923   1.70122  -1.10628   0.22811  -0.65217
   9   29084.0    343.8   0.160669833   1.81868  -0.78708  -0.56921   0.93552
  10   30205.8    331.1   0.013369465   0.14571   0.17944   0.33445  -0.04070
  11   30620.3    326.6   0.072588888   0.78044   0.72217   0.47493  -0.18260
  12   30653.1    326.2   0.282351196   3.03243  -0.47901   0.14005  -1.66834
  13   31410.8    318.4   0.189865829   1.98996  -0.57045  -1.26241   0.26618
  14   31790.5    314.6   0.096022565   0.99438   0.13560  -0.77240   0.61594
  15   33032.0    302.7   0.133204983   1.32758   0.61644   0.22375   0.94738
  16   33191.6    301.3   0.126022642   1.24996   0.90301   0.43307  -0.49698
  17   33967.2    294.4   0.024963861   0.24195   0.10310   0.27601  -0.39388
  18   34227.0    292.2   0.055732841   0.53607   0.30200   0.04004  -0.66578
  19   34677.9    288.4   0.076378108   0.72509  -0.04085  -0.24148   0.81554
  20   34896.6    286.6   0.009394597   0.08863  -0.01742   0.14965   0.25677
  21   35331.2    283.0   0.420853850   3.92147  -1.23576  -0.57339   1.43721
  22   35509.2    281.6   0.007963057   0.07383  -0.24736   0.11098   0.01796
  23   35939.5    278.2   0.557089308   5.10303   0.84362  -0.75573   1.95454
  24   36698.9    272.5   0.073817823   0.66219   0.61355   0.28331  -0.45331
  25   36947.3    270.7   0.002549494   0.02272   0.02949   0.10421  -0.10482
  26   37174.9    269.0   0.092046030   0.81514   0.32492   0.83179  -0.13302
  27   37305.5    268.1   0.239738220   2.11563   0.75891   0.55995  -1.10731
  28   37432.7    267.1   0.054594179   0.48014  -0.27978  -0.51797   0.36548
  29   37754.5    264.9   0.037989903   0.33126  -0.02249  -0.49136  -0.29887
  30   37806.1    264.5   0.011620710   0.10119   0.04385   0.31244   0.04061
  31   38369.7    260.6   0.029365064   0.25195  -0.47662   0.07156  -0.14024
  32   38478.2    259.9   0.000758940   0.00649  -0.04102   0.01989  -0.06645
  33   38640.7    258.8   0.038636913   0.32918   0.51633  -0.21493   0.12803
  34   38838.0    257.5   0.173170408   1.46789  -0.71941   0.41078  -0.88408
  35   39171.0    255.3   0.100737084   0.84664  -0.69760   0.07896  -0.59478
  36   39469.2    253.4   0.037249256   0.31070  -0.24621  -0.36109  -0.34597
  37   39782.1    251.4   0.091202837   0.75474  -0.36111   0.59216  -0.52315
  38   40124.9    249.2   0.010394096   0.08528  -0.17241   0.06666   0.22607

FINAL SINGLE POINT ENERGY    -13839.361186209973

DIPOLE MOMENT
-------------
                                X             Y             Z
Electronic contribution:    108.74413      -7.84408     200.81949
Nuclear contribution   :   -109.59628       7.04182    -201.06050
                        -----------------------------------------
Total Dipole Moment    :     -0.85215      -0.80226      -0.24101
                        -----------------------------------------
Magnitude (a.u.)       :      1.19493
Magnitude (Debye)      :      3.03727

Rotational constants in cm-1:     0.001092     0.000160     0.000142
Rotational constants in MHz :    32.731969     4.798213     4.250007

                             ****ORCA TERMINATED NORMALLY****
TOTAL RUN TIME: 0 days 0 hours 7 minutes 31 seconds 166 msec
