                         Program Version 4.2.0 -  RELEASE  -
|  1> # ORCA input file
|  2> # SCF done       -184.530269990501          0.000947760576
|  3> ! CAM-B3LYP def2-SVP def2/J RIJCOSX Grid4 TightSCF
|  4> %maxcore 5000
|  5> %tddft
|  6>     Mode sTDDFT
|  7>     Ethresh 5.0
|  8>     maxcore 5000
|  9> end
| 10>
| 11> %pal
| 12>   nprocs 6
| 13>   end
| 14> * xyz 0 1
| 15>    C       -3.89598        -1.15012         0.83483
| 16>    O       -3.82755        -2.26884         1.30847
| 17>    C       -4.55850         0.01643         1.44605
| 18>    C       -4.40721         1.13435         0.60612
| 19>    C       -4.96572         2.34650         0.97694
| 20>    C       -5.66221         2.42098         2.17848
| 21>    C       -5.80257         1.30465         3.00686
| 22>    C       -5.24571         0.08656         2.64009
| 23>   Br       -6.75271         1.43460         4.63447
| 24>   Br       -6.42797         4.07415         2.68018
| 25>    C       -3.63375         0.74137        -0.57111
| 26>    C       -3.25249         1.58378        -1.58010
| 27>    C       -3.57420         2.95872        -1.62368
| 28>    N       -3.80467         4.07874        -1.71494
| 29>    C       -2.48181         1.22655        -2.70837
| 30>    N       -1.85542         1.02151        -3.64808
| 31>    C       -3.34606        -0.67819        -0.44350
| 32>    C       -2.69888        -1.45303        -1.36855
| 33>    C       -2.40324        -2.82859        -1.35368
| 34>    S       -2.77120        -3.98311        -0.09274
| 35>    C       -2.06688        -5.28587        -0.99567
| 36>    C       -1.56690        -4.81833        -2.22069
| 37>    C       -1.75997        -3.45651        -2.41457
| 38>    N       -0.86580        -5.61618        -3.17705
| 39>    O       -0.39264        -6.66887        -2.80597
| 40>    O       -0.76716        -5.16216        -4.29738
| 41>    C       -2.11567        -6.62219        -0.53941
| 42>    C       -2.38396        -6.95483         0.75290
| 43>    C       -2.50645        -8.29608         1.18325
| 44>    N       -2.57595        -8.68408         2.50163
| 45>    C       -2.54484        -7.81783         3.65608
| 46>    C       -3.90671        -7.18457         3.93021
| 47>    C       -2.69804       -10.07591         2.63553
| 48>    O       -2.75695       -10.64770         3.70621
| 49>    C       -2.71737       -10.56660         1.27316
| 50>    C       -2.59175        -9.45326         0.40950
| 51>    C       -2.66415        -9.93455        -0.95485
| 52>    O       -2.64420        -9.36236        -2.02234
| 53>    N       -2.81412       -11.32935        -0.82027
| 54>    C       -2.84531       -12.18693        -1.98102
| 55>    C       -1.49996       -12.86821        -2.21759
| 56>    C       -2.84682       -11.71814         0.49473
| 57>    C       -3.01630       -13.06565         0.91210
| 58>    C       -2.99043       -13.43500         2.21341
| 59>    C       -3.14496       -14.78812         2.66624
| 60>    C       -3.76599       -15.81219         1.93147
| 61>    N       -3.83579       -17.05009         2.35960
| 62>    C       -3.26461       -17.33352         3.52883
| 63>    N       -2.72673       -16.42621         4.35115
| 64>    C       -2.68647       -15.18275         3.93518
| 65>    C       -3.30159       -18.71546         3.95692
| 66>    C       -2.43272       -19.32950         4.78358
| 67>    C       -2.79091       -20.63277         5.42497
| 68>    O       -3.67780       -21.38173         5.10375
| 69>    C       -1.85800       -20.75595         6.56548
| 70>    C       -0.92229       -19.70360         6.53110
| 71>    C       -1.15983       -18.89352         5.34060
| 72>    C       -0.24942       -18.07296         4.74240
| 73>    C       -0.41247       -17.50250         3.46010
| 74>    N       -0.44886       -17.06042         2.40229
| 75>    C        1.01265       -17.76821         5.29897
| 76>    N        2.04074       -17.48592         5.72146
| 77>    C        0.03414       -19.59915         7.52787
| 78>    C        0.04890       -20.55328         8.53816
| 79>    C       -0.87300       -21.60458         8.55635
| 80>    C       -1.83908       -21.70872         7.56426
| 81>   Br       -0.81903       -22.89485         9.93393
| 82>   Br        1.34513       -20.40913         9.90374
| 83>    H       -4.88078         3.23008         0.36576
| 84>    H       -5.34845        -0.78362         3.26955
| 85>    H       -2.36491        -0.96278        -2.27483
| 86>    H       -1.43156        -2.93974        -3.29967
| 87>    H       -1.92208        -7.40009        -1.26780
| 88>    H       -2.49079        -6.16897         1.48859
| 89>    H       -1.77898        -7.05080         3.51392
| 90>    H       -2.25963        -8.44977         4.50183
| 91>    H       -4.23263        -6.57192         3.09276
| 92>    H       -3.84729        -6.55971         4.81682
| 93>    H       -4.64856        -7.96064         4.10173
| 94>    H       -3.08071       -11.53643        -2.82797
| 95>    H       -3.64515       -12.92476        -1.87217
| 96>    H       -0.72705       -12.11871        -2.36830
| 97>    H       -1.55586       -13.49117        -3.10572
| 98>    H       -1.21908       -13.49017        -1.37038
| 99>    H       -3.14900       -13.81055         0.14094
|100>    H       -2.80709       -12.69001         2.97731
|101>    H       -4.25067       -15.61826         0.98350
|102>    H       -2.25498       -14.46221         4.61860
|103>    H       -4.14937       -19.29148         3.60565
|104>    H        0.75481       -18.79731         7.54598
|105>    H       -2.55746       -22.51382         7.57167
|106> *
|107>
|108>                          ****END OF INPUT****

CARTESIAN COORDINATES (ANGSTROEM)
---------------------------------
  C     -3.895980   -1.150120    0.834830
  O     -3.827550   -2.268840    1.308470
  C     -4.558500    0.016430    1.446050
  C     -4.407210    1.134350    0.606120
  C     -4.965720    2.346500    0.976940
  C     -5.662210    2.420980    2.178480
  C     -5.802570    1.304650    3.006860
  C     -5.245710    0.086560    2.640090
  Br    -6.752710    1.434600    4.634470
  Br    -6.427970    4.074150    2.680180
  C     -3.633750    0.741370   -0.571110
  C     -3.252490    1.583780   -1.580100
  C     -3.574200    2.958720   -1.623680
  N     -3.804670    4.078740   -1.714940
  C     -2.481810    1.226550   -2.708370
  N     -1.855420    1.021510   -3.648080
  C     -3.346060   -0.678190   -0.443500
  C     -2.698880   -1.453030   -1.368550
  C     -2.403240   -2.828590   -1.353680
  S     -2.771200   -3.983110   -0.092740
  C     -2.066880   -5.285870   -0.995670
  C     -1.566900   -4.818330   -2.220690
  C     -1.759970   -3.456510   -2.414570
  N     -0.865800   -5.616180   -3.177050
  O     -0.392640   -6.668870   -2.805970
  O     -0.767160   -5.162160   -4.297380
  C     -2.115670   -6.622190   -0.539410
  C     -2.383960   -6.954830    0.752900
  C     -2.506450   -8.296080    1.183250
  N     -2.575950   -8.684080    2.501630
  C     -2.544840   -7.817830    3.656080
  C     -3.906710   -7.184570    3.930210
  C     -2.698040  -10.075910    2.635530
  O     -2.756950  -10.647700    3.706210
  C     -2.717370  -10.566600    1.273160
  C     -2.591750   -9.453260    0.409500
  C     -2.664150   -9.934550   -0.954850
  O     -2.644200   -9.362360   -2.022340
  N     -2.814120  -11.329350   -0.820270
  C     -2.845310  -12.186930   -1.981020
  C     -1.499960  -12.868210   -2.217590
  C     -2.846820  -11.718140    0.494730
  C     -3.016300  -13.065650    0.912100
  C     -2.990430  -13.435000    2.213410
  C     -3.144960  -14.788120    2.666240
  C     -3.765990  -15.812190    1.931470
  N     -3.835790  -17.050090    2.359600
  C     -3.264610  -17.333520    3.528830
  N     -2.726730  -16.426210    4.351150
  C     -2.686470  -15.182750    3.935180
  C     -3.301590  -18.715460    3.956920
  C     -2.432720  -19.329500    4.783580
  C     -2.790910  -20.632770    5.424970
  O     -3.677800  -21.381730    5.103750
  C     -1.858000  -20.755950    6.565480
  C     -0.922290  -19.703600    6.531100
  C     -1.159830  -18.893520    5.340600
  C     -0.249420  -18.072960    4.742400
  C     -0.412470  -17.502500    3.460100
  N     -0.448860  -17.060420    2.402290
  C      1.012650  -17.768210    5.298970
  N      2.040740  -17.485920    5.721460
  C      0.034140  -19.599150    7.527870
  C      0.048900  -20.553280    8.538160
  C     -0.873000  -21.604580    8.556350
  C     -1.839080  -21.708720    7.564260
  Br    -0.819030  -22.894850    9.933930
  Br     1.345130  -20.409130    9.903740
  H     -4.880780    3.230080    0.365760
  H     -5.348450   -0.783620    3.269550
  H     -2.364910   -0.962780   -2.274830
  H     -1.431560   -2.939740   -3.299670
  H     -1.922080   -7.400090   -1.267800
  H     -2.490790   -6.168970    1.488590
  H     -1.778980   -7.050800    3.513920
  H     -2.259630   -8.449770    4.501830
  H     -4.232630   -6.571920    3.092760
  H     -3.847290   -6.559710    4.816820
  H     -4.648560   -7.960640    4.101730
  H     -3.080710  -11.536430   -2.827970
  H     -3.645150  -12.924760   -1.872170
  H     -0.727050  -12.118710   -2.368300
  H     -1.555860  -13.491170   -3.105720
  H     -1.219080  -13.490170   -1.370380
  H     -3.149000  -13.810550    0.140940
  H     -2.807090  -12.690010    2.977310
  H     -4.250670  -15.618260    0.983500
  H     -2.254980  -14.462210    4.618600
  H     -4.149370  -19.291480    3.605650
  H      0.754810  -18.797310    7.545980
  H     -2.557460  -22.513820    7.571670

 Total Charge           Charge          ....    0
 Multiplicity           Mult            ....    1
 Number of Electrons    NEL             ....  578
 Basis Dimension        Dim             .... 1143

ORBITAL ENERGIES
----------------

  NO   OCC          E(Eh)            E(eV)
   0   2.0000    -482.885421    -13139.9803
   1   2.0000    -482.883414    -13139.9257
   2   2.0000    -482.882153    -13139.8914
   3   2.0000    -482.881198    -13139.8654
   4   2.0000     -88.989562     -2421.5291
   5   2.0000     -62.563035     -1702.4267
   6   2.0000     -62.561007     -1702.3715
   7   2.0000     -62.559723     -1702.3366
   8   2.0000     -62.558785     -1702.3111
   9   2.0000     -56.396991     -1534.6401
  10   2.0000     -56.394977     -1534.5853
  11   2.0000     -56.394332     -1534.5678
  12   2.0000     -56.394225     -1534.5649
  13   2.0000     -56.393675     -1534.5499
  14   2.0000     -56.392749     -1534.5247
  15   2.0000     -56.392296     -1534.5124
  16   2.0000     -56.392195     -1534.5096
  17   2.0000     -56.391018     -1534.4776
  18   2.0000     -56.390927     -1534.4751
  19   2.0000     -56.390077     -1534.4520
  20   2.0000     -56.389980     -1534.4494
  21   2.0000     -19.246236      -523.7167
  22   2.0000     -19.245108      -523.6860
  23   2.0000     -19.242450      -523.6137
  24   2.0000     -19.231634      -523.3194
  25   2.0000     -19.203714      -522.5596
  26   2.0000     -19.199936      -522.4568
  27   2.0000     -14.654602      -398.7720
  28   2.0000     -14.464589      -393.6015
  29   2.0000     -14.463076      -393.5603
  30   2.0000     -14.432114      -392.7178
  31   2.0000     -14.431871      -392.7112
  32   2.0000     -14.430641      -392.6777
  33   2.0000     -14.428203      -392.6114
  34   2.0000     -14.427076      -392.5807
  35   2.0000     -14.426099      -392.5541
  36   2.0000     -10.390754      -282.7468
  37   2.0000     -10.385443      -282.6023
  38   2.0000     -10.383540      -282.5505
  39   2.0000     -10.382522      -282.5228
  40   2.0000     -10.364572      -282.0343
  41   2.0000     -10.363351      -282.0011
  42   2.0000     -10.362964      -281.9906
  43   2.0000     -10.360696      -281.9289
  44   2.0000     -10.360599      -281.9262
  45   2.0000     -10.359710      -281.9020
  46   2.0000     -10.358725      -281.8752
  47   2.0000     -10.358279      -281.8631
  48   2.0000     -10.353471      -281.7323
  49   2.0000     -10.353100      -281.7222
  50   2.0000     -10.347704      -281.5753
  51   2.0000     -10.343199      -281.4528
  52   2.0000     -10.342062      -281.4218
  53   2.0000     -10.341495      -281.4064
  54   2.0000     -10.340213      -281.3715
  55   2.0000     -10.338504      -281.3250
  56   2.0000     -10.338460      -281.3238
  57   2.0000     -10.333805      -281.1971
  58   2.0000     -10.330263      -281.1007
  59   2.0000     -10.328610      -281.0558
  60   2.0000     -10.328534      -281.0537
  61   2.0000     -10.328294      -281.0472
  62   2.0000     -10.326034      -280.9857
  63   2.0000     -10.322442      -280.8879
  64   2.0000     -10.320936      -280.8470
  65   2.0000     -10.320854      -280.8447
  66   2.0000     -10.320384      -280.8319
  67   2.0000     -10.318675      -280.7854
  68   2.0000     -10.318037      -280.7681
  69   2.0000     -10.317242      -280.7464
  70   2.0000     -10.317128      -280.7433
  71   2.0000     -10.316266      -280.7199
  72   2.0000     -10.315308      -280.6938
  73   2.0000     -10.314638      -280.6756
  74   2.0000     -10.312223      -280.6099
  75   2.0000     -10.311656      -280.5944
  76   2.0000     -10.311064      -280.5783
  77   2.0000     -10.307200      -280.4732
  78   2.0000     -10.306199      -280.4459
  79   2.0000     -10.305343      -280.4226
  80   2.0000     -10.275095      -279.5995
  81   2.0000     -10.272215      -279.5212
  82   2.0000     -10.271960      -279.5142
  83   2.0000     -10.268553      -279.4215
  84   2.0000      -8.792368      -239.2525
  85   2.0000      -8.790322      -239.1968
  86   2.0000      -8.789033      -239.1617
  87   2.0000      -8.788095      -239.1362
  88   2.0000      -8.082818      -219.9447
  89   2.0000      -6.628530      -180.3715
  90   2.0000      -6.626506      -180.3164
  91   2.0000      -6.625146      -180.2794
  92   2.0000      -6.624253      -180.2551
  93   2.0000      -6.614472      -179.9889
  94   2.0000      -6.613691      -179.9677
  95   2.0000      -6.612423      -179.9332
  96   2.0000      -6.611619      -179.9113
  97   2.0000      -6.611165      -179.8990
  98   2.0000      -6.610366      -179.8772
  99   2.0000      -6.610211      -179.8730
 100   2.0000      -6.609403      -179.8510
 101   2.0000      -6.052215      -164.6892
 102   2.0000      -6.047677      -164.5657
 103   2.0000      -6.045060      -164.4945
 104   2.0000      -2.744403       -74.6790
 105   2.0000      -2.742419       -74.6250
 106   2.0000      -2.741105       -74.5893
 107   2.0000      -2.740693       -74.5780
 108   2.0000      -2.740211       -74.5649
 109   2.0000      -2.740025       -74.5599
 110   2.0000      -2.738622       -74.5217
 111   2.0000      -2.737982       -74.5043
 112   2.0000      -2.737282       -74.4852
 113   2.0000      -2.736669       -74.4685
 114   2.0000      -2.736362       -74.4602
 115   2.0000      -2.735741       -74.4433
 116   2.0000      -2.728872       -74.2564
 117   2.0000      -2.728853       -74.2559
 118   2.0000      -2.726782       -74.1995
 119   2.0000      -2.726771       -74.1992
 120   2.0000      -2.725533       -74.1655
 121   2.0000      -2.725531       -74.1655
 122   2.0000      -2.724569       -74.1393
 123   2.0000      -2.724563       -74.1391
 124   2.0000      -1.327935       -36.1350
 125   2.0000      -1.158068       -31.5126
 126   2.0000      -1.147991       -31.2384
 127   2.0000      -1.146852       -31.2074
 128   2.0000      -1.145152       -31.1612
 129   2.0000      -1.137823       -30.9617
 130   2.0000      -1.104892       -30.0657
 131   2.0000      -1.075409       -29.2634
 132   2.0000      -1.066609       -29.0239
 133   2.0000      -1.037173       -28.2229
 134   2.0000      -1.032855       -28.1054
 135   2.0000      -1.025129       -27.8952
 136   2.0000      -1.020668       -27.7738
 137   2.0000      -1.016564       -27.6621
 138   2.0000      -1.008273       -27.4365
 139   2.0000      -1.005621       -27.3643
 140   2.0000      -0.997937       -27.1552
 141   2.0000      -0.988912       -26.9097
 142   2.0000      -0.984978       -26.8026
 143   2.0000      -0.948474       -25.8093
 144   2.0000      -0.942163       -25.6376
 145   2.0000      -0.937049       -25.4984
 146   2.0000      -0.930859       -25.3300
 147   2.0000      -0.928022       -25.2528
 148   2.0000      -0.923024       -25.1168
 149   2.0000      -0.920387       -25.0450
 150   2.0000      -0.919408       -25.0184
 151   2.0000      -0.912728       -24.8366
 152   2.0000      -0.902386       -24.5552
 153   2.0000      -0.891021       -24.2459
 154   2.0000      -0.881328       -23.9822
 155   2.0000      -0.875562       -23.8252
 156   2.0000      -0.863164       -23.4879
 157   2.0000      -0.860095       -23.4044
 158   2.0000      -0.858471       -23.3602
 159   2.0000      -0.850105       -23.1325
 160   2.0000      -0.829235       -22.5646
 161   2.0000      -0.816466       -22.2172
 162   2.0000      -0.807908       -21.9843
 163   2.0000      -0.797321       -21.6962
 164   2.0000      -0.784156       -21.3380
 165   2.0000      -0.781316       -21.2607
 166   2.0000      -0.774416       -21.0729
 167   2.0000      -0.769041       -20.9267
 168   2.0000      -0.766727       -20.8637
 169   2.0000      -0.760742       -20.7008
 170   2.0000      -0.746157       -20.3040
 171   2.0000      -0.736186       -20.0327
 172   2.0000      -0.719392       -19.5756
 173   2.0000      -0.717854       -19.5338
 174   2.0000      -0.713891       -19.4260
 175   2.0000      -0.708441       -19.2777
 176   2.0000      -0.702981       -19.1291
 177   2.0000      -0.697855       -18.9896
 178   2.0000      -0.685558       -18.6550
 179   2.0000      -0.681462       -18.5435
 180   2.0000      -0.672629       -18.3032
 181   2.0000      -0.671724       -18.2785
 182   2.0000      -0.659698       -17.9513
 183   2.0000      -0.654436       -17.8081
 184   2.0000      -0.652065       -17.7436
 185   2.0000      -0.641068       -17.4443
 186   2.0000      -0.638637       -17.3782
 187   2.0000      -0.635545       -17.2941
 188   2.0000      -0.631389       -17.1810
 189   2.0000      -0.628612       -17.1054
 190   2.0000      -0.624068       -16.9817
 191   2.0000      -0.609840       -16.5946
 192   2.0000      -0.601140       -16.3578
 193   2.0000      -0.597526       -16.2595
 194   2.0000      -0.596603       -16.2344
 195   2.0000      -0.593788       -16.1578
 196   2.0000      -0.589723       -16.0472
 197   2.0000      -0.586028       -15.9466
 198   2.0000      -0.581830       -15.8324
 199   2.0000      -0.579976       -15.7819
 200   2.0000      -0.575202       -15.6520
 201   2.0000      -0.573683       -15.6107
 202   2.0000      -0.567905       -15.4535
 203   2.0000      -0.560566       -15.2538
 204   2.0000      -0.557210       -15.1625
 205   2.0000      -0.553824       -15.0703
 206   2.0000      -0.552994       -15.0477
 207   2.0000      -0.551259       -15.0005
 208   2.0000      -0.550407       -14.9773
 209   2.0000      -0.545752       -14.8507
 210   2.0000      -0.540901       -14.7187
 211   2.0000      -0.540689       -14.7129
 212   2.0000      -0.539855       -14.6902
 213   2.0000      -0.538339       -14.6489
 214   2.0000      -0.535033       -14.5590
 215   2.0000      -0.533648       -14.5213
 216   2.0000      -0.532064       -14.4782
 217   2.0000      -0.520414       -14.1612
 218   2.0000      -0.519340       -14.1320
 219   2.0000      -0.518328       -14.1044
 220   2.0000      -0.516773       -14.0621
 221   2.0000      -0.513630       -13.9766
 222   2.0000      -0.512732       -13.9521
 223   2.0000      -0.510871       -13.9015
 224   2.0000      -0.509783       -13.8719
 225   2.0000      -0.505415       -13.7530
 226   2.0000      -0.504328       -13.7235
 227   2.0000      -0.497886       -13.5482
 228   2.0000      -0.496585       -13.5128
 229   2.0000      -0.490454       -13.3459
 230   2.0000      -0.487913       -13.2768
 231   2.0000      -0.480270       -13.0688
 232   2.0000      -0.476449       -12.9648
 233   2.0000      -0.475762       -12.9462
 234   2.0000      -0.472642       -12.8613
 235   2.0000      -0.471607       -12.8331
 236   2.0000      -0.469993       -12.7892
 237   2.0000      -0.466892       -12.7048
 238   2.0000      -0.465983       -12.6800
 239   2.0000      -0.464021       -12.6267
 240   2.0000      -0.462191       -12.5768
 241   2.0000      -0.460740       -12.5374
 242   2.0000      -0.456449       -12.4206
 243   2.0000      -0.455908       -12.4059
 244   2.0000      -0.453356       -12.3364
 245   2.0000      -0.452540       -12.3142
 246   2.0000      -0.449292       -12.2259
 247   2.0000      -0.446275       -12.1438
 248   2.0000      -0.443589       -12.0707
 249   2.0000      -0.441168       -12.0048
 250   2.0000      -0.440998       -12.0002
 251   2.0000      -0.438186       -11.9236
 252   2.0000      -0.436331       -11.8732
 253   2.0000      -0.435482       -11.8501
 254   2.0000      -0.432829       -11.7779
 255   2.0000      -0.432000       -11.7553
 256   2.0000      -0.425158       -11.5691
 257   2.0000      -0.421577       -11.4717
 258   2.0000      -0.420671       -11.4470
 259   2.0000      -0.411862       -11.2073
 260   2.0000      -0.408971       -11.1287
 261   2.0000      -0.405941       -11.0462
 262   2.0000      -0.405609       -11.0372
 263   2.0000      -0.401118       -10.9150
 264   2.0000      -0.398064       -10.8319
 265   2.0000      -0.395470       -10.7613
 266   2.0000      -0.393281       -10.7017
 267   2.0000      -0.389351       -10.5948
 268   2.0000      -0.386230       -10.5098
 269   2.0000      -0.383479       -10.4350
 270   2.0000      -0.375934       -10.2297
 271   2.0000      -0.363035        -9.8787
 272   2.0000      -0.361665        -9.8414
 273   2.0000      -0.358630        -9.7588
 274   2.0000      -0.356919        -9.7122
 275   2.0000      -0.354759        -9.6535
 276   2.0000      -0.353278        -9.6132
 277   2.0000      -0.352342        -9.5877
 278   2.0000      -0.348492        -9.4830
 279   2.0000      -0.343969        -9.3599
 280   2.0000      -0.342066        -9.3081
 281   2.0000      -0.341150        -9.2832
 282   2.0000      -0.338251        -9.2043
 283   2.0000      -0.326484        -8.8841
 284   2.0000      -0.322727        -8.7819
 285   2.0000      -0.321303        -8.7431
 286   2.0000      -0.313426        -8.5287
 287   2.0000      -0.302953        -8.2438
 288   2.0000      -0.247609        -6.7378
 289   0.0000      -0.120529        -3.2798
 290   0.0000      -0.103120        -2.8060
 291   0.0000      -0.088345        -2.4040
 292   0.0000      -0.079340        -2.1589
 293   0.0000      -0.071342        -1.9413

MULLIKEN ATOMIC CHARGES
-----------------------
   0 C :    0.170082
   1 O :   -0.173819
   2 C :   -0.013803
   3 C :    0.035262
   4 C :   -0.010222
   5 C :   -0.025005
   6 C :   -0.014046
   7 C :   -0.021690
   8 Br:    0.019417
   9 Br:    0.029035
  10 C :    0.320624
  11 C :   -0.341281
  12 C :   -0.185827
  13 N :    0.164167
  14 C :   -0.188025
  15 N :    0.158861
  16 C :   -0.089153
  17 C :   -0.008982
  18 C :   -0.046040
  19 S :    0.204683
  20 C :   -0.112331
  21 C :    0.213383
  22 C :   -0.024530
  23 N :    0.260959
  24 O :   -0.225602
  25 O :   -0.236571
  26 C :    0.001491
  27 C :   -0.029544
  28 C :    0.138160
  29 N :   -0.256252
  30 C :    0.096982
  31 C :    0.003895
  32 C :    0.167821
  33 O :   -0.212854
  34 C :   -0.072584
  35 C :   -0.062326
  36 C :    0.165988
  37 O :   -0.187260
  38 N :   -0.257163
  39 C :    0.092909
  40 C :    0.000136
  41 C :    0.134491
  42 C :   -0.008164
  43 C :    0.018500
  44 C :    0.037978
  45 C :    0.040752
  46 N :   -0.037278
  47 C :   -0.092847
  48 N :   -0.067591
  49 C :    0.046646
  50 C :    0.102358
  51 C :   -0.100051
  52 C :    0.140460
  53 O :   -0.120466
  54 C :   -0.008116
  55 C :    0.024539
  56 C :    0.287203
  57 C :   -0.301344
  58 C :   -0.179209
  59 N :    0.161386
  60 C :   -0.191561
  61 N :    0.167459
  62 C :   -0.006914
  63 C :   -0.023086
  64 C :   -0.016680
  65 C :   -0.016619
  66 Br:    0.019261
  67 Br:    0.025996
  68 H :    0.010201
  69 H :    0.006150
  70 H :    0.016203
  71 H :    0.026952
  72 H :    0.047691
  73 H :   -0.003439
  74 H :    0.026154
  75 H :    0.044091
  76 H :    0.017460
  77 H :    0.026603
  78 H :    0.029964
  79 H :    0.048752
  80 H :    0.023793
  81 H :    0.034766
  82 H :    0.028563
  83 H :    0.023072
  84 H :   -0.015266
  85 H :    0.026495
  86 H :    0.010568
  87 H :    0.023025
  88 H :    0.035898
  89 H :    0.014488
  90 H :    0.011769
Sum of atomic charges:   -0.0000000

LOEWDIN ATOMIC CHARGES
----------------------
   0 C :    0.086715
   1 O :   -0.160588
   2 C :   -0.043366
   3 C :   -0.010140
   4 C :   -0.005688
   5 C :   -0.116888
   6 C :   -0.122448
   7 C :    0.007307
   8 Br:    0.141642
   9 Br:    0.146993
  10 C :    0.073637
  11 C :   -0.128284
  12 C :   -0.019625
  13 N :   -0.039064
  14 C :   -0.022248
  15 N :   -0.038876
  16 C :   -0.104446
  17 C :    0.061822
  18 C :   -0.183222
  19 S :    0.526951
  20 C :   -0.135238
  21 C :   -0.070141
  22 C :    0.008646
  23 N :    0.284084
  24 O :   -0.189296
  25 O :   -0.201567
  26 C :   -0.001737
  27 C :   -0.023887
  28 C :    0.065160
  29 N :    0.001537
  30 C :    0.036859
  31 C :   -0.060615
  32 C :    0.079337
  33 O :   -0.203979
  34 C :   -0.122111
  35 C :   -0.105756
  36 C :    0.082936
  37 O :   -0.177744
  38 N :    0.001960
  39 C :    0.035955
  40 C :   -0.060077
  41 C :    0.083793
  42 C :   -0.036667
  43 C :    0.036293
  44 C :   -0.057977
  45 C :    0.064898
  46 N :   -0.060731
  47 C :    0.015191
  48 N :   -0.070737
  49 C :    0.066781
  50 C :    0.065712
  51 C :   -0.057275
  52 C :    0.085975
  53 O :   -0.121093
  54 C :   -0.045456
  55 C :   -0.006731
  56 C :    0.073953
  57 C :   -0.111221
  58 C :   -0.015823
  59 N :   -0.047260
  60 C :   -0.020058
  61 N :   -0.037401
  62 C :   -0.007488
  63 C :   -0.116423
  64 C :   -0.122920
  65 C :    0.008876
  66 Br:    0.141927
  67 Br:    0.146355
  68 H :    0.045562
  69 H :    0.046147
  70 H :    0.053767
  71 H :    0.050543
  72 H :    0.043861
  73 H :    0.026564
  74 H :    0.024727
  75 H :    0.038367
  76 H :    0.022204
  77 H :    0.032147
  78 H :    0.032528
  79 H :    0.039760
  80 H :    0.022629
  81 H :    0.034547
  82 H :    0.033063
  83 H :    0.024364
  84 H :    0.030894
  85 H :    0.040454
  86 H :    0.026825
  87 H :    0.033758
  88 H :    0.054746
  89 H :    0.045692
  90 H :    0.047845

  Mayer bond orders larger than 0.100000
B(  0-C ,  1-O ) :   2.1399 B(  0-C ,  2-C ) :   0.9612 B(  0-C , 16-C ) :   0.9721
B(  2-C ,  3-C ) :   1.3282 B(  2-C ,  7-C ) :   1.3685 B(  3-C ,  4-C ) :   1.3674
B(  3-C , 10-C ) :   0.9903 B(  4-C ,  5-C ) :   1.3687 B(  4-C , 68-H ) :   0.9780
B(  5-C ,  6-C ) :   1.4195 B(  5-C ,  9-Br) :   1.0631 B(  6-C ,  7-C ) :   1.3516
B(  6-C ,  8-Br) :   1.0355 B(  7-C , 69-H ) :   1.0082 B( 10-C , 11-C ) :   1.6445
B( 10-C , 16-C ) :   1.0723 B( 11-C , 12-C ) :   1.1410 B( 11-C , 14-C ) :   1.1423
B( 12-C , 13-N ) :   2.9701 B( 14-C , 15-N ) :   2.9601 B( 16-C , 17-C ) :   1.5243
B( 17-C , 18-C ) :   1.2424 B( 17-C , 70-H ) :   0.9379 B( 18-C , 19-S ) :   1.0818
B( 18-C , 22-C ) :   1.3546 B( 19-S , 20-C ) :   1.1409 B( 20-C , 21-C ) :   1.3605
B( 20-C , 26-C ) :   1.1803 B( 21-C , 22-C ) :   1.3089 B( 21-C , 23-N ) :   0.9111
B( 22-C , 71-H ) :   1.0086 B( 23-N , 24-O ) :   1.5263 B( 23-N , 25-O ) :   1.5442
B( 24-O , 25-O ) :   0.2707 B( 26-C , 27-C ) :   1.5680 B( 26-C , 72-H ) :   0.9452
B( 27-C , 28-C ) :   1.1613 B( 27-C , 73-H ) :   0.9629 B( 28-C , 29-N ) :   1.1538
B( 28-C , 35-C ) :   1.3532 B( 29-N , 30-C ) :   0.9442 B( 29-N , 32-C ) :   1.0668
B( 30-C , 31-C ) :   1.1206 B( 30-C , 74-H ) :   0.9506 B( 30-C , 75-H ) :   0.9288
B( 31-C , 76-H ) :   0.9688 B( 31-C , 77-H ) :   0.9679 B( 31-C , 78-H ) :   0.9632
B( 32-C , 33-O ) :   2.0257 B( 32-C , 34-C ) :   0.9858 B( 33-O , 85-H ) :   0.1124
B( 34-C , 35-C ) :   1.2623 B( 34-C , 41-C ) :   1.3338 B( 35-C , 36-C ) :   0.9743
B( 36-C , 37-O ) :   2.0704 B( 36-C , 38-N ) :   1.0444 B( 38-N , 39-C ) :   0.9423
B( 38-N , 41-C ) :   1.1745 B( 39-C , 40-C ) :   1.1194 B( 39-C , 79-H ) :   0.9275
B( 39-C , 80-H ) :   0.9500 B( 40-C , 81-H ) :   0.9635 B( 40-C , 82-H ) :   0.9679
B( 40-C , 83-H ) :   0.9689 B( 41-C , 42-C ) :   1.1547 B( 42-C , 43-C ) :   1.6421
B( 42-C , 84-H ) :   0.9584 B( 43-C , 44-C ) :   1.0618 B( 43-C , 85-H ) :   0.9523
B( 44-C , 45-C ) :   1.3028 B( 44-C , 49-C ) :   1.2977 B( 45-C , 46-N ) :   1.5757
B( 45-C , 86-H ) :   0.9825 B( 46-N , 47-C ) :   1.5025 B( 47-C , 48-N ) :   1.4753
B( 47-C , 50-C ) :   0.9940 B( 48-N , 49-C ) :   1.5556 B( 49-C , 87-H ) :   0.9891
B( 50-C , 51-C ) :   1.7453 B( 50-C , 88-H ) :   0.9491 B( 51-C , 52-C ) :   0.9211
B( 51-C , 56-C ) :   1.0030 B( 52-C , 53-O ) :   2.2954 B( 52-C , 54-C ) :   0.9213
B( 54-C , 55-C ) :   1.3232 B( 54-C , 65-C ) :   1.3709 B( 55-C , 56-C ) :   1.0115
B( 55-C , 62-C ) :   1.3651 B( 56-C , 57-C ) :   1.7040 B( 57-C , 58-C ) :   1.1522
B( 57-C , 60-C ) :   1.1302 B( 58-C , 59-N ) :   2.9897 B( 60-C , 61-N ) :   2.9935
B( 62-C , 63-C ) :   1.3762 B( 62-C , 89-H ) :   0.9824 B( 63-C , 64-C ) :   1.4108
B( 63-C , 67-Br) :   1.0555 B( 64-C , 65-C ) :   1.3644 B( 64-C , 66-Br) :   1.0373
B( 65-C , 90-H ) :   1.0068

-----------------------------------------------------------------------------
         ABSORPTION SPECTRUM VIA TRANSITION ELECTRIC DIPOLE MOMENTS
-----------------------------------------------------------------------------
State   Energy  Wavelength   fosc         T2         TX        TY        TZ
        (cm-1)    (nm)                  (au**2)     (au)      (au)      (au)
-----------------------------------------------------------------------------
   0   12998.4    769.3   1.081384258  27.38837   0.13496  -5.18782   0.67580
   1   18876.4    529.8   0.015990604   0.27888   0.03674   0.20285  -0.48619
   2   21887.9    456.9   0.077257048   1.16201   0.71000  -0.76514   0.26922
   3   23528.7    425.0   0.022950178   0.32112   0.41411   0.14820  -0.35731
   4   24271.7    412.0   0.511616990   6.93939  -0.46503   2.58978  -0.12728
   5   25410.5    393.5   0.061519105   0.79703   0.22169  -0.57668   0.64445
   6   25898.5    386.1   0.007228887   0.09189   0.25713  -0.01103  -0.16016
   7   26166.8    382.2   0.010414600   0.13103  -0.02603  -0.14921  -0.32877
   8   27534.2    363.2   0.007336470   0.08772  -0.18230  -0.22554  -0.06016
   9   27770.7    360.1   0.178008067   2.11022   0.67398  -1.14855   0.58036
  10   28697.5    348.5   0.062761495   0.71999   0.32100  -0.38773  -0.68309
  11   28782.6    347.4   0.038659910   0.44219   0.42626  -0.10380  -0.49971
  12   29138.2    343.2   0.003001883   0.03392  -0.16572   0.06672  -0.04473
  13   29481.5    339.2   0.582866762   6.50872  -0.29237   1.74235  -1.84050
  14   30205.8    331.1   0.010379134   0.11312   0.03126   0.23007  -0.24334
  15   30529.4    327.6   0.026228977   0.28284   0.05939  -0.21345   0.48348
  16   31179.2    320.7   0.015360803   0.16219   0.31034  -0.25249  -0.04616
  17   31535.0    317.1   0.177526915   1.85331  -0.67771   0.45979   1.08748
  18   32190.3    310.7   0.273270188   2.79474   0.72892   1.28072  -0.78942
  19   32848.9    304.4   0.077188043   0.77358   0.47504  -0.56286  -0.48074
  20   33049.6    302.6   0.001951316   0.01944  -0.06918  -0.06329   0.10317
  21   33175.5    301.4   0.065547247   0.65045  -0.44720   0.29966   0.60056
  22   33306.2    300.2   0.031257593   0.30896   0.12496   0.36587  -0.39936
  23   33618.4    297.5   0.026861437   0.26304   0.30706  -0.03528  -0.40928
  24   33895.9    295.0   0.358321925   3.48018   0.58802   0.76012  -1.59895
  25   34166.4    292.7   0.177033886   1.70582  -0.52561  -0.46589   1.10113
  26   34343.6    291.2   0.091429529   0.87643   0.18159   0.61599  -0.68119
  27   34685.8    288.3   0.068782250   0.65283  -0.32285  -0.71762   0.18337
  28   35106.4    284.8   0.134566809   1.26191   0.31153   0.46286  -0.97500
  29   35257.7    283.6   0.039028644   0.36442   0.22888  -0.13653  -0.54166
  30   35563.6    281.2   0.436063146   4.03663  -0.46870  -1.53558   1.20787
  31   36147.8    276.6   0.099598908   0.90709  -0.26939  -0.70615   0.57954
  32   36312.8    275.4   0.055655638   0.50457   0.00905  -0.25312   0.66364
  33   36883.4    271.1   0.111566533   0.99581   0.87034  -0.42426  -0.24152
  34   37249.6    268.5   0.194308645   1.71730   0.19105  -0.69042   1.09733
  35   37346.4    267.8   0.077176605   0.68032   0.11031   0.34459  -0.74122
  36   37504.6    266.6   0.129391166   1.13578   0.28037  -0.78720   0.66143
  37   37665.4    265.5   0.013810646   0.12071   0.23203  -0.13090   0.22302
  38   37874.3    264.0   0.016025076   0.13929   0.06297  -0.12692   0.34528
  39   38132.9    262.2   0.003077889   0.02657  -0.10898  -0.07672   0.09386
  40   38168.0    262.0   0.024070738   0.20762   0.28620   0.00174  -0.35455
  41   38687.2    258.5   0.002679126   0.02280  -0.12604  -0.02474   0.07938
  42   38858.4    257.3   0.011174709   0.09467   0.15291   0.24740  -0.10044
  43   39113.3    255.7   0.071191949   0.59921   0.64856   0.41377  -0.08591
  44   39221.0    255.0   0.404063633   3.39161  -0.92242   0.97046   1.26450
  45   39369.8    254.0   0.131614151   1.10056  -0.70541  -0.72143  -0.28724
  46   39642.7    252.3   0.010653606   0.08847  -0.11202  -0.04178   0.27236
  47   39881.7    250.7   0.022015480   0.18173  -0.01889   0.38494  -0.18220
  48   40184.2    248.9   0.022135816   0.18135   0.25466  -0.03841   0.33915

FINAL SINGLE POINT ENERGY    -13477.345116904935

DIPOLE MOMENT
-------------
                                X             Y             Z
Electronic contribution:    -17.84589      13.49245     176.06380
Nuclear contribution   :     15.99634     -14.20919    -173.70621
                        -----------------------------------------
Total Dipole Moment    :     -1.84955      -0.71674       2.35759
                        -----------------------------------------
Magnitude (a.u.)       :      3.08103
Magnitude (Debye)      :      7.83136

Rotational constants in cm-1:     0.001337     0.000150     0.000140
Rotational constants in MHz :    40.095778     4.505915     4.198515

                             ****ORCA TERMINATED NORMALLY****
TOTAL RUN TIME: 0 days 0 hours 9 minutes 4 seconds 770 msec
