                         Program Version 4.2.0 -  RELEASE  -
|  1> # ORCA input file
|  2> # SCF done       -159.658095496397          0.000496234907
|  3> ! CAM-B3LYP def2-SVP def2/J RIJCOSX Grid4 TightSCF
|  4> %maxcore 5000
|  5> %tddft
|  6>     Mode sTDDFT
|  7>     Ethresh 5.0
|  8>     maxcore 5000
|  9> end
| 10>
| 11> %pal
| 12>   nprocs 6
| 13>   end
| 14> * xyz 0 1
| 15>    C       -6.31088         0.28178        -8.53158
| 16>    S       -6.15169         0.04293        -6.82816
| 17>    C       -5.11274         1.43026        -6.71039
| 18>    C       -4.92215         2.03230        -7.96690
| 19>    C       -5.62180         1.34935        -8.99663
| 20>    C       -4.11009         3.18166        -8.03031
| 21>    C       -3.53234         3.66080        -6.84576
| 22>    S       -2.55141         5.06427        -7.14873
| 23>    C       -2.93408         4.99700        -8.83259
| 24>    C       -3.75244         3.97292        -9.15756
| 25>    C       -3.71097         3.03353        -5.59911
| 26>    C       -4.52824         1.91217        -5.54561
| 27>    C       -3.09630         3.54222        -4.38994
| 28>    S       -3.24814         5.19554        -3.94037
| 29>    C       -2.47840         4.94352        -2.40684
| 30>    C       -2.18832         3.58031        -2.22079
| 31>    C       -2.49401         2.79477        -3.37839
| 32>    C       -2.17171         1.41100        -3.39778
| 33>    C       -2.16915         0.58579        -4.63812
| 34>    O       -2.71384        -0.48994        -4.70846
| 35>    C       -1.28996         1.11911        -5.74673
| 36>    C       -1.75467         0.81914        -2.23121
| 37>    C       -1.59856         1.56687        -1.05224
| 38>    C       -1.78050         2.92188        -1.04477
| 39>    C       -2.25348         6.07416        -1.57127
| 40>    C       -3.08136         7.21792        -1.72081
| 41>    C       -2.88346         8.40001        -0.94525
| 42>    N       -3.67448         9.47474        -1.13288
| 43>    C       -4.62333         9.40168        -2.02542
| 44>    C       -4.83663         8.22989        -2.77626
| 45>    N       -4.08217         7.17714        -2.61717
| 46>    C       -1.84562         8.48068         0.00686
| 47>    C       -1.06636         7.32025         0.21780
| 48>    C       -1.19989         6.17161        -0.62568
| 49>    N       -0.25553         5.21321        -0.55967
| 50>    C        0.64969         5.27932         0.37432
| 51>    C        0.58204         6.26365         1.38420
| 52>    N       -0.23274         7.27169         1.27579
| 53>    C       -1.63759         9.67456         0.75678
| 54>    S       -2.99378        10.63667         1.21362
| 55>    C       -2.04398        11.62846         2.27557
| 56>    C       -0.68970        11.26342         2.21559
| 57>    C       -0.45370        10.19146         1.29516
| 58>    C        0.88214         9.82525         0.98316
| 59>    C        1.27830         9.02610        -0.20716
| 60>    O        2.13303         8.17156        -0.16669
| 61>    C        0.67537         9.47533        -1.52109
| 62>    C        1.90198        10.36328         1.73221
| 63>    C        1.65546        11.32906         2.72102
| 64>    C        0.39397        11.81046         2.93151
| 65>    C       -2.70786        12.64360         3.01235
| 66>    S       -1.91621        13.64970         4.21299
| 67>    C       -3.39465        14.50361         4.53979
| 68>    C       -4.44600        14.01994         3.73923
| 69>    C       -4.03711        12.97193         2.89149
| 70>    C       -5.71481        14.61980         3.88106
| 71>    C       -5.85436        15.65969         4.81384
| 72>    S       -7.48548        16.26424         4.83563
| 73>    C       -7.94704        15.13273         3.61319
| 74>    C       -6.93284        14.33753         3.20548
| 75>    C       -4.79683        16.11885         5.59946
| 76>    C       -3.55707        15.53602         5.45995
| 77>    H       -6.91903        -0.40111        -9.09215
| 78>    H       -5.60663         1.64698       -10.02941
| 79>    H       -2.51683         5.74056        -9.48318
| 80>    H       -4.09601         3.77450       -10.15646
| 81>    H       -4.72930         1.43006        -4.60267
| 82>    H       -1.70679         0.85611        -6.71573
| 83>    H       -0.32325         0.62371        -5.65341
| 84>    H       -1.13639         2.19043        -5.67487
| 85>    H       -1.53105        -0.23726        -2.23014
| 86>    H       -1.30774         1.05713        -0.14622
| 87>    H       -1.63335         3.48518        -0.13983
| 88>    H       -5.24101        10.27974        -2.15379
| 89>    H       -5.63250         8.15417        -3.50379
| 90>    H        1.42698         4.52897         0.35343
| 91>    H        1.20249         6.22700         2.26766
| 92>    H        1.43144        10.07656        -2.02726
| 93>    H       -0.21902        10.07483        -1.39242
| 94>    H        0.46855         8.61257        -2.15097
| 95>    H        2.91743        10.06762         1.51391
| 96>    H        2.48617        11.72660         3.28383
| 97>    H        0.22548        12.60415         3.64058
| 98>    H       -4.69168        12.46907         2.20231
| 99>    H       -8.96363        15.13388         3.27141
|100>    H       -7.03517        13.57625         2.45357
|101>    H       -4.95580        16.92015         6.30319
|102>    H       -2.71910        15.86918         6.05127
|103> *
|104>
|105>                          ****END OF INPUT****

CARTESIAN COORDINATES (ANGSTROEM)
---------------------------------
  C     -6.310880    0.281780   -8.531580
  S     -6.151690    0.042930   -6.828160
  C     -5.112740    1.430260   -6.710390
  C     -4.922150    2.032300   -7.966900
  C     -5.621800    1.349350   -8.996630
  C     -4.110090    3.181660   -8.030310
  C     -3.532340    3.660800   -6.845760
  S     -2.551410    5.064270   -7.148730
  C     -2.934080    4.997000   -8.832590
  C     -3.752440    3.972920   -9.157560
  C     -3.710970    3.033530   -5.599110
  C     -4.528240    1.912170   -5.545610
  C     -3.096300    3.542220   -4.389940
  S     -3.248140    5.195540   -3.940370
  C     -2.478400    4.943520   -2.406840
  C     -2.188320    3.580310   -2.220790
  C     -2.494010    2.794770   -3.378390
  C     -2.171710    1.411000   -3.397780
  C     -2.169150    0.585790   -4.638120
  O     -2.713840   -0.489940   -4.708460
  C     -1.289960    1.119110   -5.746730
  C     -1.754670    0.819140   -2.231210
  C     -1.598560    1.566870   -1.052240
  C     -1.780500    2.921880   -1.044770
  C     -2.253480    6.074160   -1.571270
  C     -3.081360    7.217920   -1.720810
  C     -2.883460    8.400010   -0.945250
  N     -3.674480    9.474740   -1.132880
  C     -4.623330    9.401680   -2.025420
  C     -4.836630    8.229890   -2.776260
  N     -4.082170    7.177140   -2.617170
  C     -1.845620    8.480680    0.006860
  C     -1.066360    7.320250    0.217800
  C     -1.199890    6.171610   -0.625680
  N     -0.255530    5.213210   -0.559670
  C      0.649690    5.279320    0.374320
  C      0.582040    6.263650    1.384200
  N     -0.232740    7.271690    1.275790
  C     -1.637590    9.674560    0.756780
  S     -2.993780   10.636670    1.213620
  C     -2.043980   11.628460    2.275570
  C     -0.689700   11.263420    2.215590
  C     -0.453700   10.191460    1.295160
  C      0.882140    9.825250    0.983160
  C      1.278300    9.026100   -0.207160
  O      2.133030    8.171560   -0.166690
  C      0.675370    9.475330   -1.521090
  C      1.901980   10.363280    1.732210
  C      1.655460   11.329060    2.721020
  C      0.393970   11.810460    2.931510
  C     -2.707860   12.643600    3.012350
  S     -1.916210   13.649700    4.212990
  C     -3.394650   14.503610    4.539790
  C     -4.446000   14.019940    3.739230
  C     -4.037110   12.971930    2.891490
  C     -5.714810   14.619800    3.881060
  C     -5.854360   15.659690    4.813840
  S     -7.485480   16.264240    4.835630
  C     -7.947040   15.132730    3.613190
  C     -6.932840   14.337530    3.205480
  C     -4.796830   16.118850    5.599460
  C     -3.557070   15.536020    5.459950
  H     -6.919030   -0.401110   -9.092150
  H     -5.606630    1.646980  -10.029410
  H     -2.516830    5.740560   -9.483180
  H     -4.096010    3.774500  -10.156460
  H     -4.729300    1.430060   -4.602670
  H     -1.706790    0.856110   -6.715730
  H     -0.323250    0.623710   -5.653410
  H     -1.136390    2.190430   -5.674870
  H     -1.531050   -0.237260   -2.230140
  H     -1.307740    1.057130   -0.146220
  H     -1.633350    3.485180   -0.139830
  H     -5.241010   10.279740   -2.153790
  H     -5.632500    8.154170   -3.503790
  H      1.426980    4.528970    0.353430
  H      1.202490    6.227000    2.267660
  H      1.431440   10.076560   -2.027260
  H     -0.219020   10.074830   -1.392420
  H      0.468550    8.612570   -2.150970
  H      2.917430   10.067620    1.513910
  H      2.486170   11.726600    3.283830
  H      0.225480   12.604150    3.640580
  H     -4.691680   12.469070    2.202310
  H     -8.963630   15.133880    3.271410
  H     -7.035170   13.576250    2.453570
  H     -4.955800   16.920150    6.303190
  H     -2.719100   15.869180    6.051270

 Total Charge           Charge          ....    0
 Multiplicity           Mult            ....    1
 Number of Electrons    NEL             ....  466
 Basis Dimension        Dim             .... 1022

ORBITAL ENERGIES
----------------

  NO   OCC          E(Eh)            E(eV)
   0   2.0000     -88.959668     -2420.7156
   1   2.0000     -88.956468     -2420.6285
   2   2.0000     -88.948893     -2420.4224
   3   2.0000     -88.946324     -2420.3525
   4   2.0000     -88.944402     -2420.3002
   5   2.0000     -88.941940     -2420.2332
   6   2.0000     -19.195258      -522.3295
   7   2.0000     -19.185775      -522.0715
   8   2.0000     -14.434273      -392.7765
   9   2.0000     -14.433905      -392.7665
  10   2.0000     -14.420908      -392.4129
  11   2.0000     -14.417179      -392.3114
  12   2.0000     -10.350769      -281.6587
  13   2.0000     -10.342049      -281.4215
  14   2.0000     -10.328845      -281.0622
  15   2.0000     -10.328324      -281.0480
  16   2.0000     -10.324737      -280.9504
  17   2.0000     -10.324409      -280.9415
  18   2.0000     -10.320017      -280.8219
  19   2.0000     -10.319518      -280.8084
  20   2.0000     -10.315816      -280.7076
  21   2.0000     -10.314897      -280.6826
  22   2.0000     -10.308321      -280.5037
  23   2.0000     -10.304001      -280.3861
  24   2.0000     -10.299953      -280.2760
  25   2.0000     -10.298500      -280.2364
  26   2.0000     -10.295290      -280.1491
  27   2.0000     -10.294712      -280.1333
  28   2.0000     -10.293677      -280.1052
  29   2.0000     -10.293331      -280.0958
  30   2.0000     -10.293183      -280.0917
  31   2.0000     -10.292085      -280.0619
  32   2.0000     -10.291589      -280.0484
  33   2.0000     -10.291447      -280.0445
  34   2.0000     -10.290337      -280.0143
  35   2.0000     -10.289461      -279.9905
  36   2.0000     -10.287418      -279.9349
  37   2.0000     -10.280965      -279.7593
  38   2.0000     -10.278937      -279.7041
  39   2.0000     -10.277124      -279.6548
  40   2.0000     -10.275986      -279.6238
  41   2.0000     -10.275688      -279.6157
  42   2.0000     -10.275222      -279.6030
  43   2.0000     -10.275157      -279.6012
  44   2.0000     -10.274952      -279.5956
  45   2.0000     -10.274885      -279.5938
  46   2.0000     -10.274191      -279.5749
  47   2.0000     -10.273274      -279.5500
  48   2.0000     -10.272977      -279.5419
  49   2.0000     -10.272885      -279.5394
  50   2.0000     -10.271360      -279.4979
  51   2.0000     -10.270544      -279.4757
  52   2.0000     -10.270008      -279.4611
  53   2.0000     -10.270008      -279.4611
  54   2.0000     -10.268175      -279.4112
  55   2.0000     -10.267815      -279.4015
  56   2.0000     -10.266531      -279.3665
  57   2.0000     -10.264808      -279.3196
  58   2.0000     -10.264058      -279.2992
  59   2.0000     -10.261466      -279.2287
  60   2.0000     -10.258227      -279.1405
  61   2.0000     -10.248289      -278.8701
  62   2.0000      -8.053610      -219.1499
  63   2.0000      -8.050053      -219.0531
  64   2.0000      -8.044152      -218.8925
  65   2.0000      -8.041955      -218.8327
  66   2.0000      -8.040684      -218.7981
  67   2.0000      -8.038018      -218.7256
  68   2.0000      -6.022745      -163.8872
  69   2.0000      -6.019091      -163.7878
  70   2.0000      -6.018336      -163.7673
  71   2.0000      -6.016458      -163.7161
  72   2.0000      -6.014558      -163.6644
  73   2.0000      -6.013731      -163.6419
  74   2.0000      -6.013164      -163.6265
  75   2.0000      -6.011474      -163.5805
  76   2.0000      -6.010167      -163.5450
  77   2.0000      -6.009709      -163.5325
  78   2.0000      -6.007527      -163.4731
  79   2.0000      -6.007145      -163.4627
  80   2.0000      -6.006019      -163.4321
  81   2.0000      -6.005575      -163.4200
  82   2.0000      -6.003758      -163.3706
  83   2.0000      -6.003289      -163.3578
  84   2.0000      -6.002330      -163.3317
  85   2.0000      -5.999707      -163.2603
  86   2.0000      -1.114368       -30.3235
  87   2.0000      -1.104402       -30.0523
  88   2.0000      -1.092953       -29.7408
  89   2.0000      -1.078636       -29.3512
  90   2.0000      -1.019598       -27.7447
  91   2.0000      -1.002479       -27.2788
  92   2.0000      -0.999033       -27.1851
  93   2.0000      -0.997060       -27.1314
  94   2.0000      -0.988674       -26.9032
  95   2.0000      -0.982921       -26.7466
  96   2.0000      -0.965126       -26.2624
  97   2.0000      -0.963207       -26.2102
  98   2.0000      -0.950733       -25.8708
  99   2.0000      -0.927064       -25.2267
 100   2.0000      -0.922092       -25.0914
 101   2.0000      -0.911546       -24.8044
 102   2.0000      -0.903910       -24.5966
 103   2.0000      -0.884406       -24.0659
 104   2.0000      -0.870471       -23.6867
 105   2.0000      -0.867024       -23.5929
 106   2.0000      -0.858318       -23.3560
 107   2.0000      -0.854704       -23.2577
 108   2.0000      -0.850905       -23.1543
 109   2.0000      -0.838102       -22.8059
 110   2.0000      -0.829866       -22.5818
 111   2.0000      -0.826026       -22.4773
 112   2.0000      -0.818280       -22.2665
 113   2.0000      -0.813489       -22.1362
 114   2.0000      -0.809610       -22.0306
 115   2.0000      -0.800922       -21.7942
 116   2.0000      -0.796770       -21.6812
 117   2.0000      -0.794145       -21.6098
 118   2.0000      -0.787218       -21.4213
 119   2.0000      -0.785969       -21.3873
 120   2.0000      -0.776730       -21.1359
 121   2.0000      -0.765739       -20.8368
 122   2.0000      -0.760659       -20.6986
 123   2.0000      -0.725957       -19.7543
 124   2.0000      -0.724909       -19.7258
 125   2.0000      -0.713198       -19.4071
 126   2.0000      -0.707463       -19.2510
 127   2.0000      -0.705534       -19.1985
 128   2.0000      -0.699502       -19.0344
 129   2.0000      -0.694214       -18.8905
 130   2.0000      -0.680722       -18.5234
 131   2.0000      -0.673011       -18.3136
 132   2.0000      -0.663652       -18.0589
 133   2.0000      -0.662451       -18.0262
 134   2.0000      -0.650945       -17.7131
 135   2.0000      -0.650371       -17.6975
 136   2.0000      -0.646961       -17.6047
 137   2.0000      -0.644870       -17.5478
 138   2.0000      -0.632348       -17.2071
 139   2.0000      -0.626523       -17.0486
 140   2.0000      -0.621532       -16.9127
 141   2.0000      -0.614060       -16.7094
 142   2.0000      -0.608992       -16.5715
 143   2.0000      -0.606691       -16.5089
 144   2.0000      -0.593433       -16.1481
 145   2.0000      -0.592322       -16.1179
 146   2.0000      -0.586428       -15.9575
 147   2.0000      -0.580283       -15.7903
 148   2.0000      -0.578676       -15.7466
 149   2.0000      -0.571723       -15.5574
 150   2.0000      -0.560044       -15.2396
 151   2.0000      -0.556184       -15.1345
 152   2.0000      -0.554090       -15.0776
 153   2.0000      -0.548972       -14.9383
 154   2.0000      -0.547445       -14.8967
 155   2.0000      -0.544105       -14.8059
 156   2.0000      -0.541545       -14.7362
 157   2.0000      -0.539968       -14.6933
 158   2.0000      -0.535418       -14.5695
 159   2.0000      -0.532462       -14.4890
 160   2.0000      -0.528396       -14.3784
 161   2.0000      -0.526540       -14.3279
 162   2.0000      -0.522463       -14.2169
 163   2.0000      -0.519928       -14.1480
 164   2.0000      -0.515568       -14.0293
 165   2.0000      -0.515361       -14.0237
 166   2.0000      -0.512594       -13.9484
 167   2.0000      -0.511043       -13.9062
 168   2.0000      -0.508876       -13.8472
 169   2.0000      -0.504988       -13.7414
 170   2.0000      -0.503152       -13.6915
 171   2.0000      -0.501195       -13.6382
 172   2.0000      -0.499009       -13.5787
 173   2.0000      -0.495418       -13.4810
 174   2.0000      -0.489725       -13.3261
 175   2.0000      -0.488163       -13.2836
 176   2.0000      -0.487157       -13.2562
 177   2.0000      -0.483344       -13.1525
 178   2.0000      -0.482431       -13.1276
 179   2.0000      -0.479563       -13.0496
 180   2.0000      -0.476362       -12.9625
 181   2.0000      -0.468668       -12.7531
 182   2.0000      -0.466929       -12.7058
 183   2.0000      -0.462893       -12.5960
 184   2.0000      -0.459902       -12.5146
 185   2.0000      -0.456337       -12.4176
 186   2.0000      -0.454058       -12.3555
 187   2.0000      -0.449303       -12.2261
 188   2.0000      -0.448302       -12.1989
 189   2.0000      -0.444199       -12.0873
 190   2.0000      -0.442411       -12.0386
 191   2.0000      -0.440578       -11.9887
 192   2.0000      -0.440185       -11.9780
 193   2.0000      -0.436348       -11.8736
 194   2.0000      -0.431064       -11.7299
 195   2.0000      -0.430348       -11.7104
 196   2.0000      -0.430009       -11.7011
 197   2.0000      -0.424597       -11.5539
 198   2.0000      -0.423951       -11.5363
 199   2.0000      -0.417095       -11.3497
 200   2.0000      -0.416018       -11.3204
 201   2.0000      -0.412449       -11.2233
 202   2.0000      -0.411077       -11.1860
 203   2.0000      -0.408812       -11.1244
 204   2.0000      -0.406437       -11.0597
 205   2.0000      -0.404971       -11.0198
 206   2.0000      -0.401293       -10.9197
 207   2.0000      -0.398657       -10.8480
 208   2.0000      -0.397451       -10.8152
 209   2.0000      -0.391732       -10.6596
 210   2.0000      -0.382720       -10.4143
 211   2.0000      -0.381590       -10.3836
 212   2.0000      -0.370995       -10.0953
 213   2.0000      -0.362030        -9.8513
 214   2.0000      -0.351739        -9.5713
 215   2.0000      -0.348434        -9.4814
 216   2.0000      -0.339574        -9.2403
 217   2.0000      -0.331850        -9.0301
 218   2.0000      -0.329793        -8.9741
 219   2.0000      -0.325424        -8.8552
 220   2.0000      -0.320838        -8.7304
 221   2.0000      -0.318855        -8.6765
 222   2.0000      -0.313830        -8.5397
 223   2.0000      -0.308278        -8.3887
 224   2.0000      -0.303769        -8.2660
 225   2.0000      -0.299775        -8.1573
 226   2.0000      -0.295468        -8.0401
 227   2.0000      -0.283005        -7.7010
 228   2.0000      -0.279159        -7.5963
 229   2.0000      -0.276103        -7.5132
 230   2.0000      -0.268861        -7.3161
 231   2.0000      -0.243419        -6.6238
 232   2.0000      -0.215996        -5.8775
 233   0.0000      -0.090761        -2.4697
 234   0.0000      -0.050065        -1.3624
 235   0.0000      -0.031910        -0.8683
 236   0.0000      -0.014669        -0.3992
 237   0.0000      -0.007904        -0.2151

MULLIKEN ATOMIC CHARGES
-----------------------
   0 C :   -0.053957
   1 S :    0.131991
   2 C :   -0.112037
   3 C :    0.082175
   4 C :   -0.002385
   5 C :    0.081284
   6 C :   -0.124790
   7 S :    0.118143
   8 C :   -0.059842
   9 C :    0.008802
  10 C :   -0.008811
  11 C :    0.008311
  12 C :   -0.210789
  13 S :    0.219980
  14 C :   -0.236938
  15 C :    0.131724
  16 C :    0.134551
  17 C :   -0.031320
  18 C :   -0.049376
  19 O :   -0.192584
  20 C :    0.092730
  21 C :   -0.009881
  22 C :    0.018702
  23 C :    0.013955
  24 C :    0.157241
  25 C :   -0.064300
  26 C :   -0.042330
  27 N :   -0.034436
  28 C :    0.032217
  29 C :    0.035719
  30 N :   -0.049191
  31 C :    0.094398
  32 C :   -0.118535
  33 C :   -0.082443
  34 N :   -0.023083
  35 C :    0.038860
  36 C :    0.065295
  37 N :   -0.008363
  38 C :   -0.263114
  39 S :    0.190652
  40 C :   -0.070565
  41 C :    0.050997
  42 C :    0.213216
  43 C :   -0.005690
  44 C :   -0.044705
  45 O :   -0.204676
  46 C :    0.086226
  47 C :   -0.018718
  48 C :    0.028743
  49 C :   -0.035404
  50 C :   -0.040804
  51 S :    0.093490
  52 C :   -0.065590
  53 C :    0.134768
  54 C :   -0.096527
  55 C :    0.064621
  56 C :   -0.094031
  57 S :    0.103253
  58 C :   -0.057772
  59 C :    0.006532
  60 C :   -0.009227
  61 C :   -0.005286
  62 H :    0.026229
  63 H :   -0.023130
  64 H :    0.024308
  65 H :   -0.022472
  66 H :   -0.010090
  67 H :    0.027826
  68 H :    0.035393
  69 H :    0.027445
  70 H :   -0.014981
  71 H :   -0.020165
  72 H :   -0.032165
  73 H :    0.015721
  74 H :    0.018339
  75 H :    0.017990
  76 H :    0.015867
  77 H :    0.043131
  78 H :    0.034335
  79 H :    0.025484
  80 H :   -0.012367
  81 H :   -0.015430
  82 H :   -0.012914
  83 H :   -0.016699
  84 H :    0.024832
  85 H :   -0.021597
  86 H :   -0.022302
  87 H :   -0.023663
Sum of atomic charges:   -0.0000000

LOEWDIN ATOMIC CHARGES
----------------------
   0 C :   -0.162371
   1 S :    0.422249
   2 C :   -0.162838
   3 C :   -0.043787
   4 C :   -0.065898
   5 C :   -0.045422
   6 C :   -0.163856
   7 S :    0.407078
   8 C :   -0.167855
   9 C :   -0.060872
  10 C :   -0.069623
  11 C :   -0.019832
  12 C :   -0.189990
  13 S :    0.536947
  14 C :   -0.180618
  15 C :   -0.026988
  16 C :   -0.047410
  17 C :   -0.057824
  18 C :    0.082278
  19 O :   -0.150669
  20 C :   -0.074439
  21 C :   -0.005918
  22 C :   -0.033210
  23 C :    0.002112
  24 C :   -0.035629
  25 C :   -0.015586
  26 C :   -0.013599
  27 N :   -0.047320
  28 C :    0.010630
  29 C :    0.011098
  30 N :   -0.045907
  31 C :   -0.052913
  32 C :   -0.011456
  33 C :   -0.014590
  34 N :   -0.022684
  35 C :    0.018414
  36 C :    0.026589
  37 N :   -0.027355
  38 C :   -0.178740
  39 S :    0.524847
  40 C :   -0.186004
  41 C :   -0.049787
  42 C :   -0.024418
  43 C :   -0.050041
  44 C :    0.083411
  45 O :   -0.155342
  46 C :   -0.077452
  47 C :    0.000759
  48 C :   -0.029119
  49 C :   -0.014755
  50 C :   -0.166625
  51 S :    0.414874
  52 C :   -0.161467
  53 C :   -0.041345
  54 C :   -0.065539
  55 C :   -0.047352
  56 C :   -0.163886
  57 S :    0.403023
  58 C :   -0.165493
  59 C :   -0.062863
  60 C :   -0.040557
  61 C :   -0.042260
  62 H :    0.024301
  63 H :    0.028411
  64 H :    0.023953
  65 H :    0.028708
  66 H :    0.037233
  67 H :    0.041070
  68 H :    0.048183
  69 H :    0.030746
  70 H :    0.031824
  71 H :    0.027837
  72 H :    0.024768
  73 H :    0.027983
  74 H :    0.029100
  75 H :    0.028504
  76 H :    0.028349
  77 H :    0.050691
  78 H :    0.032553
  79 H :    0.040168
  80 H :    0.032340
  81 H :    0.029840
  82 H :    0.015069
  83 H :    0.020921
  84 H :    0.023808
  85 H :    0.028680
  86 H :    0.030036
  87 H :    0.030118

  Mayer bond orders larger than 0.100000
B(  0-C ,  1-S ) :   1.1414 B(  0-C ,  4-C ) :   1.6142 B(  0-C , 62-H ) :   0.9660
B(  1-S ,  2-C ) :   1.0752 B(  2-C ,  3-C ) :   1.3558 B(  2-C , 11-C ) :   1.3110
B(  3-C ,  4-C ) :   1.2102 B(  3-C ,  5-C ) :   1.2019 B(  4-C , 63-H ) :   0.9942
B(  5-C ,  6-C ) :   1.3653 B(  5-C ,  9-C ) :   1.1988 B(  6-C ,  7-S ) :   1.0819
B(  6-C , 10-C ) :   1.3147 B(  7-S ,  8-C ) :   1.1253 B(  8-C ,  9-C ) :   1.6220
B(  8-C , 64-H ) :   0.9679 B(  9-C , 65-H ) :   0.9946 B( 10-C , 11-C ) :   1.4782
B( 10-C , 12-C ) :   0.9705 B( 11-C , 66-H ) :   0.9785 B( 12-C , 13-S ) :   1.1855
B( 12-C , 14-C ) :   0.1197 B( 12-C , 16-C ) :   1.3934 B( 13-S , 14-C ) :   1.1666
B( 14-C , 15-C ) :   1.3283 B( 14-C , 24-C ) :   1.1377 B( 15-C , 16-C ) :   1.2065
B( 15-C , 23-C ) :   1.2195 B( 16-C , 17-C ) :   1.1956 B( 17-C , 18-C ) :   0.9004
B( 17-C , 21-C ) :   1.5749 B( 18-C , 19-O ) :   2.1911 B( 18-C , 20-C ) :   1.0315
B( 20-C , 67-H ) :   0.9419 B( 20-C , 68-H ) :   0.9395 B( 20-C , 69-H ) :   0.9494
B( 21-C , 22-C ) :   1.1911 B( 21-C , 70-H ) :   0.9919 B( 22-C , 23-C ) :   1.5370
B( 22-C , 71-H ) :   0.9868 B( 23-C , 72-H ) :   0.9797 B( 24-C , 25-C ) :   1.2327
B( 24-C , 31-C ) :   0.1243 B( 24-C , 33-C ) :   1.2568 B( 25-C , 26-C ) :   1.1801
B( 25-C , 30-N ) :   1.4219 B( 26-C , 27-N ) :   1.4392 B( 26-C , 31-C ) :   1.2521
B( 27-N , 28-C ) :   1.6639 B( 28-C , 29-C ) :   1.2128 B( 28-C , 73-H ) :   0.9744
B( 29-C , 30-N ) :   1.6507 B( 29-C , 74-H ) :   0.9742 B( 31-C , 32-C ) :   1.2742
B( 31-C , 38-C ) :   1.0918 B( 32-C , 33-C ) :   1.1265 B( 32-C , 37-N ) :   1.4652
B( 33-C , 34-N ) :   1.4590 B( 34-N , 35-C ) :   1.6743 B( 35-C , 36-C ) :   1.1688
B( 35-C , 75-H ) :   0.9755 B( 36-C , 37-N ) :   1.6742 B( 36-C , 76-H ) :   0.9733
B( 38-C , 39-S ) :   1.1606 B( 38-C , 40-C ) :   0.1172 B( 38-C , 42-C ) :   1.3712
B( 39-S , 40-C ) :   1.1632 B( 40-C , 41-C ) :   1.3416 B( 40-C , 50-C ) :   1.1637
B( 41-C , 42-C ) :   1.2091 B( 41-C , 49-C ) :   1.1908 B( 42-C , 43-C ) :   1.1844
B( 43-C , 44-C ) :   0.9071 B( 43-C , 47-C ) :   1.5692 B( 44-C , 45-O ) :   2.1495
B( 44-C , 46-C ) :   1.0399 B( 46-C , 77-H ) :   0.9398 B( 46-C , 78-H ) :   0.9484
B( 46-C , 79-H ) :   0.9388 B( 47-C , 48-C ) :   1.1966 B( 47-C , 80-H ) :   0.9901
B( 48-C , 49-C ) :   1.5516 B( 48-C , 81-H ) :   0.9853 B( 49-C , 82-H ) :   0.9800
B( 50-C , 51-S ) :   1.0928 B( 50-C , 54-C ) :   1.5229 B( 51-S , 52-C ) :   1.0449
B( 52-C , 53-C ) :   1.3463 B( 52-C , 61-C ) :   1.3029 B( 53-C , 54-C ) :   1.2137
B( 53-C , 55-C ) :   1.1976 B( 54-C , 83-H ) :   0.9865 B( 55-C , 56-C ) :   1.3607
B( 55-C , 59-C ) :   1.2082 B( 56-C , 57-S ) :   1.0671 B( 56-C , 60-C ) :   1.3051
B( 57-S , 58-C ) :   1.1361 B( 58-C , 59-C ) :   1.6203 B( 58-C , 84-H ) :   0.9665
B( 59-C , 85-H ) :   0.9940 B( 60-C , 61-C ) :   1.4623 B( 60-C , 86-H ) :   0.9941
B( 61-C , 87-H ) :   0.9934

-----------------------------------------------------------------------------
         ABSORPTION SPECTRUM VIA TRANSITION ELECTRIC DIPOLE MOMENTS
-----------------------------------------------------------------------------
State   Energy  Wavelength   fosc         T2         TX        TY        TZ
        (cm-1)    (nm)                  (au**2)     (au)      (au)      (au)
-----------------------------------------------------------------------------
   0   11217.3    891.5   0.614645882  18.03896  -0.21542  -3.43766  -2.48496
   1   17409.4    574.4   0.029245328   0.55303  -0.43270  -0.35928  -0.48653
   2   20129.1    496.8   0.613340008  10.03121  -0.87266   2.42481   1.84119
   3   23565.6    424.3   0.015904921   0.22219  -0.22424  -0.41460  -0.00362
   4   24377.8    410.2   0.203122578   2.74309  -0.81489  -0.68114  -1.27086
   5   24988.5    400.2   0.013242945   0.17447   0.12119   0.35333   0.18693
   6   25414.4    393.5   0.038844688   0.50318   0.30034   0.52135   0.37574
   7   25999.9    384.6   0.070749118   0.89583   0.73942  -0.58832  -0.05445
   8   26618.6    375.7   0.036597543   0.45263   0.66602   0.01630  -0.09370
   9   26868.7    372.2   0.019630463   0.24052   0.14543   0.20028   0.42339
  10   27425.9    364.6   0.007544314   0.09056  -0.15291  -0.22630   0.12636
  11   27680.7    361.3   0.114422256   1.36084   0.92465  -0.61253  -0.36148
  12   28605.7    349.6   0.016986146   0.19549  -0.26917  -0.17541  -0.30376
  13   28791.6    347.3   0.014782621   0.16903   0.12008  -0.03062   0.39201
  14   29340.2    340.8   0.012268531   0.13766  -0.27071  -0.01306  -0.25339
  15   30204.1    331.1   0.024401311   0.26596   0.40890  -0.28261  -0.13746
  16   30707.7    325.7   0.064439640   0.69085  -0.78964  -0.19005  -0.17662
  17   31167.3    320.8   0.001493412   0.01577   0.02823   0.05886   0.10730
  18   31406.8    318.4   0.174481989   1.82895  -0.76895   0.76703   0.80580
  19   31546.4    317.0   0.207534011   2.16579  -1.24199   0.73195  -0.29578
  20   32336.1    309.3   0.006338962   0.06454   0.00609   0.11363   0.22713
  21   33027.8    302.8   0.081706600   0.81443  -0.48905   0.19062  -0.73412
  22   33567.8    297.9   0.069752317   0.68409   0.48733  -0.40234   0.53359
  23   33822.6    295.7   0.008544237   0.08317  -0.26396   0.03507  -0.11073
  24   34090.1    293.3   0.032474720   0.31361   0.41645  -0.15122   0.34251
  25   34210.0    292.3   0.009300080   0.08950  -0.26132   0.13139   0.06282
  26   34791.9    287.4   0.065753651   0.62218   0.69021   0.05765   0.37746
  27   35078.5    285.1   0.046409151   0.43555   0.14463  -0.58927   0.25961
  28   35424.8    282.3   0.019063204   0.17716   0.31491   0.06991  -0.27038
  29   35484.0    281.8   0.008438958   0.07829  -0.19885  -0.09384  -0.17305
  30   36226.3    276.0   0.158564864   1.44098  -1.08734  -0.05721  -0.50537
  31   36287.5    275.6   0.150746815   1.36762   1.11596  -0.33098   0.11273
  32   36593.3    273.3   0.044501838   0.40036  -0.44439   0.42825   0.13959
  33   37140.2    269.2   0.033257421   0.29479  -0.40620  -0.33772  -0.12547
  34   37235.0    268.6   0.013672570   0.12089   0.20233  -0.26892   0.08737
  35   37643.3    265.7   0.052934118   0.46294   0.24646   0.54887   0.31771
  36   38183.9    261.9   0.019139963   0.16502  -0.02919  -0.37085  -0.16321
  37   38274.5    261.3   0.059262535   0.50974   0.56557   0.20760   0.38311
  38   38633.3    258.8   0.022752389   0.19388   0.23839   0.02063  -0.36963
  39   38960.5    256.7   0.134356605   1.13530  -0.79331   0.60039  -0.38144
  40   39397.5    253.8   0.090627847   0.75730   0.52405  -0.62148  -0.31054
  41   39469.2    253.4   0.166715144   1.39057   1.09348   0.44111  -0.01741
  42   39581.0    252.6   0.037847615   0.31479  -0.47376   0.17425   0.24491
  43   39754.9    251.5   0.047290639   0.39162   0.17258  -0.59989  -0.04435
  44   40121.2    249.2   0.003758586   0.03084   0.03485  -0.02234   0.17067
  45   40203.1    248.7   0.032425138   0.26552  -0.09681  -0.21135  -0.45987

FINAL SINGLE POINT ENERGY     -4675.966851763782

DIPOLE MOMENT
-------------
                                X             Y             Z
Electronic contribution:    -12.97778      10.18463      10.01269
Nuclear contribution   :     12.38032      -8.67437     -10.56732
                        -----------------------------------------
Total Dipole Moment    :     -0.59746       1.51026      -0.55464
                        -----------------------------------------
Magnitude (a.u.)       :      1.71624
Magnitude (Debye)      :      4.36232

Rotational constants in cm-1:     0.002272     0.000449     0.000407
Rotational constants in MHz :    68.106346    13.463174    12.186762

                             ****ORCA TERMINATED NORMALLY****
TOTAL RUN TIME: 0 days 0 hours 8 minutes 6 seconds 947 msec
