                         Program Version 4.2.0 -  RELEASE  -
|  1> # ORCA input file
|  2> # SCF done       -194.999207996073          0.000399974818
|  3> ! CAM-B3LYP def2-SVP def2/J RIJCOSX Grid4 TightSCF
|  4> %maxcore 5000
|  5> %tddft
|  6>     Mode sTDDFT
|  7>     Ethresh 5.0
|  8>     maxcore 5000
|  9> end
| 10>
| 11> %pal
| 12>   nprocs 6
| 13>   end
| 14> * xyz 0 1
| 15>    C        1.02536         1.04029        -0.09972
| 16>    O        0.23178         0.62556        -0.90436
| 17>    C        1.69308         2.36143        -0.12930
| 18>    C        2.45575         2.54481         1.03678
| 19>    C        3.15330         3.72939         1.21877
| 20>    C        3.07994         4.70430         0.23134
| 21>    C        2.32015         4.51062        -0.92603
| 22>    C        1.61391         3.32935        -1.10925
| 23>   Br        2.24273         5.85259        -2.25194
| 24>   Br        4.03042         6.31849         0.47903
| 25>    C        2.34315         1.35299         1.87229
| 26>    C        3.00724         1.14259         3.04969
| 27>    C        3.87578         2.08350         3.64693
| 28>    N        4.58636         2.80774         4.18198
| 29>    C        2.93873        -0.03306         3.82964
| 30>    N        2.94152        -0.95445         4.51391
| 31>    C        1.46135         0.41856         1.18825
| 32>    C        0.99645        -0.75543         1.68849
| 33>    C        0.26140        -1.73180         0.96459
| 34>    S       -0.76084        -2.90902         1.80307
| 35>    C       -1.08474        -3.56268         0.20929
| 36>    N       -0.43149        -2.92623        -0.73059
| 37>    N        0.29134        -1.93961        -0.31904
| 38>    C       -1.97397        -4.65236        -0.01230
| 39>    C       -2.23749        -5.08236        -1.26414
| 40>    C       -3.13816        -6.13135        -1.65924
| 41>    C       -3.31730        -6.35708        -3.01855
| 42>    C       -4.18944        -7.31996        -3.51497
| 43>    C       -4.92195        -8.11070        -2.65743
| 44>    C       -4.75064        -7.94246        -1.25718
| 45>    C       -3.86179        -6.96041        -0.74950
| 46>    N       -3.69767        -6.86079         0.58155
| 47>    C       -4.35149        -7.65272         1.38627
| 48>    C       -5.27279        -8.61924         0.87517
| 49>    N       -5.44331        -8.73086        -0.41318
| 50>    C       -6.04287        -9.52374         1.77167
| 51>    C       -4.10653        -7.51897         2.84971
| 52>    C       -5.90992        -9.09469        -3.07444
| 53>    C       -5.98601       -10.34370        -2.43548
| 54>    C       -4.91411       -10.86398        -1.56568
| 55>    O       -3.76422       -10.54599        -1.51000
| 56>    S       -5.56747       -12.29175        -0.67894
| 57>    C       -7.01601       -12.39527        -1.72688
| 58>    O       -7.80154       -13.29313        -1.64016
| 59>    C       -7.05534       -11.21850        -2.62085
| 60>    C       -8.07109       -10.97715        -3.57234
| 61>    C       -7.97267        -9.74053        -4.23171
| 62>    C       -6.94998        -8.82681        -3.96050
| 63>    C       -7.25539        -7.57912        -4.70097
| 64>    O       -6.67293        -6.54124        -4.74550
| 65>    O       -8.42937        -7.79467        -5.37751
| 66>    C       -8.91879        -9.05677        -5.14745
| 67>    O       -9.94649        -9.42388        -5.63035
| 68>    C       -9.08873       -11.96488        -3.83764
| 69>    C       -9.59633       -12.19774        -5.06451
| 70>    C      -10.52312       -13.24291        -5.33266
| 71>    C      -10.85955       -13.70242        -6.56403
| 72>    C      -12.08631       -14.53174        -6.75126
| 73>    O      -12.72014       -15.09395        -5.89405
| 74>    C      -12.37402       -14.45690        -8.20010
| 75>    C      -11.34014       -13.75835        -8.85287
| 76>    C      -10.30922       -13.41167        -7.87627
| 77>    C       -9.01627       -13.08372        -8.17715
| 78>    C       -7.95990       -12.99199        -7.24315
| 79>    N       -7.04547       -12.93742        -6.55199
| 80>    C       -8.54785       -12.88851        -9.49666
| 81>    N       -8.12212       -12.70776       -10.54598
| 82>    C      -11.41918       -13.52798       -10.21624
| 83>    C      -12.52335       -14.00979       -10.90986
| 84>    C      -13.53664       -14.71829       -10.25744
| 85>    C      -13.46659       -14.94307        -8.88851
| 86>   Br      -15.01761       -15.37369       -11.22795
| 87>   Br      -12.63825       -13.68816       -12.76726
| 88>    H        3.74509         3.91878         2.09949
| 89>    H        1.02030         3.16582        -1.99536
| 90>    H        1.18168        -1.00466         2.72508
| 91>    H       -2.43703        -5.11049         0.84666
| 92>    H       -1.73782        -4.57036        -2.07689
| 93>    H       -2.76030        -5.75473        -3.72030
| 94>    H       -4.27755        -7.45687        -4.58062
| 95>    H       -5.36360       -10.20058         2.28870
| 96>    H       -6.74636       -10.11121         1.18873
| 97>    H       -6.58292        -8.95055         2.52298
| 98>    H       -5.02439        -7.23994         3.36544
| 99>    H       -3.35191        -6.75841         3.02704
|100>    H       -3.76518        -8.46689         3.26228
|101>    H       -9.34487       -12.62653        -3.02174
|102>    H       -9.29456       -11.58393        -5.89797
|103>    H      -11.05608       -13.67813        -4.49465
|104>    H      -10.66010       -12.97899       -10.74993
|105>    H      -14.24626       -15.48337        -8.37430
|106> *
|107>
|108>                          ****END OF INPUT****

CARTESIAN COORDINATES (ANGSTROEM)
---------------------------------
  C      1.025360    1.040290   -0.099720
  O      0.231780    0.625560   -0.904360
  C      1.693080    2.361430   -0.129300
  C      2.455750    2.544810    1.036780
  C      3.153300    3.729390    1.218770
  C      3.079940    4.704300    0.231340
  C      2.320150    4.510620   -0.926030
  C      1.613910    3.329350   -1.109250
  Br     2.242730    5.852590   -2.251940
  Br     4.030420    6.318490    0.479030
  C      2.343150    1.352990    1.872290
  C      3.007240    1.142590    3.049690
  C      3.875780    2.083500    3.646930
  N      4.586360    2.807740    4.181980
  C      2.938730   -0.033060    3.829640
  N      2.941520   -0.954450    4.513910
  C      1.461350    0.418560    1.188250
  C      0.996450   -0.755430    1.688490
  C      0.261400   -1.731800    0.964590
  S     -0.760840   -2.909020    1.803070
  C     -1.084740   -3.562680    0.209290
  N     -0.431490   -2.926230   -0.730590
  N      0.291340   -1.939610   -0.319040
  C     -1.973970   -4.652360   -0.012300
  C     -2.237490   -5.082360   -1.264140
  C     -3.138160   -6.131350   -1.659240
  C     -3.317300   -6.357080   -3.018550
  C     -4.189440   -7.319960   -3.514970
  C     -4.921950   -8.110700   -2.657430
  C     -4.750640   -7.942460   -1.257180
  C     -3.861790   -6.960410   -0.749500
  N     -3.697670   -6.860790    0.581550
  C     -4.351490   -7.652720    1.386270
  C     -5.272790   -8.619240    0.875170
  N     -5.443310   -8.730860   -0.413180
  C     -6.042870   -9.523740    1.771670
  C     -4.106530   -7.518970    2.849710
  C     -5.909920   -9.094690   -3.074440
  C     -5.986010  -10.343700   -2.435480
  C     -4.914110  -10.863980   -1.565680
  O     -3.764220  -10.545990   -1.510000
  S     -5.567470  -12.291750   -0.678940
  C     -7.016010  -12.395270   -1.726880
  O     -7.801540  -13.293130   -1.640160
  C     -7.055340  -11.218500   -2.620850
  C     -8.071090  -10.977150   -3.572340
  C     -7.972670   -9.740530   -4.231710
  C     -6.949980   -8.826810   -3.960500
  C     -7.255390   -7.579120   -4.700970
  O     -6.672930   -6.541240   -4.745500
  O     -8.429370   -7.794670   -5.377510
  C     -8.918790   -9.056770   -5.147450
  O     -9.946490   -9.423880   -5.630350
  C     -9.088730  -11.964880   -3.837640
  C     -9.596330  -12.197740   -5.064510
  C    -10.523120  -13.242910   -5.332660
  C    -10.859550  -13.702420   -6.564030
  C    -12.086310  -14.531740   -6.751260
  O    -12.720140  -15.093950   -5.894050
  C    -12.374020  -14.456900   -8.200100
  C    -11.340140  -13.758350   -8.852870
  C    -10.309220  -13.411670   -7.876270
  C     -9.016270  -13.083720   -8.177150
  C     -7.959900  -12.991990   -7.243150
  N     -7.045470  -12.937420   -6.551990
  C     -8.547850  -12.888510   -9.496660
  N     -8.122120  -12.707760  -10.545980
  C    -11.419180  -13.527980  -10.216240
  C    -12.523350  -14.009790  -10.909860
  C    -13.536640  -14.718290  -10.257440
  C    -13.466590  -14.943070   -8.888510
  Br   -15.017610  -15.373690  -11.227950
  Br   -12.638250  -13.688160  -12.767260
  H      3.745090    3.918780    2.099490
  H      1.020300    3.165820   -1.995360
  H      1.181680   -1.004660    2.725080
  H     -2.437030   -5.110490    0.846660
  H     -1.737820   -4.570360   -2.076890
  H     -2.760300   -5.754730   -3.720300
  H     -4.277550   -7.456870   -4.580620
  H     -5.363600  -10.200580    2.288700
  H     -6.746360  -10.111210    1.188730
  H     -6.582920   -8.950550    2.522980
  H     -5.024390   -7.239940    3.365440
  H     -3.351910   -6.758410    3.027040
  H     -3.765180   -8.466890    3.262280
  H     -9.344870  -12.626530   -3.021740
  H     -9.294560  -11.583930   -5.897970
  H    -11.056080  -13.678130   -4.494650
  H    -10.660100  -12.978990  -10.749930
  H    -14.246260  -15.483370   -8.374300

 Total Charge           Charge          ....    0
 Multiplicity           Mult            ....    1
 Number of Electrons    NEL             ....  614
 Basis Dimension        Dim             .... 1192

ORBITAL ENERGIES
----------------

  NO   OCC          E(Eh)            E(eV)
   0   2.0000    -482.882776    -13139.9083
   1   2.0000    -482.881673    -13139.8783
   2   2.0000    -482.879344    -13139.8150
   3   2.0000    -482.877490    -13139.7645
   4   2.0000     -88.981871     -2421.3198
   5   2.0000     -88.960644     -2420.7422
   6   2.0000     -62.560400     -1702.3550
   7   2.0000     -62.559283     -1702.3246
   8   2.0000     -62.556933     -1702.2607
   9   2.0000     -62.555132     -1702.2117
  10   2.0000     -56.394353     -1534.5684
  11   2.0000     -56.393253     -1534.5384
  12   2.0000     -56.391693     -1534.4960
  13   2.0000     -56.391596     -1534.4933
  14   2.0000     -56.390879     -1534.4738
  15   2.0000     -56.390572     -1534.4655
  16   2.0000     -56.390474     -1534.4628
  17   2.0000     -56.389094     -1534.4253
  18   2.0000     -56.388236     -1534.4019
  19   2.0000     -56.388131     -1534.3990
  20   2.0000     -56.386418     -1534.3524
  21   2.0000     -56.386326     -1534.3499
  22   2.0000     -19.303478      -525.2743
  23   2.0000     -19.254173      -523.9327
  24   2.0000     -19.250032      -523.8200
  25   2.0000     -19.249941      -523.8175
  26   2.0000     -19.247725      -523.7572
  27   2.0000     -19.232416      -523.3407
  28   2.0000     -19.222264      -523.0644
  29   2.0000     -14.449830      -393.1999
  30   2.0000     -14.442555      -393.0019
  31   2.0000     -14.440907      -392.9571
  32   2.0000     -14.435061      -392.7980
  33   2.0000     -14.430751      -392.6807
  34   2.0000     -14.430061      -392.6619
  35   2.0000     -14.428193      -392.6111
  36   2.0000     -14.425286      -392.5320
  37   2.0000     -10.445853      -284.2461
  38   2.0000     -10.444271      -284.2031
  39   2.0000     -10.417781      -283.4822
  40   2.0000     -10.415680      -283.4251
  41   2.0000     -10.383123      -282.5391
  42   2.0000     -10.375454      -282.3305
  43   2.0000     -10.363769      -282.0125
  44   2.0000     -10.361450      -281.9494
  45   2.0000     -10.360861      -281.9334
  46   2.0000     -10.359203      -281.8883
  47   2.0000     -10.357183      -281.8333
  48   2.0000     -10.357003      -281.8284
  49   2.0000     -10.356296      -281.8091
  50   2.0000     -10.354008      -281.7469
  51   2.0000     -10.352212      -281.6980
  52   2.0000     -10.349702      -281.6297
  53   2.0000     -10.348629      -281.6005
  54   2.0000     -10.343743      -281.4676
  55   2.0000     -10.343101      -281.4501
  56   2.0000     -10.340880      -281.3897
  57   2.0000     -10.340463      -281.3783
  58   2.0000     -10.339378      -281.3488
  59   2.0000     -10.338786      -281.3327
  60   2.0000     -10.338703      -281.3304
  61   2.0000     -10.333443      -281.1873
  62   2.0000     -10.333143      -281.1791
  63   2.0000     -10.332776      -281.1691
  64   2.0000     -10.331467      -281.1335
  65   2.0000     -10.331359      -281.1306
  66   2.0000     -10.330084      -281.0959
  67   2.0000     -10.327905      -281.0366
  68   2.0000     -10.327639      -281.0293
  69   2.0000     -10.327186      -281.0170
  70   2.0000     -10.321811      -280.8708
  71   2.0000     -10.319671      -280.8125
  72   2.0000     -10.319530      -280.8087
  73   2.0000     -10.315883      -280.7094
  74   2.0000     -10.315328      -280.6944
  75   2.0000     -10.314791      -280.6797
  76   2.0000     -10.313558      -280.6462
  77   2.0000     -10.312973      -280.6302
  78   2.0000     -10.312868      -280.6274
  79   2.0000     -10.310659      -280.5673
  80   2.0000     -10.309531      -280.5366
  81   2.0000     -10.306383      -280.4509
  82   2.0000     -10.305906      -280.4380
  83   2.0000     -10.301282      -280.3121
  84   2.0000     -10.297361      -280.2054
  85   2.0000     -10.296676      -280.1868
  86   2.0000     -10.289191      -279.9831
  87   2.0000     -10.288134      -279.9544
  88   2.0000     -10.286820      -279.9186
  89   2.0000      -8.789738      -239.1809
  90   2.0000      -8.788605      -239.1501
  91   2.0000      -8.786257      -239.0862
  92   2.0000      -8.784478      -239.0378
  93   2.0000      -8.078154      -219.8177
  94   2.0000      -8.059527      -219.3109
  95   2.0000      -6.625901      -180.2999
  96   2.0000      -6.624803      -180.2701
  97   2.0000      -6.622349      -180.2033
  98   2.0000      -6.620665      -180.1575
  99   2.0000      -6.611855      -179.9177
 100   2.0000      -6.611043      -179.8956
 101   2.0000      -6.610690      -179.8860
 102   2.0000      -6.609904      -179.8646
 103   2.0000      -6.608418      -179.8242
 104   2.0000      -6.607582      -179.8014
 105   2.0000      -6.606549      -179.7734
 106   2.0000      -6.605807      -179.7532
 107   2.0000      -6.046673      -164.5383
 108   2.0000      -6.043448      -164.4506
 109   2.0000      -6.040691      -164.3756
 110   2.0000      -6.028361      -164.0400
 111   2.0000      -6.025233      -163.9549
 112   2.0000      -6.020555      -163.8276
 113   2.0000      -2.741777       -74.6075
 114   2.0000      -2.740694       -74.5781
 115   2.0000      -2.738319       -74.5134
 116   2.0000      -2.738055       -74.5063
 117   2.0000      -2.737411       -74.4887
 118   2.0000      -2.736908       -74.4751
 119   2.0000      -2.736538       -74.4650
 120   2.0000      -2.736296       -74.4584
 121   2.0000      -2.734510       -74.4098
 122   2.0000      -2.733866       -74.3923
 123   2.0000      -2.732809       -74.3635
 124   2.0000      -2.732146       -74.3455
 125   2.0000      -2.726229       -74.1845
 126   2.0000      -2.726227       -74.1844
 127   2.0000      -2.725063       -74.1527
 128   2.0000      -2.725057       -74.1526
 129   2.0000      -2.722772       -74.0904
 130   2.0000      -2.722769       -74.0903
 131   2.0000      -2.720960       -74.0411
 132   2.0000      -2.720943       -74.0406
 133   2.0000      -1.254016       -34.1235
 134   2.0000      -1.178666       -32.0731
 135   2.0000      -1.178592       -32.0711
 136   2.0000      -1.172615       -31.9085
 137   2.0000      -1.154336       -31.4111
 138   2.0000      -1.148572       -31.2542
 139   2.0000      -1.140334       -31.0301
 140   2.0000      -1.139518       -31.0078
 141   2.0000      -1.099620       -29.9222
 142   2.0000      -1.036353       -28.2006
 143   2.0000      -1.032072       -28.0841
 144   2.0000      -1.031551       -28.0699
 145   2.0000      -1.020670       -27.7738
 146   2.0000      -1.019153       -27.7326
 147   2.0000      -1.014866       -27.6159
 148   2.0000      -1.008728       -27.4489
 149   2.0000      -1.004905       -27.3449
 150   2.0000      -0.987674       -26.8760
 151   2.0000      -0.983705       -26.7680
 152   2.0000      -0.980667       -26.6853
 153   2.0000      -0.963563       -26.2199
 154   2.0000      -0.954585       -25.9756
 155   2.0000      -0.948036       -25.7974
 156   2.0000      -0.935619       -25.4595
 157   2.0000      -0.930833       -25.3292
 158   2.0000      -0.925351       -25.1801
 159   2.0000      -0.923707       -25.1354
 160   2.0000      -0.918369       -24.9901
 161   2.0000      -0.915242       -24.9050
 162   2.0000      -0.906453       -24.6658
 163   2.0000      -0.901896       -24.5418
 164   2.0000      -0.895419       -24.3656
 165   2.0000      -0.885775       -24.1032
 166   2.0000      -0.882028       -24.0012
 167   2.0000      -0.861231       -23.4353
 168   2.0000      -0.858824       -23.3698
 169   2.0000      -0.855865       -23.2893
 170   2.0000      -0.847746       -23.0683
 171   2.0000      -0.841474       -22.8977
 172   2.0000      -0.826546       -22.4915
 173   2.0000      -0.821689       -22.3593
 174   2.0000      -0.811351       -22.0780
 175   2.0000      -0.797257       -21.6945
 176   2.0000      -0.789545       -21.4846
 177   2.0000      -0.783841       -21.3294
 178   2.0000      -0.776313       -21.1245
 179   2.0000      -0.771678       -20.9984
 180   2.0000      -0.769268       -20.9328
 181   2.0000      -0.756213       -20.5776
 182   2.0000      -0.738027       -20.0827
 183   2.0000      -0.736643       -20.0451
 184   2.0000      -0.733368       -19.9560
 185   2.0000      -0.730428       -19.8759
 186   2.0000      -0.718163       -19.5422
 187   2.0000      -0.711340       -19.3565
 188   2.0000      -0.701822       -19.0976
 189   2.0000      -0.698817       -19.0158
 190   2.0000      -0.698561       -19.0088
 191   2.0000      -0.690024       -18.7765
 192   2.0000      -0.683544       -18.6002
 193   2.0000      -0.678404       -18.4603
 194   2.0000      -0.663879       -18.0651
 195   2.0000      -0.657055       -17.8794
 196   2.0000      -0.651308       -17.7230
 197   2.0000      -0.644990       -17.5511
 198   2.0000      -0.639678       -17.4065
 199   2.0000      -0.633894       -17.2491
 200   2.0000      -0.632138       -17.2014
 201   2.0000      -0.626432       -17.0461
 202   2.0000      -0.623766       -16.9735
 203   2.0000      -0.622222       -16.9315
 204   2.0000      -0.617350       -16.7990
 205   2.0000      -0.610694       -16.6178
 206   2.0000      -0.605210       -16.4686
 207   2.0000      -0.601898       -16.3785
 208   2.0000      -0.584417       -15.9028
 209   2.0000      -0.583104       -15.8671
 210   2.0000      -0.581204       -15.8154
 211   2.0000      -0.579529       -15.7698
 212   2.0000      -0.576878       -15.6976
 213   2.0000      -0.573374       -15.6023
 214   2.0000      -0.570636       -15.5278
 215   2.0000      -0.562631       -15.3100
 216   2.0000      -0.561444       -15.2777
 217   2.0000      -0.560019       -15.2389
 218   2.0000      -0.557676       -15.1751
 219   2.0000      -0.555540       -15.1170
 220   2.0000      -0.554913       -15.1000
 221   2.0000      -0.553174       -15.0526
 222   2.0000      -0.552882       -15.0447
 223   2.0000      -0.548325       -14.9207
 224   2.0000      -0.546332       -14.8665
 225   2.0000      -0.543809       -14.7978
 226   2.0000      -0.540314       -14.7027
 227   2.0000      -0.537038       -14.6135
 228   2.0000      -0.535321       -14.5668
 229   2.0000      -0.531217       -14.4552
 230   2.0000      -0.526560       -14.3284
 231   2.0000      -0.524970       -14.2852
 232   2.0000      -0.523669       -14.2497
 233   2.0000      -0.519434       -14.1345
 234   2.0000      -0.518531       -14.1099
 235   2.0000      -0.514185       -13.9917
 236   2.0000      -0.512764       -13.9530
 237   2.0000      -0.512264       -13.9394
 238   2.0000      -0.511384       -13.9155
 239   2.0000      -0.509517       -13.8647
 240   2.0000      -0.508993       -13.8504
 241   2.0000      -0.507042       -13.7973
 242   2.0000      -0.506361       -13.7788
 243   2.0000      -0.504725       -13.7343
 244   2.0000      -0.498561       -13.5665
 245   2.0000      -0.497397       -13.5349
 246   2.0000      -0.495811       -13.4917
 247   2.0000      -0.492701       -13.4071
 248   2.0000      -0.490789       -13.3550
 249   2.0000      -0.490238       -13.3400
 250   2.0000      -0.483800       -13.1649
 251   2.0000      -0.475555       -12.9405
 252   2.0000      -0.474086       -12.9005
 253   2.0000      -0.471863       -12.8400
 254   2.0000      -0.468360       -12.7447
 255   2.0000      -0.467469       -12.7205
 256   2.0000      -0.466225       -12.6866
 257   2.0000      -0.464726       -12.6458
 258   2.0000      -0.462913       -12.5965
 259   2.0000      -0.459186       -12.4951
 260   2.0000      -0.458952       -12.4887
 261   2.0000      -0.454516       -12.3680
 262   2.0000      -0.453419       -12.3382
 263   2.0000      -0.452700       -12.3186
 264   2.0000      -0.449774       -12.2390
 265   2.0000      -0.441876       -12.0241
 266   2.0000      -0.439808       -11.9678
 267   2.0000      -0.438225       -11.9247
 268   2.0000      -0.437908       -11.9161
 269   2.0000      -0.437306       -11.8997
 270   2.0000      -0.435088       -11.8394
 271   2.0000      -0.430530       -11.7153
 272   2.0000      -0.425034       -11.5658
 273   2.0000      -0.422091       -11.4857
 274   2.0000      -0.419994       -11.4286
 275   2.0000      -0.415642       -11.3102
 276   2.0000      -0.406983       -11.0746
 277   2.0000      -0.406348       -11.0573
 278   2.0000      -0.403443       -10.9783
 279   2.0000      -0.401845       -10.9347
 280   2.0000      -0.399163       -10.8618
 281   2.0000      -0.398754       -10.8507
 282   2.0000      -0.396040       -10.7768
 283   2.0000      -0.393947       -10.7198
 284   2.0000      -0.391991       -10.6666
 285   2.0000      -0.384392       -10.4598
 286   2.0000      -0.381880       -10.3915
 287   2.0000      -0.378837       -10.3087
 288   2.0000      -0.376081       -10.2337
 289   2.0000      -0.372615       -10.1394
 290   2.0000      -0.360765        -9.8169
 291   2.0000      -0.355506        -9.6738
 292   2.0000      -0.354620        -9.6497
 293   2.0000      -0.353264        -9.6128
 294   2.0000      -0.350699        -9.5430
 295   2.0000      -0.350369        -9.5340
 296   2.0000      -0.345179        -9.3928
 297   2.0000      -0.343328        -9.3424
 298   2.0000      -0.339732        -9.2446
 299   2.0000      -0.334647        -9.1062
 300   2.0000      -0.332456        -9.0466
 301   2.0000      -0.327806        -8.9200
 302   2.0000      -0.320987        -8.7345
 303   2.0000      -0.319951        -8.7063
 304   2.0000      -0.314548        -8.5593
 305   2.0000      -0.308128        -8.3846
 306   2.0000      -0.279370        -7.6020
 307   0.0000      -0.113248        -3.0816
 308   0.0000      -0.105855        -2.8805
 309   0.0000      -0.100300        -2.7293
 310   0.0000      -0.083539        -2.2732
 311   0.0000      -0.075764        -2.0616

MULLIKEN ATOMIC CHARGES
-----------------------
   0 C :    0.149593
   1 O :   -0.094636
   2 C :   -0.024171
   3 C :    0.037809
   4 C :   -0.009316
   5 C :   -0.023566
   6 C :   -0.014483
   7 C :   -0.016605
   8 Br:    0.019149
   9 Br:    0.023361
  10 C :    0.300944
  11 C :   -0.334687
  12 C :   -0.184550
  13 N :    0.162044
  14 C :   -0.193042
  15 N :    0.164078
  16 C :   -0.073449
  17 C :    0.051750
  18 C :   -0.138469
  19 S :    0.114375
  20 C :   -0.073426
  21 N :   -0.058539
  22 N :    0.016529
  23 C :    0.073247
  24 C :   -0.034657
  25 C :    0.125835
  26 C :   -0.045415
  27 C :    0.027488
  28 C :    0.008383
  29 C :   -0.001309
  30 C :   -0.019220
  31 N :    0.003296
  32 C :   -0.155018
  33 C :   -0.144584
  34 N :   -0.035866
  35 C :    0.127953
  36 C :    0.117164
  37 C :    0.054886
  38 C :    0.045441
  39 C :    0.042942
  40 O :   -0.123744
  41 S :    0.011093
  42 C :    0.041637
  43 O :   -0.129945
  44 C :    0.045322
  45 C :    0.043225
  46 C :   -0.075012
  47 C :   -0.064793
  48 C :    0.231292
  49 O :   -0.092391
  50 O :   -0.222781
  51 C :    0.227131
  52 O :   -0.106675
  53 C :   -0.033122
  54 C :    0.055803
  55 C :    0.023031
  56 C :   -0.099092
  57 C :    0.146428
  58 O :   -0.121443
  59 C :   -0.006844
  60 C :    0.027128
  61 C :    0.273953
  62 C :   -0.314711
  63 C :   -0.215970
  64 N :    0.176143
  65 C :   -0.188957
  66 N :    0.167909
  67 C :   -0.008316
  68 C :   -0.023421
  69 C :   -0.015971
  70 C :   -0.018424
  71 Br:    0.020936
  72 Br:    0.027592
  73 H :    0.008769
  74 H :    0.009586
  75 H :    0.026942
  76 H :   -0.000852
  77 H :    0.011778
  78 H :   -0.004177
  79 H :   -0.011959
  80 H :    0.039041
  81 H :    0.024112
  82 H :    0.028404
  83 H :    0.032396
  84 H :    0.031614
  85 H :    0.032551
  86 H :    0.033700
  87 H :    0.039814
  88 H :    0.025755
  89 H :    0.013707
  90 H :    0.010548
Sum of atomic charges:   -0.0000000

LOEWDIN ATOMIC CHARGES
----------------------
   0 C :    0.077875
   1 O :   -0.097977
   2 C :   -0.039156
   3 C :   -0.014848
   4 C :   -0.006751
   5 C :   -0.119257
   6 C :   -0.120370
   7 C :    0.007623
   8 Br:    0.142027
   9 Br:    0.142821
  10 C :    0.072278
  11 C :   -0.126385
  12 C :   -0.019289
  13 N :   -0.039186
  14 C :   -0.021715
  15 N :   -0.041074
  16 C :   -0.065700
  17 C :    0.036953
  18 C :   -0.169064
  19 S :    0.401235
  20 C :   -0.128585
  21 N :   -0.076564
  22 N :   -0.021104
  23 C :   -0.053256
  24 C :    0.032175
  25 C :   -0.014685
  26 C :    0.006805
  27 C :    0.020868
  28 C :   -0.029609
  29 C :    0.007799
  30 C :    0.001112
  31 N :   -0.033283
  32 C :    0.006547
  33 C :    0.011681
  34 N :   -0.041436
  35 C :   -0.053942
  36 C :   -0.051554
  37 C :    0.036173
  38 C :   -0.024987
  39 C :   -0.038169
  40 O :   -0.114797
  41 S :    0.308452
  42 C :   -0.041194
  43 O :   -0.115333
  44 C :   -0.048776
  45 C :    0.032723
  46 C :   -0.050012
  47 C :   -0.039412
  48 C :    0.106211
  49 O :   -0.090554
  50 O :   -0.050695
  51 C :    0.108094
  52 O :   -0.100625
  53 C :    0.010398
  54 C :    0.010767
  55 C :    0.072694
  56 C :   -0.074550
  57 C :    0.084339
  58 O :   -0.123764
  59 C :   -0.043882
  60 C :   -0.009277
  61 C :    0.070885
  62 C :   -0.123744
  63 C :   -0.022636
  64 N :   -0.044142
  65 C :   -0.020752
  66 N :   -0.034824
  67 C :   -0.006944
  68 C :   -0.116796
  69 C :   -0.122060
  70 C :    0.009071
  71 Br:    0.143138
  72 Br:    0.147116
  73 H :    0.044707
  74 H :    0.047625
  75 H :    0.046604
  76 H :    0.027129
  77 H :    0.039996
  78 H :    0.038248
  79 H :    0.036371
  80 H :    0.044374
  81 H :    0.032435
  82 H :    0.039850
  83 H :    0.040789
  84 H :    0.039547
  85 H :    0.041497
  86 H :    0.040316
  87 H :    0.031943
  88 H :    0.050023
  89 H :    0.045560
  90 H :    0.047841

  Mayer bond orders larger than 0.100000
B(  0-C ,  1-O ) :   2.2894 B(  0-C ,  2-C ) :   0.9341 B(  0-C , 16-C ) :   0.9116
B(  2-C ,  3-C ) :   1.3306 B(  2-C ,  7-C ) :   1.3746 B(  3-C ,  4-C ) :   1.3558
B(  3-C , 10-C ) :   0.9988 B(  4-C ,  5-C ) :   1.3806 B(  4-C , 73-H ) :   0.9776
B(  5-C ,  6-C ) :   1.4136 B(  5-C ,  9-Br) :   1.0570 B(  6-C ,  7-C ) :   1.3552
B(  6-C ,  8-Br) :   1.0383 B(  7-C , 74-H ) :   1.0067 B( 10-C , 11-C ) :   1.6543
B( 10-C , 16-C ) :   1.0619 B( 11-C , 12-C ) :   1.1374 B( 11-C , 14-C ) :   1.1395
B( 12-C , 13-N ) :   2.9724 B( 14-C , 15-N ) :   2.9781 B( 16-C , 17-C ) :   1.6881
B( 17-C , 18-C ) :   1.1217 B( 17-C , 75-H ) :   0.9215 B( 18-C , 19-S ) :   1.0695
B( 18-C , 22-N ) :   1.6359 B( 19-S , 20-C ) :   1.1282 B( 19-S , 22-N ) :   0.1099
B( 20-C , 21-N ) :   1.6187 B( 20-C , 23-C ) :   1.0825 B( 21-N , 22-N ) :   1.2747
B( 23-C , 24-C ) :   1.7191 B( 23-C , 76-H ) :   0.9330 B( 24-C , 25-C ) :   1.0868
B( 24-C , 77-H ) :   0.9759 B( 25-C , 26-C ) :   1.4016 B( 25-C , 28-C ) :   0.1141
B( 25-C , 30-C ) :   1.1824 B( 26-C , 27-C ) :   1.2418 B( 26-C , 78-H ) :   1.0039
B( 27-C , 28-C ) :   1.4478 B( 27-C , 79-H ) :   0.9955 B( 28-C , 29-C ) :   1.2546
B( 28-C , 37-C ) :   0.9764 B( 29-C , 30-C ) :   1.2871 B( 29-C , 34-N ) :   1.3958
B( 30-C , 31-N ) :   1.4276 B( 31-N , 32-C ) :   1.6817 B( 32-C , 33-C ) :   1.1639
B( 32-C , 36-C ) :   1.0969 B( 33-C , 34-N ) :   1.6475 B( 33-C , 35-C ) :   1.1057
B( 35-C , 80-H ) :   0.9381 B( 35-C , 81-H ) :   0.9388 B( 35-C , 82-H ) :   0.9361
B( 36-C , 83-H ) :   0.9411 B( 36-C , 84-H ) :   0.9452 B( 36-C , 85-H ) :   0.9402
B( 37-C , 38-C ) :   1.3768 B( 37-C , 47-C ) :   1.4091 B( 38-C , 39-C ) :   0.8155
B( 38-C , 44-C ) :   1.3634 B( 39-C , 40-O ) :   2.2037 B( 39-C , 41-S ) :   1.0041
B( 40-O , 41-S ) :   0.1025 B( 41-S , 42-C ) :   1.0469 B( 41-S , 43-O ) :   0.1074
B( 42-C , 43-O ) :   2.1516 B( 42-C , 44-C ) :   0.8511 B( 44-C , 45-C ) :   1.3485
B( 45-C , 46-C ) :   1.3321 B( 45-C , 53-C ) :   1.0777 B( 46-C , 47-C ) :   1.3397
B( 46-C , 51-C ) :   0.9083 B( 47-C , 48-C ) :   0.8926 B( 48-C , 49-O ) :   2.2645
B( 48-C , 50-O ) :   1.0549 B( 50-O , 51-C ) :   1.0583 B( 51-C , 52-O ) :   2.2314
B( 53-C , 54-C ) :   1.7050 B( 53-C , 86-H ) :   0.9546 B( 54-C , 55-C ) :   1.1122
B( 54-C , 87-H ) :   0.9348 B( 55-C , 56-C ) :   1.6625 B( 55-C , 88-H ) :   0.9625
B( 56-C , 57-C ) :   0.9286 B( 56-C , 61-C ) :   1.0262 B( 57-C , 58-O ) :   2.2899
B( 57-C , 59-C ) :   0.9230 B( 59-C , 60-C ) :   1.3254 B( 59-C , 70-C ) :   1.3716
B( 60-C , 61-C ) :   1.0080 B( 60-C , 67-C ) :   1.3661 B( 61-C , 62-C ) :   1.6683
B( 62-C , 63-C ) :   1.1545 B( 62-C , 65-C ) :   1.1287 B( 63-C , 64-N ) :   3.0140
B( 65-C , 66-N ) :   2.9921 B( 67-C , 68-C ) :   1.3731 B( 67-C , 89-H ) :   0.9814
B( 68-C , 69-C ) :   1.4160 B( 68-C , 72-Br) :   1.0573 B( 69-C , 70-C ) :   1.3585
B( 69-C , 71-Br) :   1.0380 B( 70-C , 90-H ) :   1.0076

-----------------------------------------------------------------------------
         ABSORPTION SPECTRUM VIA TRANSITION ELECTRIC DIPOLE MOMENTS
-----------------------------------------------------------------------------
State   Energy  Wavelength   fosc         T2         TX        TY        TZ
        (cm-1)    (nm)                  (au**2)     (au)      (au)      (au)
-----------------------------------------------------------------------------
   0   21033.4    475.4   1.467397666  22.96754  -2.79747  -3.34867  -1.98194
   1   22357.3    447.3   0.023725209   0.34935  -0.09572   0.57624  -0.09023
   2   22628.2    441.9   0.553594603   8.05411  -1.51366  -2.05667  -1.23817
   3   24098.8    415.0   0.118891141   1.62417  -0.32775  -0.10169  -1.22736
   4   27303.9    366.2   0.086920774   1.04803   0.54712   0.00672  -0.86525
   5   27461.6    364.1   0.039866662   0.47793   0.33620   0.55804   0.23127
   6   27829.6    359.3   0.053677832   0.63499  -0.01996  -0.42721   0.67237
   7   28188.9    354.7   0.010447937   0.12202  -0.12078   0.32766  -0.00841
   8   28501.0    350.9   0.214627910   2.47914  -0.86085  -0.58673  -1.18060
   9   28887.1    346.2   0.200338053   2.28315   0.17211   1.29153  -0.76516
  10   29248.7    341.9   0.013574658   0.15279  -0.09346   0.21293  -0.31419
  11   29428.8    339.8   0.012349541   0.13815   0.01758  -0.33312   0.16393
  12   30056.3    332.7   0.098544178   1.07937  -0.87268  -0.35077  -0.44133
  13   30225.5    330.8   0.114724773   1.24957  -0.70918  -0.58770  -0.63344
  14   30748.9    325.2   0.105476823   1.12929   0.76157   0.04389   0.73984
  15   31524.3    317.2   0.098606081   1.02975  -0.61288   0.05940  -0.80660
  16   31553.4    316.9   0.016798573   0.17527   0.00772  -0.25735   0.33012
  17   31712.3    315.3   0.118584077   1.23105   0.79583   0.71881   0.28461
  18   32144.1    311.1   0.080832249   0.82786   0.41997   0.49115   0.64052
  19   32266.6    309.9   0.046948695   0.47901  -0.02503   0.05235  -0.68967
  20   32731.6    305.5   0.044856174   0.45116   0.64446   0.15448   0.10942
  21   32992.5    303.1   0.018505089   0.18465   0.28101   0.15118   0.28780
  22   33279.7    300.5   0.018577114   0.18377   0.22389  -0.36196   0.05126
  23   33379.5    299.6   0.066756444   0.65840  -0.51110   0.14523  -0.61326
  24   33473.8    298.7   0.042122347   0.41427  -0.39942  -0.20481  -0.46128
  25   33676.3    296.9   0.224341352   2.19311  -0.79309  -1.24796  -0.08191
  26   33875.8    295.2   0.062869482   0.61098  -0.03944   0.72727  -0.28374
  27   34620.3    288.8   0.027289605   0.25950  -0.27728  -0.18054  -0.38733
  28   34942.8    286.2   0.208705244   1.96631   1.18945   0.72785   0.14751
  29   35258.4    283.6   0.243131700   2.27015  -1.35286  -0.53914   0.38633
  30   35441.3    282.2   0.062386882   0.57951   0.17232  -0.52076   0.52785
  31   35586.6    281.0   0.008044124   0.07442  -0.17984   0.07069   0.19256
  32   35799.4    279.3   0.079749025   0.73337  -0.68110  -0.08029  -0.51287
  33   35906.3    278.5   0.481072334   4.41078   0.97886  -0.37953   1.81895
  34   36088.3    277.1   0.071362097   0.65099  -0.47444  -0.56963   0.31847
  35   36465.6    274.2   0.011193428   0.10105   0.16941  -0.06390  -0.26129
  36   36600.4    273.2   0.096677753   0.86959   0.60473   0.49839   0.50547
  37   36743.5    272.2   0.003985469   0.03571   0.00851  -0.12529   0.14120
  38   36891.2    271.1   0.076808615   0.68543  -0.36487   0.37757  -0.64011
  39   36959.4    270.6   0.019249880   0.17147  -0.15961   0.37691  -0.06267
  40   37165.9    269.1   0.008383583   0.07426   0.24385   0.12084  -0.01408
  41   37199.6    268.8   0.011295757   0.09997  -0.13721  -0.21021   0.19223
  42   37567.4    266.2   0.105468029   0.92424   0.83350   0.18026   0.44388
  43   37816.6    264.4   0.026800322   0.23331   0.33525   0.15597   0.31079
  44   38075.9    262.6   0.036829584   0.31844  -0.34906  -0.43616  -0.07971
  45   38346.7    260.8   0.004985894   0.04280  -0.03237   0.20362   0.01723
  46   38585.1    259.2   0.042542357   0.36298   0.04514  -0.32505   0.50525
  47   38844.4    257.4   0.042503629   0.36022  -0.13238  -0.50681   0.29299
  48   38886.2    257.2   0.151439918   1.28210  -0.64911  -0.90998   0.18078
  49   39031.1    256.2   0.028436998   0.23985  -0.10573  -0.26129  -0.40050
  50   39363.5    254.0   0.087287003   0.73002   0.41620   0.63958  -0.38435
  51   39541.5    252.9   0.029717209   0.24742   0.07885   0.37306   0.31941
  52   39697.1    251.9   0.070646905   0.58588  -0.42627  -0.60885   0.18298
  53   39784.5    251.4   0.133545309   1.10507  -0.72607  -0.70973  -0.27236
  54   40110.4    249.3   0.002820949   0.02315  -0.04697  -0.07092  -0.12616

FINAL SINGLE POINT ENERGY    -14045.197823909972

DIPOLE MOMENT
-------------
                                X             Y             Z
Electronic contribution:    -17.67380      98.81850    -146.64108
Nuclear contribution   :     15.27538     -99.57999     147.57683
                        -----------------------------------------
Total Dipole Moment    :     -2.39841      -0.76149       0.93575
                        -----------------------------------------
Magnitude (a.u.)       :      2.68475
Magnitude (Debye)      :      6.82409

Rotational constants in cm-1:     0.001345     0.000129     0.000119
Rotational constants in MHz :    40.318590     3.869093     3.581765

                             ****ORCA TERMINATED NORMALLY****
TOTAL RUN TIME: 0 days 0 hours 10 minutes 9 seconds 877 msec
