                         Program Version 4.2.0 -  RELEASE  -
|  1> # ORCA input file
|  2> # SCF done       -204.573936512499          0.000638706221
|  3> ! CAM-B3LYP def2-SVP def2/J RIJCOSX Grid4 TightSCF
|  4> %maxcore 5000
|  5> %tddft
|  6>     Mode sTDDFT
|  7>     Ethresh 5.0
|  8>     maxcore 5000
|  9> end
| 10>
| 11> %pal
| 12>   nprocs 6
| 13>   end
| 14> * xyz 0 1
| 15>    C        2.06144        -1.26475         2.15782
| 16>    O        0.91564        -1.53597         2.40848
| 17>    C        2.92725        -0.33199         2.91517
| 18>    C        4.14998        -0.15665         2.24527
| 19>    C        5.10986         0.68714         2.78334
| 20>    C        4.83175         1.33584         3.98020
| 21>    C        3.61126         1.15585         4.63728
| 22>    C        2.64447         0.31720         4.09910
| 23>   Br        3.26041         2.05054         6.26258
| 24>   Br        6.14359         2.48056         4.71502
| 25>    C        4.15125        -0.97032         1.03266
| 26>    C        5.18752        -1.06349         0.14391
| 27>    C        6.40219        -0.35206         0.26719
| 28>    N        7.40722         0.19918         0.30845
| 29>    C        5.21272        -1.87008        -1.01547
| 30>    N        5.31893        -2.49811        -1.97025
| 31>    C        2.88328        -1.68400         0.98278
| 32>    C        2.47740        -2.51497        -0.01286
| 33>    C        1.32671        -3.34524        -0.00897
| 34>    S        0.71047        -4.02231        -1.52293
| 35>    C       -0.46686        -4.84298        -0.52070
| 36>    N       -0.30359        -4.58479         0.75771
| 37>    N        0.66325        -3.77722         1.02729
| 38>    C       -1.46412        -5.69501        -1.05741
| 39>    C       -2.36989        -6.32267        -0.26318
| 40>    C       -3.36226        -7.19016        -0.77922
| 41>    N       -4.30342        -7.82895        -0.00493
| 42>    C       -4.48592        -7.68268         1.41996
| 43>    C       -5.19219        -6.37589         1.77083
| 44>    C       -5.14993        -8.64178        -0.77078
| 45>    O       -6.05806        -9.30559        -0.30439
| 46>    C       -4.66982        -8.48480        -2.12640
| 47>    C       -3.57766        -7.58728        -2.09982
| 48>    C       -3.09268        -7.43584        -3.45672
| 49>    O       -2.19329        -6.77158        -3.92921
| 50>    N       -3.93448        -8.26098        -4.22100
| 51>    C       -3.72884        -8.43341        -5.63953
| 52>    C       -2.99739        -9.73634        -5.95263
| 53>    C       -4.87447        -8.89632        -3.44619
| 54>    C       -5.84626        -9.78929        -3.94913
| 55>    C       -6.73921       -10.41430        -3.13439
| 56>    C       -7.70697       -11.33805        -3.57780
| 57>    S       -7.90444       -11.74589        -5.25607
| 58>    C       -9.17599       -12.87628        -4.88641
| 59>    C       -9.43438       -12.89813        -3.51856
| 60>    C       -8.59872       -12.05448        -2.78290
| 61>    C       -8.66265       -11.91466        -1.29508
| 62>    C       -9.52738       -12.99619        -0.65335
| 63>    N       -8.72939       -14.25107        -0.43729
| 64>    O       -9.30745       -15.29891        -0.58067
| 65>    O       -7.58750       -14.11393        -0.09640
| 66>    C      -10.77760       -13.31999        -1.46772
| 67>    N      -11.66460       -12.11002        -1.51170
| 68>    O      -12.43749       -12.03148        -2.42834
| 69>    O      -11.55754       -11.31875        -0.60953
| 70>    C      -10.45348       -13.78598        -2.88321
| 71>    C       -9.87779       -13.57598        -5.89472
| 72>    C       -9.45959       -13.87810        -7.15468
| 73>    C      -10.45117       -14.17067        -8.22384
| 74>    O      -11.62380       -14.41909        -8.08392
| 75>    C       -9.69211       -14.02889        -9.48822
| 76>    C       -8.33074       -13.81291        -9.20074
| 77>    C       -8.14191       -13.87415        -7.75437
| 78>    C       -6.96580       -14.16065        -7.11348
| 79>    C       -6.91817       -14.52197        -5.75016
| 80>    N       -6.87273       -14.86223        -4.65524
| 81>    C       -5.71026       -14.19467        -7.75203
| 82>    N       -4.66601       -14.19547        -8.22722
| 83>    C       -7.42691       -13.62229       -10.23108
| 84>    C       -7.89682       -13.65232       -11.53929
| 85>    C       -9.24663       -13.88061       -11.81868
| 86>    C      -10.15694       -14.07132       -10.78610
| 87>   Br       -9.85458       -13.92845       -13.60710
| 88>   Br       -6.67135       -13.36933       -12.94978
| 89>    H        6.06093         0.85536         2.30526
| 90>    H        1.69671         0.16960         4.59305
| 91>    H        3.07341        -2.58844        -0.91282
| 92>    H       -1.47614        -5.83112        -2.12988
| 93>    H       -2.32151        -6.15591         0.80287
| 94>    H       -3.51596        -7.74619         1.91981
| 95>    H       -5.10154        -8.53020         1.73374
| 96>    H       -4.61115        -5.51726         1.44273
| 97>    H       -5.33062        -6.31253         2.84623
| 98>    H       -6.16783        -6.33909         1.29228
| 99>    H       -3.11992        -7.58434        -5.96192
|100>    H       -4.69225        -8.39194        -6.15524
|101>    H       -2.02406        -9.74125        -5.46856
|102>    H       -2.85101        -9.82729        -7.02505
|103>    H       -3.56128       -10.59838        -5.60292
|104>    H       -5.86859        -9.98253        -5.01297
|105>    H       -6.71049       -10.21485        -2.07153
|106>    H       -9.06533       -10.93122        -1.03507
|107>    H       -7.65864       -11.96743        -0.86506
|108>    H       -9.81546       -12.66404         0.35258
|109>    H      -11.36253       -14.09742        -0.95923
|110>    H      -11.37146       -13.79763        -3.47577
|111>    H      -10.07682       -14.81234        -2.84397
|112>    H      -10.91017       -13.83089        -5.67511
|113>    H       -6.37976       -13.44202       -10.04693
|114>    H      -11.20090       -14.24844       -10.99308
|115> *
|116>
|117>                          ****END OF INPUT****

CARTESIAN COORDINATES (ANGSTROEM)
---------------------------------
  C      2.061440   -1.264750    2.157820
  O      0.915640   -1.535970    2.408480
  C      2.927250   -0.331990    2.915170
  C      4.149980   -0.156650    2.245270
  C      5.109860    0.687140    2.783340
  C      4.831750    1.335840    3.980200
  C      3.611260    1.155850    4.637280
  C      2.644470    0.317200    4.099100
  Br     3.260410    2.050540    6.262580
  Br     6.143590    2.480560    4.715020
  C      4.151250   -0.970320    1.032660
  C      5.187520   -1.063490    0.143910
  C      6.402190   -0.352060    0.267190
  N      7.407220    0.199180    0.308450
  C      5.212720   -1.870080   -1.015470
  N      5.318930   -2.498110   -1.970250
  C      2.883280   -1.684000    0.982780
  C      2.477400   -2.514970   -0.012860
  C      1.326710   -3.345240   -0.008970
  S      0.710470   -4.022310   -1.522930
  C     -0.466860   -4.842980   -0.520700
  N     -0.303590   -4.584790    0.757710
  N      0.663250   -3.777220    1.027290
  C     -1.464120   -5.695010   -1.057410
  C     -2.369890   -6.322670   -0.263180
  C     -3.362260   -7.190160   -0.779220
  N     -4.303420   -7.828950   -0.004930
  C     -4.485920   -7.682680    1.419960
  C     -5.192190   -6.375890    1.770830
  C     -5.149930   -8.641780   -0.770780
  O     -6.058060   -9.305590   -0.304390
  C     -4.669820   -8.484800   -2.126400
  C     -3.577660   -7.587280   -2.099820
  C     -3.092680   -7.435840   -3.456720
  O     -2.193290   -6.771580   -3.929210
  N     -3.934480   -8.260980   -4.221000
  C     -3.728840   -8.433410   -5.639530
  C     -2.997390   -9.736340   -5.952630
  C     -4.874470   -8.896320   -3.446190
  C     -5.846260   -9.789290   -3.949130
  C     -6.739210  -10.414300   -3.134390
  C     -7.706970  -11.338050   -3.577800
  S     -7.904440  -11.745890   -5.256070
  C     -9.175990  -12.876280   -4.886410
  C     -9.434380  -12.898130   -3.518560
  C     -8.598720  -12.054480   -2.782900
  C     -8.662650  -11.914660   -1.295080
  C     -9.527380  -12.996190   -0.653350
  N     -8.729390  -14.251070   -0.437290
  O     -9.307450  -15.298910   -0.580670
  O     -7.587500  -14.113930   -0.096400
  C    -10.777600  -13.319990   -1.467720
  N    -11.664600  -12.110020   -1.511700
  O    -12.437490  -12.031480   -2.428340
  O    -11.557540  -11.318750   -0.609530
  C    -10.453480  -13.785980   -2.883210
  C     -9.877790  -13.575980   -5.894720
  C     -9.459590  -13.878100   -7.154680
  C    -10.451170  -14.170670   -8.223840
  O    -11.623800  -14.419090   -8.083920
  C     -9.692110  -14.028890   -9.488220
  C     -8.330740  -13.812910   -9.200740
  C     -8.141910  -13.874150   -7.754370
  C     -6.965800  -14.160650   -7.113480
  C     -6.918170  -14.521970   -5.750160
  N     -6.872730  -14.862230   -4.655240
  C     -5.710260  -14.194670   -7.752030
  N     -4.666010  -14.195470   -8.227220
  C     -7.426910  -13.622290  -10.231080
  C     -7.896820  -13.652320  -11.539290
  C     -9.246630  -13.880610  -11.818680
  C    -10.156940  -14.071320  -10.786100
  Br    -9.854580  -13.928450  -13.607100
  Br    -6.671350  -13.369330  -12.949780
  H      6.060930    0.855360    2.305260
  H      1.696710    0.169600    4.593050
  H      3.073410   -2.588440   -0.912820
  H     -1.476140   -5.831120   -2.129880
  H     -2.321510   -6.155910    0.802870
  H     -3.515960   -7.746190    1.919810
  H     -5.101540   -8.530200    1.733740
  H     -4.611150   -5.517260    1.442730
  H     -5.330620   -6.312530    2.846230
  H     -6.167830   -6.339090    1.292280
  H     -3.119920   -7.584340   -5.961920
  H     -4.692250   -8.391940   -6.155240
  H     -2.024060   -9.741250   -5.468560
  H     -2.851010   -9.827290   -7.025050
  H     -3.561280  -10.598380   -5.602920
  H     -5.868590   -9.982530   -5.012970
  H     -6.710490  -10.214850   -2.071530
  H     -9.065330  -10.931220   -1.035070
  H     -7.658640  -11.967430   -0.865060
  H     -9.815460  -12.664040    0.352580
  H    -11.362530  -14.097420   -0.959230
  H    -11.371460  -13.797630   -3.475770
  H    -10.076820  -14.812340   -2.843970
  H    -10.910170  -13.830890   -5.675110
  H     -6.379760  -13.442020  -10.046930
  H    -11.200900  -14.248440  -10.993080

 Total Charge           Charge          ....    0
 Multiplicity           Mult            ....    1
 Number of Electrons    NEL             ....  632
 Basis Dimension        Dim             .... 1246

ORBITAL ENERGIES
----------------

  NO   OCC          E(Eh)            E(eV)
   0   2.0000    -482.882401    -13139.8981
   1   2.0000    -482.882120    -13139.8905
   2   2.0000    -482.880755    -13139.8534
   3   2.0000    -482.878954    -13139.8043
   4   2.0000     -88.987639     -2421.4768
   5   2.0000     -88.982852     -2421.3465
   6   2.0000     -62.560018     -1702.3446
   7   2.0000     -62.559730     -1702.3368
   8   2.0000     -62.558367     -1702.2997
   9   2.0000     -62.556567     -1702.2507
  10   2.0000     -56.393975     -1534.5581
  11   2.0000     -56.393695     -1534.5505
  12   2.0000     -56.392316     -1534.5129
  13   2.0000     -56.391309     -1534.4855
  14   2.0000     -56.391216     -1534.4830
  15   2.0000     -56.391019     -1534.4776
  16   2.0000     -56.390924     -1534.4751
  17   2.0000     -56.390534     -1534.4644
  18   2.0000     -56.389668     -1534.4409
  19   2.0000     -56.389562     -1534.4380
  20   2.0000     -56.387857     -1534.3916
  21   2.0000     -56.387760     -1534.3890
  22   2.0000     -19.271414      -524.4018
  23   2.0000     -19.271185      -524.3956
  24   2.0000     -19.266880      -524.2785
  25   2.0000     -19.266720      -524.2741
  26   2.0000     -19.229943      -523.2734
  27   2.0000     -19.224802      -523.1335
  28   2.0000     -19.207325      -522.6579
  29   2.0000     -19.204265      -522.5746
  30   2.0000     -14.670631      -399.2082
  31   2.0000     -14.666324      -399.0910
  32   2.0000     -14.467230      -393.6733
  33   2.0000     -14.465747      -393.6330
  34   2.0000     -14.455083      -393.3428
  35   2.0000     -14.451264      -393.2389
  36   2.0000     -14.430540      -392.6749
  37   2.0000     -14.428841      -392.6287
  38   2.0000     -14.427038      -392.5797
  39   2.0000     -14.425924      -392.5493
  40   2.0000     -10.389061      -282.7007
  41   2.0000     -10.386425      -282.6290
  42   2.0000     -10.381502      -282.4950
  43   2.0000     -10.377571      -282.3881
  44   2.0000     -10.362464      -281.9770
  45   2.0000     -10.361169      -281.9417
  46   2.0000     -10.360048      -281.9112
  47   2.0000     -10.359936      -281.9082
  48   2.0000     -10.359569      -281.8982
  49   2.0000     -10.358610      -281.8721
  50   2.0000     -10.358153      -281.8597
  51   2.0000     -10.357942      -281.8539
  52   2.0000     -10.357751      -281.8487
  53   2.0000     -10.356271      -281.8085
  54   2.0000     -10.355610      -281.7905
  55   2.0000     -10.354717      -281.7662
  56   2.0000     -10.354426      -281.7582
  57   2.0000     -10.349643      -281.6281
  58   2.0000     -10.335428      -281.2413
  59   2.0000     -10.334801      -281.2242
  60   2.0000     -10.332167      -281.1526
  61   2.0000     -10.332076      -281.1501
  62   2.0000     -10.331798      -281.1425
  63   2.0000     -10.330569      -281.1091
  64   2.0000     -10.328867      -281.0628
  65   2.0000     -10.327626      -281.0290
  66   2.0000     -10.326360      -280.9946
  67   2.0000     -10.323590      -280.9192
  68   2.0000     -10.319517      -280.8083
  69   2.0000     -10.319243      -280.8009
  70   2.0000     -10.318957      -280.7931
  71   2.0000     -10.318930      -280.7924
  72   2.0000     -10.317907      -280.7645
  73   2.0000     -10.316337      -280.7218
  74   2.0000     -10.316097      -280.7153
  75   2.0000     -10.315315      -280.6940
  76   2.0000     -10.311878      -280.6005
  77   2.0000     -10.311855      -280.5998
  78   2.0000     -10.311344      -280.5859
  79   2.0000     -10.310873      -280.5731
  80   2.0000     -10.310794      -280.5710
  81   2.0000     -10.309422      -280.5336
  82   2.0000     -10.308452      -280.5072
  83   2.0000     -10.308096      -280.4975
  84   2.0000     -10.305901      -280.4378
  85   2.0000     -10.305204      -280.4189
  86   2.0000     -10.276918      -279.6492
  87   2.0000     -10.275054      -279.5984
  88   2.0000     -10.270954      -279.4869
  89   2.0000     -10.269659      -279.4516
  90   2.0000      -8.789344      -239.1702
  91   2.0000      -8.789040      -239.1619
  92   2.0000      -8.787694      -239.1253
  93   2.0000      -8.785887      -239.0761
  94   2.0000      -8.083751      -219.9700
  95   2.0000      -8.077648      -219.8040
  96   2.0000      -6.625507      -180.2892
  97   2.0000      -6.625215      -180.2813
  98   2.0000      -6.623832      -180.2436
  99   2.0000      -6.622078      -180.1959
 100   2.0000      -6.611441      -179.9065
 101   2.0000      -6.611138      -179.8982
 102   2.0000      -6.610674      -179.8856
 103   2.0000      -6.610360      -179.8770
 104   2.0000      -6.609844      -179.8630
 105   2.0000      -6.608998      -179.8400
 106   2.0000      -6.607978      -179.8122
 107   2.0000      -6.607197      -179.7910
 108   2.0000      -6.052223      -164.6894
 109   2.0000      -6.048980      -164.6011
 110   2.0000      -6.046865      -164.5436
 111   2.0000      -6.046380      -164.5304
 112   2.0000      -6.042949      -164.4370
 113   2.0000      -6.039742      -164.3497
 114   2.0000      -2.741373       -74.5965
 115   2.0000      -2.741130       -74.5899
 116   2.0000      -2.739729       -74.5518
 117   2.0000      -2.737955       -74.5035
 118   2.0000      -2.737660       -74.4955
 119   2.0000      -2.737323       -74.4864
 120   2.0000      -2.737018       -74.4781
 121   2.0000      -2.736712       -74.4697
 122   2.0000      -2.735981       -74.4498
 123   2.0000      -2.735354       -74.4328
 124   2.0000      -2.734172       -74.4006
 125   2.0000      -2.733596       -74.3849
 126   2.0000      -2.725850       -74.1742
 127   2.0000      -2.725831       -74.1736
 128   2.0000      -2.725524       -74.1653
 129   2.0000      -2.725508       -74.1648
 130   2.0000      -2.724211       -74.1295
 131   2.0000      -2.724193       -74.1291
 132   2.0000      -2.722367       -74.0794
 133   2.0000      -2.722348       -74.0789
 134   2.0000      -1.354385       -36.8547
 135   2.0000      -1.349895       -36.7325
 136   2.0000      -1.175893       -31.9977
 137   2.0000      -1.172327       -31.9006
 138   2.0000      -1.160397       -31.5760
 139   2.0000      -1.148067       -31.2405
 140   2.0000      -1.145875       -31.1808
 141   2.0000      -1.141960       -31.0743
 142   2.0000      -1.140653       -31.0388
 143   2.0000      -1.077953       -29.3326
 144   2.0000      -1.069054       -29.0904
 145   2.0000      -1.036279       -28.1986
 146   2.0000      -1.033660       -28.1273
 147   2.0000      -1.026065       -27.9206
 148   2.0000      -1.016869       -27.6704
 149   2.0000      -1.016701       -27.6659
 150   2.0000      -1.006800       -27.3964
 151   2.0000      -1.005859       -27.3708
 152   2.0000      -0.991313       -26.9750
 153   2.0000      -0.985768       -26.8241
 154   2.0000      -0.984652       -26.7938
 155   2.0000      -0.960028       -26.1237
 156   2.0000      -0.944198       -25.6929
 157   2.0000      -0.942385       -25.6436
 158   2.0000      -0.937033       -25.4980
 159   2.0000      -0.928575       -25.2678
 160   2.0000      -0.927275       -25.2324
 161   2.0000      -0.919610       -25.0239
 162   2.0000      -0.916874       -24.9494
 163   2.0000      -0.914148       -24.8752
 164   2.0000      -0.909378       -24.7454
 165   2.0000      -0.903124       -24.5753
 166   2.0000      -0.893664       -24.3178
 167   2.0000      -0.885982       -24.1088
 168   2.0000      -0.881637       -23.9906
 169   2.0000      -0.875825       -23.8324
 170   2.0000      -0.860477       -23.4148
 171   2.0000      -0.858860       -23.3708
 172   2.0000      -0.854944       -23.2642
 173   2.0000      -0.850673       -23.1480
 174   2.0000      -0.830159       -22.5898
 175   2.0000      -0.826348       -22.4861
 176   2.0000      -0.810341       -22.0505
 177   2.0000      -0.799792       -21.7634
 178   2.0000      -0.791465       -21.5369
 179   2.0000      -0.784205       -21.3393
 180   2.0000      -0.777688       -21.1620
 181   2.0000      -0.774148       -21.0656
 182   2.0000      -0.770085       -20.9551
 183   2.0000      -0.762847       -20.7581
 184   2.0000      -0.740594       -20.1526
 185   2.0000      -0.735143       -20.0043
 186   2.0000      -0.729122       -19.8404
 187   2.0000      -0.718977       -19.5643
 188   2.0000      -0.716458       -19.4958
 189   2.0000      -0.713561       -19.4170
 190   2.0000      -0.709807       -19.3148
 191   2.0000      -0.702028       -19.1032
 192   2.0000      -0.700987       -19.0748
 193   2.0000      -0.697702       -18.9854
 194   2.0000      -0.689689       -18.7674
 195   2.0000      -0.685795       -18.6614
 196   2.0000      -0.679556       -18.4917
 197   2.0000      -0.671189       -18.2640
 198   2.0000      -0.667443       -18.1621
 199   2.0000      -0.662526       -18.0283
 200   2.0000      -0.659264       -17.9395
 201   2.0000      -0.653708       -17.7883
 202   2.0000      -0.647713       -17.6252
 203   2.0000      -0.642471       -17.4825
 204   2.0000      -0.631788       -17.1918
 205   2.0000      -0.629840       -17.1388
 206   2.0000      -0.624508       -16.9937
 207   2.0000      -0.621860       -16.9217
 208   2.0000      -0.614759       -16.7284
 209   2.0000      -0.613721       -16.7002
 210   2.0000      -0.610623       -16.6159
 211   2.0000      -0.605125       -16.4663
 212   2.0000      -0.602413       -16.3925
 213   2.0000      -0.600256       -16.3338
 214   2.0000      -0.594560       -16.1788
 215   2.0000      -0.593914       -16.1612
 216   2.0000      -0.585264       -15.9259
 217   2.0000      -0.583127       -15.8677
 218   2.0000      -0.578751       -15.7486
 219   2.0000      -0.576343       -15.6831
 220   2.0000      -0.566458       -15.4141
 221   2.0000      -0.561039       -15.2666
 222   2.0000      -0.558165       -15.1884
 223   2.0000      -0.556758       -15.1502
 224   2.0000      -0.555877       -15.1262
 225   2.0000      -0.555057       -15.1039
 226   2.0000      -0.552568       -15.0361
 227   2.0000      -0.549714       -14.9585
 228   2.0000      -0.547745       -14.9049
 229   2.0000      -0.545504       -14.8439
 230   2.0000      -0.542218       -14.7545
 231   2.0000      -0.541868       -14.7450
 232   2.0000      -0.540184       -14.6992
 233   2.0000      -0.537942       -14.6382
 234   2.0000      -0.537105       -14.6154
 235   2.0000      -0.535960       -14.5842
 236   2.0000      -0.529479       -14.4079
 237   2.0000      -0.527617       -14.3572
 238   2.0000      -0.522302       -14.2126
 239   2.0000      -0.521583       -14.1930
 240   2.0000      -0.517997       -14.0954
 241   2.0000      -0.517391       -14.0789
 242   2.0000      -0.516620       -14.0579
 243   2.0000      -0.512688       -13.9509
 244   2.0000      -0.510720       -13.8974
 245   2.0000      -0.509628       -13.8677
 246   2.0000      -0.508388       -13.8340
 247   2.0000      -0.502560       -13.6753
 248   2.0000      -0.498091       -13.5537
 249   2.0000      -0.497483       -13.5372
 250   2.0000      -0.492966       -13.4143
 251   2.0000      -0.488422       -13.2906
 252   2.0000      -0.483876       -13.1669
 253   2.0000      -0.479539       -13.0489
 254   2.0000      -0.478303       -13.0153
 255   2.0000      -0.475254       -12.9323
 256   2.0000      -0.470309       -12.7978
 257   2.0000      -0.468340       -12.7442
 258   2.0000      -0.467944       -12.7334
 259   2.0000      -0.466617       -12.6973
 260   2.0000      -0.466443       -12.6926
 261   2.0000      -0.463544       -12.6137
 262   2.0000      -0.460742       -12.5374
 263   2.0000      -0.460232       -12.5236
 264   2.0000      -0.458294       -12.4708
 265   2.0000      -0.455643       -12.3987
 266   2.0000      -0.454860       -12.3774
 267   2.0000      -0.454440       -12.3660
 268   2.0000      -0.452949       -12.3254
 269   2.0000      -0.449838       -12.2407
 270   2.0000      -0.448850       -12.2138
 271   2.0000      -0.440519       -11.9871
 272   2.0000      -0.440294       -11.9810
 273   2.0000      -0.439886       -11.9699
 274   2.0000      -0.437900       -11.9159
 275   2.0000      -0.437571       -11.9069
 276   2.0000      -0.437096       -11.8940
 277   2.0000      -0.434306       -11.8181
 278   2.0000      -0.431909       -11.7528
 279   2.0000      -0.431015       -11.7285
 280   2.0000      -0.425930       -11.5901
 281   2.0000      -0.421712       -11.4754
 282   2.0000      -0.421236       -11.4624
 283   2.0000      -0.411953       -11.2098
 284   2.0000      -0.409863       -11.1529
 285   2.0000      -0.408975       -11.1288
 286   2.0000      -0.406733       -11.0678
 287   2.0000      -0.406085       -11.0501
 288   2.0000      -0.405480       -11.0337
 289   2.0000      -0.403063       -10.9679
 290   2.0000      -0.401148       -10.9158
 291   2.0000      -0.398333       -10.8392
 292   2.0000      -0.396074       -10.7777
 293   2.0000      -0.393384       -10.7045
 294   2.0000      -0.392351       -10.6764
 295   2.0000      -0.387221       -10.5368
 296   2.0000      -0.383038       -10.4230
 297   2.0000      -0.381865       -10.3911
 298   2.0000      -0.362824        -9.8729
 299   2.0000      -0.360486        -9.8093
 300   2.0000      -0.355111        -9.6631
 301   2.0000      -0.353383        -9.6160
 302   2.0000      -0.352714        -9.5978
 303   2.0000      -0.348285        -9.4773
 304   2.0000      -0.347719        -9.4619
 305   2.0000      -0.346354        -9.4248
 306   2.0000      -0.340582        -9.2677
 307   2.0000      -0.339725        -9.2444
 308   2.0000      -0.338357        -9.2072
 309   2.0000      -0.328568        -8.9408
 310   2.0000      -0.326406        -8.8820
 311   2.0000      -0.318978        -8.6798
 312   2.0000      -0.318320        -8.6619
 313   2.0000      -0.309051        -8.4097
 314   2.0000      -0.297118        -8.0850
 315   2.0000      -0.247272        -6.7286
 316   0.0000      -0.124022        -3.3748
 317   0.0000      -0.107535        -2.9262
 318   0.0000      -0.086091        -2.3427
 319   0.0000      -0.075270        -2.0482
 320   0.0000      -0.067392        -1.8338

MULLIKEN ATOMIC CHARGES
-----------------------
   0 C :    0.143384
   1 O :   -0.089986
   2 C :   -0.025778
   3 C :    0.039832
   4 C :   -0.006849
   5 C :   -0.026497
   6 C :   -0.013671
   7 C :   -0.015727
   8 Br:    0.019890
   9 Br:    0.025217
  10 C :    0.309735
  11 C :   -0.339099
  12 C :   -0.185200
  13 N :    0.163512
  14 C :   -0.183330
  15 N :    0.161194
  16 C :   -0.065521
  17 C :    0.048678
  18 C :   -0.139485
  19 S :    0.145048
  20 C :   -0.094463
  21 N :   -0.054663
  22 N :    0.013798
  23 C :    0.071129
  24 C :   -0.022682
  25 C :    0.138904
  26 N :   -0.252086
  27 C :    0.095572
  28 C :    0.002926
  29 C :    0.169957
  30 O :   -0.221722
  31 C :   -0.066722
  32 C :   -0.058605
  33 C :    0.169625
  34 O :   -0.201715
  35 N :   -0.255162
  36 C :    0.095378
  37 C :    0.001586
  38 C :    0.140937
  39 C :   -0.023535
  40 C :   -0.009913
  41 C :   -0.066332
  42 S :    0.141618
  43 C :   -0.140850
  44 C :   -0.024089
  45 C :   -0.085360
  46 C :    0.135985
  47 C :    0.029597
  48 N :    0.223799
  49 O :   -0.223506
  50 O :   -0.197795
  51 C :    0.005621
  52 N :    0.223574
  53 O :   -0.207397
  54 O :   -0.220480
  55 C :    0.164512
  56 C :    0.025841
  57 C :   -0.128253
  58 C :    0.144718
  59 O :   -0.129997
  60 C :   -0.002972
  61 C :    0.022632
  62 C :    0.234880
  63 C :   -0.313720
  64 C :   -0.198961
  65 N :    0.177360
  66 C :   -0.175326
  67 N :    0.160441
  68 C :   -0.009256
  69 C :   -0.023173
  70 C :   -0.016762
  71 C :   -0.018700
  72 Br:    0.018078
  73 Br:    0.023660
  74 H :    0.006605
  75 H :    0.008406
  76 H :    0.021229
  77 H :    0.015136
  78 H :    0.009794
  79 H :    0.031746
  80 H :    0.044137
  81 H :    0.021953
  82 H :    0.029136
  83 H :    0.027166
  84 H :    0.046456
  85 H :    0.024647
  86 H :    0.031765
  87 H :    0.031565
  88 H :    0.020378
  89 H :   -0.017451
  90 H :    0.025762
  91 H :    0.063113
  92 H :    0.075834
  93 H :    0.078607
  94 H :    0.078409
  95 H :    0.054137
  96 H :    0.070400
  97 H :    0.027446
  98 H :    0.010119
  99 H :    0.010227
Sum of atomic charges:   -0.0000000

LOEWDIN ATOMIC CHARGES
----------------------
   0 C :    0.076373
   1 O :   -0.096611
   2 C :   -0.039728
   3 C :   -0.014885
   4 C :   -0.006222
   5 C :   -0.118919
   6 C :   -0.120317
   7 C :    0.007727
   8 Br:    0.142328
   9 Br:    0.143778
  10 C :    0.071954
  11 C :   -0.124740
  12 C :   -0.019288
  13 N :   -0.037402
  14 C :   -0.021509
  15 N :   -0.038631
  16 C :   -0.062303
  17 C :    0.033601
  18 C :   -0.165284
  19 S :    0.426247
  20 C :   -0.138701
  21 N :   -0.073930
  22 N :   -0.022838
  23 C :   -0.016226
  24 C :   -0.001264
  25 C :    0.067567
  26 N :    0.006110
  27 C :    0.037689
  28 C :   -0.059747
  29 C :    0.080336
  30 O :   -0.207563
  31 C :   -0.118779
  32 C :   -0.109220
  33 C :    0.083717
  34 O :   -0.191137
  35 N :    0.002233
  36 C :    0.036556
  37 C :   -0.059539
  38 C :    0.079672
  39 C :   -0.041686
  40 C :    0.012952
  41 C :   -0.146054
  42 S :    0.471636
  43 C :   -0.174936
  44 C :   -0.023399
  45 C :   -0.047245
  46 C :   -0.028476
  47 C :    0.007810
  48 N :    0.273348
  49 O :   -0.190806
  50 O :   -0.167308
  51 C :    0.006393
  52 N :    0.272422
  53 O :   -0.176727
  54 O :   -0.188312
  55 C :   -0.028583
  56 C :    0.050448
  57 C :   -0.094153
  58 C :    0.083596
  59 O :   -0.131174
  60 C :   -0.043764
  61 C :   -0.009180
  62 C :    0.057831
  63 C :   -0.135542
  64 C :   -0.032461
  65 N :   -0.042958
  66 C :   -0.022320
  67 N :   -0.042106
  68 C :   -0.010185
  69 C :   -0.117683
  70 C :   -0.123248
  71 C :    0.008472
  72 Br:    0.140460
  73 Br:    0.143740
  74 H :    0.044456
  75 H :    0.047301
  76 H :    0.046538
  77 H :    0.038128
  78 H :    0.039895
  79 H :    0.027053
  80 H :    0.037943
  81 H :    0.024826
  82 H :    0.033384
  83 H :    0.031227
  84 H :    0.038978
  85 H :    0.023651
  86 H :    0.033454
  87 H :    0.034175
  88 H :    0.023640
  89 H :    0.024280
  90 H :    0.042237
  91 H :    0.052759
  92 H :    0.053641
  93 H :    0.058312
  94 H :    0.057871
  95 H :    0.046040
  96 H :    0.055055
  97 H :    0.051184
  98 H :    0.044474
  99 H :    0.047595

  Mayer bond orders larger than 0.100000
B(  0-C ,  1-O ) :   2.2999 B(  0-C ,  2-C ) :   0.9319 B(  0-C , 16-C ) :   0.9092
B(  2-C ,  3-C ) :   1.3277 B(  2-C ,  7-C ) :   1.3718 B(  3-C ,  4-C ) :   1.3549
B(  3-C , 10-C ) :   0.9980 B(  4-C ,  5-C ) :   1.3801 B(  4-C , 74-H ) :   0.9788
B(  5-C ,  6-C ) :   1.4124 B(  5-C ,  9-Br) :   1.0607 B(  6-C ,  7-C ) :   1.3558
B(  6-C ,  8-Br) :   1.0381 B(  7-C , 75-H ) :   1.0080 B( 10-C , 11-C ) :   1.6512
B( 10-C , 16-C ) :   1.0643 B( 11-C , 12-C ) :   1.1390 B( 11-C , 14-C ) :   1.1382
B( 12-C , 13-N ) :   2.9706 B( 14-C , 15-N ) :   2.9670 B( 16-C , 17-C ) :   1.6857
B( 17-C , 18-C ) :   1.1304 B( 17-C , 76-H ) :   0.9157 B( 18-C , 19-S ) :   1.0845
B( 18-C , 22-N ) :   1.6188 B( 19-S , 20-C ) :   1.1364 B( 19-S , 22-N ) :   0.1055
B( 20-C , 21-N ) :   1.5974 B( 20-C , 23-C ) :   1.1214 B( 21-N , 22-N ) :   1.2858
B( 23-C , 24-C ) :   1.6391 B( 23-C , 77-H ) :   0.9247 B( 24-C , 25-C ) :   1.1375
B( 24-C , 78-H ) :   0.9719 B( 25-C , 26-N ) :   1.1574 B( 25-C , 32-C ) :   1.3402
B( 26-N , 27-C ) :   0.9395 B( 26-N , 29-C ) :   1.0760 B( 27-C , 28-C ) :   1.1227
B( 27-C , 79-H ) :   0.9497 B( 27-C , 80-H ) :   0.9293 B( 28-C , 81-H ) :   0.9686
B( 28-C , 82-H ) :   0.9677 B( 28-C , 83-H ) :   0.9636 B( 29-C , 30-O ) :   1.9979
B( 29-C , 31-C ) :   0.9938 B( 30-O , 90-H ) :   0.1214 B( 31-C , 32-C ) :   1.2684
B( 31-C , 38-C ) :   1.3214 B( 32-C , 33-C ) :   0.9778 B( 33-C , 34-O ) :   2.0362
B( 33-C , 35-N ) :   1.0591 B( 34-O , 77-H ) :   0.1100 B( 35-N , 36-C ) :   0.9404
B( 35-N , 38-C ) :   1.1644 B( 36-C , 37-C ) :   1.1207 B( 36-C , 84-H ) :   0.9286
B( 36-C , 85-H ) :   0.9497 B( 37-C , 86-H ) :   0.9634 B( 37-C , 87-H ) :   0.9679
B( 37-C , 88-H ) :   0.9688 B( 38-C , 39-C ) :   1.1772 B( 39-C , 40-C ) :   1.5558
B( 39-C , 89-H ) :   0.9647 B( 40-C , 41-C ) :   1.1873 B( 40-C , 90-H ) :   0.9388
B( 41-C , 42-S ) :   1.1198 B( 41-C , 45-C ) :   1.4449 B( 42-S , 43-C ) :   1.1204
B( 43-C , 44-C ) :   1.4320 B( 43-C , 56-C ) :   1.1354 B( 44-C , 45-C ) :   1.3543
B( 44-C , 55-C ) :   1.0422 B( 45-C , 46-C ) :   1.0407 B( 46-C , 47-C ) :   1.0384
B( 46-C , 91-H ) :   0.9019 B( 46-C , 92-H ) :   0.8848 B( 47-C , 48-N ) :   0.8249
B( 47-C , 51-C ) :   1.0263 B( 47-C , 93-H ) :   0.8917 B( 48-N , 49-O ) :   1.5518
B( 48-N , 50-O ) :   1.5921 B( 49-O , 50-O ) :   0.2724 B( 51-C , 52-N ) :   0.8210
B( 51-C , 55-C ) :   1.0449 B( 51-C , 94-H ) :   0.8915 B( 52-N , 53-O ) :   1.5880
B( 52-N , 54-O ) :   1.5582 B( 53-O , 54-O ) :   0.2729 B( 55-C , 95-H ) :   0.8776
B( 55-C , 96-H ) :   0.8975 B( 56-C , 57-C ) :   1.6554 B( 56-C , 97-H ) :   0.9381
B( 57-C , 58-C ) :   0.9408 B( 57-C , 62-C ) :   1.0355 B( 58-C , 59-O ) :   2.2746
B( 58-C , 60-C ) :   0.9210 B( 60-C , 61-C ) :   1.3259 B( 60-C , 71-C ) :   1.3775
B( 61-C , 62-C ) :   1.0118 B( 61-C , 68-C ) :   1.3706 B( 62-C , 63-C ) :   1.6658
B( 63-C , 64-C ) :   1.1559 B( 63-C , 66-C ) :   1.1287 B( 64-C , 65-N ) :   3.0165
B( 66-C , 67-N ) :   2.9893 B( 68-C , 69-C ) :   1.3691 B( 68-C , 98-H ) :   0.9837
B( 69-C , 70-C ) :   1.4209 B( 69-C , 73-Br) :   1.0520 B( 70-C , 71-C ) :   1.3559
B( 70-C , 72-Br) :   1.0354 B( 71-C , 99-H ) :   1.0075

-----------------------------------------------------------------------------
         ABSORPTION SPECTRUM VIA TRANSITION ELECTRIC DIPOLE MOMENTS
-----------------------------------------------------------------------------
State   Energy  Wavelength   fosc         T2         TX        TY        TZ
        (cm-1)    (nm)                  (au**2)     (au)      (au)      (au)
-----------------------------------------------------------------------------
   0   12326.2    811.3   1.174366302  31.36542  -3.18742  -3.51084  -2.97989
   1   17481.2    572.0   0.114319049   2.15289  -1.33327  -0.52013   0.32365
   2   21536.4    464.3   0.056122570   0.85790   0.17947   0.86421   0.28079
   3   21669.7    461.5   0.026168987   0.39757   0.49245  -0.15902  -0.36024
   4   22354.0    447.3   0.118749260   1.74884  -0.26022  -0.80568  -1.01588
   5   24766.6    403.8   0.110913972   1.47433   0.91427   0.79163   0.10844
   6   25725.0    388.7   0.032079872   0.41054  -0.49316  -0.38911  -0.12621
   7   25925.3    385.7   0.259705829   3.29787   1.45096   1.07651   0.18357
   8   26623.3    375.6   0.065435546   0.80915   0.80120   0.32036   0.25417
   9   27276.6    366.6   0.178229930   2.15113  -0.66042  -0.19277  -1.29530
  10   27547.3    363.0   0.178637401   2.13486   1.20008   0.67356  -0.49089
  11   27979.9    357.4   0.015082458   0.17746  -0.03697   0.36040   0.21495
  12   28302.6    353.3   0.363166280   4.22429   0.76736   1.47469   1.20862
  13   28531.9    350.5   0.070902921   0.81811  -0.83829  -0.30638  -0.14665
  14   29374.4    340.4   0.022140458   0.24814  -0.46794  -0.16657  -0.03773
  15   29594.1    337.9   0.043353511   0.48228   0.07550   0.08025  -0.68566
  16   29808.4    335.5   0.008938434   0.09872   0.12534  -0.01851   0.28752
  17   30031.9    333.0   0.113575333   1.24502  -0.94309  -0.20479   0.56007
  18   30649.4    326.3   0.003021165   0.03245  -0.17874  -0.01943   0.01122
  19   30953.2    323.1   0.034244139   0.36421   0.53725   0.23095   0.14914
  20   31368.9    318.8   0.005097433   0.05350  -0.20680   0.00906   0.10320
  21   31787.3    314.6   0.027816120   0.28808  -0.15799  -0.31304  -0.40636
  22   31947.4    313.0   0.000155023   0.00160  -0.03788   0.01105  -0.00635
  23   32288.1    309.7   0.036375006   0.37088  -0.11933  -0.46715  -0.37204
  24   32384.0    308.8   0.066412710   0.67514  -0.71604  -0.28284  -0.28710
  25   32585.7    306.9   0.043743647   0.44194  -0.35996   0.11362  -0.54723
  26   32743.0    305.4   0.022127278   0.22248   0.11274   0.00743   0.45794
  27   34430.2    290.4   0.050330458   0.48125  -0.54659  -0.02029  -0.42671
  28   34715.1    288.1   0.266549124   2.52775   0.37180  -0.87918  -1.27144
  29   34846.0    287.0   0.365217644   3.45044  -0.66379  -0.26453  -1.71460
  30   35218.3    283.9   0.423019630   3.95428  -1.36496   0.27190   1.42030
  31   35445.5    282.1   0.231885894   2.15372   0.84093  -0.31983   1.15942
  32   35895.3    278.6   0.013624062   0.12495   0.30840   0.11134   0.13209
  33   36380.8    274.9   0.000094264   0.00085  -0.00472   0.00126   0.02880
  34   36528.8    273.8   0.077184895   0.69562   0.75204   0.17036   0.31787
  35   36821.1    271.6   0.034817278   0.31130   0.42956  -0.10129  -0.34134
  36   36882.1    271.1   0.019401989   0.17318  -0.37064  -0.11450   0.15067
  37   37015.4    270.2   0.153800115   1.36789   0.69918   0.51133  -0.78586
  38   37291.6    268.2   0.030658543   0.27066   0.43118   0.28937   0.03167
  39   37309.9    268.0   0.300877346   2.65486  -1.49616  -0.55105   0.33573
  40   37709.1    265.2   0.135337437   1.18154   0.62769   0.46071  -0.75848
  41   37770.0    264.8   0.037244179   0.32463  -0.17617  -0.53865   0.05877
  42   38012.6    263.1   0.003377180   0.02925  -0.02895  -0.07443   0.15123
  43   38491.4    259.8   0.007265744   0.06214   0.22258   0.06144  -0.09396
  44   38984.3    256.5   0.199134426   1.68164  -0.86049  -0.40247   0.88273
  45   39132.4    255.5   0.069902823   0.58808  -0.43938  -0.31301  -0.54502
  46   39171.7    255.3   0.024993550   0.21005   0.34048   0.28493   0.11377
  47   39510.4    253.1   0.004529427   0.03774   0.17373   0.01637   0.08539
  48   39771.4    251.4   0.007060557   0.05844   0.10233   0.14821   0.16127
  49   40246.6    248.5   0.081844823   0.66948   0.68416   0.11627  -0.43345

FINAL SINGLE POINT ENERGY    -14158.208923162496

DIPOLE MOMENT
-------------
                                X             Y             Z
Electronic contribution:    103.39754     108.71597     -52.86666
Nuclear contribution   :   -105.70781    -108.26752      52.87274
                        -----------------------------------------
Total Dipole Moment    :     -2.31027       0.44845       0.00608
                        -----------------------------------------
Magnitude (a.u.)       :      2.35340
Magnitude (Debye)      :      5.98186

Rotational constants in cm-1:     0.001115     0.000140     0.000127
Rotational constants in MHz :    33.433626     4.198986     3.815095

                             ****ORCA TERMINATED NORMALLY****
TOTAL RUN TIME: 0 days 0 hours 12 minutes 5 seconds 240 msec
