                         Program Version 4.2.0 -  RELEASE  -
|  1> # ORCA input file
|  2> # SCF done       -184.906116992584          0.000810962756
|  3> ! CAM-B3LYP def2-SVP def2/J RIJCOSX Grid4 TightSCF
|  4> %maxcore 5000
|  5> %tddft
|  6>     Mode sTDDFT
|  7>     Ethresh 5.0
|  8>     maxcore 5000
|  9> end
| 10>
| 11> %pal
| 12>   nprocs 6
| 13>   end
| 14> * xyz 0 1
| 15>    C        0.88358       -11.44251        -5.65779
| 16>    O        0.64638       -10.65449        -4.76704
| 17>    C        2.08670       -11.45266        -6.51139
| 18>    C        2.01895       -12.52920        -7.41311
| 19>    C        3.04824       -12.72348        -8.32082
| 20>    C        4.12433       -11.84352        -8.30829
| 21>    C        4.18300       -10.77955        -7.40353
| 22>    C        3.15395       -10.57824        -6.49373
| 23>   Br        5.65902        -9.60140        -7.40738
| 24>   Br        5.52509       -12.10903        -9.54821
| 25>    C        0.78117       -13.26921        -7.17768
| 26>    C        0.41816       -14.42165        -7.81593
| 27>    C        1.19436       -15.04195        -8.82156
| 28>    N        1.77948       -15.58877        -9.64235
| 29>    C       -0.74913       -15.18014        -7.56898
| 30>    N       -1.65718       -15.86807        -7.43410
| 31>    C        0.05207       -12.57317        -6.12345
| 32>    C       -1.19960       -12.88464        -5.68593
| 33>    C       -1.98429       -12.27765        -4.67820
| 34>    S       -1.57018       -10.94976        -3.60128
| 35>    C       -3.16472       -11.16873        -2.92500
| 36>    N       -3.83945       -12.13595        -3.50864
| 37>    N       -3.19667       -12.73397        -4.45220
| 38>    C       -3.70584       -10.40412        -1.85201
| 39>    C       -3.02557        -9.43422        -1.21365
| 40>    C       -3.52157        -8.65830        -0.09812
| 41>    C       -2.69186        -7.89185         0.62798
| 42>    C       -4.93763        -8.71361         0.25906
| 43>    S       -6.19816        -8.49480        -0.92063
| 44>    C       -7.42706        -8.62893         0.27735
| 45>    C       -8.85321        -8.48428        -0.10813
| 46>    C       -6.88310        -8.82033         1.52537
| 47>    C       -5.46204        -8.84591         1.50490
| 48>    C       -7.63737        -8.94793         2.76013
| 49>    C       -8.63515        -9.91245         2.98178
| 50>    C       -8.93954       -10.99003         2.01536
| 51>    O       -8.41810       -11.21459         0.96621
| 52>    S      -10.24749       -12.02093         2.68200
| 53>    C      -10.36194       -11.07341         4.19510
| 54>    O      -11.15493       -11.33399         5.05013
| 55>    C       -9.34979        -9.99060         4.17722
| 56>    C       -9.13034        -9.11474         5.26312
| 57>    C       -8.09552        -8.18558         5.05418
| 58>    C       -7.38655        -8.11647         3.85749
| 59>    C       -6.39977        -7.01556         3.98045
| 60>    O       -5.62986        -6.56807         3.19138
| 61>    O       -6.51179        -6.52418         5.25985
| 62>    C       -7.48791        -7.17628         5.96450
| 63>    O       -7.71589        -6.91792         7.10582
| 64>    C       -9.92148        -9.21360         6.46473
| 65>    C      -10.28618        -8.17247         7.24011
| 66>    C      -11.13244        -8.34096         8.37102
| 67>    C      -11.73690        -7.35748         9.08287
| 68>    C      -12.29707        -7.66001        10.43418
| 69>    O      -12.52168        -8.74985        10.89696
| 70>    C      -12.45358        -6.34107        11.08206
| 71>    C      -12.14464        -5.32170        10.16092
| 72>    C      -11.84239        -5.92554         8.86390
| 73>    C      -11.86972        -5.26997         7.66443
| 74>    C      -11.81825        -5.88752         6.39486
| 75>    N      -11.81925        -6.31644         5.33049
| 76>    C      -12.05544        -3.87361         7.54302
| 77>    N      -12.19410        -2.74577         7.39081
| 78>    C      -12.18156        -3.99722        10.56443
| 79>    C      -12.53796        -3.71050        11.87726
| 80>    C      -12.85999        -4.72811        12.78047
| 81>    C      -12.81532        -6.05823        12.38327
| 82>   Br      -13.35276        -4.30840        14.55395
| 83>   Br      -12.57867        -1.90584        12.43190
| 84>    H        3.04027       -13.53027        -9.03528
| 85>    H        3.18444        -9.76025        -5.79074
| 86>    H       -1.72458       -13.70975        -6.15210
| 87>    H       -4.71251       -10.67768        -1.57048
| 88>    H       -2.00702        -9.22020        -1.51293
| 89>    H       -1.63984        -7.83922         0.40650
| 90>    H       -3.05189        -7.30751         1.45640
| 91>    H       -8.97251        -7.67971        -0.83123
| 92>    H       -9.47362        -8.27508         0.76119
| 93>    H       -9.20581        -9.40712        -0.57178
| 94>    H       -4.86240        -9.01389         2.38063
| 95>    H      -10.33182       -10.19008         6.68348
| 96>    H       -9.94429        -7.17573         7.01623
| 97>    H      -11.27075        -9.34906         8.74734
| 98>    H      -11.93196        -3.18743         9.89789
| 99>    H      -13.05597        -6.85223        13.07312
|100> *
|101>
|102>                          ****END OF INPUT****

CARTESIAN COORDINATES (ANGSTROEM)
---------------------------------
  C      0.883580  -11.442510   -5.657790
  O      0.646380  -10.654490   -4.767040
  C      2.086700  -11.452660   -6.511390
  C      2.018950  -12.529200   -7.413110
  C      3.048240  -12.723480   -8.320820
  C      4.124330  -11.843520   -8.308290
  C      4.183000  -10.779550   -7.403530
  C      3.153950  -10.578240   -6.493730
  Br     5.659020   -9.601400   -7.407380
  Br     5.525090  -12.109030   -9.548210
  C      0.781170  -13.269210   -7.177680
  C      0.418160  -14.421650   -7.815930
  C      1.194360  -15.041950   -8.821560
  N      1.779480  -15.588770   -9.642350
  C     -0.749130  -15.180140   -7.568980
  N     -1.657180  -15.868070   -7.434100
  C      0.052070  -12.573170   -6.123450
  C     -1.199600  -12.884640   -5.685930
  C     -1.984290  -12.277650   -4.678200
  S     -1.570180  -10.949760   -3.601280
  C     -3.164720  -11.168730   -2.925000
  N     -3.839450  -12.135950   -3.508640
  N     -3.196670  -12.733970   -4.452200
  C     -3.705840  -10.404120   -1.852010
  C     -3.025570   -9.434220   -1.213650
  C     -3.521570   -8.658300   -0.098120
  C     -2.691860   -7.891850    0.627980
  C     -4.937630   -8.713610    0.259060
  S     -6.198160   -8.494800   -0.920630
  C     -7.427060   -8.628930    0.277350
  C     -8.853210   -8.484280   -0.108130
  C     -6.883100   -8.820330    1.525370
  C     -5.462040   -8.845910    1.504900
  C     -7.637370   -8.947930    2.760130
  C     -8.635150   -9.912450    2.981780
  C     -8.939540  -10.990030    2.015360
  O     -8.418100  -11.214590    0.966210
  S    -10.247490  -12.020930    2.682000
  C    -10.361940  -11.073410    4.195100
  O    -11.154930  -11.333990    5.050130
  C     -9.349790   -9.990600    4.177220
  C     -9.130340   -9.114740    5.263120
  C     -8.095520   -8.185580    5.054180
  C     -7.386550   -8.116470    3.857490
  C     -6.399770   -7.015560    3.980450
  O     -5.629860   -6.568070    3.191380
  O     -6.511790   -6.524180    5.259850
  C     -7.487910   -7.176280    5.964500
  O     -7.715890   -6.917920    7.105820
  C     -9.921480   -9.213600    6.464730
  C    -10.286180   -8.172470    7.240110
  C    -11.132440   -8.340960    8.371020
  C    -11.736900   -7.357480    9.082870
  C    -12.297070   -7.660010   10.434180
  O    -12.521680   -8.749850   10.896960
  C    -12.453580   -6.341070   11.082060
  C    -12.144640   -5.321700   10.160920
  C    -11.842390   -5.925540    8.863900
  C    -11.869720   -5.269970    7.664430
  C    -11.818250   -5.887520    6.394860
  N    -11.819250   -6.316440    5.330490
  C    -12.055440   -3.873610    7.543020
  N    -12.194100   -2.745770    7.390810
  C    -12.181560   -3.997220   10.564430
  C    -12.537960   -3.710500   11.877260
  C    -12.859990   -4.728110   12.780470
  C    -12.815320   -6.058230   12.383270
  Br   -13.352760   -4.308400   14.553950
  Br   -12.578670   -1.905840   12.431900
  H      3.040270  -13.530270   -9.035280
  H      3.184440   -9.760250   -5.790740
  H     -1.724580  -13.709750   -6.152100
  H     -4.712510  -10.677680   -1.570480
  H     -2.007020   -9.220200   -1.512930
  H     -1.639840   -7.839220    0.406500
  H     -3.051890   -7.307510    1.456400
  H     -8.972510   -7.679710   -0.831230
  H     -9.473620   -8.275080    0.761190
  H     -9.205810   -9.407120   -0.571780
  H     -4.862400   -9.013890    2.380630
  H    -10.331820  -10.190080    6.683480
  H     -9.944290   -7.175730    7.016230
  H    -11.270750   -9.349060    8.747340
  H    -11.931960   -3.187430    9.897890
  H    -13.055970   -6.852230   13.073120

 Total Charge           Charge          ....    0
 Multiplicity           Mult            ....    1
 Number of Electrons    NEL             ....  596
 Basis Dimension        Dim             .... 1130

ORBITAL ENERGIES
----------------

  NO   OCC          E(Eh)            E(eV)
   0   2.0000    -482.884932    -13139.9670
   1   2.0000    -482.883662    -13139.9325
   2   2.0000    -482.882927    -13139.9125
   3   2.0000    -482.882305    -13139.8955
   4   2.0000     -88.981763     -2421.3169
   5   2.0000     -88.965581     -2420.8765
   6   2.0000     -88.963558     -2420.8215
   7   2.0000     -62.562500     -1702.4122
   8   2.0000     -62.561278     -1702.3789
   9   2.0000     -62.560514     -1702.3581
  10   2.0000     -62.559962     -1702.3431
  11   2.0000     -56.396457     -1534.6256
  12   2.0000     -56.395230     -1534.5922
  13   2.0000     -56.394487     -1534.5720
  14   2.0000     -56.393930     -1534.5569
  15   2.0000     -56.393800     -1534.5533
  16   2.0000     -56.393693     -1534.5504
  17   2.0000     -56.392572     -1534.5199
  18   2.0000     -56.392474     -1534.5172
  19   2.0000     -56.391805     -1534.4990
  20   2.0000     -56.391701     -1534.4962
  21   2.0000     -56.391248     -1534.4839
  22   2.0000     -56.391148     -1534.4812
  23   2.0000     -19.307938      -525.3957
  24   2.0000     -19.259164      -524.0685
  25   2.0000     -19.256088      -523.9848
  26   2.0000     -19.255527      -523.9695
  27   2.0000     -19.254502      -523.9416
  28   2.0000     -19.242672      -523.6197
  29   2.0000     -19.233325      -523.3654
  30   2.0000     -14.452769      -393.2798
  31   2.0000     -14.440763      -392.9531
  32   2.0000     -14.432316      -392.7233
  33   2.0000     -14.430804      -392.6821
  34   2.0000     -14.428663      -392.6239
  35   2.0000     -14.428436      -392.6177
  36   2.0000     -10.451371      -284.3963
  37   2.0000     -10.448152      -284.3087
  38   2.0000     -10.422008      -283.5973
  39   2.0000     -10.419192      -283.5206
  40   2.0000     -10.391216      -282.7594
  41   2.0000     -10.383851      -282.5590
  42   2.0000     -10.364852      -282.0420
  43   2.0000     -10.362916      -281.9893
  44   2.0000     -10.362556      -281.9795
  45   2.0000     -10.362292      -281.9723
  46   2.0000     -10.361817      -281.9594
  47   2.0000     -10.361670      -281.9554
  48   2.0000     -10.360473      -281.9228
  49   2.0000     -10.357935      -281.8537
  50   2.0000     -10.354298      -281.7548
  51   2.0000     -10.350698      -281.6568
  52   2.0000     -10.350518      -281.6519
  53   2.0000     -10.347153      -281.5603
  54   2.0000     -10.346363      -281.5389
  55   2.0000     -10.345429      -281.5134
  56   2.0000     -10.343874      -281.4711
  57   2.0000     -10.343301      -281.4555
  58   2.0000     -10.337073      -281.2861
  59   2.0000     -10.334645      -281.2200
  60   2.0000     -10.332199      -281.1534
  61   2.0000     -10.330085      -281.0959
  62   2.0000     -10.329389      -281.0770
  63   2.0000     -10.328750      -281.0596
  64   2.0000     -10.328680      -281.0577
  65   2.0000     -10.328444      -281.0513
  66   2.0000     -10.321801      -280.8705
  67   2.0000     -10.320462      -280.8341
  68   2.0000     -10.320398      -280.8323
  69   2.0000     -10.320343      -280.8308
  70   2.0000     -10.320325      -280.8303
  71   2.0000     -10.317369      -280.7499
  72   2.0000     -10.316461      -280.7252
  73   2.0000     -10.316189      -280.7178
  74   2.0000     -10.314170      -280.6628
  75   2.0000     -10.313669      -280.6492
  76   2.0000     -10.311529      -280.5910
  77   2.0000     -10.304767      -280.4070
  78   2.0000     -10.303467      -280.3716
  79   2.0000     -10.303264      -280.3661
  80   2.0000     -10.295283      -280.1489
  81   2.0000     -10.293499      -280.1003
  82   2.0000     -10.285520      -279.8832
  83   2.0000     -10.284554      -279.8569
  84   2.0000     -10.284355      -279.8515
  85   2.0000      -8.791801      -239.2371
  86   2.0000      -8.790619      -239.2049
  87   2.0000      -8.789817      -239.1831
  88   2.0000      -8.789321      -239.1696
  89   2.0000      -8.076067      -219.7609
  90   2.0000      -8.064866      -219.4562
  91   2.0000      -8.059421      -219.3080
  92   2.0000      -6.627935      -180.3553
  93   2.0000      -6.626750      -180.3230
  94   2.0000      -6.626010      -180.3029
  95   2.0000      -6.625534      -180.2900
  96   2.0000      -6.613931      -179.9742
  97   2.0000      -6.613118      -179.9521
  98   2.0000      -6.612753      -179.9422
  99   2.0000      -6.611934      -179.9199
 100   2.0000      -6.611915      -179.9193
 101   2.0000      -6.611405      -179.9055
 102   2.0000      -6.611112      -179.8975
 103   2.0000      -6.610605      -179.8837
 104   2.0000      -6.044850      -164.4887
 105   2.0000      -6.041102      -164.3868
 106   2.0000      -6.038626      -164.3194
 107   2.0000      -6.033711      -164.1856
 108   2.0000      -6.030428      -164.0963
 109   2.0000      -6.028619      -164.0471
 110   2.0000      -6.025935      -163.9740
 111   2.0000      -6.024407      -163.9324
 112   2.0000      -6.021729      -163.8596
 113   2.0000      -2.743885       -74.6649
 114   2.0000      -2.742702       -74.6327
 115   2.0000      -2.741933       -74.6118
 116   2.0000      -2.741402       -74.5973
 117   2.0000      -2.740066       -74.5610
 118   2.0000      -2.739441       -74.5440
 119   2.0000      -2.738887       -74.5289
 120   2.0000      -2.738251       -74.5116
 121   2.0000      -2.738121       -74.5081
 122   2.0000      -2.737663       -74.4956
 123   2.0000      -2.737470       -74.4903
 124   2.0000      -2.737004       -74.4777
 125   2.0000      -2.728304       -74.2409
 126   2.0000      -2.728285       -74.2404
 127   2.0000      -2.727117       -74.2086
 128   2.0000      -2.727107       -74.2084
 129   2.0000      -2.726282       -74.1859
 130   2.0000      -2.726265       -74.1854
 131   2.0000      -2.725782       -74.1723
 132   2.0000      -2.725765       -74.1719
 133   2.0000      -1.258929       -34.2572
 134   2.0000      -1.184453       -32.2306
 135   2.0000      -1.183851       -32.2142
 136   2.0000      -1.179463       -32.0948
 137   2.0000      -1.159112       -31.5410
 138   2.0000      -1.152429       -31.3592
 139   2.0000      -1.149609       -31.2825
 140   2.0000      -1.145474       -31.1699
 141   2.0000      -1.037295       -28.2262
 142   2.0000      -1.036151       -28.1951
 143   2.0000      -1.034384       -28.1470
 144   2.0000      -1.020228       -27.7618
 145   2.0000      -1.019192       -27.7336
 146   2.0000      -1.009835       -27.4790
 147   2.0000      -1.006635       -27.3919
 148   2.0000      -0.999178       -27.1890
 149   2.0000      -0.989020       -26.9126
 150   2.0000      -0.988475       -26.8978
 151   2.0000      -0.968740       -26.3607
 152   2.0000      -0.956993       -26.0411
 153   2.0000      -0.952051       -25.9066
 154   2.0000      -0.942653       -25.6509
 155   2.0000      -0.932045       -25.3622
 156   2.0000      -0.930393       -25.3173
 157   2.0000      -0.925736       -25.1906
 158   2.0000      -0.920853       -25.0577
 159   2.0000      -0.919906       -25.0319
 160   2.0000      -0.915495       -24.9119
 161   2.0000      -0.900034       -24.4912
 162   2.0000      -0.899315       -24.4716
 163   2.0000      -0.888267       -24.1710
 164   2.0000      -0.867423       -23.6038
 165   2.0000      -0.862916       -23.4811
 166   2.0000      -0.862160       -23.4606
 167   2.0000      -0.857939       -23.3457
 168   2.0000      -0.854982       -23.2652
 169   2.0000      -0.841990       -22.9117
 170   2.0000      -0.832746       -22.6602
 171   2.0000      -0.815462       -22.1898
 172   2.0000      -0.798565       -21.7301
 173   2.0000      -0.795691       -21.6518
 174   2.0000      -0.786163       -21.3926
 175   2.0000      -0.779954       -21.2236
 176   2.0000      -0.778825       -21.1929
 177   2.0000      -0.773065       -21.0362
 178   2.0000      -0.769917       -20.9505
 179   2.0000      -0.754180       -20.5223
 180   2.0000      -0.739025       -20.1099
 181   2.0000      -0.727199       -19.7881
 182   2.0000      -0.719439       -19.5769
 183   2.0000      -0.714536       -19.4435
 184   2.0000      -0.706943       -19.2369
 185   2.0000      -0.702818       -19.1246
 186   2.0000      -0.699060       -19.0224
 187   2.0000      -0.688034       -18.7223
 188   2.0000      -0.682671       -18.5764
 189   2.0000      -0.674757       -18.3611
 190   2.0000      -0.669897       -18.2288
 191   2.0000      -0.655134       -17.8271
 192   2.0000      -0.651901       -17.7391
 193   2.0000      -0.649505       -17.6739
 194   2.0000      -0.641450       -17.4547
 195   2.0000      -0.638450       -17.3731
 196   2.0000      -0.634656       -17.2699
 197   2.0000      -0.631633       -17.1876
 198   2.0000      -0.628358       -17.0985
 199   2.0000      -0.621067       -16.9001
 200   2.0000      -0.616855       -16.7855
 201   2.0000      -0.612928       -16.6786
 202   2.0000      -0.608262       -16.5516
 203   2.0000      -0.602450       -16.3935
 204   2.0000      -0.591550       -16.0969
 205   2.0000      -0.588652       -16.0180
 206   2.0000      -0.585224       -15.9247
 207   2.0000      -0.582862       -15.8605
 208   2.0000      -0.573099       -15.5948
 209   2.0000      -0.569318       -15.4919
 210   2.0000      -0.568124       -15.4594
 211   2.0000      -0.565046       -15.3757
 212   2.0000      -0.561945       -15.2913
 213   2.0000      -0.559730       -15.2310
 214   2.0000      -0.558774       -15.2050
 215   2.0000      -0.556663       -15.1476
 216   2.0000      -0.554767       -15.0960
 217   2.0000      -0.553735       -15.0679
 218   2.0000      -0.552535       -15.0352
 219   2.0000      -0.551077       -14.9956
 220   2.0000      -0.548048       -14.9132
 221   2.0000      -0.546191       -14.8626
 222   2.0000      -0.541809       -14.7434
 223   2.0000      -0.540073       -14.6961
 224   2.0000      -0.532157       -14.4807
 225   2.0000      -0.531028       -14.4500
 226   2.0000      -0.528868       -14.3912
 227   2.0000      -0.525065       -14.2878
 228   2.0000      -0.523547       -14.2464
 229   2.0000      -0.517779       -14.0895
 230   2.0000      -0.514771       -14.0076
 231   2.0000      -0.513238       -13.9659
 232   2.0000      -0.512791       -13.9538
 233   2.0000      -0.512479       -13.9453
 234   2.0000      -0.511466       -13.9177
 235   2.0000      -0.507004       -13.7963
 236   2.0000      -0.505280       -13.7494
 237   2.0000      -0.504296       -13.7226
 238   2.0000      -0.499715       -13.5979
 239   2.0000      -0.496379       -13.5072
 240   2.0000      -0.492493       -13.4014
 241   2.0000      -0.486629       -13.2418
 242   2.0000      -0.481531       -13.1031
 243   2.0000      -0.476600       -12.9690
 244   2.0000      -0.475082       -12.9276
 245   2.0000      -0.472778       -12.8650
 246   2.0000      -0.472661       -12.8618
 247   2.0000      -0.470100       -12.7921
 248   2.0000      -0.468807       -12.7569
 249   2.0000      -0.467465       -12.7204
 250   2.0000      -0.464390       -12.6367
 251   2.0000      -0.459396       -12.5008
 252   2.0000      -0.459064       -12.4918
 253   2.0000      -0.456750       -12.4288
 254   2.0000      -0.454181       -12.3589
 255   2.0000      -0.453244       -12.3334
 256   2.0000      -0.448560       -12.2059
 257   2.0000      -0.442925       -12.0526
 258   2.0000      -0.441966       -12.0265
 259   2.0000      -0.439677       -11.9642
 260   2.0000      -0.439149       -11.9499
 261   2.0000      -0.438066       -11.9204
 262   2.0000      -0.436402       -11.8751
 263   2.0000      -0.432605       -11.7718
 264   2.0000      -0.429942       -11.6993
 265   2.0000      -0.427848       -11.6423
 266   2.0000      -0.420699       -11.4478
 267   2.0000      -0.418987       -11.4012
 268   2.0000      -0.414674       -11.2839
 269   2.0000      -0.409955       -11.1554
 270   2.0000      -0.408218       -11.1082
 271   2.0000      -0.407422       -11.0865
 272   2.0000      -0.399385       -10.8678
 273   2.0000      -0.398723       -10.8498
 274   2.0000      -0.396930       -10.8010
 275   2.0000      -0.396662       -10.7937
 276   2.0000      -0.391657       -10.6575
 277   2.0000      -0.389606       -10.6017
 278   2.0000      -0.383997       -10.4491
 279   2.0000      -0.381031       -10.3684
 280   2.0000      -0.378182       -10.2909
 281   2.0000      -0.373475       -10.1628
 282   2.0000      -0.364128        -9.9084
 283   2.0000      -0.361029        -9.8241
 284   2.0000      -0.360817        -9.8183
 285   2.0000      -0.356377        -9.6975
 286   2.0000      -0.353762        -9.6263
 287   2.0000      -0.351413        -9.5624
 288   2.0000      -0.350995        -9.5511
 289   2.0000      -0.344169        -9.3653
 290   2.0000      -0.336207        -9.1486
 291   2.0000      -0.326250        -8.8777
 292   2.0000      -0.324600        -8.8328
 293   2.0000      -0.321334        -8.7439
 294   2.0000      -0.321074        -8.7369
 295   2.0000      -0.312062        -8.4916
 296   2.0000      -0.300912        -8.1882
 297   2.0000      -0.283109        -7.7038
 298   0.0000      -0.113087        -3.0772
 299   0.0000      -0.110046        -2.9945
 300   0.0000      -0.109092        -2.9686
 301   0.0000      -0.082587        -2.2473
 302   0.0000      -0.081838        -2.2269

MULLIKEN ATOMIC CHARGES
-----------------------
   0 C :    0.172146
   1 O :   -0.157296
   2 C :   -0.018989
   3 C :    0.037526
   4 C :   -0.008710
   5 C :   -0.025171
   6 C :   -0.015088
   7 C :   -0.017457
   8 Br:    0.020772
   9 Br:    0.029286
  10 C :    0.310374
  11 C :   -0.330170
  12 C :   -0.186664
  13 N :    0.164525
  14 C :   -0.200556
  15 N :    0.181939
  16 C :   -0.082334
  17 C :    0.021530
  18 C :   -0.102419
  19 S :    0.157254
  20 C :   -0.058672
  21 N :   -0.049058
  22 N :   -0.029699
  23 C :    0.055371
  24 C :   -0.002090
  25 C :    0.040341
  26 C :   -0.015318
  27 C :   -0.139518
  28 S :    0.145731
  29 C :   -0.250673
  30 C :    0.125719
  31 C :    0.037299
  32 C :    0.057231
  33 C :   -0.001338
  34 C :    0.031632
  35 C :    0.030478
  36 O :   -0.109176
  37 S :    0.039854
  38 C :    0.043572
  39 O :   -0.127780
  40 C :    0.034350
  41 C :    0.060078
  42 C :   -0.068767
  43 C :   -0.073149
  44 C :    0.231582
  45 O :   -0.084885
  46 O :   -0.221299
  47 C :    0.230906
  48 O :   -0.102749
  49 C :   -0.040514
  50 C :    0.053513
  51 C :    0.012332
  52 C :   -0.095970
  53 C :    0.143883
  54 O :   -0.123961
  55 C :   -0.004473
  56 C :    0.023519
  57 C :    0.279898
  58 C :   -0.312034
  59 C :   -0.213583
  60 N :    0.169600
  61 C :   -0.188201
  62 N :    0.169521
  63 C :   -0.004808
  64 C :   -0.023468
  65 C :   -0.017721
  66 C :   -0.015285
  67 Br:    0.021804
  68 Br:    0.028050
  69 H :    0.010977
  70 H :    0.008873
  71 H :    0.036690
  72 H :    0.026813
  73 H :   -0.003614
  74 H :    0.022198
  75 H :    0.042699
  76 H :    0.034485
  77 H :    0.023056
  78 H :    0.055338
  79 H :   -0.024191
  80 H :    0.034760
  81 H :    0.039176
  82 H :    0.026739
  83 H :    0.012850
  84 H :    0.010581
Sum of atomic charges:   -0.0000000

LOEWDIN ATOMIC CHARGES
----------------------
   0 C :    0.085531
   1 O :   -0.148800
   2 C :   -0.044438
   3 C :   -0.010469
   4 C :   -0.005698
   5 C :   -0.116499
   6 C :   -0.122029
   7 C :    0.008286
   8 Br:    0.143011
   9 Br:    0.147527
  10 C :    0.070869
  11 C :   -0.118992
  12 C :   -0.018267
  13 N :   -0.036453
  14 C :   -0.026625
  15 N :   -0.024688
  16 C :   -0.090658
  17 C :    0.059887
  18 C :   -0.175037
  19 S :    0.462888
  20 C :   -0.142246
  21 N :   -0.078410
  22 N :   -0.041565
  23 C :   -0.051419
  24 C :    0.008525
  25 C :   -0.046330
  26 C :   -0.004201
  27 C :   -0.171774
  28 S :    0.461322
  29 C :   -0.142920
  30 C :   -0.064722
  31 C :   -0.092877
  32 C :   -0.029695
  33 C :    0.042712
  34 C :   -0.053096
  35 C :   -0.044559
  36 O :   -0.095218
  37 S :    0.321132
  38 C :   -0.043525
  39 O :   -0.108037
  40 C :   -0.042668
  41 C :    0.027046
  42 C :   -0.037716
  43 C :   -0.041397
  44 C :    0.108277
  45 O :   -0.084002
  46 O :   -0.049845
  47 C :    0.108148
  48 O :   -0.095954
  49 C :    0.009260
  50 C :    0.010658
  51 C :    0.071266
  52 C :   -0.074920
  53 C :    0.084590
  54 O :   -0.123943
  55 C :   -0.043844
  56 C :   -0.009301
  57 C :    0.070941
  58 C :   -0.122853
  59 C :   -0.021730
  60 N :   -0.045196
  61 C :   -0.020752
  62 N :   -0.034297
  63 C :   -0.006732
  64 C :   -0.116894
  65 C :   -0.121810
  66 C :    0.009162
  67 Br:    0.143712
  68 Br:    0.147330
  69 H :    0.045541
  70 H :    0.047000
  71 H :    0.060674
  72 H :    0.038592
  73 H :    0.027968
  74 H :    0.025567
  75 H :    0.033508
  76 H :    0.040008
  77 H :    0.035681
  78 H :    0.044249
  79 H :    0.027210
  80 H :    0.040457
  81 H :    0.031161
  82 H :    0.049899
  83 H :    0.045541
  84 H :    0.047968

  Mayer bond orders larger than 0.100000
B(  0-C ,  1-O ) :   2.1707 B(  0-C ,  2-C ) :   0.9595 B(  0-C , 16-C ) :   0.9526
B(  2-C ,  3-C ) :   1.3270 B(  2-C ,  7-C ) :   1.3660 B(  3-C ,  4-C ) :   1.3627
B(  3-C , 10-C ) :   0.9943 B(  4-C ,  5-C ) :   1.3735 B(  4-C , 69-H ) :   0.9787
B(  5-C ,  6-C ) :   1.4132 B(  5-C ,  9-Br) :   1.0628 B(  6-C ,  7-C ) :   1.3570
B(  6-C ,  8-Br) :   1.0374 B(  7-C , 70-H ) :   1.0081 B( 10-C , 11-C ) :   1.6649
B( 10-C , 16-C ) :   1.0595 B( 11-C , 12-C ) :   1.1409 B( 11-C , 14-C ) :   1.1357
B( 12-C , 13-N ) :   2.9704 B( 14-C , 15-N ) :   2.9784 B( 16-C , 17-C ) :   1.5717
B( 17-C , 18-C ) :   1.1634 B( 17-C , 71-H ) :   0.9432 B( 18-C , 19-S ) :   1.0854
B( 18-C , 22-N ) :   1.6073 B( 19-S , 20-C ) :   1.1110 B( 19-S , 22-N ) :   0.1070
B( 20-C , 21-N ) :   1.5791 B( 20-C , 23-C ) :   1.1360 B( 21-N , 22-N ) :   1.2843
B( 23-C , 24-C ) :   1.6624 B( 23-C , 72-H ) :   0.9624 B( 24-C , 25-C ) :   1.0955
B( 24-C , 73-H ) :   0.9759 B( 25-C , 26-C ) :   1.9017 B( 25-C , 27-C ) :   0.9472
B( 26-C , 74-H ) :   0.9497 B( 26-C , 75-H ) :   0.9447 B( 27-C , 28-S ) :   1.1149
B( 27-C , 32-C ) :   1.6155 B( 28-S , 29-C ) :   1.1633 B( 29-C , 30-C ) :   1.1040
B( 29-C , 31-C ) :   1.5597 B( 30-C , 76-H ) :   0.9417 B( 30-C , 77-H ) :   0.9429
B( 30-C , 78-H ) :   0.9326 B( 31-C , 32-C ) :   1.2102 B( 31-C , 33-C ) :   0.9843
B( 32-C , 79-H ) :   0.9954 B( 33-C , 34-C ) :   1.4057 B( 33-C , 43-C ) :   1.3769
B( 34-C , 35-C ) :   0.8385 B( 34-C , 40-C ) :   1.3035 B( 35-C , 36-O ) :   2.1824
B( 35-C , 37-S ) :   1.0220 B( 36-O , 37-S ) :   0.1085 B( 37-S , 38-C ) :   1.0445
B( 37-S , 39-O ) :   0.1059 B( 38-C , 39-O ) :   2.1468 B( 38-C , 40-C ) :   0.8449
B( 40-C , 41-C ) :   1.3757 B( 41-C , 42-C ) :   1.3113 B( 41-C , 49-C ) :   1.0723
B( 42-C , 43-C ) :   1.3654 B( 42-C , 47-C ) :   0.8977 B( 43-C , 44-C ) :   0.8933
B( 44-C , 45-O ) :   2.2598 B( 44-C , 46-O ) :   1.0474 B( 46-O , 47-C ) :   1.0670
B( 47-C , 48-O ) :   2.2331 B( 49-C , 50-C ) :   1.7082 B( 49-C , 80-H ) :   0.9534
B( 50-C , 51-C ) :   1.1121 B( 50-C , 81-H ) :   0.9377 B( 51-C , 52-C ) :   1.6615
B( 51-C , 82-H ) :   0.9602 B( 52-C , 53-C ) :   0.9288 B( 52-C , 57-C ) :   1.0208
B( 53-C , 54-O ) :   2.2839 B( 53-C , 55-C ) :   0.9237 B( 55-C , 56-C ) :   1.3251
B( 55-C , 66-C ) :   1.3724 B( 56-C , 57-C ) :   1.0081 B( 56-C , 63-C ) :   1.3670
B( 57-C , 58-C ) :   1.6705 B( 58-C , 59-C ) :   1.1556 B( 58-C , 61-C ) :   1.1272
B( 59-C , 60-N ) :   3.0097 B( 61-C , 62-N ) :   2.9921 B( 63-C , 64-C ) :   1.3735
B( 63-C , 83-H ) :   0.9805 B( 64-C , 65-C ) :   1.4160 B( 64-C , 68-Br) :   1.0570
B( 65-C , 66-C ) :   1.3593 B( 65-C , 67-Br) :   1.0393 B( 66-C , 84-H ) :   1.0068

-----------------------------------------------------------------------------
         ABSORPTION SPECTRUM VIA TRANSITION ELECTRIC DIPOLE MOMENTS
-----------------------------------------------------------------------------
State   Energy  Wavelength   fosc         T2         TX        TY        TZ
        (cm-1)    (nm)                  (au**2)     (au)      (au)      (au)
-----------------------------------------------------------------------------
   0   19352.8    516.7   0.018176844   0.30921  -0.44646  -0.31086   0.11510
   1   22937.5    436.0   1.021970066  14.66786  -2.01396   1.48613   2.89884
   2   23174.9    431.5   0.338492341   4.80847  -1.22149   0.93654   1.56183
   3   23660.7    422.6   0.039087949   0.54386   0.39962  -0.06445  -0.61645
   4   25095.5    398.5   0.041010685   0.53799   0.38984   0.48745   0.38523
   5   25897.1    386.1   0.001831526   0.02328   0.08634  -0.02783  -0.12270
   6   26437.6    378.2   0.400713982   4.98985   1.12288  -1.61604  -1.05707
   7   27691.9    361.1   0.016547277   0.19672  -0.31793   0.06691   0.30193
   8   27747.4    360.4   0.081822845   0.97079   0.63842  -0.37785  -0.64842
   9   28083.0    356.1   0.147523633   1.72939   0.36293  -0.54265  -1.14158
  10   28151.4    355.2   0.037281447   0.43598   0.37347  -0.30400  -0.45176
  11   29594.9    337.9   0.115328962   1.28291  -0.96320  -0.46795   0.36901
  12   29649.4    337.3   0.018162564   0.20167  -0.03888   0.04248  -0.44537
  13   29754.2    336.1   0.159530732   1.76511  -1.12108  -0.62029   0.35146
  14   29983.1    333.5   0.005776626   0.06343   0.09017   0.09069  -0.21696
  15   30241.1    330.7   0.066130426   0.71991   0.11932   0.04647  -0.83876
  16   30733.5    325.4   0.063585303   0.68111  -0.34140  -0.19507   0.72561
  17   31289.7    319.6   0.241435573   2.54025   0.60714  -0.39883  -1.41865
  18   31862.6    313.8   0.005784557   0.05977   0.07054   0.19549   0.12875
  19   31903.1    313.4   0.091804706   0.94735   0.37374  -0.24547  -0.86453
  20   32400.5    308.6   0.087305068   0.88708   0.22419  -0.00463  -0.91477
  21   32818.7    304.7   0.021366725   0.21433  -0.29474  -0.35038  -0.06855
  22   32983.1    303.2   0.136656171   1.36400  -0.41573   0.20047   1.07284
  23   33172.2    301.5   0.016328169   0.16205  -0.32776  -0.22994  -0.04184
  24   33309.9    300.2   0.002981325   0.02947  -0.03841  -0.15658  -0.05894
  25   33649.4    297.2   0.128469963   1.25690   0.16814  -0.61135  -0.92459
  26   33792.9    295.9   0.011809222   0.11505  -0.18388   0.11434   0.26108
  27   34099.2    293.3   0.443081761   4.27775  -1.17626  -1.61996  -0.51950
  28   34820.0    287.2   0.454894482   4.30088   0.33089   0.66330  -1.93686
  29   35060.1    285.2   0.120663829   1.13303  -0.61408  -0.84269  -0.21401
  30   35199.6    284.1   0.038285515   0.35807   0.03181   0.16300   0.57488
  31   35547.2    281.3   0.008823411   0.08172  -0.11432   0.23107   0.12350
  32   36057.7    277.3   0.341790235   3.12059  -0.98383   0.61284   1.33308
  33   36137.1    276.7   0.046153772   0.42046   0.23760  -0.55509  -0.23640
  34   36199.2    276.2   0.001471098   0.01338  -0.03431   0.10097   0.04479
  35   36662.4    272.8   0.001860696   0.01671  -0.00340  -0.08192  -0.09993
  36   36913.7    270.9   0.012734141   0.11357   0.02913  -0.09223  -0.32282
  37   37001.6    270.3   0.029209665   0.25988  -0.05710   0.23788   0.44725
  38   37182.6    268.9   0.006510546   0.05764   0.08288   0.15811   0.16055
  39   37349.1    267.7   0.081568217   0.71898  -0.05342  -0.48845  -0.69104
  40   37672.9    265.4   0.026189694   0.22886   0.07670   0.24942   0.40096
  41   37747.3    264.9   0.011307829   0.09862  -0.21345  -0.08650   0.21350
  42   38057.6    262.8   0.016730397   0.14472  -0.08186   0.21659   0.30185
  43   38089.9    262.5   0.000770167   0.00666  -0.07500  -0.00909   0.03080
  44   38205.7    261.7   0.009413932   0.08112  -0.10428   0.16068   0.21077
  45   38327.3    260.9   0.081337804   0.69865   0.17955  -0.72184  -0.38125
  46   38453.7    260.1   0.159784200   1.36796  -1.03369  -0.52601   0.15087
  47   38602.4    259.1   0.025507608   0.21754  -0.07260  -0.46049  -0.01447
  48   38690.7    258.5   0.005772103   0.04911   0.17946   0.12999  -0.00302
  49   39130.5    255.6   0.023319024   0.19619  -0.35263  -0.20449  -0.17327
  50   39735.2    251.7   0.112127278   0.92899  -0.51724   0.36437   0.72710
  51   39759.6    251.5   0.123528170   1.02282   0.37379  -0.57181  -0.74575
  52   39930.2    250.4   0.052819976   0.43548  -0.32057   0.34512   0.46218
  53   40084.1    249.5   0.126860561   1.04191   0.03743   0.98911  -0.24934
  54   40150.6    249.1   0.001639430   0.01344   0.07882  -0.04653  -0.07116
  55   40289.7    248.2   0.003558913   0.02908   0.03079  -0.08756   0.14306

FINAL SINGLE POINT ENERGY    -14218.489381688041

DIPOLE MOMENT
-------------
                                X             Y             Z
Electronic contribution:     74.81526      71.11615      34.63729
Nuclear contribution   :    -73.77620     -69.64610     -32.77892
                        -----------------------------------------
Total Dipole Moment    :      1.03906       1.47005       1.85837
                        -----------------------------------------
Magnitude (a.u.)       :      2.58732
Magnitude (Debye)      :      6.57645

Rotational constants in cm-1:     0.002043     0.000126     0.000121
Rotational constants in MHz :    61.259505     3.776592     3.623640

                             ****ORCA TERMINATED NORMALLY****
TOTAL RUN TIME: 0 days 0 hours 7 minutes 51 seconds 594 msec
