                         Program Version 4.2.0 -  RELEASE  -
|  1> # ORCA input file
|  2> # SCF done       -228.289960306823          0.000754185251
|  3> ! CAM-B3LYP def2-SVP def2/J RIJCOSX Grid4 TightSCF
|  4> %maxcore 5000
|  5> %tddft
|  6>     Mode sTDDFT
|  7>     Ethresh 5.0
|  8>     maxcore 5000
|  9> end
| 10>
| 11> %pal
| 12>   nprocs 6
| 13>   end
| 14> * xyz 0 1
| 15>    C       -2.27447        -6.21737         8.98890
| 16>    O       -2.96395        -6.85146         8.22387
| 17>    C       -2.48907        -6.02622        10.43142
| 18>    C       -1.45617        -5.23662        10.97320
| 19>    C       -1.45983        -4.93929        12.32716
| 20>    C       -2.49431        -5.42962        13.11551
| 21>    C       -3.52032        -6.20742        12.56653
| 22>    C       -3.51983        -6.51176        11.21243
| 23>   Br       -4.91469        -6.85204        13.66090
| 24>   Br       -2.49688        -5.03212        14.95935
| 25>    C       -0.53344        -4.85867         9.91019
| 26>    C        0.50092        -3.97520        10.01035
| 27>    C        0.87401        -3.33091        11.21245
| 28>    N        1.21615        -2.78918        12.16302
| 29>    C        1.30372        -3.55718         8.92348
| 30>    N        1.97553        -3.16131         8.08304
| 31>    C       -0.98543        -5.51676         8.68885
| 32>    C       -0.31990        -5.62724         7.52263
| 33>    C       -0.87530        -6.24890         6.33876
| 34>    C       -2.14182        -5.96244         5.81885
| 35>    C       -3.09526        -4.91239         6.26885
| 36>    O       -2.99553        -4.11216         7.14565
| 37>    O       -4.17121        -4.97193         5.43454
| 38>    C       -4.01355        -5.94343         4.47559
| 39>    O       -4.84323        -6.12863         3.64249
| 40>    C       -2.69262        -6.59484         4.70534
| 41>    C       -2.00209        -7.59524         3.97904
| 42>    C       -0.69643        -7.81820         4.46296
| 43>    C       -0.16868        -7.18322         5.58204
| 44>    C        1.19616        -7.71934         5.81024
| 45>    O        1.97105        -7.46291         6.67763
| 46>    O        1.44074        -8.62049         4.81205
| 47>    C        0.35685        -8.74476         3.96762
| 48>    O        0.36041        -9.48517         3.03725
| 49>    C       -2.46727        -8.35416         2.85249
| 50>    C       -3.74838        -8.56023         2.48609
| 51>    C       -4.07713        -9.36198         1.34918
| 52>    O       -5.39654        -9.54704         1.04535
| 53>    C       -5.39434       -10.31756        -0.05841
| 54>    C       -4.02810       -10.58263        -0.39009
| 55>    N       -3.25208        -9.95246         0.53712
| 56>    C       -3.67139       -11.35569        -1.48559
| 57>    C       -4.74092       -11.83995        -2.21720
| 58>    C       -6.09541       -11.55585        -1.86873
| 59>    C       -6.47089       -10.79333        -0.78078
| 60>    O       -6.88259       -12.16596        -2.78094
| 61>    C       -6.01207       -12.78331        -3.62099
| 62>    N       -4.76436       -12.62892        -3.33963
| 63>    C       -6.54020       -13.50032        -4.77438
| 64>    C       -6.21492       -14.82837        -5.06664
| 65>    C       -5.42325       -15.68932        -4.15537
| 66>    O       -5.06153       -15.45611        -3.04754
| 67>    S       -5.15648       -17.27575        -4.96394
| 68>    C       -6.18608       -16.85918        -6.35346
| 69>    O       -6.41125       -17.63036        -7.24377
| 70>    C       -6.68467       -15.47130        -6.21054
| 71>    C       -7.53312       -14.84265        -7.14634
| 72>    C       -7.89202       -13.52832        -6.81391
| 73>    C       -7.40539       -12.88720        -5.67785
| 74>    C       -7.95528       -11.50426        -5.66749
| 75>    O       -7.73692       -10.59523        -4.93546
| 76>    O       -8.81093       -11.41614        -6.73791
| 77>    C       -8.83812       -12.57859        -7.46524
| 78>    O       -9.54093       -12.71787        -8.41526
| 79>    C       -7.95436       -15.53629        -8.34276
| 80>    C       -8.06512       -14.97490        -9.55697
| 81>    C       -8.41141       -15.71868       -10.73584
| 82>    C       -7.99620       -16.94912       -11.10213
| 83>    C       -8.72176       -17.67071       -12.19694
| 84>    O       -9.50805       -17.19269       -12.97424
| 85>    C       -8.30226       -19.07948       -12.06405
| 86>    C       -7.29819       -19.18308       -11.08222
| 87>    C       -6.97534       -17.85054       -10.57955
| 88>    C       -5.81518       -17.51629        -9.94506
| 89>    C       -5.42790       -16.20678        -9.59239
| 90>    N       -5.03834       -15.17571        -9.27325
| 91>    C       -4.81159       -18.45204        -9.60034
| 92>    N       -3.96178       -19.16555        -9.31361
| 93>    C       -6.78361       -20.42590       -10.75096
| 94>    C       -7.26623       -21.54481       -11.41904
| 95>    C       -8.24777       -21.43106       -12.40982
| 96>    C       -8.77685       -20.18910       -12.73474
| 97>   Br       -8.87394       -22.96558       -13.31425
| 98>   Br       -6.57241       -23.24059       -10.96355
| 99>    H       -0.68488        -4.34606        12.78537
|100>    H       -4.30442        -7.11124        10.77725
|101>    H        0.70714        -5.29603         7.43697
|102>    H       -1.69917        -8.85635         2.27873
|103>    H       -4.59290        -8.14762         3.01446
|104>    H       -2.64799       -11.56359        -1.74117
|105>    H       -7.49534       -10.58288        -0.52882
|106>    H       -8.10816       -16.60199        -8.23857
|107>    H       -7.93050       -13.91159        -9.69246
|108>    H       -9.12395       -15.24396       -11.40459
|109>    H       -6.03573       -20.54721        -9.98393
|110>    H       -9.54043       -20.09165       -13.49086
|111> *
|112>
|113>                          ****END OF INPUT****

CARTESIAN COORDINATES (ANGSTROEM)
---------------------------------
  C     -2.274470   -6.217370    8.988900
  O     -2.963950   -6.851460    8.223870
  C     -2.489070   -6.026220   10.431420
  C     -1.456170   -5.236620   10.973200
  C     -1.459830   -4.939290   12.327160
  C     -2.494310   -5.429620   13.115510
  C     -3.520320   -6.207420   12.566530
  C     -3.519830   -6.511760   11.212430
  Br    -4.914690   -6.852040   13.660900
  Br    -2.496880   -5.032120   14.959350
  C     -0.533440   -4.858670    9.910190
  C      0.500920   -3.975200   10.010350
  C      0.874010   -3.330910   11.212450
  N      1.216150   -2.789180   12.163020
  C      1.303720   -3.557180    8.923480
  N      1.975530   -3.161310    8.083040
  C     -0.985430   -5.516760    8.688850
  C     -0.319900   -5.627240    7.522630
  C     -0.875300   -6.248900    6.338760
  C     -2.141820   -5.962440    5.818850
  C     -3.095260   -4.912390    6.268850
  O     -2.995530   -4.112160    7.145650
  O     -4.171210   -4.971930    5.434540
  C     -4.013550   -5.943430    4.475590
  O     -4.843230   -6.128630    3.642490
  C     -2.692620   -6.594840    4.705340
  C     -2.002090   -7.595240    3.979040
  C     -0.696430   -7.818200    4.462960
  C     -0.168680   -7.183220    5.582040
  C      1.196160   -7.719340    5.810240
  O      1.971050   -7.462910    6.677630
  O      1.440740   -8.620490    4.812050
  C      0.356850   -8.744760    3.967620
  O      0.360410   -9.485170    3.037250
  C     -2.467270   -8.354160    2.852490
  C     -3.748380   -8.560230    2.486090
  C     -4.077130   -9.361980    1.349180
  O     -5.396540   -9.547040    1.045350
  C     -5.394340  -10.317560   -0.058410
  C     -4.028100  -10.582630   -0.390090
  N     -3.252080   -9.952460    0.537120
  C     -3.671390  -11.355690   -1.485590
  C     -4.740920  -11.839950   -2.217200
  C     -6.095410  -11.555850   -1.868730
  C     -6.470890  -10.793330   -0.780780
  O     -6.882590  -12.165960   -2.780940
  C     -6.012070  -12.783310   -3.620990
  N     -4.764360  -12.628920   -3.339630
  C     -6.540200  -13.500320   -4.774380
  C     -6.214920  -14.828370   -5.066640
  C     -5.423250  -15.689320   -4.155370
  O     -5.061530  -15.456110   -3.047540
  S     -5.156480  -17.275750   -4.963940
  C     -6.186080  -16.859180   -6.353460
  O     -6.411250  -17.630360   -7.243770
  C     -6.684670  -15.471300   -6.210540
  C     -7.533120  -14.842650   -7.146340
  C     -7.892020  -13.528320   -6.813910
  C     -7.405390  -12.887200   -5.677850
  C     -7.955280  -11.504260   -5.667490
  O     -7.736920  -10.595230   -4.935460
  O     -8.810930  -11.416140   -6.737910
  C     -8.838120  -12.578590   -7.465240
  O     -9.540930  -12.717870   -8.415260
  C     -7.954360  -15.536290   -8.342760
  C     -8.065120  -14.974900   -9.556970
  C     -8.411410  -15.718680  -10.735840
  C     -7.996200  -16.949120  -11.102130
  C     -8.721760  -17.670710  -12.196940
  O     -9.508050  -17.192690  -12.974240
  C     -8.302260  -19.079480  -12.064050
  C     -7.298190  -19.183080  -11.082220
  C     -6.975340  -17.850540  -10.579550
  C     -5.815180  -17.516290   -9.945060
  C     -5.427900  -16.206780   -9.592390
  N     -5.038340  -15.175710   -9.273250
  C     -4.811590  -18.452040   -9.600340
  N     -3.961780  -19.165550   -9.313610
  C     -6.783610  -20.425900  -10.750960
  C     -7.266230  -21.544810  -11.419040
  C     -8.247770  -21.431060  -12.409820
  C     -8.776850  -20.189100  -12.734740
  Br    -8.873940  -22.965580  -13.314250
  Br    -6.572410  -23.240590  -10.963550
  H     -0.684880   -4.346060   12.785370
  H     -4.304420   -7.111240   10.777250
  H      0.707140   -5.296030    7.436970
  H     -1.699170   -8.856350    2.278730
  H     -4.592900   -8.147620    3.014460
  H     -2.647990  -11.563590   -1.741170
  H     -7.495340  -10.582880   -0.528820
  H     -8.108160  -16.601990   -8.238570
  H     -7.930500  -13.911590   -9.692460
  H     -9.123950  -15.243960  -11.404590
  H     -6.035730  -20.547210   -9.983930
  H     -9.540430  -20.091650  -13.490860

 Total Charge           Charge          ....    0
 Multiplicity           Mult            ....    1
 Number of Electrons    NEL             ....  678
 Basis Dimension        Dim             .... 1312

ORBITAL ENERGIES
----------------

  NO   OCC          E(Eh)            E(eV)
   0   2.0000    -482.888746    -13140.0708
   1   2.0000    -482.887710    -13140.0426
   2   2.0000    -482.884010    -13139.9419
   3   2.0000    -482.882974    -13139.9137
   4   2.0000     -88.970153     -2421.0009
   5   2.0000     -62.566393     -1702.5181
   6   2.0000     -62.565336     -1702.4893
   7   2.0000     -62.561599     -1702.3876
   8   2.0000     -62.560578     -1702.3599
   9   2.0000     -56.400356     -1534.7317
  10   2.0000     -56.399311     -1534.7033
  11   2.0000     -56.397683     -1534.6590
  12   2.0000     -56.397578     -1534.6561
  13   2.0000     -56.396630     -1534.6303
  14   2.0000     -56.396510     -1534.6270
  15   2.0000     -56.395558     -1534.6011
  16   2.0000     -56.394543     -1534.5735
  17   2.0000     -56.392894     -1534.5286
  18   2.0000     -56.392796     -1534.5260
  19   2.0000     -56.391872     -1534.5009
  20   2.0000     -56.391767     -1534.4980
  21   2.0000     -19.313366      -525.5434
  22   2.0000     -19.310335      -525.4609
  23   2.0000     -19.309812      -525.4467
  24   2.0000     -19.309537      -525.4392
  25   2.0000     -19.308261      -525.4045
  26   2.0000     -19.264834      -524.2228
  27   2.0000     -19.260821      -524.1136
  28   2.0000     -19.257102      -524.0124
  29   2.0000     -19.257069      -524.0115
  30   2.0000     -19.256726      -524.0021
  31   2.0000     -19.256422      -523.9939
  32   2.0000     -19.255223      -523.9612
  33   2.0000     -19.253323      -523.9095
  34   2.0000     -19.248205      -523.7703
  35   2.0000     -19.234864      -523.4073
  36   2.0000     -14.435476      -392.8093
  37   2.0000     -14.435046      -392.7976
  38   2.0000     -14.432767      -392.7356
  39   2.0000     -14.427635      -392.5959
  40   2.0000     -14.425084      -392.5265
  41   2.0000     -14.421570      -392.4309
  42   2.0000     -10.452820      -284.4357
  43   2.0000     -10.452575      -284.4290
  44   2.0000     -10.450473      -284.3718
  45   2.0000     -10.450031      -284.3598
  46   2.0000     -10.449188      -284.3369
  47   2.0000     -10.449056      -284.3333
  48   2.0000     -10.427844      -283.7561
  49   2.0000     -10.423200      -283.6297
  50   2.0000     -10.399014      -282.9715
  51   2.0000     -10.391659      -282.7714
  52   2.0000     -10.385458      -282.6027
  53   2.0000     -10.381271      -282.4887
  54   2.0000     -10.370221      -282.1881
  55   2.0000     -10.369011      -282.1551
  56   2.0000     -10.367932      -282.1258
  57   2.0000     -10.363588      -282.0076
  58   2.0000     -10.362912      -281.9892
  59   2.0000     -10.362351      -281.9739
  60   2.0000     -10.361969      -281.9635
  61   2.0000     -10.360903      -281.9345
  62   2.0000     -10.360361      -281.9197
  63   2.0000     -10.358786      -281.8769
  64   2.0000     -10.357141      -281.8321
  65   2.0000     -10.354606      -281.7632
  66   2.0000     -10.353975      -281.7460
  67   2.0000     -10.353638      -281.7368
  68   2.0000     -10.353425      -281.7310
  69   2.0000     -10.351751      -281.6855
  70   2.0000     -10.350352      -281.6474
  71   2.0000     -10.349726      -281.6304
  72   2.0000     -10.349276      -281.6181
  73   2.0000     -10.348108      -281.5863
  74   2.0000     -10.347427      -281.5678
  75   2.0000     -10.344231      -281.4808
  76   2.0000     -10.341668      -281.4111
  77   2.0000     -10.336208      -281.2625
  78   2.0000     -10.335775      -281.2507
  79   2.0000     -10.335627      -281.2467
  80   2.0000     -10.334913      -281.2273
  81   2.0000     -10.331336      -281.1300
  82   2.0000     -10.330541      -281.1083
  83   2.0000     -10.329075      -281.0684
  84   2.0000     -10.328554      -281.0542
  85   2.0000     -10.327682      -281.0305
  86   2.0000     -10.326211      -280.9905
  87   2.0000     -10.321213      -280.8545
  88   2.0000     -10.321106      -280.8516
  89   2.0000     -10.320162      -280.8259
  90   2.0000     -10.320021      -280.8220
  91   2.0000     -10.318093      -280.7696
  92   2.0000     -10.317149      -280.7439
  93   2.0000     -10.317032      -280.7407
  94   2.0000     -10.315441      -280.6974
  95   2.0000     -10.314185      -280.6632
  96   2.0000     -10.314110      -280.6612
  97   2.0000     -10.309217      -280.5281
  98   2.0000     -10.302627      -280.3487
  99   2.0000     -10.293058      -280.0883
 100   2.0000      -8.795754      -239.3446
 101   2.0000      -8.794678      -239.3154
 102   2.0000      -8.790907      -239.2127
 103   2.0000      -8.789903      -239.1854
 104   2.0000      -8.069373      -219.5788
 105   2.0000      -6.631953      -180.4646
 106   2.0000      -6.630905      -180.4361
 107   2.0000      -6.627066      -180.3316
 108   2.0000      -6.626076      -180.3047
 109   2.0000      -6.617861      -180.0812
 110   2.0000      -6.617030      -180.0585
 111   2.0000      -6.616788      -180.0519
 112   2.0000      -6.615918      -180.0283
 113   2.0000      -6.613023      -179.9495
 114   2.0000      -6.612218      -179.9276
 115   2.0000      -6.612019      -179.9222
 116   2.0000      -6.611195      -179.8998
 117   2.0000      -6.038245      -164.3090
 118   2.0000      -6.034916      -164.2184
 119   2.0000      -6.030421      -164.0961
 120   2.0000      -2.747811       -74.7717
 121   2.0000      -2.746788       -74.7439
 122   2.0000      -2.744102       -74.6708
 123   2.0000      -2.743431       -74.6526
 124   2.0000      -2.743013       -74.6412
 125   2.0000      -2.742961       -74.6398
 126   2.0000      -2.742364       -74.6235
 127   2.0000      -2.742000       -74.6136
 128   2.0000      -2.739195       -74.5373
 129   2.0000      -2.738588       -74.5208
 130   2.0000      -2.738198       -74.5101
 131   2.0000      -2.737555       -74.4927
 132   2.0000      -2.732222       -74.3475
 133   2.0000      -2.732209       -74.3472
 134   2.0000      -2.731110       -74.3173
 135   2.0000      -2.731108       -74.3172
 136   2.0000      -2.727408       -74.2165
 137   2.0000      -2.727387       -74.2160
 138   2.0000      -2.726364       -74.1881
 139   2.0000      -2.726360       -74.1880
 140   2.0000      -1.261265       -34.3208
 141   2.0000      -1.260282       -34.2940
 142   2.0000      -1.258018       -34.2324
 143   2.0000      -1.245349       -33.8877
 144   2.0000      -1.240515       -33.7561
 145   2.0000      -1.189226       -32.3605
 146   2.0000      -1.185826       -32.2680
 147   2.0000      -1.185397       -32.2563
 148   2.0000      -1.184419       -32.2297
 149   2.0000      -1.184342       -32.2276
 150   2.0000      -1.164734       -31.6940
 151   2.0000      -1.151469       -31.3331
 152   2.0000      -1.148005       -31.2388
 153   2.0000      -1.146913       -31.2091
 154   2.0000      -1.146515       -31.1983
 155   2.0000      -1.043377       -28.3917
 156   2.0000      -1.042822       -28.3766
 157   2.0000      -1.036848       -28.2141
 158   2.0000      -1.035910       -28.1885
 159   2.0000      -1.033349       -28.1188
 160   2.0000      -1.030996       -28.0548
 161   2.0000      -1.024998       -27.8916
 162   2.0000      -1.020319       -27.7643
 163   2.0000      -1.013250       -27.5719
 164   2.0000      -1.008245       -27.4357
 165   2.0000      -0.994715       -27.0676
 166   2.0000      -0.988582       -26.9007
 167   2.0000      -0.974514       -26.5179
 168   2.0000      -0.971316       -26.4309
 169   2.0000      -0.959206       -26.1013
 170   2.0000      -0.953489       -25.9457
 171   2.0000      -0.942604       -25.6496
 172   2.0000      -0.937553       -25.5121
 173   2.0000      -0.932561       -25.3763
 174   2.0000      -0.927882       -25.2490
 175   2.0000      -0.926329       -25.2067
 176   2.0000      -0.920694       -25.0534
 177   2.0000      -0.918750       -25.0005
 178   2.0000      -0.905480       -24.6394
 179   2.0000      -0.898053       -24.4373
 180   2.0000      -0.889086       -24.1933
 181   2.0000      -0.871992       -23.7281
 182   2.0000      -0.868157       -23.6237
 183   2.0000      -0.862370       -23.4663
 184   2.0000      -0.861442       -23.4410
 185   2.0000      -0.855686       -23.2844
 186   2.0000      -0.841346       -22.8942
 187   2.0000      -0.826394       -22.4873
 188   2.0000      -0.819367       -22.2961
 189   2.0000      -0.818147       -22.2629
 190   2.0000      -0.807204       -21.9651
 191   2.0000      -0.797932       -21.7128
 192   2.0000      -0.791685       -21.5428
 193   2.0000      -0.788383       -21.4530
 194   2.0000      -0.784442       -21.3458
 195   2.0000      -0.781704       -21.2712
 196   2.0000      -0.776559       -21.1312
 197   2.0000      -0.771574       -20.9956
 198   2.0000      -0.761851       -20.7310
 199   2.0000      -0.745198       -20.2779
 200   2.0000      -0.739673       -20.1275
 201   2.0000      -0.735197       -20.0057
 202   2.0000      -0.725500       -19.7419
 203   2.0000      -0.717929       -19.5358
 204   2.0000      -0.713684       -19.4203
 205   2.0000      -0.713090       -19.4042
 206   2.0000      -0.708672       -19.2839
 207   2.0000      -0.699804       -19.0426
 208   2.0000      -0.697291       -18.9743
 209   2.0000      -0.689812       -18.7707
 210   2.0000      -0.675846       -18.3907
 211   2.0000      -0.675213       -18.3735
 212   2.0000      -0.670080       -18.2338
 213   2.0000      -0.667216       -18.1559
 214   2.0000      -0.661109       -17.9897
 215   2.0000      -0.658604       -17.9215
 216   2.0000      -0.654337       -17.8054
 217   2.0000      -0.650000       -17.6874
 218   2.0000      -0.644540       -17.5388
 219   2.0000      -0.642057       -17.4713
 220   2.0000      -0.637207       -17.3393
 221   2.0000      -0.634937       -17.2775
 222   2.0000      -0.630604       -17.1596
 223   2.0000      -0.624155       -16.9841
 224   2.0000      -0.622746       -16.9458
 225   2.0000      -0.618103       -16.8194
 226   2.0000      -0.616156       -16.7665
 227   2.0000      -0.614424       -16.7193
 228   2.0000      -0.605073       -16.4649
 229   2.0000      -0.603373       -16.4186
 230   2.0000      -0.596288       -16.2258
 231   2.0000      -0.594818       -16.1858
 232   2.0000      -0.593490       -16.1497
 233   2.0000      -0.591073       -16.0839
 234   2.0000      -0.586481       -15.9590
 235   2.0000      -0.584655       -15.9093
 236   2.0000      -0.580294       -15.7906
 237   2.0000      -0.578998       -15.7553
 238   2.0000      -0.577739       -15.7211
 239   2.0000      -0.573501       -15.6058
 240   2.0000      -0.571443       -15.5498
 241   2.0000      -0.569563       -15.4986
 242   2.0000      -0.567932       -15.4542
 243   2.0000      -0.567673       -15.4472
 244   2.0000      -0.562646       -15.3104
 245   2.0000      -0.560407       -15.2495
 246   2.0000      -0.559122       -15.2145
 247   2.0000      -0.557764       -15.1775
 248   2.0000      -0.557307       -15.1651
 249   2.0000      -0.555864       -15.1258
 250   2.0000      -0.554867       -15.0987
 251   2.0000      -0.552492       -15.0341
 252   2.0000      -0.551583       -15.0093
 253   2.0000      -0.551061       -14.9951
 254   2.0000      -0.546311       -14.8659
 255   2.0000      -0.542712       -14.7679
 256   2.0000      -0.539690       -14.6857
 257   2.0000      -0.538744       -14.6600
 258   2.0000      -0.535125       -14.5615
 259   2.0000      -0.531887       -14.4734
 260   2.0000      -0.528270       -14.3750
 261   2.0000      -0.525704       -14.3051
 262   2.0000      -0.525253       -14.2928
 263   2.0000      -0.523986       -14.2584
 264   2.0000      -0.522317       -14.2130
 265   2.0000      -0.520274       -14.1574
 266   2.0000      -0.516973       -14.0676
 267   2.0000      -0.515324       -14.0227
 268   2.0000      -0.513189       -13.9646
 269   2.0000      -0.510952       -13.9037
 270   2.0000      -0.507658       -13.8141
 271   2.0000      -0.504917       -13.7395
 272   2.0000      -0.504718       -13.7341
 273   2.0000      -0.502417       -13.6715
 274   2.0000      -0.500508       -13.6195
 275   2.0000      -0.499202       -13.5840
 276   2.0000      -0.499187       -13.5836
 277   2.0000      -0.494252       -13.4493
 278   2.0000      -0.493671       -13.4335
 279   2.0000      -0.482682       -13.1344
 280   2.0000      -0.479696       -13.0532
 281   2.0000      -0.478287       -13.0148
 282   2.0000      -0.475513       -12.9394
 283   2.0000      -0.472849       -12.8669
 284   2.0000      -0.468827       -12.7574
 285   2.0000      -0.465746       -12.6736
 286   2.0000      -0.465338       -12.6625
 287   2.0000      -0.460952       -12.5431
 288   2.0000      -0.460671       -12.5355
 289   2.0000      -0.456920       -12.4334
 290   2.0000      -0.455816       -12.4034
 291   2.0000      -0.452485       -12.3127
 292   2.0000      -0.451419       -12.2837
 293   2.0000      -0.447315       -12.1721
 294   2.0000      -0.445508       -12.1229
 295   2.0000      -0.444337       -12.0910
 296   2.0000      -0.442914       -12.0523
 297   2.0000      -0.437659       -11.9093
 298   2.0000      -0.432221       -11.7613
 299   2.0000      -0.431728       -11.7479
 300   2.0000      -0.430521       -11.7151
 301   2.0000      -0.429901       -11.6982
 302   2.0000      -0.428746       -11.6668
 303   2.0000      -0.428163       -11.6509
 304   2.0000      -0.424804       -11.5595
 305   2.0000      -0.416199       -11.3254
 306   2.0000      -0.414014       -11.2659
 307   2.0000      -0.413164       -11.2428
 308   2.0000      -0.412106       -11.2140
 309   2.0000      -0.411305       -11.1922
 310   2.0000      -0.407850       -11.0982
 311   2.0000      -0.403106       -10.9691
 312   2.0000      -0.401366       -10.9217
 313   2.0000      -0.398483       -10.8433
 314   2.0000      -0.396826       -10.7982
 315   2.0000      -0.395623       -10.7654
 316   2.0000      -0.393505       -10.7078
 317   2.0000      -0.391143       -10.6436
 318   2.0000      -0.389866       -10.6088
 319   2.0000      -0.389350       -10.5948
 320   2.0000      -0.384738       -10.4693
 321   2.0000      -0.381702       -10.3866
 322   2.0000      -0.377468       -10.2714
 323   2.0000      -0.373475       -10.1628
 324   2.0000      -0.368167       -10.0183
 325   2.0000      -0.366065        -9.9611
 326   2.0000      -0.364878        -9.9288
 327   2.0000      -0.361982        -9.8500
 328   2.0000      -0.358111        -9.7447
 329   2.0000      -0.355869        -9.6837
 330   2.0000      -0.351356        -9.5609
 331   2.0000      -0.350551        -9.5390
 332   2.0000      -0.343827        -9.3560
 333   2.0000      -0.335021        -9.1164
 334   2.0000      -0.325889        -8.8679
 335   2.0000      -0.324749        -8.8369
 336   2.0000      -0.318273        -8.6606
 337   2.0000      -0.308042        -8.3823
 338   2.0000      -0.290610        -7.9079
 339   0.0000      -0.119847        -3.2612
 340   0.0000      -0.114437        -3.1140
 341   0.0000      -0.105508        -2.8710
 342   0.0000      -0.104849        -2.8531
 343   0.0000      -0.093226        -2.5368

MULLIKEN ATOMIC CHARGES
-----------------------
   0 C :    0.165822
   1 O :   -0.147692
   2 C :   -0.023424
   3 C :    0.046136
   4 C :   -0.007938
   5 C :   -0.022058
   6 C :   -0.015352
   7 C :   -0.010675
   8 Br:    0.027450
   9 Br:    0.036118
  10 C :    0.282862
  11 C :   -0.304192
  12 C :   -0.187726
  13 N :    0.173621
  14 C :   -0.192670
  15 N :    0.178492
  16 C :   -0.032724
  17 C :   -0.047835
  18 C :   -0.005634
  19 C :   -0.019824
  20 C :    0.232443
  21 O :   -0.104817
  22 O :   -0.213072
  23 C :    0.239733
  24 O :   -0.097425
  25 C :   -0.075755
  26 C :    0.065200
  27 C :   -0.074119
  28 C :   -0.061864
  29 C :    0.243179
  30 O :   -0.098660
  31 O :   -0.226474
  32 C :    0.240278
  33 O :   -0.085406
  34 C :   -0.039743
  35 C :    0.035715
  36 C :    0.088332
  37 O :   -0.190012
  38 C :    0.213741
  39 C :    0.013807
  40 N :   -0.031736
  41 C :   -0.070960
  42 C :    0.028537
  43 C :    0.228755
  44 C :   -0.150971
  45 O :   -0.183818
  46 C :    0.017660
  47 N :   -0.023947
  48 C :    0.028194
  49 C :    0.052721
  50 C :    0.042936
  51 O :   -0.088150
  52 S :    0.055503
  53 C :    0.055052
  54 O :   -0.150318
  55 C :    0.052183
  56 C :    0.054018
  57 C :   -0.083545
  58 C :   -0.049207
  59 C :    0.246134
  60 O :   -0.081802
  61 O :   -0.223423
  62 C :    0.230671
  63 O :   -0.095487
  64 C :   -0.038227
  65 C :    0.056702
  66 C :    0.004224
  67 C :   -0.108508
  68 C :    0.137529
  69 O :   -0.122365
  70 C :   -0.000039
  71 C :    0.017657
  72 C :    0.273167
  73 C :   -0.301708
  74 C :   -0.199800
  75 N :    0.171929
  76 C :   -0.188881
  77 N :    0.176620
  78 C :   -0.007035
  79 C :   -0.022984
  80 C :   -0.016925
  81 C :   -0.020169
  82 Br:    0.020893
  83 Br:    0.028139
  84 H :    0.012214
  85 H :    0.009854
  86 H :    0.056140
  87 H :    0.043693
  88 H :    0.027824
  89 H :   -0.013856
  90 H :   -0.007340
  91 H :    0.043600
  92 H :    0.035440
  93 H :    0.046176
  94 H :    0.017668
  95 H :    0.011528
Sum of atomic charges:   -0.0000000

LOEWDIN ATOMIC CHARGES
----------------------
   0 C :    0.095512
   1 O :   -0.132322
   2 C :   -0.042861
   3 C :   -0.005985
   4 C :   -0.004849
   5 C :   -0.113524
   6 C :   -0.121507
   7 C :    0.013394
   8 Br:    0.148606
   9 Br:    0.154200
  10 C :    0.070621
  11 C :   -0.106980
  12 C :   -0.018863
  13 N :   -0.028226
  14 C :   -0.020637
  15 N :   -0.026518
  16 C :   -0.048941
  17 C :    0.065787
  18 C :    0.011159
  19 C :   -0.014996
  20 C :    0.105938
  21 O :   -0.100332
  22 O :   -0.040216
  23 C :    0.115143
  24 O :   -0.089099
  25 C :   -0.045479
  26 C :    0.040059
  27 C :   -0.047652
  28 C :   -0.031450
  29 C :    0.104902
  30 O :   -0.092838
  31 O :   -0.050280
  32 C :    0.111655
  33 O :   -0.082166
  34 C :   -0.005421
  35 C :    0.008052
  36 C :    0.054812
  37 O :    0.000478
  38 C :    0.041041
  39 C :   -0.035021
  40 N :   -0.083546
  41 C :   -0.004584
  42 C :   -0.032241
  43 C :    0.045418
  44 C :   -0.056640
  45 O :    0.006580
  46 C :    0.049355
  47 N :   -0.073662
  48 C :    0.009059
  49 C :   -0.027596
  50 C :   -0.041029
  51 O :   -0.081604
  52 S :    0.335139
  53 C :   -0.038375
  54 O :   -0.118207
  55 C :   -0.045298
  56 C :    0.045137
  57 C :   -0.043671
  58 C :   -0.026629
  59 C :    0.105203
  60 O :   -0.080860
  61 O :   -0.049603
  62 C :    0.107109
  63 O :   -0.092402
  64 C :   -0.010539
  65 C :    0.021914
  66 C :    0.063541
  67 C :   -0.069185
  68 C :    0.085375
  69 O :   -0.122451
  70 C :   -0.047050
  71 C :   -0.007580
  72 C :    0.061397
  73 C :   -0.111538
  74 C :   -0.013422
  75 N :   -0.050180
  76 C :   -0.020195
  77 N :   -0.035076
  78 C :   -0.006219
  79 C :   -0.116097
  80 C :   -0.123002
  81 C :    0.009290
  82 Br:    0.142878
  83 Br:    0.147817
  84 H :    0.046287
  85 H :    0.048156
  86 H :    0.053646
  87 H :    0.046522
  88 H :    0.039935
  89 H :    0.047199
  90 H :    0.046921
  91 H :    0.038020
  92 H :    0.042025
  93 H :    0.054709
  94 H :    0.046787
  95 H :    0.047868

  Mayer bond orders larger than 0.100000
B(  0-C ,  1-O ) :   2.2031 B(  0-C ,  2-C ) :   0.9651 B(  0-C , 16-C ) :   0.9167
B(  2-C ,  3-C ) :   1.3202 B(  2-C ,  7-C ) :   1.3612 B(  3-C ,  4-C ) :   1.3570
B(  3-C , 10-C ) :   1.0067 B(  4-C ,  5-C ) :   1.3760 B(  4-C , 84-H ) :   0.9797
B(  5-C ,  6-C ) :   1.4062 B(  5-C ,  9-Br) :   1.0663 B(  6-C ,  7-C ) :   1.3601
B(  6-C ,  8-Br) :   1.0416 B(  7-C , 85-H ) :   1.0084 B( 10-C , 11-C ) :   1.6997
B( 10-C , 16-C ) :   1.0299 B( 11-C , 12-C ) :   1.1308 B( 11-C , 14-C ) :   1.1366
B( 12-C , 13-N ) :   2.9792 B( 14-C , 15-N ) :   2.9891 B( 16-C , 17-C ) :   1.7471
B( 17-C , 18-C ) :   1.0409 B( 17-C , 86-H ) :   0.9242 B( 18-C , 19-C ) :   1.3524
B( 18-C , 28-C ) :   1.3901 B( 19-C , 20-C ) :   0.8850 B( 19-C , 25-C ) :   1.3987
B( 20-C , 21-O ) :   2.2553 B( 20-C , 22-O ) :   1.0722 B( 22-O , 23-C ) :   1.0557
B( 23-C , 24-O ) :   2.2284 B( 23-C , 25-C ) :   0.9016 B( 25-C , 26-C ) :   1.2743
B( 26-C , 27-C ) :   1.3318 B( 26-C , 34-C ) :   1.1269 B( 27-C , 28-C ) :   1.3416
B( 27-C , 32-C ) :   0.9101 B( 28-C , 29-C ) :   0.8965 B( 29-C , 30-O ) :   2.2433
B( 29-C , 31-O ) :   1.0723 B( 31-O , 32-C ) :   1.0422 B( 32-C , 33-O ) :   2.2440
B( 34-C , 35-C ) :   1.6803 B( 34-C , 87-H ) :   0.9534 B( 35-C , 36-C ) :   1.1106
B( 35-C , 88-H ) :   0.9390 B( 36-C , 37-O ) :   1.1298 B( 36-C , 40-N ) :   1.7416
B( 37-O , 38-C ) :   1.1203 B( 38-C , 39-C ) :   1.2406 B( 38-C , 44-C ) :   1.3143
B( 39-C , 40-N ) :   1.3033 B( 39-C , 41-C ) :   1.2804 B( 41-C , 42-C ) :   1.2873
B( 41-C , 44-C ) :   0.1516 B( 41-C , 89-H ) :   1.0511 B( 42-C , 43-C ) :   1.2445
B( 42-C , 47-N ) :   1.2698 B( 43-C , 44-C ) :   1.3172 B( 43-C , 45-O ) :   1.1047
B( 44-C , 90-H ) :   1.0460 B( 45-O , 46-C ) :   1.1534 B( 46-C , 47-N ) :   1.7921
B( 46-C , 48-C ) :   0.9184 B( 48-C , 49-C ) :   1.4587 B( 48-C , 58-C ) :   1.4112
B( 49-C , 50-C ) :   0.8205 B( 49-C , 55-C ) :   1.3122 B( 50-C , 51-O ) :   2.2273
B( 50-C , 52-S ) :   1.0150 B( 51-O , 52-S ) :   0.1067 B( 52-S , 53-C ) :   1.0666
B( 52-S , 54-O ) :   0.1077 B( 53-C , 54-O ) :   2.0844 B( 53-C , 55-C ) :   0.8482
B( 55-C , 56-C ) :   1.3697 B( 56-C , 57-C ) :   1.3395 B( 56-C , 64-C ) :   1.0962
B( 57-C , 58-C ) :   1.3537 B( 57-C , 62-C ) :   0.8934 B( 58-C , 59-C ) :   0.8845
B( 59-C , 60-O ) :   2.2804 B( 59-C , 61-O ) :   1.0530 B( 61-O , 62-C ) :   1.0585
B( 62-C , 63-O ) :   2.2597 B( 64-C , 65-C ) :   1.7735 B( 64-C , 91-H ) :   0.9391
B( 65-C , 66-C ) :   1.0778 B( 65-C , 92-H ) :   0.9373 B( 66-C , 67-C ) :   1.7798
B( 66-C , 93-H ) :   0.9271 B( 67-C , 68-C ) :   0.9238 B( 67-C , 72-C ) :   1.0020
B( 68-C , 69-O ) :   2.2876 B( 68-C , 70-C ) :   0.9223 B( 70-C , 71-C ) :   1.3248
B( 70-C , 81-C ) :   1.3641 B( 71-C , 72-C ) :   1.0057 B( 71-C , 78-C ) :   1.3672
B( 72-C , 73-C ) :   1.7089 B( 73-C , 74-C ) :   1.1677 B( 73-C , 76-C ) :   1.1156
B( 74-C , 75-N ) :   2.9780 B( 76-C , 77-N ) :   3.0047 B( 78-C , 79-C ) :   1.3745
B( 78-C , 94-H ) :   0.9833 B( 79-C , 80-C ) :   1.4100 B( 79-C , 83-Br) :   1.0575
B( 80-C , 81-C ) :   1.3636 B( 80-C , 82-Br) :   1.0381 B( 81-C , 95-H ) :   1.0088

-----------------------------------------------------------------------------
         ABSORPTION SPECTRUM VIA TRANSITION ELECTRIC DIPOLE MOMENTS
-----------------------------------------------------------------------------
State   Energy  Wavelength   fosc         T2         TX        TY        TZ
        (cm-1)    (nm)                  (au**2)     (au)      (au)      (au)
-----------------------------------------------------------------------------
   0   22542.5    443.6   1.479507374  21.60681   1.51740   2.23605   3.78211
   1   22985.6    435.1   0.019150131   0.27428  -0.22272   0.30577  -0.36219
   2   23724.6    421.5   0.065557980   0.90971   0.44480  -0.69581  -0.47720
   3   25402.7    393.7   0.039639360   0.51372  -0.05883   0.11799   0.70451
   4   25762.6    388.2   0.007404547   0.09462   0.03461   0.18754   0.24136
   5   26530.9    376.9   0.313753856   3.89326  -0.34170  -1.15287  -1.56442
   6   27174.5    368.0   0.046722399   0.56603   0.28245  -0.63778  -0.28194
   7   27981.2    357.4   0.184241848   2.16769  -1.13199  -0.89993  -0.27642
   8   28197.7    354.6   0.074714893   0.87231   0.26133  -0.22011  -0.86923
   9   28820.9    347.0   0.107135351   1.22377  -0.39292   0.89943   0.51030
  10   29223.2    342.2   0.008171513   0.09206   0.29152   0.08214  -0.01797
  11   29321.6    341.0   0.006439793   0.07230  -0.16660  -0.11179   0.17903
  12   29689.5    336.8   0.015279969   0.16943   0.23070   0.06445  -0.33475
  13   30170.0    331.5   0.015318907   0.16716   0.36589  -0.01686   0.18165
  14   30546.8    327.4   0.048569787   0.52345  -0.36718  -0.49487  -0.37913
  15   30589.5    326.9   0.044922927   0.48347  -0.32581  -0.52972  -0.31099
  16   31372.8    318.7   0.016408495   0.17218  -0.18763   0.23473  -0.28615
  17   31460.5    317.9   0.354563848   3.71026   0.80626   0.90633   1.49626
  18   31779.1    314.7   0.056624278   0.58659   0.55229   0.07829  -0.52482
  19   32424.6    308.4   0.189692855   1.92598  -0.38328  -0.70816  -1.13030
  20   32552.2    307.2   0.000356440   0.00360   0.01919   0.02907   0.04891
  21   32956.0    303.4   0.043496939   0.43451   0.32537   0.35304   0.45167
  22   33236.8    300.9   0.065192364   0.64573   0.54320   0.41449   0.42293
  23   33362.0    299.7   0.080557525   0.79493  -0.55271  -0.65000  -0.25872
  24   33440.4    299.0   0.033928384   0.33402   0.42234   0.10587  -0.38005
  25   33481.9    298.7   0.166974001   1.64178  -0.59380  -0.22254   1.11340
  26   33617.3    297.5   0.193341976   1.89339   1.07624   0.85736  -0.00496
  27   33693.6    296.8   0.106805596   1.04357   0.79661   0.10243  -0.63127
  28   34142.1    292.9   0.296484120   2.85882  -0.85546  -1.08111  -0.97888
  29   34293.3    291.6   0.080788215   0.77556  -0.69075  -0.16804   0.51979
  30   34652.5    288.6   0.215597250   2.04826  -1.08534  -0.92230  -0.14020
  31   34982.9    285.9   0.221806164   2.08734   1.16032   0.66726   0.54384
  32   35215.5    284.0   0.018905240   0.17674  -0.12009  -0.29535  -0.27401
  33   35648.3    280.5   0.165479862   1.52821  -0.44012  -0.19698   1.13829
  34   35711.6    280.0   0.015517061   0.14305   0.00163   0.37801   0.01238
  35   35965.7    278.0   0.163035216   1.49234   0.37904   0.39424   1.09236
  36   36089.0    277.1   0.080673763   0.73592   0.58051   0.45388   0.43923
  37   36505.7    273.9   0.015897445   0.14336  -0.11137  -0.11929  -0.34166
  38   36648.5    272.9   0.023088225   0.20740   0.06140  -0.44358  -0.08288
  39   36751.6    272.1   0.082414470   0.73825   0.21810   0.28757   0.77973
  40   36848.8    271.4   0.058984265   0.52697  -0.38897  -0.38351  -0.47811
  41   36914.4    270.9   0.050557329   0.45088  -0.17274   0.14580   0.63229
  42   37418.5    267.2   0.003132586   0.02756  -0.09811  -0.12152   0.05628
  43   37550.5    266.3   0.002807741   0.02462  -0.13646  -0.01961  -0.07491
  44   37687.1    265.3   0.038571326   0.33694  -0.04587  -0.38938  -0.42804
  45   37791.0    264.6   0.011016886   0.09597  -0.04594  -0.25773  -0.16563
  46   37868.7    264.1   0.024137455   0.20984  -0.10861  -0.17648  -0.40853
  47   38172.2    262.0   0.088884024   0.76657  -0.04384  -0.36165  -0.79615
  48   38263.8    261.3   0.007978271   0.06864   0.03142   0.21328   0.14889
  49   38474.9    259.9   0.008305686   0.07107  -0.07566   0.25542  -0.01032
  50   38629.4    258.9   0.005307984   0.04524  -0.15202   0.06950  -0.13152
  51   38829.3    257.5   0.031770850   0.26937   0.37434  -0.15170   0.32592
  52   38913.0    257.0   0.055041187   0.46566  -0.06999   0.65125   0.19139
  53   39301.9    254.4   0.002455264   0.02057  -0.02767  -0.00952  -0.14039
  54   39324.4    254.3   0.086128939   0.72105   0.37548  -0.69153   0.31915
  55   39434.0    253.6   0.042418656   0.35413   0.38643  -0.45206  -0.02093
  56   39483.7    253.3   0.023994883   0.20007  -0.23809  -0.11830  -0.35970
  57   39503.2    253.1   0.003926583   0.03272  -0.01421   0.01131   0.17998
  58   39581.3    252.6   0.022519785   0.18731  -0.27857   0.27598  -0.18313
  59   39656.2    252.2   0.008759664   0.07272   0.04690   0.23930   0.11514
  60   39832.2    251.1   0.153799757   1.27115   0.60302  -0.87705   0.37189
  61   39898.8    250.6   0.007570175   0.06246  -0.03291   0.18396  -0.16595
  62   40270.6    248.3   0.012438861   0.10169   0.23326   0.21716   0.01085

FINAL SINGLE POINT ENERGY    -14363.733586116176

DIPOLE MOMENT
-------------
                                X             Y             Z
Electronic contribution:    -36.21728     -98.60297      65.59031
Nuclear contribution   :     33.45311      96.68085     -65.31221
                        -----------------------------------------
Total Dipole Moment    :     -2.76417      -1.92212       0.27810
                        -----------------------------------------
Magnitude (a.u.)       :      3.37824
Magnitude (Debye)      :      8.58681

Rotational constants in cm-1:     0.001537     0.000093     0.000092
Rotational constants in MHz :    46.066781     2.780651     2.765517

                             ****ORCA TERMINATED NORMALLY****
TOTAL RUN TIME: 0 days 0 hours 11 minutes 9 seconds 32 msec
