                         Program Version 4.2.0 -  RELEASE  -
|  1> # ORCA input file
|  2> # SCF done       -189.947287085124          0.000820582599
|  3> ! CAM-B3LYP def2-SVP def2/J RIJCOSX Grid4 TightSCF
|  4> %maxcore 5000
|  5> %tddft
|  6>     Mode sTDDFT
|  7>     Ethresh 5.0
|  8>     maxcore 5000
|  9> end
| 10>
| 11> %pal
| 12>   nprocs 6
| 13>   end
| 14> * xyz 0 1
| 15>    C        1.28805        -1.46914         2.41939
| 16>    O        0.71048        -1.66578         1.38172
| 17>    C        2.11933        -0.28822         2.75084
| 18>    C        2.56645        -0.36796         4.08097
| 19>    C        3.34509         0.65254         4.60499
| 20>    C        3.66676         1.73052         3.78923
| 21>    C        3.22107         1.79825         2.46611
| 22>    C        2.43561         0.78165         1.93909
| 23>   Br        3.67703         3.27486         1.38105
| 24>   Br        4.72309         3.12492         4.50373
| 25>    C        2.07298        -1.60628         4.67485
| 26>    C        2.39829        -2.08104         5.91578
| 27>    C        3.23516        -1.40001         6.82770
| 28>    N        3.90310        -0.89070         7.60894
| 29>    C        1.97077        -3.31596         6.45239
| 30>    N        1.67346        -4.30548         6.95207
| 31>    C        1.24696        -2.27185         3.67894
| 32>    C        0.43579        -3.33767         3.90225
| 33>    C       -0.28487        -4.06105         2.91504
| 34>    S       -1.73646        -4.97429         3.35220
| 35>    C       -1.77867        -5.45427         1.66599
| 36>    N       -0.77384        -4.96438         0.98444
| 37>    N        0.02737        -4.21088         1.66118
| 38>    C       -2.81490        -6.27183         1.13743
| 39>    C       -2.83777        -6.65631        -0.15676
| 40>    C       -3.87733        -7.44942        -0.74652
| 41>    C       -3.80795        -7.83964        -2.07920
| 42>    C       -4.79795        -8.59234        -2.71225
| 43>    C       -5.93182        -9.01709        -2.04644
| 44>    C       -6.03969        -8.64612        -0.69173
| 45>    C       -5.03052        -7.87504        -0.04426
| 46>    N       -5.43947        -7.68621         1.22005
| 47>    N       -6.58890        -8.29436         1.28929
| 48>    N       -7.01296        -8.87675         0.20334
| 49>    C       -7.33344        -8.34596         2.50910
| 50>    C       -7.01048        -9.78097        -2.65582
| 51>    C       -7.55267       -10.92657        -2.04977
| 52>    C       -6.93100       -11.59767        -0.88883
| 53>    O       -5.86532       -11.40096        -0.39451
| 54>    S       -8.02538       -12.91600        -0.33308
| 55>    C       -9.14401       -12.69616        -1.69710
| 56>    O      -10.11499       -13.38339        -1.85194
| 57>    C       -8.68991       -11.56666        -2.53759
| 58>    C       -9.33610       -11.16916        -3.72515
| 59>    C       -8.76967       -10.04856        -4.34552
| 60>    C       -7.66562        -9.37704        -3.82208
| 61>    C       -7.44182        -8.16953        -4.65682
| 62>    O       -6.63133        -7.30349        -4.56611
| 63>    O       -8.41112        -8.17366        -5.63180
| 64>    C       -9.24304        -9.25679        -5.51277
| 65>    O      -10.16691        -9.43136        -6.24368
| 66>    C      -10.47865       -11.90011        -4.22970
| 67>    C      -10.68121       -12.20368        -5.52083
| 68>    C      -11.79796       -12.98178        -5.97779
| 69>    C      -12.36210       -14.06089        -5.39497
| 70>    C      -13.71574       -14.51365        -5.84665
| 71>    O      -14.28897       -14.18001        -6.85252
| 72>    C      -14.19878       -15.39717        -4.76636
| 73>    C      -13.17262       -15.59329        -3.82264
| 74>    C      -11.96660       -14.90284        -4.27186
| 75>    C      -10.70103       -15.19242        -3.85351
| 76>    C       -9.52024       -14.63517        -4.38678
| 77>    N       -8.51343       -14.23291        -4.76255
| 78>    C      -10.40597       -16.14330        -2.84862
| 79>    N      -10.11239       -16.91484        -2.05335
| 80>    C      -13.41413       -16.35123        -2.68856
| 81>    C      -14.67274       -16.91652        -2.52314
| 82>    C      -15.68044       -16.73560        -3.47622
| 83>    C      -15.44687       -15.96562        -4.60785
| 84>   Br      -17.37757       -17.52722        -3.23208
| 85>   Br      -15.01000       -17.94026        -0.97262
| 86>    H        3.70174         0.63863         5.62212
| 87>    H        2.08078         0.82202         0.92088
| 88>    H        0.28691        -3.68757         4.91573
| 89>    H       -3.60173        -6.57437         1.81184
| 90>    H       -2.02923        -6.34826        -0.80542
| 91>    H       -2.94419        -7.54472        -2.65559
| 92>    H       -4.65825        -8.86895        -3.74531
| 93>    H       -6.93949        -7.58865         3.18282
| 94>    H       -7.23026        -9.33186         2.96622
| 95>    H       -8.38633        -8.16422         2.29897
| 96>    H      -11.16401       -12.27568        -3.48169
| 97>    H      -10.02047       -11.82680        -6.28801
| 98>    H      -12.27659       -12.63525        -6.88920
| 99>    H      -12.66171       -16.49849        -1.93053
|100>    H      -16.22029       -15.81240        -5.34444
|101> *
|102>
|103>                          ****END OF INPUT****

CARTESIAN COORDINATES (ANGSTROEM)
---------------------------------
  C      1.288050   -1.469140    2.419390
  O      0.710480   -1.665780    1.381720
  C      2.119330   -0.288220    2.750840
  C      2.566450   -0.367960    4.080970
  C      3.345090    0.652540    4.604990
  C      3.666760    1.730520    3.789230
  C      3.221070    1.798250    2.466110
  C      2.435610    0.781650    1.939090
  Br     3.677030    3.274860    1.381050
  Br     4.723090    3.124920    4.503730
  C      2.072980   -1.606280    4.674850
  C      2.398290   -2.081040    5.915780
  C      3.235160   -1.400010    6.827700
  N      3.903100   -0.890700    7.608940
  C      1.970770   -3.315960    6.452390
  N      1.673460   -4.305480    6.952070
  C      1.246960   -2.271850    3.678940
  C      0.435790   -3.337670    3.902250
  C     -0.284870   -4.061050    2.915040
  S     -1.736460   -4.974290    3.352200
  C     -1.778670   -5.454270    1.665990
  N     -0.773840   -4.964380    0.984440
  N      0.027370   -4.210880    1.661180
  C     -2.814900   -6.271830    1.137430
  C     -2.837770   -6.656310   -0.156760
  C     -3.877330   -7.449420   -0.746520
  C     -3.807950   -7.839640   -2.079200
  C     -4.797950   -8.592340   -2.712250
  C     -5.931820   -9.017090   -2.046440
  C     -6.039690   -8.646120   -0.691730
  C     -5.030520   -7.875040   -0.044260
  N     -5.439470   -7.686210    1.220050
  N     -6.588900   -8.294360    1.289290
  N     -7.012960   -8.876750    0.203340
  C     -7.333440   -8.345960    2.509100
  C     -7.010480   -9.780970   -2.655820
  C     -7.552670  -10.926570   -2.049770
  C     -6.931000  -11.597670   -0.888830
  O     -5.865320  -11.400960   -0.394510
  S     -8.025380  -12.916000   -0.333080
  C     -9.144010  -12.696160   -1.697100
  O    -10.114990  -13.383390   -1.851940
  C     -8.689910  -11.566660   -2.537590
  C     -9.336100  -11.169160   -3.725150
  C     -8.769670  -10.048560   -4.345520
  C     -7.665620   -9.377040   -3.822080
  C     -7.441820   -8.169530   -4.656820
  O     -6.631330   -7.303490   -4.566110
  O     -8.411120   -8.173660   -5.631800
  C     -9.243040   -9.256790   -5.512770
  O    -10.166910   -9.431360   -6.243680
  C    -10.478650  -11.900110   -4.229700
  C    -10.681210  -12.203680   -5.520830
  C    -11.797960  -12.981780   -5.977790
  C    -12.362100  -14.060890   -5.394970
  C    -13.715740  -14.513650   -5.846650
  O    -14.288970  -14.180010   -6.852520
  C    -14.198780  -15.397170   -4.766360
  C    -13.172620  -15.593290   -3.822640
  C    -11.966600  -14.902840   -4.271860
  C    -10.701030  -15.192420   -3.853510
  C     -9.520240  -14.635170   -4.386780
  N     -8.513430  -14.232910   -4.762550
  C    -10.405970  -16.143300   -2.848620
  N    -10.112390  -16.914840   -2.053350
  C    -13.414130  -16.351230   -2.688560
  C    -14.672740  -16.916520   -2.523140
  C    -15.680440  -16.735600   -3.476220
  C    -15.446870  -15.965620   -4.607850
  Br   -17.377570  -17.527220   -3.232080
  Br   -15.010000  -17.940260   -0.972620
  H      3.701740    0.638630    5.622120
  H      2.080780    0.822020    0.920880
  H      0.286910   -3.687570    4.915730
  H     -3.601730   -6.574370    1.811840
  H     -2.029230   -6.348260   -0.805420
  H     -2.944190   -7.544720   -2.655590
  H     -4.658250   -8.868950   -3.745310
  H     -6.939490   -7.588650    3.182820
  H     -7.230260   -9.331860    2.966220
  H     -8.386330   -8.164220    2.298970
  H    -11.164010  -12.275680   -3.481690
  H    -10.020470  -11.826800   -6.288010
  H    -12.276590  -12.635250   -6.889200
  H    -12.661710  -16.498490   -1.930530
  H    -16.220290  -15.812400   -5.344440

 Total Charge           Charge          ....    0
 Multiplicity           Mult            ....    1
 Number of Electrons    NEL             ....  600
 Basis Dimension        Dim             .... 1149

ORBITAL ENERGIES
----------------

  NO   OCC          E(Eh)            E(eV)
   0   2.0000    -482.882637    -13139.9046
   1   2.0000    -482.881654    -13139.8778
   2   2.0000    -482.879527    -13139.8199
   3   2.0000    -482.877894    -13139.7755
   4   2.0000     -88.981521     -2421.3103
   5   2.0000     -88.965443     -2420.8728
   6   2.0000     -62.560258     -1702.3512
   7   2.0000     -62.559300     -1702.3251
   8   2.0000     -62.557133     -1702.2661
   9   2.0000     -62.555531     -1702.2225
  10   2.0000     -56.394213     -1534.5646
  11   2.0000     -56.393263     -1534.5387
  12   2.0000     -56.391550     -1534.4921
  13   2.0000     -56.391456     -1534.4895
  14   2.0000     -56.391085     -1534.4794
  15   2.0000     -56.390591     -1534.4660
  16   2.0000     -56.390489     -1534.4632
  17   2.0000     -56.389494     -1534.4361
  18   2.0000     -56.388435     -1534.4073
  19   2.0000     -56.388329     -1534.4044
  20   2.0000     -56.386819     -1534.3634
  21   2.0000     -56.386724     -1534.3608
  22   2.0000     -19.305227      -525.3219
  23   2.0000     -19.260239      -524.0978
  24   2.0000     -19.254933      -523.9534
  25   2.0000     -19.251750      -523.8668
  26   2.0000     -19.251716      -523.8658
  27   2.0000     -19.232250      -523.3361
  28   2.0000     -19.222962      -523.0834
  29   2.0000     -14.558986      -396.1702
  30   2.0000     -14.459155      -393.4536
  31   2.0000     -14.458020      -393.4227
  32   2.0000     -14.450058      -393.2061
  33   2.0000     -14.443103      -393.0168
  34   2.0000     -14.430159      -392.6646
  35   2.0000     -14.427851      -392.6018
  36   2.0000     -14.425692      -392.5430
  37   2.0000     -14.425332      -392.5332
  38   2.0000     -10.447298      -284.2854
  39   2.0000     -10.446027      -284.2508
  40   2.0000     -10.422961      -283.6232
  41   2.0000     -10.417851      -283.4841
  42   2.0000     -10.382976      -282.5351
  43   2.0000     -10.376133      -282.3489
  44   2.0000     -10.361314      -281.9457
  45   2.0000     -10.360406      -281.9210
  46   2.0000     -10.359586      -281.8987
  47   2.0000     -10.357599      -281.8446
  48   2.0000     -10.357377      -281.8386
  49   2.0000     -10.356828      -281.8236
  50   2.0000     -10.354641      -281.7641
  51   2.0000     -10.354042      -281.7478
  52   2.0000     -10.353127      -281.7229
  53   2.0000     -10.351862      -281.6885
  54   2.0000     -10.349183      -281.6156
  55   2.0000     -10.348976      -281.6099
  56   2.0000     -10.343084      -281.4496
  57   2.0000     -10.342664      -281.4382
  58   2.0000     -10.342519      -281.4343
  59   2.0000     -10.342208      -281.4258
  60   2.0000     -10.336376      -281.2671
  61   2.0000     -10.333158      -281.1795
  62   2.0000     -10.332459      -281.1605
  63   2.0000     -10.329659      -281.0843
  64   2.0000     -10.327642      -281.0294
  65   2.0000     -10.327432      -281.0237
  66   2.0000     -10.326944      -281.0104
  67   2.0000     -10.326576      -281.0004
  68   2.0000     -10.322209      -280.8816
  69   2.0000     -10.319549      -280.8092
  70   2.0000     -10.318766      -280.7879
  71   2.0000     -10.318592      -280.7832
  72   2.0000     -10.316721      -280.7322
  73   2.0000     -10.316402      -280.7236
  74   2.0000     -10.316296      -280.7207
  75   2.0000     -10.315295      -280.6934
  76   2.0000     -10.314043      -280.6594
  77   2.0000     -10.312426      -280.6154
  78   2.0000     -10.312391      -280.6144
  79   2.0000     -10.312165      -280.6083
  80   2.0000     -10.311263      -280.5837
  81   2.0000     -10.307268      -280.4750
  82   2.0000     -10.306967      -280.4668
  83   2.0000     -10.299863      -280.2735
  84   2.0000     -10.298810      -280.2449
  85   2.0000     -10.295017      -280.1417
  86   2.0000     -10.292517      -280.0736
  87   2.0000      -8.789587      -239.1768
  88   2.0000      -8.788647      -239.1512
  89   2.0000      -8.786456      -239.0916
  90   2.0000      -8.784873      -239.0485
  91   2.0000      -8.077873      -219.8101
  92   2.0000      -8.064653      -219.4504
  93   2.0000      -6.625742      -180.2956
  94   2.0000      -6.624843      -180.2711
  95   2.0000      -6.622599      -180.2101
  96   2.0000      -6.621062      -180.1683
  97   2.0000      -6.611693      -179.9133
  98   2.0000      -6.610919      -179.8923
  99   2.0000      -6.610737      -179.8873
 100   2.0000      -6.609945      -179.8657
 101   2.0000      -6.608600      -179.8291
 102   2.0000      -6.607757      -179.8062
 103   2.0000      -6.606964      -179.7846
 104   2.0000      -6.606178      -179.7633
 105   2.0000      -6.046408      -164.5311
 106   2.0000      -6.043168      -164.4430
 107   2.0000      -6.040364      -164.3667
 108   2.0000      -6.033523      -164.1805
 109   2.0000      -6.030193      -164.0899
 110   2.0000      -6.025739      -163.9687
 111   2.0000      -2.741644       -74.6039
 112   2.0000      -2.740722       -74.5788
 113   2.0000      -2.738484       -74.5179
 114   2.0000      -2.737884       -74.5016
 115   2.0000      -2.737241       -74.4841
 116   2.0000      -2.736985       -74.4771
 117   2.0000      -2.736924       -74.4755
 118   2.0000      -2.736309       -74.4588
 119   2.0000      -2.734735       -74.4159
 120   2.0000      -2.734138       -74.3997
 121   2.0000      -2.733163       -74.3732
 122   2.0000      -2.732595       -74.3577
 123   2.0000      -2.726097       -74.1809
 124   2.0000      -2.726081       -74.1804
 125   2.0000      -2.725117       -74.1542
 126   2.0000      -2.725105       -74.1539
 127   2.0000      -2.722970       -74.0958
 128   2.0000      -2.722960       -74.0955
 129   2.0000      -2.721350       -74.0517
 130   2.0000      -2.721335       -74.0513
 131   2.0000      -1.255453       -34.1626
 132   2.0000      -1.236094       -33.6358
 133   2.0000      -1.184334       -32.2274
 134   2.0000      -1.180823       -32.1318
 135   2.0000      -1.178643       -32.0725
 136   2.0000      -1.154250       -31.4087
 137   2.0000      -1.148798       -31.2604
 138   2.0000      -1.142663       -31.0934
 139   2.0000      -1.140146       -31.0249
 140   2.0000      -1.034761       -28.1573
 141   2.0000      -1.033412       -28.1206
 142   2.0000      -1.031797       -28.0766
 143   2.0000      -1.018169       -27.7058
 144   2.0000      -1.014989       -27.6193
 145   2.0000      -1.008600       -27.4454
 146   2.0000      -1.005803       -27.3693
 147   2.0000      -1.004907       -27.3449
 148   2.0000      -0.997823       -27.1521
 149   2.0000      -0.986432       -26.8422
 150   2.0000      -0.984079       -26.7781
 151   2.0000      -0.967611       -26.3300
 152   2.0000      -0.954950       -25.9855
 153   2.0000      -0.953202       -25.9379
 154   2.0000      -0.939889       -25.5757
 155   2.0000      -0.935096       -25.4453
 156   2.0000      -0.928834       -25.2749
 157   2.0000      -0.925653       -25.1883
 158   2.0000      -0.922894       -25.1132
 159   2.0000      -0.917626       -24.9699
 160   2.0000      -0.915537       -24.9130
 161   2.0000      -0.903834       -24.5946
 162   2.0000      -0.895954       -24.3801
 163   2.0000      -0.888214       -24.1695
 164   2.0000      -0.882356       -24.0101
 165   2.0000      -0.860646       -23.4194
 166   2.0000      -0.858240       -23.3539
 167   2.0000      -0.855703       -23.2849
 168   2.0000      -0.847757       -23.0686
 169   2.0000      -0.833031       -22.6679
 170   2.0000      -0.827798       -22.5255
 171   2.0000      -0.813447       -22.1350
 172   2.0000      -0.799124       -21.7453
 173   2.0000      -0.789970       -21.4962
 174   2.0000      -0.784864       -21.3572
 175   2.0000      -0.777617       -21.1600
 176   2.0000      -0.771956       -21.0060
 177   2.0000      -0.770452       -20.9651
 178   2.0000      -0.760509       -20.6945
 179   2.0000      -0.743865       -20.2416
 180   2.0000      -0.738106       -20.0849
 181   2.0000      -0.732155       -19.9230
 182   2.0000      -0.725632       -19.7454
 183   2.0000      -0.714873       -19.4527
 184   2.0000      -0.709726       -19.3126
 185   2.0000      -0.702602       -19.1188
 186   2.0000      -0.699209       -19.0264
 187   2.0000      -0.696121       -18.9424
 188   2.0000      -0.689682       -18.7672
 189   2.0000      -0.684162       -18.6170
 190   2.0000      -0.670267       -18.2389
 191   2.0000      -0.658505       -17.9188
 192   2.0000      -0.653568       -17.7845
 193   2.0000      -0.647782       -17.6270
 194   2.0000      -0.645206       -17.5569
 195   2.0000      -0.638724       -17.3806
 196   2.0000      -0.634953       -17.2779
 197   2.0000      -0.628328       -17.0977
 198   2.0000      -0.624646       -16.9975
 199   2.0000      -0.622472       -16.9383
 200   2.0000      -0.620016       -16.8715
 201   2.0000      -0.619095       -16.8464
 202   2.0000      -0.611303       -16.6344
 203   2.0000      -0.609232       -16.5781
 204   2.0000      -0.603062       -16.4102
 205   2.0000      -0.594481       -16.1767
 206   2.0000      -0.591019       -16.0825
 207   2.0000      -0.584809       -15.9135
 208   2.0000      -0.583746       -15.8845
 209   2.0000      -0.575176       -15.6513
 210   2.0000      -0.574023       -15.6199
 211   2.0000      -0.571621       -15.5546
 212   2.0000      -0.569375       -15.4935
 213   2.0000      -0.564868       -15.3709
 214   2.0000      -0.559638       -15.2285
 215   2.0000      -0.557039       -15.1578
 216   2.0000      -0.556518       -15.1436
 217   2.0000      -0.556063       -15.1313
 218   2.0000      -0.554229       -15.0813
 219   2.0000      -0.552767       -15.0415
 220   2.0000      -0.549816       -14.9613
 221   2.0000      -0.545819       -14.8525
 222   2.0000      -0.543355       -14.7854
 223   2.0000      -0.538863       -14.6632
 224   2.0000      -0.537017       -14.6130
 225   2.0000      -0.535997       -14.5852
 226   2.0000      -0.531195       -14.4545
 227   2.0000      -0.528084       -14.3699
 228   2.0000      -0.525169       -14.2906
 229   2.0000      -0.521973       -14.2036
 230   2.0000      -0.521647       -14.1947
 231   2.0000      -0.519764       -14.1435
 232   2.0000      -0.518537       -14.1101
 233   2.0000      -0.513177       -13.9643
 234   2.0000      -0.512923       -13.9573
 235   2.0000      -0.509406       -13.8616
 236   2.0000      -0.507094       -13.7987
 237   2.0000      -0.502084       -13.6624
 238   2.0000      -0.499570       -13.5940
 239   2.0000      -0.498084       -13.5536
 240   2.0000      -0.496921       -13.5219
 241   2.0000      -0.494377       -13.4527
 242   2.0000      -0.492002       -13.3881
 243   2.0000      -0.490216       -13.3394
 244   2.0000      -0.481080       -13.0909
 245   2.0000      -0.479036       -13.0352
 246   2.0000      -0.477186       -12.9849
 247   2.0000      -0.471086       -12.8189
 248   2.0000      -0.467136       -12.7114
 249   2.0000      -0.466683       -12.6991
 250   2.0000      -0.465942       -12.6789
 251   2.0000      -0.465219       -12.6592
 252   2.0000      -0.463316       -12.6075
 253   2.0000      -0.462971       -12.5981
 254   2.0000      -0.458725       -12.4825
 255   2.0000      -0.457297       -12.4437
 256   2.0000      -0.453070       -12.3287
 257   2.0000      -0.450093       -12.2477
 258   2.0000      -0.440662       -11.9910
 259   2.0000      -0.439916       -11.9707
 260   2.0000      -0.438114       -11.9217
 261   2.0000      -0.436054       -11.8656
 262   2.0000      -0.435310       -11.8454
 263   2.0000      -0.433604       -11.7990
 264   2.0000      -0.427956       -11.6453
 265   2.0000      -0.426542       -11.6068
 266   2.0000      -0.420752       -11.4492
 267   2.0000      -0.417702       -11.3662
 268   2.0000      -0.414110       -11.2685
 269   2.0000      -0.409633       -11.1467
 270   2.0000      -0.406320       -11.0565
 271   2.0000      -0.403158       -10.9705
 272   2.0000      -0.402786       -10.9604
 273   2.0000      -0.400025       -10.8852
 274   2.0000      -0.396067       -10.7775
 275   2.0000      -0.395470       -10.7613
 276   2.0000      -0.393088       -10.6965
 277   2.0000      -0.392193       -10.6721
 278   2.0000      -0.390862       -10.6359
 279   2.0000      -0.388244       -10.5646
 280   2.0000      -0.385751       -10.4968
 281   2.0000      -0.378790       -10.3074
 282   2.0000      -0.378476       -10.2988
 283   2.0000      -0.368314       -10.0223
 284   2.0000      -0.361069        -9.8252
 285   2.0000      -0.359294        -9.7769
 286   2.0000      -0.355961        -9.6862
 287   2.0000      -0.354002        -9.6329
 288   2.0000      -0.351092        -9.5537
 289   2.0000      -0.349324        -9.5056
 290   2.0000      -0.345460        -9.4005
 291   2.0000      -0.342185        -9.3113
 292   2.0000      -0.339445        -9.2368
 293   2.0000      -0.337030        -9.1710
 294   2.0000      -0.326947        -8.8967
 295   2.0000      -0.322151        -8.7662
 296   2.0000      -0.319183        -8.6854
 297   2.0000      -0.315245        -8.5782
 298   2.0000      -0.310665        -8.4536
 299   2.0000      -0.277624        -7.5545
 300   0.0000      -0.110201        -2.9987
 301   0.0000      -0.108034        -2.9398
 302   0.0000      -0.100067        -2.7230
 303   0.0000      -0.082254        -2.2382
 304   0.0000      -0.073957        -2.0125

MULLIKEN ATOMIC CHARGES
-----------------------
   0 C :    0.149222
   1 O :   -0.092473
   2 C :   -0.025101
   3 C :    0.037191
   4 C :   -0.005150
   5 C :   -0.025287
   6 C :   -0.015450
   7 C :   -0.016423
   8 Br:    0.019226
   9 Br:    0.023990
  10 C :    0.298117
  11 C :   -0.331690
  12 C :   -0.185359
  13 N :    0.161614
  14 C :   -0.196852
  15 N :    0.169664
  16 C :   -0.071995
  17 C :    0.044215
  18 C :   -0.131596
  19 S :    0.115200
  20 C :   -0.081400
  21 N :   -0.053804
  22 N :    0.015226
  23 C :    0.073974
  24 C :   -0.027628
  25 C :    0.079192
  26 C :   -0.041895
  27 C :    0.033103
  28 C :   -0.033940
  29 C :    0.005040
  30 C :    0.013437
  31 N :   -0.068464
  32 N :   -0.061640
  33 N :   -0.059554
  34 C :    0.143134
  35 C :    0.035765
  36 C :    0.031709
  37 C :    0.040603
  38 O :   -0.108851
  39 S :    0.047008
  40 C :    0.050434
  41 O :   -0.153151
  42 C :    0.059490
  43 C :    0.037627
  44 C :   -0.078298
  45 C :   -0.064226
  46 C :    0.226111
  47 O :   -0.085409
  48 O :   -0.223192
  49 C :    0.225611
  50 O :   -0.098596
  51 C :   -0.034030
  52 C :    0.057642
  53 C :    0.012616
  54 C :   -0.108332
  55 C :    0.135963
  56 O :   -0.122224
  57 C :    0.000505
  58 C :    0.016646
  59 C :    0.267017
  60 C :   -0.298812
  61 C :   -0.203568
  62 N :    0.173817
  63 C :   -0.189566
  64 N :    0.172999
  65 C :   -0.008542
  66 C :   -0.021262
  67 C :   -0.015656
  68 C :   -0.022849
  69 Br:    0.018711
  70 Br:    0.025409
  71 H :    0.007186
  72 H :    0.008680
  73 H :    0.029732
  74 H :    0.002151
  75 H :    0.008937
  76 H :   -0.008855
  77 H :   -0.019269
  78 H :    0.055258
  79 H :    0.061128
  80 H :    0.054725
  81 H :    0.043652
  82 H :    0.030683
  83 H :    0.043382
  84 H :    0.016943
  85 H :    0.010703
Sum of atomic charges:   -0.0000000

LOEWDIN ATOMIC CHARGES
----------------------
   0 C :    0.077839
   1 O :   -0.097458
   2 C :   -0.039414
   3 C :   -0.014912
   4 C :   -0.006409
   5 C :   -0.119147
   6 C :   -0.120673
   7 C :    0.007939
   8 Br:    0.141802
   9 Br:    0.143059
  10 C :    0.071966
  11 C :   -0.125654
  12 C :   -0.019411
  13 N :   -0.038638
  14 C :   -0.022917
  15 N :   -0.039797
  16 C :   -0.065006
  17 C :    0.036342
  18 C :   -0.167977
  19 S :    0.401909
  20 C :   -0.128511
  21 N :   -0.076067
  22 N :   -0.021244
  23 C :   -0.054903
  24 C :    0.034064
  25 C :   -0.018626
  26 C :   -0.002323
  27 C :    0.015163
  28 C :   -0.037509
  29 C :   -0.037438
  30 C :   -0.038506
  31 N :   -0.086507
  32 N :    0.162531
  33 N :   -0.099628
  34 C :    0.034281
  35 C :    0.040368
  36 C :   -0.036901
  37 C :   -0.038433
  38 O :   -0.095756
  39 S :    0.328784
  40 C :   -0.038004
  41 O :   -0.120695
  42 C :   -0.041909
  43 C :    0.035041
  44 C :   -0.044012
  45 C :   -0.039696
  46 C :    0.105866
  47 O :   -0.085956
  48 O :   -0.051079
  49 C :    0.105714
  50 O :   -0.095617
  51 C :   -0.006026
  52 C :    0.015793
  53 C :    0.066317
  54 C :   -0.072544
  55 C :    0.084948
  56 O :   -0.123759
  57 C :   -0.046532
  58 C :   -0.007495
  59 C :    0.061527
  60 C :   -0.112725
  61 C :   -0.013536
  62 N :   -0.051524
  63 C :   -0.019979
  64 N :   -0.037434
  65 C :   -0.006404
  66 C :   -0.116626
  67 C :   -0.123245
  68 C :    0.008754
  69 Br:    0.141267
  70 Br:    0.145822
  71 H :    0.044570
  72 H :    0.047496
  73 H :    0.046980
  74 H :    0.030239
  75 H :    0.040724
  76 H :    0.037012
  77 H :    0.034204
  78 H :    0.043109
  79 H :    0.043978
  80 H :    0.042513
  81 H :    0.037562
  82 H :    0.040958
  83 H :    0.053850
  84 H :    0.046631
  85 H :    0.047643

  Mayer bond orders larger than 0.100000
B(  0-C ,  1-O ) :   2.2902 B(  0-C ,  2-C ) :   0.9343 B(  0-C , 16-C ) :   0.9130
B(  2-C ,  3-C ) :   1.3295 B(  2-C ,  7-C ) :   1.3731 B(  3-C ,  4-C ) :   1.3567
B(  3-C , 10-C ) :   0.9995 B(  4-C ,  5-C ) :   1.3787 B(  4-C , 71-H ) :   0.9788
B(  5-C ,  6-C ) :   1.4148 B(  5-C ,  9-Br) :   1.0584 B(  6-C ,  7-C ) :   1.3551
B(  6-C ,  8-Br) :   1.0377 B(  7-C , 72-H ) :   1.0073 B( 10-C , 11-C ) :   1.6611
B( 10-C , 16-C ) :   1.0569 B( 11-C , 12-C ) :   1.1354 B( 11-C , 14-C ) :   1.1395
B( 12-C , 13-N ) :   2.9744 B( 14-C , 15-N ) :   2.9875 B( 16-C , 17-C ) :   1.6896
B( 17-C , 18-C ) :   1.1189 B( 17-C , 73-H ) :   0.9252 B( 18-C , 19-S ) :   1.0702
B( 18-C , 22-N ) :   1.6364 B( 19-S , 20-C ) :   1.1308 B( 19-S , 22-N ) :   0.1105
B( 20-C , 21-N ) :   1.6280 B( 20-C , 23-C ) :   1.0929 B( 21-N , 22-N ) :   1.2717
B( 23-C , 24-C ) :   1.7051 B( 23-C , 74-H ) :   0.9270 B( 24-C , 25-C ) :   1.0860
B( 24-C , 75-H ) :   0.9843 B( 25-C , 26-C ) :   1.4213 B( 25-C , 28-C ) :   0.1122
B( 25-C , 30-C ) :   1.1576 B( 26-C , 27-C ) :   1.2372 B( 26-C , 76-H ) :   1.0001
B( 27-C , 28-C ) :   1.4800 B( 27-C , 77-H ) :   0.9926 B( 28-C , 29-C ) :   1.2360
B( 28-C , 35-C ) :   0.9640 B( 29-C , 30-C ) :   1.2468 B( 29-C , 33-N ) :   1.4697
B( 30-C , 31-N ) :   1.4454 B( 31-N , 32-N ) :   1.2385 B( 31-N , 33-N ) :   0.1642
B( 32-N , 33-N ) :   1.2314 B( 32-N , 34-C ) :   0.9511 B( 34-C , 78-H ) :   0.9671
B( 34-C , 79-H ) :   0.9699 B( 34-C , 80-H ) :   0.9685 B( 35-C , 36-C ) :   1.4059
B( 35-C , 45-C ) :   1.4022 B( 36-C , 37-C ) :   0.8335 B( 36-C , 42-C ) :   1.3285
B( 37-C , 38-O ) :   2.2056 B( 37-C , 39-S ) :   1.0089 B( 38-O , 39-S ) :   0.1040
B( 39-S , 40-C ) :   1.0680 B( 39-S , 41-O ) :   0.1070 B( 40-C , 41-O ) :   2.0838
B( 40-C , 42-C ) :   0.8500 B( 42-C , 43-C ) :   1.3659 B( 43-C , 44-C ) :   1.3512
B( 43-C , 51-C ) :   1.0853 B( 44-C , 45-C ) :   1.3438 B( 44-C , 49-C ) :   0.8985
B( 45-C , 46-C ) :   0.8900 B( 46-C , 47-O ) :   2.2734 B( 46-C , 48-O ) :   1.0514
B( 48-O , 49-C ) :   1.0600 B( 49-C , 50-O ) :   2.2552 B( 51-C , 52-C ) :   1.7750
B( 51-C , 81-H ) :   0.9379 B( 52-C , 53-C ) :   1.0831 B( 52-C , 82-H ) :   0.9383
B( 53-C , 54-C ) :   1.7721 B( 53-C , 83-H ) :   0.9280 B( 54-C , 55-C ) :   0.9257
B( 54-C , 59-C ) :   1.0041 B( 55-C , 56-O ) :   2.2893 B( 55-C , 57-C ) :   0.9199
B( 57-C , 58-C ) :   1.3250 B( 57-C , 68-C ) :   1.3666 B( 58-C , 59-C ) :   1.0042
B( 58-C , 65-C ) :   1.3684 B( 59-C , 60-C ) :   1.7088 B( 60-C , 61-C ) :   1.1665
B( 60-C , 63-C ) :   1.1163 B( 61-C , 62-N ) :   2.9817 B( 63-C , 64-N ) :   3.0047
B( 65-C , 66-C ) :   1.3753 B( 65-C , 84-H ) :   0.9819 B( 66-C , 67-C ) :   1.4111
B( 66-C , 70-Br) :   1.0545 B( 67-C , 68-C ) :   1.3636 B( 67-C , 69-Br) :   1.0360
B( 68-C , 85-H ) :   1.0074

-----------------------------------------------------------------------------
         ABSORPTION SPECTRUM VIA TRANSITION ELECTRIC DIPOLE MOMENTS
-----------------------------------------------------------------------------
State   Energy  Wavelength   fosc         T2         TX        TY        TZ
        (cm-1)    (nm)                  (au**2)     (au)      (au)      (au)
-----------------------------------------------------------------------------
   0   20089.0    497.8   0.034648588   0.56781   0.38309   0.64579  -0.06329
   1   21078.2    474.4   1.376449965  21.49826  -2.94453  -2.61779  -2.44442
   2   22830.7    438.0   0.388024931   5.59520  -1.48635  -1.56333  -0.97055
   3   24916.9    401.3   0.070957343   0.93752  -0.53711  -0.79018  -0.15700
   4   26067.5    383.6   0.054153848   0.68392  -0.67064  -0.48100   0.05287
   5   27411.8    364.8   0.025863286   0.31061  -0.38227  -0.27287  -0.30005
   6   27776.5    360.0   0.049969271   0.59224   0.74450   0.12234   0.15165
   7   28015.8    356.9   0.046466952   0.54603  -0.38545   0.21717  -0.59186
   8   28762.7    347.7   0.035442608   0.40567   0.31567  -0.53483  -0.14135
   9   28951.9    345.4   0.026693763   0.30353   0.36353  -0.10884   0.39942
  10   29108.8    343.5   0.253231948   2.86398  -0.48195  -1.35527   0.89160
  11   30344.7    329.5   0.215791987   2.34114   1.06539   1.03805   0.35854
  12   30671.7    326.0   0.053246154   0.57151  -0.51618  -0.52335  -0.17657
  13   30882.5    323.8   0.044738185   0.47692  -0.65583  -0.18092   0.11861
  14   31518.4    317.3   0.017289952   0.18059   0.14890  -0.17297   0.35848
  15   31762.7    314.8   0.069795225   0.72341   0.40356   0.67235   0.32938
  16   31850.9    314.0   0.025582913   0.26443   0.12928  -0.34819   0.35564
  17   32739.2    305.4   0.025121880   0.25262  -0.26816   0.02113  -0.42457
  18   32834.5    304.6   0.019623822   0.19676  -0.37263  -0.23890  -0.02874
  19   33206.2    301.1   0.025988971   0.25766   0.20408  -0.41399   0.21123
  20   33351.6    299.8   0.014549587   0.14362  -0.24466   0.28245  -0.06311
  21   33479.7    298.7   0.074476510   0.73234  -0.79652  -0.30671  -0.06184
  22   33709.4    296.7   0.306103391   2.98946   1.07342   1.34964   0.12538
  23   33858.2    295.3   0.014326854   0.13930  -0.33062   0.04038   0.16841
  24   34194.7    292.4   0.207987463   2.00241  -1.31430  -0.40754   0.33008
  25   34289.0    291.6   0.079616014   0.76440  -0.69054  -0.53519   0.03355
  26   34483.8    290.0   0.244334489   2.33263  -1.16385  -0.28411  -0.94729
  27   35035.7    285.4   0.125620601   1.18039  -0.74521  -0.72537   0.31447
  28   35331.6    283.0   0.078800012   0.73424   0.84871  -0.11372  -0.03159
  29   35857.9    278.9   0.051062505   0.46881  -0.66581  -0.12241   0.10253
  30   35977.4    278.0   0.570722266   5.22240   0.35204  -1.00162   2.02367
  31   36253.0    275.8   0.178096346   1.61729  -1.22233  -0.10786  -0.33402
  32   36494.5    274.0   0.049577449   0.44723   0.55788   0.36669   0.03921
  33   36767.5    272.0   0.015142265   0.13558   0.33051   0.06965   0.14662
  34   36796.2    271.8   0.023511541   0.21036   0.43649   0.13718   0.03181
  35   36923.8    270.8   0.028946267   0.25808  -0.28365  -0.27243   0.32158
  36   37253.3    268.4   0.005129529   0.04533  -0.00418   0.15214  -0.14888
  37   37324.8    267.9   0.028863431   0.25458   0.43298  -0.04182   0.25566
  38   37748.3    264.9   0.028919084   0.25221  -0.34084  -0.35828  -0.08760
  39   38050.1    262.8   0.002051050   0.01775  -0.11364   0.05952  -0.03589
  40   38272.9    261.3   0.026706631   0.22972  -0.05084  -0.43157  -0.20220
  41   38342.5    260.8   0.028711763   0.24652  -0.28647  -0.39307   0.09974
  42   38548.1    259.4   0.016391748   0.13999  -0.34385  -0.10657  -0.10196
  43   38701.0    258.4   0.007599958   0.06465  -0.18374  -0.16555  -0.05902
  44   39155.8    255.4   0.083499960   0.70205   0.07741   0.64586  -0.52813
  45   39172.0    255.3   0.014271375   0.11994   0.03297  -0.33841  -0.06582
  46   39330.7    254.3   0.210726985   1.76386  -0.83525  -0.89905  -0.50786
  47   39637.7    252.3   0.038961898   0.32360   0.44659   0.34993  -0.04126
  48   39850.0    250.9   0.083833719   0.69257   0.45024  -0.10397   0.69213
  49   40037.3    249.8   0.073729777   0.60625   0.09388   0.49299  -0.59532
  50   40230.8    248.6   0.017297532   0.14155  -0.05059   0.17915  -0.32694
  51   40307.9    248.1   0.006641540   0.05424  -0.07646   0.08340  -0.20357

FINAL SINGLE POINT ENERGY    -13983.872770302974

DIPOLE MOMENT
-------------
                                X             Y             Z
Electronic contribution:     -5.63067      38.32081      34.10384
Nuclear contribution   :      2.99506     -38.11879     -34.11236
                        -----------------------------------------
Total Dipole Moment    :     -2.63560       0.20202      -0.00852
                        -----------------------------------------
Magnitude (a.u.)       :      2.64335
Magnitude (Debye)      :      6.71886

Rotational constants in cm-1:     0.002212     0.000129     0.000124
Rotational constants in MHz :    66.306339     3.859177     3.716520

                             ****ORCA TERMINATED NORMALLY****
TOTAL RUN TIME: 0 days 0 hours 9 minutes 39 seconds 273 msec
