                         Program Version 4.2.0 -  RELEASE  -
|  1> # ORCA input file
|  2> # SCF done       -196.469480268068          0.000921655464
|  3> ! CAM-B3LYP def2-SVP def2/J RIJCOSX Grid4 TightSCF
|  4> %maxcore 5000
|  5> %tddft
|  6>     Mode sTDDFT
|  7>     Ethresh 5.0
|  8>     maxcore 5000
|  9> end
| 10>
| 11> %pal
| 12>   nprocs 6
| 13>   end
| 14> * xyz 0 1
| 15>    C        1.32430        -0.40671        -0.21624
| 16>    O        0.81881        -0.38941         0.88250
| 17>    C        2.36538         0.50359        -0.72641
| 18>    C        2.78980         0.08010        -1.99909
| 19>    C        3.77554         0.79180        -2.66350
| 20>    C        4.31491         1.91586        -2.04809
| 21>    C        3.88221         2.33128        -0.78503
| 22>    C        2.89987         1.61711        -0.11153
| 23>   Br        4.62850         3.86531         0.02169
| 24>   Br        5.65924         2.88493        -2.95284
| 25>    C        2.03324        -1.10858        -2.38133
| 26>    C        2.10142        -1.74993        -3.58801
| 27>    C        2.98151        -1.38205        -4.62949
| 28>    N        3.68027        -1.13198        -5.50386
| 29>    C        1.29127        -2.84453        -3.96224
| 30>    N        0.64862        -3.71893        -4.33470
| 31>    C        1.13381        -1.42481        -1.28617
| 32>    C        0.38818        -2.55667        -1.14313
| 33>    C       -0.61894        -2.76196        -0.16619
| 34>    O       -0.92155        -4.03101         0.19606
| 35>    C       -1.93836        -3.99774         1.07332
| 36>    C       -2.34691        -2.67187         1.26765
| 37>    C       -1.49744        -1.87542         0.46450
| 38>    C       -1.63170        -0.49464         0.24577
| 39>    N       -1.80973         0.61483         0.02277
| 40>    C       -3.39921        -2.25449         2.09418
| 41>    N       -4.26886        -1.95139         2.77612
| 42>    C       -2.47185        -5.15655         1.68950
| 43>    C       -2.06234        -6.41799         1.39415
| 44>    C       -2.50830        -7.64578         1.94341
| 45>    N       -3.30404        -7.88129         3.04080
| 46>    C       -3.89157        -6.93831         3.96443
| 47>    C       -5.25414        -6.44280         3.48496
| 48>    C       -3.51261        -9.25892         3.24589
| 49>    O       -4.17271        -9.70722         4.16021
| 50>    C       -2.77772        -9.90421         2.18009
| 51>    C       -2.16709        -8.89149         1.41157
| 52>    C       -1.42579        -9.52288         0.33784
| 53>    O       -0.75283        -9.07248        -0.56106
| 54>    N       -1.64879       -10.90328         0.53640
| 55>    C       -1.03253       -11.88873        -0.31939
| 56>    C        0.21132       -12.50034         0.32034
| 57>    C       -2.44336       -11.14461         1.62992
| 58>    C       -2.82833       -12.43274         2.07440
| 59>    C       -3.60632       -12.60836         3.17677
| 60>    C       -4.00026       -13.87155         3.67444
| 61>    O       -3.63892       -15.03196         3.07929
| 62>    C       -4.14429       -16.05311         3.79752
| 63>    C       -4.86385       -15.55559         4.88753
| 64>    C       -4.77218       -14.14485         4.80918
| 65>    C       -5.34522       -13.21780         5.69308
| 66>    N       -5.82738       -12.48600         6.43038
| 67>    C       -5.51264       -16.34116         5.85026
| 68>    N       -6.02894       -17.02189         6.61404
| 69>    C       -3.89950       -17.41254         3.48879
| 70>    C       -3.16881       -17.85400         2.43540
| 71>    C       -2.91403       -19.22409         2.16283
| 72>    C       -2.88170       -20.28835         3.01016
| 73>    C       -2.97688       -21.66042         2.42581
| 74>    O       -2.87064       -21.95534         1.26073
| 75>    C       -3.27834       -22.54548         3.56884
| 76>    C       -3.22959       -21.80176         4.76269
| 77>    C       -2.83371       -20.42773         4.45400
| 78>    C       -2.28686       -19.55888         5.35926
| 79>    C       -1.72279       -18.31013         5.03039
| 80>    N       -1.23644       -17.29169         4.82195
| 81>    C       -2.14441       -19.84691         6.73524
| 82>    N       -2.00120       -20.03389         7.85738
| 83>    C       -3.52212       -22.41511         5.96907
| 84>    C       -3.84134       -23.76851         5.96681
| 85>    C       -3.86635       -24.50520         4.77867
| 86>    C       -3.58746       -23.89032         3.56478
| 87>   Br       -4.28703       -26.34580         4.80662
| 88>   Br       -4.24712       -24.60684         7.60958
| 89>    H        4.13793         0.50058        -3.63611
| 90>    H        2.55526         1.92519         0.86338
| 91>    H        0.55987        -3.40589        -1.79266
| 92>    H       -3.25429        -4.94945         2.40149
| 93>    H       -1.31790        -6.54474         0.61716
| 94>    H       -3.19498        -6.11519         4.13515
| 95>    H       -4.02577        -7.48212         4.90461
| 96>    H       -5.19679        -6.01740         2.48528
| 97>    H       -5.62997        -5.68536         4.16672
| 98>    H       -5.95724        -7.27148         3.46473
| 99>    H       -0.75093       -11.36023        -1.23443
|100>    H       -1.76381       -12.66196        -0.57065
|101>    H        0.94479       -11.72360         0.52128
|102>    H        0.65289       -13.22597        -0.35687
|103>    H       -0.03177       -12.99708         1.25705
|104>    H       -2.48491       -13.29490         1.52072
|105>    H       -3.95658       -11.75563         3.74484
|106>    H       -4.36334       -18.11491         4.16885
|107>    H       -2.80535       -17.13519         1.71396
|108>    H       -2.77188       -19.48492         1.11771
|109>    H       -3.52148       -21.87524         6.90231
|110>    H       -3.61090       -24.44847         2.64173
|111> *
|112>
|113>                          ****END OF INPUT****

CARTESIAN COORDINATES (ANGSTROEM)
---------------------------------
  C      1.324300   -0.406710   -0.216240
  O      0.818810   -0.389410    0.882500
  C      2.365380    0.503590   -0.726410
  C      2.789800    0.080100   -1.999090
  C      3.775540    0.791800   -2.663500
  C      4.314910    1.915860   -2.048090
  C      3.882210    2.331280   -0.785030
  C      2.899870    1.617110   -0.111530
  Br     4.628500    3.865310    0.021690
  Br     5.659240    2.884930   -2.952840
  C      2.033240   -1.108580   -2.381330
  C      2.101420   -1.749930   -3.588010
  C      2.981510   -1.382050   -4.629490
  N      3.680270   -1.131980   -5.503860
  C      1.291270   -2.844530   -3.962240
  N      0.648620   -3.718930   -4.334700
  C      1.133810   -1.424810   -1.286170
  C      0.388180   -2.556670   -1.143130
  C     -0.618940   -2.761960   -0.166190
  O     -0.921550   -4.031010    0.196060
  C     -1.938360   -3.997740    1.073320
  C     -2.346910   -2.671870    1.267650
  C     -1.497440   -1.875420    0.464500
  C     -1.631700   -0.494640    0.245770
  N     -1.809730    0.614830    0.022770
  C     -3.399210   -2.254490    2.094180
  N     -4.268860   -1.951390    2.776120
  C     -2.471850   -5.156550    1.689500
  C     -2.062340   -6.417990    1.394150
  C     -2.508300   -7.645780    1.943410
  N     -3.304040   -7.881290    3.040800
  C     -3.891570   -6.938310    3.964430
  C     -5.254140   -6.442800    3.484960
  C     -3.512610   -9.258920    3.245890
  O     -4.172710   -9.707220    4.160210
  C     -2.777720   -9.904210    2.180090
  C     -2.167090   -8.891490    1.411570
  C     -1.425790   -9.522880    0.337840
  O     -0.752830   -9.072480   -0.561060
  N     -1.648790  -10.903280    0.536400
  C     -1.032530  -11.888730   -0.319390
  C      0.211320  -12.500340    0.320340
  C     -2.443360  -11.144610    1.629920
  C     -2.828330  -12.432740    2.074400
  C     -3.606320  -12.608360    3.176770
  C     -4.000260  -13.871550    3.674440
  O     -3.638920  -15.031960    3.079290
  C     -4.144290  -16.053110    3.797520
  C     -4.863850  -15.555590    4.887530
  C     -4.772180  -14.144850    4.809180
  C     -5.345220  -13.217800    5.693080
  N     -5.827380  -12.486000    6.430380
  C     -5.512640  -16.341160    5.850260
  N     -6.028940  -17.021890    6.614040
  C     -3.899500  -17.412540    3.488790
  C     -3.168810  -17.854000    2.435400
  C     -2.914030  -19.224090    2.162830
  C     -2.881700  -20.288350    3.010160
  C     -2.976880  -21.660420    2.425810
  O     -2.870640  -21.955340    1.260730
  C     -3.278340  -22.545480    3.568840
  C     -3.229590  -21.801760    4.762690
  C     -2.833710  -20.427730    4.454000
  C     -2.286860  -19.558880    5.359260
  C     -1.722790  -18.310130    5.030390
  N     -1.236440  -17.291690    4.821950
  C     -2.144410  -19.846910    6.735240
  N     -2.001200  -20.033890    7.857380
  C     -3.522120  -22.415110    5.969070
  C     -3.841340  -23.768510    5.966810
  C     -3.866350  -24.505200    4.778670
  C     -3.587460  -23.890320    3.564780
  Br    -4.287030  -26.345800    4.806620
  Br    -4.247120  -24.606840    7.609580
  H      4.137930    0.500580   -3.636110
  H      2.555260    1.925190    0.863380
  H      0.559870   -3.405890   -1.792660
  H     -3.254290   -4.949450    2.401490
  H     -1.317900   -6.544740    0.617160
  H     -3.194980   -6.115190    4.135150
  H     -4.025770   -7.482120    4.904610
  H     -5.196790   -6.017400    2.485280
  H     -5.629970   -5.685360    4.166720
  H     -5.957240   -7.271480    3.464730
  H     -0.750930  -11.360230   -1.234430
  H     -1.763810  -12.661960   -0.570650
  H      0.944790  -11.723600    0.521280
  H      0.652890  -13.225970   -0.356870
  H     -0.031770  -12.997080    1.257050
  H     -2.484910  -13.294900    1.520720
  H     -3.956580  -11.755630    3.744840
  H     -4.363340  -18.114910    4.168850
  H     -2.805350  -17.135190    1.713960
  H     -2.771880  -19.484920    1.117710
  H     -3.521480  -21.875240    6.902310
  H     -3.610900  -24.448470    2.641730

 Total Charge           Charge          ....    0
 Multiplicity           Mult            ....    1
 Number of Electrons    NEL             ....  604
 Basis Dimension        Dim             .... 1218

ORBITAL ENERGIES
----------------

  NO   OCC          E(Eh)            E(eV)
   0   2.0000    -482.886159    -13140.0004
   1   2.0000    -482.884475    -13139.9546
   2   2.0000    -482.883876    -13139.9383
   3   2.0000    -482.882985    -13139.9141
   4   2.0000     -62.563752     -1702.4462
   5   2.0000     -62.562100     -1702.4013
   6   2.0000     -62.561493     -1702.3848
   7   2.0000     -62.560609     -1702.3607
   8   2.0000     -56.397715     -1534.6598
   9   2.0000     -56.396076     -1534.6152
  10   2.0000     -56.395453     -1534.5983
  11   2.0000     -56.395045     -1534.5872
  12   2.0000     -56.394944     -1534.5844
  13   2.0000     -56.394577     -1534.5745
  14   2.0000     -56.393386     -1534.5420
  15   2.0000     -56.393281     -1534.5392
  16   2.0000     -56.392789     -1534.5258
  17   2.0000     -56.392679     -1534.5228
  18   2.0000     -56.391899     -1534.5016
  19   2.0000     -56.391795     -1534.4988
  20   2.0000     -19.349077      -526.5152
  21   2.0000     -19.346828      -526.4540
  22   2.0000     -19.239433      -523.5316
  23   2.0000     -19.238374      -523.5028
  24   2.0000     -19.212841      -522.8080
  25   2.0000     -19.210124      -522.7341
  26   2.0000     -14.474441      -393.8696
  27   2.0000     -14.472311      -393.8116
  28   2.0000     -14.438824      -392.9004
  29   2.0000     -14.434646      -392.7867
  30   2.0000     -14.433945      -392.7676
  31   2.0000     -14.432556      -392.7298
  32   2.0000     -14.432389      -392.7253
  33   2.0000     -14.431279      -392.6951
  34   2.0000     -14.428002      -392.6059
  35   2.0000     -14.427320      -392.5873
  36   2.0000     -10.396129      -282.8930
  37   2.0000     -10.395405      -282.8734
  38   2.0000     -10.394694      -282.8540
  39   2.0000     -10.392361      -282.7905
  40   2.0000     -10.392229      -282.7869
  41   2.0000     -10.390020      -282.7268
  42   2.0000     -10.389938      -282.7246
  43   2.0000     -10.388955      -282.6978
  44   2.0000     -10.367746      -282.1207
  45   2.0000     -10.365961      -282.0722
  46   2.0000     -10.365884      -282.0700
  47   2.0000     -10.365468      -282.0587
  48   2.0000     -10.365296      -282.0540
  49   2.0000     -10.364716      -282.0383
  50   2.0000     -10.363074      -281.9936
  51   2.0000     -10.362508      -281.9782
  52   2.0000     -10.361557      -281.9523
  53   2.0000     -10.358893      -281.8798
  54   2.0000     -10.357247      -281.8350
  55   2.0000     -10.354086      -281.7490
  56   2.0000     -10.353564      -281.7348
  57   2.0000     -10.349550      -281.6256
  58   2.0000     -10.345478      -281.5148
  59   2.0000     -10.339463      -281.3511
  60   2.0000     -10.337351      -281.2936
  61   2.0000     -10.335567      -281.2451
  62   2.0000     -10.335201      -281.2351
  63   2.0000     -10.334365      -281.2124
  64   2.0000     -10.333832      -281.1979
  65   2.0000     -10.333691      -281.1940
  66   2.0000     -10.332115      -281.1511
  67   2.0000     -10.331406      -281.1319
  68   2.0000     -10.329625      -281.0834
  69   2.0000     -10.329261      -281.0735
  70   2.0000     -10.328744      -281.0594
  71   2.0000     -10.326280      -280.9924
  72   2.0000     -10.326205      -280.9903
  73   2.0000     -10.325958      -280.9836
  74   2.0000     -10.325100      -280.9603
  75   2.0000     -10.324910      -280.9551
  76   2.0000     -10.324416      -280.9416
  77   2.0000     -10.324282      -280.9380
  78   2.0000     -10.323987      -280.9300
  79   2.0000     -10.323599      -280.9194
  80   2.0000     -10.323519      -280.9172
  81   2.0000     -10.321454      -280.8610
  82   2.0000     -10.321083      -280.8509
  83   2.0000     -10.320185      -280.8265
  84   2.0000     -10.317404      -280.7508
  85   2.0000     -10.315036      -280.6864
  86   2.0000     -10.287427      -279.9351
  87   2.0000     -10.283644      -279.8322
  88   2.0000     -10.278999      -279.7058
  89   2.0000     -10.271559      -279.5033
  90   2.0000      -8.793067      -239.2715
  91   2.0000      -8.791436      -239.2271
  92   2.0000      -8.790830      -239.2106
  93   2.0000      -8.789944      -239.1865
  94   2.0000      -6.629244      -180.3909
  95   2.0000      -6.627660      -180.3478
  96   2.0000      -6.627000      -180.3298
  97   2.0000      -6.626143      -180.3065
  98   2.0000      -6.615175      -180.0081
  99   2.0000      -6.614362      -179.9859
 100   2.0000      -6.613534      -179.9634
 101   2.0000      -6.612950      -179.9475
 102   2.0000      -6.612696      -179.9406
 103   2.0000      -6.612122      -179.9250
 104   2.0000      -6.612035      -179.9226
 105   2.0000      -6.611234      -179.9008
 106   2.0000      -2.745130       -74.6988
 107   2.0000      -2.743550       -74.6558
 108   2.0000      -2.742914       -74.6385
 109   2.0000      -2.742061       -74.6153
 110   2.0000      -2.741344       -74.5958
 111   2.0000      -2.740771       -74.5802
 112   2.0000      -2.739754       -74.5525
 113   2.0000      -2.739168       -74.5365
 114   2.0000      -2.739122       -74.5353
 115   2.0000      -2.738454       -74.5171
 116   2.0000      -2.738275       -74.5123
 117   2.0000      -2.737586       -74.4935
 118   2.0000      -2.729542       -74.2746
 119   2.0000      -2.729538       -74.2745
 120   2.0000      -2.727870       -74.2291
 121   2.0000      -2.727861       -74.2289
 122   2.0000      -2.727318       -74.2141
 123   2.0000      -2.727295       -74.2135
 124   2.0000      -2.726407       -74.1893
 125   2.0000      -2.726391       -74.1889
 126   2.0000      -1.267656       -34.4947
 127   2.0000      -1.267125       -34.4802
 128   2.0000      -1.156416       -31.4677
 129   2.0000      -1.154480       -31.4150
 130   2.0000      -1.154375       -31.4121
 131   2.0000      -1.147524       -31.2257
 132   2.0000      -1.084841       -29.5200
 133   2.0000      -1.074724       -29.2447
 134   2.0000      -1.041654       -28.3449
 135   2.0000      -1.039237       -28.2791
 136   2.0000      -1.024456       -27.8769
 137   2.0000      -1.022555       -27.8251
 138   2.0000      -1.021690       -27.8016
 139   2.0000      -1.020630       -27.7728
 140   2.0000      -1.013151       -27.5693
 141   2.0000      -1.011298       -27.5188
 142   2.0000      -1.010830       -27.5061
 143   2.0000      -1.010761       -27.5042
 144   2.0000      -0.992722       -27.0133
 145   2.0000      -0.991701       -26.9856
 146   2.0000      -0.970464       -26.4077
 147   2.0000      -0.965778       -26.2802
 148   2.0000      -0.964958       -26.2578
 149   2.0000      -0.962776       -26.1985
 150   2.0000      -0.949613       -25.8403
 151   2.0000      -0.942763       -25.6539
 152   2.0000      -0.934460       -25.4280
 153   2.0000      -0.933842       -25.4111
 154   2.0000      -0.927264       -25.2321
 155   2.0000      -0.923027       -25.1168
 156   2.0000      -0.920321       -25.0432
 157   2.0000      -0.914483       -24.8844
 158   2.0000      -0.897809       -24.4306
 159   2.0000      -0.890270       -24.2255
 160   2.0000      -0.885119       -24.0853
 161   2.0000      -0.865244       -23.5445
 162   2.0000      -0.864423       -23.5221
 163   2.0000      -0.862224       -23.4623
 164   2.0000      -0.855893       -23.2900
 165   2.0000      -0.836664       -22.7668
 166   2.0000      -0.828906       -22.5557
 167   2.0000      -0.817363       -22.2416
 168   2.0000      -0.809770       -22.0350
 169   2.0000      -0.805167       -21.9097
 170   2.0000      -0.787732       -21.4353
 171   2.0000      -0.784580       -21.3495
 172   2.0000      -0.777159       -21.1476
 173   2.0000      -0.776022       -21.1166
 174   2.0000      -0.771735       -21.0000
 175   2.0000      -0.763759       -20.7829
 176   2.0000      -0.760064       -20.6824
 177   2.0000      -0.747328       -20.3358
 178   2.0000      -0.740281       -20.1441
 179   2.0000      -0.728915       -19.8348
 180   2.0000      -0.724803       -19.7229
 181   2.0000      -0.718607       -19.5543
 182   2.0000      -0.717388       -19.5211
 183   2.0000      -0.709570       -19.3084
 184   2.0000      -0.703437       -19.1415
 185   2.0000      -0.701139       -19.0790
 186   2.0000      -0.692277       -18.8378
 187   2.0000      -0.685226       -18.6460
 188   2.0000      -0.670132       -18.2352
 189   2.0000      -0.663644       -18.0587
 190   2.0000      -0.654302       -17.8045
 191   2.0000      -0.647223       -17.6118
 192   2.0000      -0.644500       -17.5377
 193   2.0000      -0.636548       -17.3213
 194   2.0000      -0.634524       -17.2663
 195   2.0000      -0.631632       -17.1876
 196   2.0000      -0.629660       -17.1339
 197   2.0000      -0.619502       -16.8575
 198   2.0000      -0.614634       -16.7250
 199   2.0000      -0.612946       -16.6791
 200   2.0000      -0.609200       -16.5772
 201   2.0000      -0.603130       -16.4120
 202   2.0000      -0.602309       -16.3897
 203   2.0000      -0.598471       -16.2852
 204   2.0000      -0.594816       -16.1858
 205   2.0000      -0.588382       -16.0107
 206   2.0000      -0.584141       -15.8953
 207   2.0000      -0.581742       -15.8300
 208   2.0000      -0.579788       -15.7768
 209   2.0000      -0.575121       -15.6498
 210   2.0000      -0.566234       -15.4080
 211   2.0000      -0.563004       -15.3201
 212   2.0000      -0.561946       -15.2913
 213   2.0000      -0.559503       -15.2248
 214   2.0000      -0.559386       -15.2217
 215   2.0000      -0.556345       -15.1389
 216   2.0000      -0.556068       -15.1314
 217   2.0000      -0.548873       -14.9356
 218   2.0000      -0.546639       -14.8748
 219   2.0000      -0.545708       -14.8495
 220   2.0000      -0.545027       -14.8309
 221   2.0000      -0.542619       -14.7654
 222   2.0000      -0.539451       -14.6792
 223   2.0000      -0.534756       -14.5514
 224   2.0000      -0.532786       -14.4978
 225   2.0000      -0.530312       -14.4305
 226   2.0000      -0.524258       -14.2658
 227   2.0000      -0.521031       -14.1780
 228   2.0000      -0.519423       -14.1342
 229   2.0000      -0.518461       -14.1080
 230   2.0000      -0.516532       -14.0556
 231   2.0000      -0.513261       -13.9665
 232   2.0000      -0.506319       -13.7776
 233   2.0000      -0.505606       -13.7582
 234   2.0000      -0.504195       -13.7198
 235   2.0000      -0.498210       -13.5570
 236   2.0000      -0.494903       -13.4670
 237   2.0000      -0.494397       -13.4532
 238   2.0000      -0.490458       -13.3460
 239   2.0000      -0.489281       -13.3140
 240   2.0000      -0.486784       -13.2461
 241   2.0000      -0.484251       -13.1771
 242   2.0000      -0.480686       -13.0801
 243   2.0000      -0.476857       -12.9759
 244   2.0000      -0.474773       -12.9192
 245   2.0000      -0.474290       -12.9061
 246   2.0000      -0.473283       -12.8787
 247   2.0000      -0.472006       -12.8439
 248   2.0000      -0.470589       -12.8054
 249   2.0000      -0.469551       -12.7771
 250   2.0000      -0.467783       -12.7290
 251   2.0000      -0.464241       -12.6326
 252   2.0000      -0.463942       -12.6245
 253   2.0000      -0.462733       -12.5916
 254   2.0000      -0.460676       -12.5356
 255   2.0000      -0.459048       -12.4913
 256   2.0000      -0.457826       -12.4581
 257   2.0000      -0.457085       -12.4379
 258   2.0000      -0.456656       -12.4263
 259   2.0000      -0.455336       -12.3903
 260   2.0000      -0.454083       -12.3562
 261   2.0000      -0.452386       -12.3101
 262   2.0000      -0.447407       -12.1746
 263   2.0000      -0.445736       -12.1291
 264   2.0000      -0.444109       -12.0848
 265   2.0000      -0.443062       -12.0563
 266   2.0000      -0.442762       -12.0482
 267   2.0000      -0.441553       -12.0153
 268   2.0000      -0.441195       -12.0055
 269   2.0000      -0.437144       -11.8953
 270   2.0000      -0.435343       -11.8463
 271   2.0000      -0.434935       -11.8352
 272   2.0000      -0.427622       -11.6362
 273   2.0000      -0.425621       -11.5817
 274   2.0000      -0.422872       -11.5069
 275   2.0000      -0.421743       -11.4762
 276   2.0000      -0.420089       -11.4312
 277   2.0000      -0.410426       -11.1683
 278   2.0000      -0.408313       -11.1108
 279   2.0000      -0.407004       -11.0751
 280   2.0000      -0.399645       -10.8749
 281   2.0000      -0.398906       -10.8548
 282   2.0000      -0.397054       -10.8044
 283   2.0000      -0.390444       -10.6245
 284   2.0000      -0.380117       -10.3435
 285   2.0000      -0.378708       -10.3052
 286   2.0000      -0.368495       -10.0272
 287   2.0000      -0.366426        -9.9710
 288   2.0000      -0.362086        -9.8529
 289   2.0000      -0.360273        -9.8035
 290   2.0000      -0.355659        -9.6780
 291   2.0000      -0.353230        -9.6119
 292   2.0000      -0.353079        -9.6078
 293   2.0000      -0.351839        -9.5740
 294   2.0000      -0.344126        -9.3642
 295   2.0000      -0.343563        -9.3488
 296   2.0000      -0.336329        -9.1520
 297   2.0000      -0.324343        -8.8258
 298   2.0000      -0.322228        -8.7683
 299   2.0000      -0.311966        -8.4890
 300   2.0000      -0.302768        -8.2387
 301   2.0000      -0.256238        -6.9726
 302   0.0000      -0.132952        -3.6178
 303   0.0000      -0.117488        -3.1970
 304   0.0000      -0.101586        -2.7643
 305   0.0000      -0.085644        -2.3305
 306   0.0000      -0.082697        -2.2503

MULLIKEN ATOMIC CHARGES
-----------------------
   0 C :    0.153425
   1 O :   -0.134188
   2 C :   -0.021698
   3 C :    0.040941
   4 C :   -0.007620
   5 C :   -0.023734
   6 C :   -0.016261
   7 C :   -0.006085
   8 Br:    0.024906
   9 Br:    0.030097
  10 C :    0.292806
  11 C :   -0.318898
  12 C :   -0.185399
  13 N :    0.167431
  14 C :   -0.199438
  15 N :    0.175028
  16 C :   -0.080444
  17 C :   -0.046353
  18 C :    0.150109
  19 O :   -0.167614
  20 C :    0.148914
  21 C :   -0.019314
  22 C :    0.038558
  23 C :   -0.305402
  24 N :    0.242990
  25 C :   -0.289933
  26 N :    0.228723
  27 C :   -0.065107
  28 C :   -0.015033
  29 C :    0.114923
  30 N :   -0.263659
  31 C :    0.094735
  32 C :    0.001863
  33 C :    0.169711
  34 O :   -0.200101
  35 C :   -0.061493
  36 C :   -0.029436
  37 C :    0.153490
  38 O :   -0.175006
  39 N :   -0.264508
  40 C :    0.095278
  41 C :    0.001953
  42 C :    0.149677
  43 C :   -0.018667
  44 C :   -0.045520
  45 C :    0.150247
  46 O :   -0.180014
  47 C :    0.138720
  48 C :   -0.005677
  49 C :    0.007305
  50 C :   -0.290568
  51 N :    0.249928
  52 C :   -0.294115
  53 N :    0.237850
  54 C :   -0.035115
  55 C :    0.033682
  56 C :    0.034558
  57 C :   -0.109223
  58 C :    0.134615
  59 O :   -0.127813
  60 C :    0.008385
  61 C :    0.014665
  62 C :    0.261936
  63 C :   -0.325162
  64 C :   -0.184651
  65 N :    0.170540
  66 C :   -0.177272
  67 N :    0.175490
  68 C :   -0.005428
  69 C :   -0.024253
  70 C :   -0.016677
  71 C :   -0.020555
  72 Br:    0.023614
  73 Br:    0.032573
  74 H :    0.009515
  75 H :    0.012647
  76 H :    0.046964
  77 H :    0.021598
  78 H :    0.031285
  79 H :    0.027146
  80 H :    0.049997
  81 H :    0.018916
  82 H :    0.037328
  83 H :    0.035241
  84 H :    0.049156
  85 H :    0.023875
  86 H :    0.033271
  87 H :    0.029655
  88 H :    0.018167
  89 H :   -0.009288
  90 H :    0.047357
  91 H :    0.042555
  92 H :    0.017750
  93 H :    0.036633
  94 H :    0.017723
  95 H :    0.010276
Sum of atomic charges:   -0.0000000

LOEWDIN ATOMIC CHARGES
----------------------
   0 C :    0.086732
   1 O :   -0.115046
   2 C :   -0.039482
   3 C :   -0.011376
   4 C :   -0.005900
   5 C :   -0.116556
   6 C :   -0.120498
   7 C :    0.012977
   8 Br:    0.146862
   9 Br:    0.148702
  10 C :    0.069516
  11 C :   -0.118673
  12 C :   -0.019702
  13 N :   -0.032898
  14 C :   -0.024045
  15 N :   -0.033502
  16 C :   -0.068280
  17 C :    0.043800
  18 C :    0.053668
  19 O :    0.045137
  20 C :    0.083800
  21 C :   -0.083807
  22 C :   -0.040923
  23 C :   -0.029355
  24 N :   -0.019604
  25 C :   -0.034911
  26 N :   -0.024799
  27 C :   -0.039860
  28 C :    0.010099
  29 C :    0.061478
  30 N :    0.002200
  31 C :    0.035689
  32 C :   -0.061835
  33 C :    0.081523
  34 O :   -0.185936
  35 C :   -0.119170
  36 C :   -0.097139
  37 C :    0.082766
  38 O :   -0.177606
  39 N :   -0.002641
  40 C :    0.036725
  41 C :   -0.060181
  42 C :    0.083758
  43 C :   -0.023401
  44 C :    0.011794
  45 C :    0.071260
  46 O :    0.038583
  47 C :    0.073028
  48 C :   -0.070531
  49 C :   -0.065822
  50 C :   -0.035604
  51 N :   -0.008045
  52 C :   -0.034454
  53 N :   -0.021082
  54 C :    0.002855
  55 C :   -0.008307
  56 C :    0.059418
  57 C :   -0.075414
  58 C :    0.084954
  59 O :   -0.126606
  60 C :   -0.045486
  61 C :   -0.010038
  62 C :    0.061601
  63 C :   -0.125219
  64 C :   -0.014094
  65 N :   -0.038257
  66 C :   -0.022476
  67 N :   -0.029445
  68 C :   -0.005559
  69 C :   -0.115838
  70 C :   -0.121544
  71 C :    0.009530
  72 Br:    0.144956
  73 Br:    0.150763
  74 H :    0.045267
  75 H :    0.049355
  76 H :    0.057139
  77 H :    0.045868
  78 H :    0.053189
  79 H :    0.024404
  80 H :    0.041196
  81 H :    0.020988
  82 H :    0.037127
  83 H :    0.035599
  84 H :    0.040388
  85 H :    0.023572
  86 H :    0.033976
  87 H :    0.033319
  88 H :    0.022859
  89 H :    0.034472
  90 H :    0.051423
  91 H :    0.049525
  92 H :    0.041163
  93 H :    0.051153
  94 H :    0.046887
  95 H :    0.047902

  Mayer bond orders larger than 0.100000
B(  0-C ,  1-O ) :   2.2127 B(  0-C ,  2-C ) :   0.9470 B(  0-C , 16-C ) :   0.9352
B(  2-C ,  3-C ) :   1.3222 B(  2-C ,  7-C ) :   1.3754 B(  3-C ,  4-C ) :   1.3631
B(  3-C , 10-C ) :   1.0030 B(  4-C ,  5-C ) :   1.3745 B(  4-C , 74-H ) :   0.9785
B(  5-C ,  6-C ) :   1.4122 B(  5-C ,  9-Br) :   1.0618 B(  6-C ,  7-C ) :   1.3542
B(  6-C ,  8-Br) :   1.0405 B(  7-C , 75-H ) :   1.0068 B( 10-C , 11-C ) :   1.6663
B( 10-C , 16-C ) :   1.0608 B( 11-C , 12-C ) :   1.1377 B( 11-C , 14-C ) :   1.1374
B( 12-C , 13-N ) :   2.9728 B( 14-C , 15-N ) :   2.9918 B( 16-C , 17-C ) :   1.6155
B( 17-C , 18-C ) :   1.1874 B( 17-C , 76-H ) :   0.9272 B( 18-C , 19-O ) :   1.1225
B( 18-C , 22-C ) :   1.3872 B( 19-O , 20-C ) :   1.1876 B( 20-C , 21-C ) :   1.3355
B( 20-C , 27-C ) :   1.2087 B( 21-C , 22-C ) :   1.3589 B( 21-C , 25-C ) :   1.1495
B( 22-C , 23-C ) :   1.1540 B( 23-C , 24-N ) :   3.0129 B( 25-C , 26-N ) :   3.0108
B( 27-C , 28-C ) :   1.5492 B( 27-C , 77-H ) :   0.9511 B( 28-C , 29-C ) :   1.1594
B( 28-C , 78-H ) :   0.9632 B( 29-C , 30-N ) :   1.1692 B( 29-C , 36-C ) :   1.3414
B( 30-N , 31-C ) :   0.9330 B( 30-N , 33-C ) :   1.0661 B( 31-C , 32-C ) :   1.1186
B( 31-C , 79-H ) :   0.9506 B( 31-C , 80-H ) :   0.9255 B( 32-C , 81-H ) :   0.9663
B( 32-C , 82-H ) :   0.9683 B( 32-C , 83-H ) :   0.9595 B( 33-C , 34-O ) :   2.0174
B( 33-C , 35-C ) :   0.9858 B( 34-O , 90-H ) :   0.1204 B( 35-C , 36-C ) :   1.2666
B( 35-C , 42-C ) :   1.3222 B( 36-C , 37-C ) :   0.9647 B( 37-C , 38-O ) :   2.1515
B( 37-C , 39-N ) :   1.0269 B( 39-N , 40-C ) :   0.9407 B( 39-N , 42-C ) :   1.1733
B( 40-C , 41-C ) :   1.1204 B( 40-C , 84-H ) :   0.9288 B( 40-C , 85-H ) :   0.9505
B( 41-C , 86-H ) :   0.9636 B( 41-C , 87-H ) :   0.9678 B( 41-C , 88-H ) :   0.9690
B( 42-C , 43-C ) :   1.1410 B( 43-C , 44-C ) :   1.5594 B( 43-C , 89-H ) :   0.9813
B( 44-C , 45-C ) :   1.2070 B( 44-C , 90-H ) :   0.9213 B( 45-C , 46-O ) :   1.1490
B( 45-C , 49-C ) :   1.3551 B( 46-O , 47-C ) :   1.1652 B( 47-C , 48-C ) :   1.3742
B( 47-C , 54-C ) :   1.2369 B( 48-C , 49-C ) :   1.3338 B( 48-C , 52-C ) :   1.1505
B( 49-C , 50-C ) :   1.1554 B( 50-C , 51-N ) :   3.0136 B( 52-C , 53-N ) :   3.0137
B( 54-C , 55-C ) :   1.6230 B( 54-C , 91-H ) :   0.9358 B( 55-C , 56-C ) :   1.1195
B( 55-C , 92-H ) :   0.9693 B( 56-C , 57-C ) :   1.6960 B( 56-C , 93-H ) :   0.9286
B( 57-C , 58-C ) :   0.9374 B( 57-C , 62-C ) :   1.0245 B( 58-C , 59-O ) :   2.2749
B( 58-C , 60-C ) :   0.9241 B( 60-C , 61-C ) :   1.3273 B( 60-C , 71-C ) :   1.3654
B( 61-C , 62-C ) :   1.0023 B( 61-C , 68-C ) :   1.3682 B( 62-C , 63-C ) :   1.6683
B( 63-C , 64-C ) :   1.1707 B( 63-C , 66-C ) :   1.1211 B( 64-C , 65-N ) :   2.9789
B( 66-C , 67-N ) :   2.9964 B( 68-C , 69-C ) :   1.3709 B( 68-C , 94-H ) :   0.9830
B( 69-C , 70-C ) :   1.4152 B( 69-C , 73-Br) :   1.0599 B( 70-C , 71-C ) :   1.3584
B( 70-C , 72-Br) :   1.0400 B( 71-C , 95-H ) :   1.0096

-----------------------------------------------------------------------------
         ABSORPTION SPECTRUM VIA TRANSITION ELECTRIC DIPOLE MOMENTS
-----------------------------------------------------------------------------
State   Energy  Wavelength   fosc         T2         TX        TY        TZ
        (cm-1)    (nm)                  (au**2)     (au)      (au)      (au)
-----------------------------------------------------------------------------
   0   12367.4    808.6   1.231774558  32.78910   0.99564   5.52290  -1.13814
   1   17541.5    570.1   0.120508480   2.26166   1.25430  -0.54743  -0.62348
   2   20401.5    490.2   0.081260456   1.31127  -0.45873  -0.37578   0.97960
   3   22294.5    448.5   0.317296855   4.68536   0.64710  -2.04991   0.25398
   4   23597.2    423.8   0.401052740   5.59521  -1.25747  -1.44460   1.38820
   5   24657.6    405.6   0.024549971   0.32777   0.20877   0.28118  -0.45291
   6   25103.5    398.4   0.024619062   0.32286  -0.24807  -0.37755   0.34465
   7   25778.4    387.9   0.003922032   0.05009   0.10689   0.19647   0.00770
   8   26722.8    374.2   0.035767427   0.44064  -0.30864  -0.58537   0.05218
   9   27019.3    370.1   0.321994495   3.92329   1.10402   1.61228   0.32398
  10   27051.0    369.7   0.124700620   1.51761   0.69595   0.93717  -0.39367
  11   27220.1    367.4   0.008215776   0.09937   0.01703  -0.30100  -0.09206
  12   27842.1    359.2   0.145215733   1.71707  -0.57350  -1.06705   0.49958
  13   28050.8    356.5   0.124819306   1.46492  -0.62172   0.88073   0.55018
  14   29077.2    343.9   0.029454595   0.33348   0.14347   0.54127  -0.14115
  15   29640.2    337.4   0.144509240   1.60506  -0.84592   0.58609   0.73890
  16   30378.2    329.2   0.000363190   0.00394   0.02920  -0.04536  -0.03203
  17   31123.1    321.3   0.018117811   0.19165  -0.10220  -0.42097   0.06310
  18   31523.2    317.2   0.021176753   0.22116  -0.37235   0.20139   0.20484
  19   31962.5    312.9   0.118845228   1.22410   0.43798   0.99181   0.22042
  20   32134.4    311.2   0.036688314   0.37587  -0.59094  -0.11264   0.11820
  21   32850.4    304.4   0.021298702   0.21345  -0.24880  -0.29049  -0.25915
  22   33187.9    301.3   0.065169778   0.64646   0.14307   0.78974   0.04793
  23   33943.4    294.6   0.102912953   0.99814   0.15936  -0.83433  -0.52596
  24   34196.6    292.4   0.036483838   0.35123   0.04681  -0.04444   0.58912
  25   34305.6    291.5   0.565014596   5.42213   0.87767   1.91166   0.99870
  26   34477.7    290.0   0.068781184   0.65676   0.19686  -0.78199   0.08056
  27   34597.0    289.0   0.273037261   2.59812  -0.32839  -1.00180  -1.21929
  28   35063.3    285.2   0.060278267   0.56596   0.14827   0.51171   0.53116
  29   35216.5    284.0   0.035269450   0.32971  -0.20040  -0.23054  -0.48621
  30   35310.5    283.2   0.015826659   0.14756  -0.20431   0.12072   0.30206
  31   35536.4    281.4   0.011247685   0.10420  -0.17515   0.19208   0.19138
  32   35698.4    280.1   0.166223634   1.53292   0.13964   1.06782   0.61088
  33   35934.3    278.3   0.010428542   0.09554  -0.25428  -0.17505   0.01552
  34   36048.4    277.4   0.311387784   2.84375   1.24333  -0.61694  -0.95774
  35   36907.3    270.9   0.319659792   2.85136  -0.72042  -1.33938   0.73377
  36   37495.3    266.7   0.006810407   0.05980  -0.20962  -0.10500   0.06950
  37   37551.9    266.3   0.011526990   0.10106  -0.27281  -0.13556   0.09085
  38   37624.2    265.8   0.001009690   0.00883  -0.08165  -0.02013   0.04199
  39   37683.8    265.4   0.045781481   0.39995  -0.55381  -0.24305   0.18487
  40   38213.8    261.7   0.148535581   1.27963   0.61373  -0.19612  -0.92979
  41   38381.3    260.5   0.082410886   0.70687  -0.20878   0.02568   0.81402
  42   39176.7    255.3   0.422300943   3.54870  -0.43153  -0.53998   1.75240
  43   39661.8    252.1   0.000163573   0.00136   0.01202   0.01838   0.02959
  44   39849.7    250.9   0.034757519   0.28714   0.18959  -0.30805  -0.39535
  45   39986.8    250.1   0.048604072   0.40016   0.06713   0.28116  -0.56267
  46   40018.4    249.9   0.009257159   0.07615   0.00124  -0.10576   0.25489
  47   40105.4    249.3   0.014884632   0.12218  -0.25044   0.12696  -0.20820
  48   40326.0    248.0   0.052453463   0.42822   0.13104   0.18417  -0.61411

FINAL SINGLE POINT ENERGY    -13361.687039103876

DIPOLE MOMENT
-------------
                                X             Y             Z
Electronic contribution:     80.31388     -24.04475      17.43707
Nuclear contribution   :    -79.34062      21.70533     -18.71357
                        -----------------------------------------
Total Dipole Moment    :      0.97326      -2.33942      -1.27650
                        -----------------------------------------
Magnitude (a.u.)       :      2.83718
Magnitude (Debye)      :      7.21153

Rotational constants in cm-1:     0.001860     0.000116     0.000113
Rotational constants in MHz :    55.775276     3.474211     3.380829

                             ****ORCA TERMINATED NORMALLY****
TOTAL RUN TIME: 0 days 0 hours 9 minutes 37 seconds 242 msec
