                         Program Version 4.2.0 -  RELEASE  -
|  1> # ORCA input file
|  2> # SCF done       -172.820655526745          0.000685827543
|  3> ! CAM-B3LYP def2-SVP def2/J RIJCOSX Grid4 TightSCF
|  4> %maxcore 5000
|  5> %tddft
|  6>     Mode sTDDFT
|  7>     Ethresh 5.0
|  8>     maxcore 5000
|  9> end
| 10>
| 11> %pal
| 12>   nprocs 6
| 13>   end
| 14> * xyz 0 1
| 15>    C        1.44110        -1.79539         3.48636
| 16>    O        0.95067        -2.76069         4.06022
| 17>    C        2.16791        -0.70397         4.16646
| 18>    C        2.56230         0.25656         3.22107
| 19>    C        3.27102         1.37052         3.63496
| 20>    C        3.57457         1.50228         4.98691
| 21>    C        3.17781         0.54243         5.91637
| 22>    C        2.46350        -0.57656         5.50659
| 23>   Br        3.60825         0.74412         7.74771
| 24>   Br        4.55080         3.02236         5.55073
| 25>    C        2.09896        -0.17770         1.90158
| 26>    C        2.24130         0.55970         0.75100
| 27>    C        2.87784         1.81667         0.69643
| 28>    N        3.38333         2.84163         0.58206
| 29>    C        1.76713         0.21218        -0.53022
| 30>    N        1.41194         0.02441        -1.60722
| 31>    C        1.45352        -1.46241         2.06295
| 32>    C        0.99603        -2.22799         1.00047
| 33>    C        0.35016        -3.46006         0.96839
| 34>    N       -0.04783        -4.20433         2.06078
| 35>    C       -0.63931        -5.32763         1.61692
| 36>    C       -1.26599        -6.49882         2.02767
| 37>    C       -1.61501        -7.18804         0.85914
| 38>    N       -1.21354        -6.46113        -0.24271
| 39>    C       -0.62208        -5.31087         0.18505
| 40>    C       -0.01238        -4.14788        -0.22347
| 41>    C       -2.26256        -8.44130         0.70350
| 42>    C       -2.81014        -9.15141         1.72166
| 43>    C       -3.44368       -10.41305         1.60399
| 44>    N       -4.08731       -10.97255         2.69120
| 45>    C       -4.60359       -12.17193         2.32266
| 46>    C       -5.34168       -13.26367         2.76549
| 47>    C       -5.42951       -14.14179         1.67838
| 48>    N       -4.76371       -13.59799         0.59718
| 49>    C       -4.26178       -12.38819         0.96296
| 50>    C       -3.54356       -11.28564         0.51200
| 51>    C       -6.08945       -15.39514         1.67050
| 52>    C       -6.06337       -16.32514         0.68217
| 53>    C       -6.76472       -17.55857         0.73854
| 54>    N       -6.55927       -18.54122        -0.20849
| 55>    C       -7.34536       -19.61016         0.09575
| 56>    C       -7.67952       -20.90067        -0.27576
| 57>    C       -8.64983       -21.33258         0.65051
| 58>    N       -8.90765       -20.31511         1.55044
| 59>    C       -8.09371       -19.27291         1.25948
| 60>    C       -7.72399       -17.99561         1.66121
| 61>    C       -9.26699       -22.59066         0.73113
| 62>    C      -10.40195       -22.87306         1.44696
| 63>    C      -10.93151       -24.16200         1.61040
| 64>    C      -10.25352       -25.35946         1.57560
| 65>    C      -10.98730       -26.61317         1.31182
| 66>    O      -12.18723       -26.76681         1.24651
| 67>    C       -9.93751       -27.63983         1.09744
| 68>    C       -8.67459       -27.06487         1.32495
| 69>    C       -8.85998       -25.67430         1.74822
| 70>    C       -7.91365       -24.94052         2.42699
| 71>    C       -8.16635       -23.71288         3.06563
| 72>    N       -8.31017       -22.73175         3.64685
| 73>    C       -6.58805       -25.36600         2.63296
| 74>    N       -5.48958       -25.65254         2.80933
| 75>    C       -7.53155       -27.82549         1.15564
| 76>    C       -7.66955       -29.15400         0.76684
| 77>    C       -8.92606       -29.72043         0.55783
| 78>    C      -10.07691       -28.95856         0.72265
| 79>   Br       -9.08411       -31.53394         0.04182
| 80>   Br       -6.10634       -30.19156         0.51922
| 81>    H        3.59781         2.13416         2.94843
| 82>    H        2.15072        -1.32726         6.21558
| 83>    H        1.17520        -1.82103         0.01478
| 84>    H        0.15196        -3.90311         3.01616
| 85>    H       -1.43870        -6.82981         3.03077
| 86>    H       -1.36834        -6.73783        -1.19666
| 87>    H        0.17327        -3.79194        -1.21706
| 88>    H       -2.32263        -8.83017        -0.30364
| 89>    H       -2.78447        -8.73022         2.71765
| 90>    H       -4.16202       -10.53709         3.59423
| 91>    H       -5.76164       -13.43531         3.73594
| 92>    H       -4.70441       -14.01979        -0.31228
| 93>    H       -3.12839       -11.12153        -0.46150
| 94>    H       -6.64797       -15.61339         2.56834
| 95>    H       -5.46485       -16.16103        -0.20535
| 96>    H       -5.89806       -18.47947        -0.96332
| 97>    H       -7.31073       -21.47925        -1.09914
| 98>    H       -9.42489       -20.44924         2.40274
| 99>    H       -8.09297       -17.43721         2.49638
|100>    H       -8.81345       -23.38083         0.14663
|101>    H      -10.98634       -22.05344         1.84307
|102>    H      -12.00540       -24.25045         1.73769
|103>    H       -6.54418       -27.41975         1.30667
|104>    H      -11.05405       -29.38706         0.56257
|105> *
|106>
|107>                          ****END OF INPUT****

CARTESIAN COORDINATES (ANGSTROEM)
---------------------------------
  C      1.441100   -1.795390    3.486360
  O      0.950670   -2.760690    4.060220
  C      2.167910   -0.703970    4.166460
  C      2.562300    0.256560    3.221070
  C      3.271020    1.370520    3.634960
  C      3.574570    1.502280    4.986910
  C      3.177810    0.542430    5.916370
  C      2.463500   -0.576560    5.506590
  Br     3.608250    0.744120    7.747710
  Br     4.550800    3.022360    5.550730
  C      2.098960   -0.177700    1.901580
  C      2.241300    0.559700    0.751000
  C      2.877840    1.816670    0.696430
  N      3.383330    2.841630    0.582060
  C      1.767130    0.212180   -0.530220
  N      1.411940    0.024410   -1.607220
  C      1.453520   -1.462410    2.062950
  C      0.996030   -2.227990    1.000470
  C      0.350160   -3.460060    0.968390
  N     -0.047830   -4.204330    2.060780
  C     -0.639310   -5.327630    1.616920
  C     -1.265990   -6.498820    2.027670
  C     -1.615010   -7.188040    0.859140
  N     -1.213540   -6.461130   -0.242710
  C     -0.622080   -5.310870    0.185050
  C     -0.012380   -4.147880   -0.223470
  C     -2.262560   -8.441300    0.703500
  C     -2.810140   -9.151410    1.721660
  C     -3.443680  -10.413050    1.603990
  N     -4.087310  -10.972550    2.691200
  C     -4.603590  -12.171930    2.322660
  C     -5.341680  -13.263670    2.765490
  C     -5.429510  -14.141790    1.678380
  N     -4.763710  -13.597990    0.597180
  C     -4.261780  -12.388190    0.962960
  C     -3.543560  -11.285640    0.512000
  C     -6.089450  -15.395140    1.670500
  C     -6.063370  -16.325140    0.682170
  C     -6.764720  -17.558570    0.738540
  N     -6.559270  -18.541220   -0.208490
  C     -7.345360  -19.610160    0.095750
  C     -7.679520  -20.900670   -0.275760
  C     -8.649830  -21.332580    0.650510
  N     -8.907650  -20.315110    1.550440
  C     -8.093710  -19.272910    1.259480
  C     -7.723990  -17.995610    1.661210
  C     -9.266990  -22.590660    0.731130
  C    -10.401950  -22.873060    1.446960
  C    -10.931510  -24.162000    1.610400
  C    -10.253520  -25.359460    1.575600
  C    -10.987300  -26.613170    1.311820
  O    -12.187230  -26.766810    1.246510
  C     -9.937510  -27.639830    1.097440
  C     -8.674590  -27.064870    1.324950
  C     -8.859980  -25.674300    1.748220
  C     -7.913650  -24.940520    2.426990
  C     -8.166350  -23.712880    3.065630
  N     -8.310170  -22.731750    3.646850
  C     -6.588050  -25.366000    2.632960
  N     -5.489580  -25.652540    2.809330
  C     -7.531550  -27.825490    1.155640
  C     -7.669550  -29.154000    0.766840
  C     -8.926060  -29.720430    0.557830
  C    -10.076910  -28.958560    0.722650
  Br    -9.084110  -31.533940    0.041820
  Br    -6.106340  -30.191560    0.519220
  H      3.597810    2.134160    2.948430
  H      2.150720   -1.327260    6.215580
  H      1.175200   -1.821030    0.014780
  H      0.151960   -3.903110    3.016160
  H     -1.438700   -6.829810    3.030770
  H     -1.368340   -6.737830   -1.196660
  H      0.173270   -3.791940   -1.217060
  H     -2.322630   -8.830170   -0.303640
  H     -2.784470   -8.730220    2.717650
  H     -4.162020  -10.537090    3.594230
  H     -5.761640  -13.435310    3.735940
  H     -4.704410  -14.019790   -0.312280
  H     -3.128390  -11.121530   -0.461500
  H     -6.647970  -15.613390    2.568340
  H     -5.464850  -16.161030   -0.205350
  H     -5.898060  -18.479470   -0.963320
  H     -7.310730  -21.479250   -1.099140
  H     -9.424890  -20.449240    2.402740
  H     -8.092970  -17.437210    2.496380
  H     -8.813450  -23.380830    0.146630
  H    -10.986340  -22.053440    1.843070
  H    -12.005400  -24.250450    1.737690
  H     -6.544180  -27.419750    1.306670
  H    -11.054050  -29.387060    0.562570

 Total Charge           Charge          ....    0
 Multiplicity           Mult            ....    1
 Number of Electrons    NEL             ....  550
 Basis Dimension        Dim             .... 1116

ORBITAL ENERGIES
----------------

  NO   OCC          E(Eh)            E(eV)
   0   2.0000    -482.869818    -13139.5558
   1   2.0000    -482.869379    -13139.5438
   2   2.0000    -482.868197    -13139.5116
   3   2.0000    -482.867239    -13139.4856
   4   2.0000     -62.547421     -1702.0018
   5   2.0000     -62.546983     -1701.9899
   6   2.0000     -62.545827     -1701.9585
   7   2.0000     -62.544872     -1701.9325
   8   2.0000     -56.381360     -1534.2148
   9   2.0000     -56.380921     -1534.2029
  10   2.0000     -56.379776     -1534.1717
  11   2.0000     -56.378824     -1534.1458
  12   2.0000     -56.378725     -1534.1431
  13   2.0000     -56.378633     -1534.1406
  14   2.0000     -56.378285     -1534.1311
  15   2.0000     -56.378198     -1534.1288
  16   2.0000     -56.377123     -1534.0995
  17   2.0000     -56.377036     -1534.0971
  18   2.0000     -56.376168     -1534.0735
  19   2.0000     -56.376074     -1534.0710
  20   2.0000     -19.219748      -522.9959
  21   2.0000     -19.206124      -522.6252
  22   2.0000     -14.472292      -393.8111
  23   2.0000     -14.471435      -393.7878
  24   2.0000     -14.471146      -393.7799
  25   2.0000     -14.469092      -393.7240
  26   2.0000     -14.463549      -393.5732
  27   2.0000     -14.451109      -393.2347
  28   2.0000     -14.409405      -392.0998
  29   2.0000     -14.408333      -392.0707
  30   2.0000     -14.405883      -392.0040
  31   2.0000     -14.404110      -391.9558
  32   2.0000     -10.368897      -282.1520
  33   2.0000     -10.357700      -281.8474
  34   2.0000     -10.344595      -281.4907
  35   2.0000     -10.344416      -281.4859
  36   2.0000     -10.344147      -281.4786
  37   2.0000     -10.343923      -281.4725
  38   2.0000     -10.335054      -281.2311
  39   2.0000     -10.333154      -281.1794
  40   2.0000     -10.332846      -281.1710
  41   2.0000     -10.330756      -281.1142
  42   2.0000     -10.330685      -281.1122
  43   2.0000     -10.326332      -280.9938
  44   2.0000     -10.319131      -280.7978
  45   2.0000     -10.317858      -280.7632
  46   2.0000     -10.315382      -280.6958
  47   2.0000     -10.314368      -280.6682
  48   2.0000     -10.313624      -280.6480
  49   2.0000     -10.313291      -280.6389
  50   2.0000     -10.312039      -280.6048
  51   2.0000     -10.311222      -280.5826
  52   2.0000     -10.310075      -280.5514
  53   2.0000     -10.309954      -280.5481
  54   2.0000     -10.309355      -280.5318
  55   2.0000     -10.308114      -280.4980
  56   2.0000     -10.307021      -280.4683
  57   2.0000     -10.306898      -280.4649
  58   2.0000     -10.306344      -280.4499
  59   2.0000     -10.306221      -280.4465
  60   2.0000     -10.305593      -280.4295
  61   2.0000     -10.304941      -280.4117
  62   2.0000     -10.304124      -280.3895
  63   2.0000     -10.302580      -280.3475
  64   2.0000     -10.301899      -280.3289
  65   2.0000     -10.301859      -280.3278
  66   2.0000     -10.301696      -280.3234
  67   2.0000     -10.300755      -280.2978
  68   2.0000     -10.296292      -280.1763
  69   2.0000     -10.293887      -280.1109
  70   2.0000     -10.293582      -280.1026
  71   2.0000     -10.293307      -280.0951
  72   2.0000     -10.292314      -280.0681
  73   2.0000     -10.288022      -279.9513
  74   2.0000     -10.286085      -279.8986
  75   2.0000     -10.284944      -279.8676
  76   2.0000     -10.281667      -279.7784
  77   2.0000     -10.280296      -279.7411
  78   2.0000     -10.278372      -279.6887
  79   2.0000     -10.277486      -279.6646
  80   2.0000     -10.273568      -279.5580
  81   2.0000     -10.272199      -279.5207
  82   2.0000      -8.776723      -238.8268
  83   2.0000      -8.776281      -238.8148
  84   2.0000      -8.775140      -238.7837
  85   2.0000      -8.774191      -238.7579
  86   2.0000      -6.612786      -179.9431
  87   2.0000      -6.612358      -179.9314
  88   2.0000      -6.611254      -179.9014
  89   2.0000      -6.610319      -179.8759
  90   2.0000      -6.598863      -179.5642
  91   2.0000      -6.598415      -179.5520
  92   2.0000      -6.598119      -179.5439
  93   2.0000      -6.597672      -179.5318
  94   2.0000      -6.597245      -179.5202
  95   2.0000      -6.596521      -179.5005
  96   2.0000      -6.596289      -179.4941
  97   2.0000      -6.595563      -179.4744
  98   2.0000      -2.728702       -74.2518
  99   2.0000      -2.728256       -74.2396
 100   2.0000      -2.727141       -74.2093
 101   2.0000      -2.726204       -74.1838
 102   2.0000      -2.724928       -74.1491
 103   2.0000      -2.724500       -74.1374
 104   2.0000      -2.724409       -74.1349
 105   2.0000      -2.723976       -74.1232
 106   2.0000      -2.723407       -74.1077
 107   2.0000      -2.722818       -74.0916
 108   2.0000      -2.722453       -74.0817
 109   2.0000      -2.721885       -74.0662
 110   2.0000      -2.713300       -73.8327
 111   2.0000      -2.713289       -73.8323
 112   2.0000      -2.712858       -73.8206
 113   2.0000      -2.712837       -73.8201
 114   2.0000      -2.711678       -73.7885
 115   2.0000      -2.711671       -73.7883
 116   2.0000      -2.710726       -73.7626
 117   2.0000      -2.710712       -73.7622
 118   2.0000      -1.132422       -30.8148
 119   2.0000      -1.120718       -30.4963
 120   2.0000      -1.102403       -29.9979
 121   2.0000      -1.102133       -29.9906
 122   2.0000      -1.101789       -29.9812
 123   2.0000      -1.065855       -29.0034
 124   2.0000      -1.064685       -28.9716
 125   2.0000      -1.062869       -28.9221
 126   2.0000      -1.014169       -27.5970
 127   2.0000      -1.013924       -27.5903
 128   2.0000      -0.999152       -27.1883
 129   2.0000      -0.999003       -27.1843
 130   2.0000      -0.986452       -26.8427
 131   2.0000      -0.984899       -26.8005
 132   2.0000      -0.966957       -26.3122
 133   2.0000      -0.966778       -26.3074
 134   2.0000      -0.922393       -25.0996
 135   2.0000      -0.920271       -25.0418
 136   2.0000      -0.917289       -24.9607
 137   2.0000      -0.911610       -24.8062
 138   2.0000      -0.908390       -24.7186
 139   2.0000      -0.905805       -24.6482
 140   2.0000      -0.902315       -24.5533
 141   2.0000      -0.898807       -24.4578
 142   2.0000      -0.889651       -24.2086
 143   2.0000      -0.884916       -24.0798
 144   2.0000      -0.879236       -23.9252
 145   2.0000      -0.875697       -23.8289
 146   2.0000      -0.874366       -23.7927
 147   2.0000      -0.872555       -23.7434
 148   2.0000      -0.867356       -23.6019
 149   2.0000      -0.854264       -23.2457
 150   2.0000      -0.843731       -22.9591
 151   2.0000      -0.843635       -22.9565
 152   2.0000      -0.840961       -22.8837
 153   2.0000      -0.824782       -22.4434
 154   2.0000      -0.805092       -21.9077
 155   2.0000      -0.788997       -21.4697
 156   2.0000      -0.779100       -21.2004
 157   2.0000      -0.759575       -20.6691
 158   2.0000      -0.758503       -20.6399
 159   2.0000      -0.750137       -20.4123
 160   2.0000      -0.737630       -20.0719
 161   2.0000      -0.724661       -19.7190
 162   2.0000      -0.711010       -19.3476
 163   2.0000      -0.708368       -19.2757
 164   2.0000      -0.705135       -19.1877
 165   2.0000      -0.704845       -19.1798
 166   2.0000      -0.703849       -19.1527
 167   2.0000      -0.699493       -19.0342
 168   2.0000      -0.695130       -18.9155
 169   2.0000      -0.690914       -18.8007
 170   2.0000      -0.683464       -18.5980
 171   2.0000      -0.682160       -18.5625
 172   2.0000      -0.675918       -18.3927
 173   2.0000      -0.673013       -18.3136
 174   2.0000      -0.660353       -17.9691
 175   2.0000      -0.658582       -17.9209
 176   2.0000      -0.656352       -17.8603
 177   2.0000      -0.647230       -17.6120
 178   2.0000      -0.639431       -17.3998
 179   2.0000      -0.629765       -17.1368
 180   2.0000      -0.627196       -17.0669
 181   2.0000      -0.611319       -16.6348
 182   2.0000      -0.609212       -16.5775
 183   2.0000      -0.606446       -16.5022
 184   2.0000      -0.599963       -16.3258
 185   2.0000      -0.589428       -16.0391
 186   2.0000      -0.584044       -15.8926
 187   2.0000      -0.580738       -15.8027
 188   2.0000      -0.572793       -15.5865
 189   2.0000      -0.569912       -15.5081
 190   2.0000      -0.567547       -15.4437
 191   2.0000      -0.563136       -15.3237
 192   2.0000      -0.556728       -15.1493
 193   2.0000      -0.551328       -15.0024
 194   2.0000      -0.549591       -14.9551
 195   2.0000      -0.547514       -14.8986
 196   2.0000      -0.545643       -14.8477
 197   2.0000      -0.544680       -14.8215
 198   2.0000      -0.543488       -14.7891
 199   2.0000      -0.541736       -14.7414
 200   2.0000      -0.538377       -14.6500
 201   2.0000      -0.536357       -14.5950
 202   2.0000      -0.535416       -14.5694
 203   2.0000      -0.534824       -14.5533
 204   2.0000      -0.531454       -14.4616
 205   2.0000      -0.527186       -14.3455
 206   2.0000      -0.525812       -14.3081
 207   2.0000      -0.522651       -14.2221
 208   2.0000      -0.519705       -14.1419
 209   2.0000      -0.515293       -14.0218
 210   2.0000      -0.512197       -13.9376
 211   2.0000      -0.506671       -13.7872
 212   2.0000      -0.503158       -13.6916
 213   2.0000      -0.498760       -13.5719
 214   2.0000      -0.493195       -13.4205
 215   2.0000      -0.493053       -13.4166
 216   2.0000      -0.491295       -13.3688
 217   2.0000      -0.490155       -13.3378
 218   2.0000      -0.488584       -13.2950
 219   2.0000      -0.484847       -13.1934
 220   2.0000      -0.483054       -13.1446
 221   2.0000      -0.478442       -13.0191
 222   2.0000      -0.476547       -12.9675
 223   2.0000      -0.475964       -12.9517
 224   2.0000      -0.473201       -12.8765
 225   2.0000      -0.467915       -12.7326
 226   2.0000      -0.463257       -12.6059
 227   2.0000      -0.459033       -12.4909
 228   2.0000      -0.455065       -12.3830
 229   2.0000      -0.454307       -12.3623
 230   2.0000      -0.453906       -12.3514
 231   2.0000      -0.452786       -12.3209
 232   2.0000      -0.451690       -12.2911
 233   2.0000      -0.449444       -12.2300
 234   2.0000      -0.449163       -12.2223
 235   2.0000      -0.445616       -12.1258
 236   2.0000      -0.441123       -12.0036
 237   2.0000      -0.438850       -11.9417
 238   2.0000      -0.434557       -11.8249
 239   2.0000      -0.431035       -11.7291
 240   2.0000      -0.422937       -11.5087
 241   2.0000      -0.421757       -11.4766
 242   2.0000      -0.418622       -11.3913
 243   2.0000      -0.416526       -11.3342
 244   2.0000      -0.416465       -11.3326
 245   2.0000      -0.409106       -11.1324
 246   2.0000      -0.407883       -11.0990
 247   2.0000      -0.402769       -10.9599
 248   2.0000      -0.399368       -10.8674
 249   2.0000      -0.394276       -10.7288
 250   2.0000      -0.392596       -10.6831
 251   2.0000      -0.391543       -10.6544
 252   2.0000      -0.390249       -10.6192
 253   2.0000      -0.382894       -10.4191
 254   2.0000      -0.382570       -10.4103
 255   2.0000      -0.374896       -10.2014
 256   2.0000      -0.369088       -10.0434
 257   2.0000      -0.359425        -9.7805
 258   2.0000      -0.348540        -9.4843
 259   2.0000      -0.346891        -9.4394
 260   2.0000      -0.340963        -9.2781
 261   2.0000      -0.338952        -9.2234
 262   2.0000      -0.333844        -9.0844
 263   2.0000      -0.329938        -8.9781
 264   2.0000      -0.327418        -8.9095
 265   2.0000      -0.322060        -8.7637
 266   2.0000      -0.309116        -8.4115
 267   2.0000      -0.304085        -8.2746
 268   2.0000      -0.303034        -8.2460
 269   2.0000      -0.302195        -8.2231
 270   2.0000      -0.300040        -8.1645
 271   2.0000      -0.296581        -8.0704
 272   2.0000      -0.270924        -7.3722
 273   2.0000      -0.242904        -6.6098
 274   2.0000      -0.216322        -5.8864
 275   0.0000      -0.094021        -2.5584
 276   0.0000      -0.083090        -2.2610
 277   0.0000      -0.064613        -1.7582
 278   0.0000      -0.058328        -1.5872
 279   0.0000      -0.038723        -1.0537

MULLIKEN ATOMIC CHARGES
-----------------------
   0 C :    0.165713
   1 O :   -0.220674
   2 C :   -0.006203
   3 C :    0.034800
   4 C :   -0.011549
   5 C :   -0.024438
   6 C :   -0.016947
   7 C :   -0.028174
   8 Br:    0.003191
   9 Br:    0.013510
  10 C :    0.312668
  11 C :   -0.372321
  12 C :   -0.188597
  13 N :    0.146470
  14 C :   -0.180356
  15 N :    0.140238
  16 C :   -0.094586
  17 C :    0.004361
  18 C :    0.036628
  19 N :   -0.016596
  20 C :    0.140250
  21 C :   -0.190953
  22 C :    0.139646
  23 N :   -0.041033
  24 C :    0.150652
  25 C :   -0.167873
  26 C :   -0.021716
  27 C :    0.010343
  28 C :    0.106503
  29 N :   -0.030817
  30 C :    0.117125
  31 C :   -0.165567
  32 C :    0.085666
  33 N :   -0.038393
  34 C :    0.112772
  35 C :   -0.167214
  36 C :    0.029600
  37 C :   -0.015723
  38 C :    0.106179
  39 N :   -0.042271
  40 C :    0.115230
  41 C :   -0.136152
  42 C :    0.070351
  43 N :   -0.029799
  44 C :    0.134930
  45 C :   -0.174124
  46 C :    0.049635
  47 C :   -0.036101
  48 C :    0.046235
  49 C :   -0.146633
  50 C :    0.134705
  51 O :   -0.147920
  52 C :    0.006577
  53 C :    0.013634
  54 C :    0.267861
  55 C :   -0.359354
  56 C :   -0.168823
  57 N :    0.134023
  58 C :   -0.181852
  59 N :    0.144403
  60 C :   -0.015535
  61 C :   -0.022520
  62 C :   -0.015854
  63 C :   -0.030635
  64 Br:    0.004217
  65 Br:    0.010117
  66 H :    0.005074
  67 H :   -0.000147
  68 H :   -0.010709
  69 H :    0.142864
  70 H :   -0.030045
  71 H :    0.124866
  72 H :   -0.009182
  73 H :   -0.029031
  74 H :   -0.023972
  75 H :    0.122851
  76 H :   -0.032803
  77 H :    0.121930
  78 H :   -0.037428
  79 H :   -0.013514
  80 H :   -0.051589
  81 H :    0.122465
  82 H :   -0.027346
  83 H :    0.139589
  84 H :   -0.028992
  85 H :    0.012163
  86 H :   -0.011173
  87 H :    0.023112
  88 H :    0.006830
  89 H :    0.003255
Sum of atomic charges:   -0.0000000

LOEWDIN ATOMIC CHARGES
----------------------
   0 C :    0.094355
   1 O :   -0.172624
   2 C :   -0.039102
   3 C :   -0.008819
   4 C :   -0.009053
   5 C :   -0.120996
   6 C :   -0.126109
   7 C :    0.001411
   8 Br:    0.128513
   9 Br:    0.134303
  10 C :    0.076559
  11 C :   -0.152969
  12 C :   -0.020109
  13 N :   -0.060309
  14 C :   -0.022019
  15 N :   -0.063038
  16 C :   -0.137553
  17 C :    0.053210
  18 C :   -0.017021
  19 N :    0.079816
  20 C :    0.023871
  21 C :   -0.111010
  22 C :    0.039440
  23 N :    0.063125
  24 C :   -0.023381
  25 C :   -0.041322
  26 C :   -0.053454
  27 C :   -0.009744
  28 C :   -0.006096
  29 N :    0.073577
  30 C :   -0.022435
  31 C :   -0.085099
  32 C :   -0.002317
  33 N :    0.065323
  34 C :   -0.014247
  35 C :   -0.090033
  36 C :   -0.010855
  37 C :   -0.066283
  38 C :    0.026247
  39 N :    0.066237
  40 C :   -0.026646
  41 C :   -0.054651
  42 C :   -0.012498
  43 N :    0.079957
  44 C :    0.012815
  45 C :   -0.103601
  46 C :    0.032969
  47 C :   -0.074860
  48 C :    0.069838
  49 C :   -0.121782
  50 C :    0.078972
  51 O :   -0.149642
  52 C :   -0.041532
  53 C :   -0.009784
  54 C :    0.065268
  55 C :   -0.157273
  56 C :   -0.004242
  57 N :   -0.072765
  58 C :   -0.023379
  59 N :   -0.063594
  60 C :   -0.012356
  61 C :   -0.121394
  62 C :   -0.125731
  63 C :    0.002851
  64 Br:    0.129102
  65 Br:    0.132426
  66 H :    0.044097
  67 H :    0.043402
  68 H :    0.050161
  69 H :    0.068247
  70 H :    0.025018
  71 H :    0.090825
  72 H :    0.034724
  73 H :    0.026794
  74 H :    0.030034
  75 H :    0.090179
  76 H :    0.026207
  77 H :    0.086441
  78 H :    0.022630
  79 H :    0.038249
  80 H :    0.017004
  81 H :    0.089430
  82 H :    0.029566
  83 H :    0.092352
  84 H :    0.025267
  85 H :    0.040612
  86 H :    0.027768
  87 H :    0.044348
  88 H :    0.043305
  89 H :    0.044884

  Mayer bond orders larger than 0.100000
B(  0-C ,  1-O ) :   2.0464 B(  0-C ,  2-C ) :   0.9723 B(  0-C , 16-C ) :   1.0099
B(  1-O , 69-H ) :   0.1410 B(  2-C ,  3-C ) :   1.3320 B(  2-C ,  7-C ) :   1.3751
B(  3-C ,  4-C ) :   1.3797 B(  3-C , 10-C ) :   0.9718 B(  4-C ,  5-C ) :   1.3547
B(  4-C , 66-H ) :   0.9786 B(  5-C ,  6-C ) :   1.4385 B(  5-C ,  9-Br) :   1.0530
B(  6-C ,  7-C ) :   1.3409 B(  6-C ,  8-Br) :   1.0260 B(  7-C , 67-H ) :   1.0082
B( 10-C , 11-C ) :   1.5962 B( 10-C , 16-C ) :   1.1346 B( 11-C , 12-C ) :   1.1500
B( 11-C , 14-C ) :   1.1456 B( 12-C , 13-N ) :   2.9637 B( 14-C , 15-N ) :   2.9628
B( 16-C , 17-C ) :   1.3414 B( 17-C , 18-C ) :   1.3631 B( 17-C , 68-H ) :   0.9251
B( 18-C , 19-N ) :   1.1922 B( 18-C , 25-C ) :   1.2008 B( 19-N , 20-C ) :   1.2478
B( 19-N , 69-H ) :   0.8591 B( 20-C , 21-C ) :   1.2593 B( 20-C , 24-C ) :   1.2227
B( 21-C , 22-C ) :   1.3839 B( 21-C , 70-H ) :   1.0346 B( 22-C , 23-N ) :   1.1881
B( 22-C , 26-C ) :   1.1095 B( 23-N , 24-C ) :   1.1307 B( 23-N , 71-H ) :   0.9364
B( 24-C , 25-C ) :   1.3432 B( 25-C , 72-H ) :   1.0473 B( 26-C , 27-C ) :   1.6596
B( 26-C , 73-H ) :   0.9688 B( 27-C , 28-C ) :   1.1184 B( 27-C , 74-H ) :   0.9660
B( 28-C , 29-N ) :   1.1729 B( 28-C , 35-C ) :   1.3859 B( 29-N , 30-C ) :   1.1710
B( 29-N , 75-H ) :   0.9360 B( 30-C , 31-C ) :   1.2443 B( 30-C , 34-C ) :   1.3083
B( 31-C , 32-C ) :   1.3581 B( 31-C , 76-H ) :   1.0415 B( 32-C , 33-N ) :   1.1907
B( 32-C , 36-C ) :   1.1599 B( 33-N , 34-C ) :   1.1620 B( 33-N , 77-H ) :   0.9338
B( 34-C , 35-C ) :   1.2763 B( 35-C , 78-H ) :   1.0298 B( 36-C , 37-C ) :   1.6194
B( 36-C , 79-H ) :   0.9617 B( 37-C , 38-C ) :   1.1220 B( 37-C , 80-H ) :   0.9604
B( 38-C , 39-N ) :   1.1877 B( 38-C , 45-C ) :   1.3943 B( 39-N , 40-C ) :   1.1397
B( 39-N , 81-H ) :   0.9373 B( 40-C , 41-C ) :   1.3042 B( 40-C , 44-C ) :   1.2731
B( 41-C , 42-C ) :   1.2877 B( 41-C , 82-H ) :   1.0415 B( 42-C , 43-N ) :   1.1810
B( 42-C , 46-C ) :   1.2569 B( 43-N , 44-C ) :   1.2033 B( 43-N , 83-H ) :   0.9209
B( 44-C , 45-C ) :   1.2670 B( 45-C , 84-H ) :   1.0314 B( 46-C , 47-C ) :   1.4865
B( 46-C , 85-H ) :   0.9561 B( 47-C , 48-C ) :   1.2544 B( 47-C , 86-H ) :   0.9630
B( 48-C , 49-C ) :   1.5256 B( 48-C , 87-H ) :   0.9415 B( 49-C , 50-C ) :   0.9719
B( 49-C , 54-C ) :   1.0966 B( 50-C , 51-O ) :   2.2668 B( 50-C , 52-C ) :   0.9118
B( 52-C , 53-C ) :   1.3345 B( 52-C , 63-C ) :   1.3763 B( 53-C , 54-C ) :   0.9921
B( 53-C , 60-C ) :   1.3758 B( 54-C , 55-C ) :   1.6018 B( 55-C , 56-C ) :   1.1764
B( 55-C , 58-C ) :   1.1371 B( 56-C , 57-N ) :   2.9698 B( 58-C , 59-N ) :   2.9797
B( 60-C , 61-C ) :   1.3588 B( 60-C , 88-H ) :   0.9831 B( 61-C , 62-C ) :   1.4359
B( 61-C , 65-Br) :   1.0462 B( 62-C , 63-C ) :   1.3454 B( 62-C , 64-Br) :   1.0273
B( 63-C , 89-H ) :   1.0093

-----------------------------------------------------------------------------
         ABSORPTION SPECTRUM VIA TRANSITION ELECTRIC DIPOLE MOMENTS
-----------------------------------------------------------------------------
State   Energy  Wavelength   fosc         T2         TX        TY        TZ
        (cm-1)    (nm)                  (au**2)     (au)      (au)      (au)
-----------------------------------------------------------------------------
   0   13007.9    768.8   2.708053844  68.53696  -2.90965  -7.74812   0.19394
   1   16688.2    599.2   1.035863308  20.43476  -2.60733  -3.60973  -0.77873
   2   20496.2    487.9   0.165998880   2.66629   0.90817   1.06982   0.83486
   3   21512.2    464.9   0.096965047   1.48390  -0.63810  -0.99698   0.28768
   4   21809.0    458.5   0.022221756   0.33544   0.40308   0.06583   0.41065
   5   23871.7    418.9   0.035436280   0.48870  -0.01781  -0.69145  -0.10141
   6   26382.7    379.0   0.168364771   2.10091  -0.64200  -1.29407   0.11885
   7   27296.6    366.3   0.119889011   1.44593  -0.83280  -0.86678   0.03263
   8   28327.6    353.0   0.010087000   0.11723  -0.07622   0.02642   0.33275
   9   28621.3    349.4   0.026526988   0.30512  -0.15751  -0.30699   0.43136
  10   28625.7    349.3   0.055234264   0.63523  -0.10267  -0.66965  -0.41982
  11   29075.1    343.9   0.058746707   0.66518  -0.03224  -0.63295  -0.51334
  12   29685.3    336.9   0.124469493   1.38037   0.74066   0.64031   0.64946
  13   30696.4    325.8   0.045698109   0.49010  -0.04153  -0.59340  -0.36913
  14   31139.8    321.1   0.075497888   0.79817   0.13216   0.85660   0.21667
  15   31385.5    318.6   0.026149405   0.27429  -0.26626  -0.36046  -0.27104
  16   31487.3    317.6   0.153771428   1.60774   0.62822   0.56440   0.94580
  17   31679.0    315.7   0.030253695   0.31440   0.00153  -0.27631   0.48790
  18   32546.1    307.3   0.069108129   0.69905   0.22125  -0.07417  -0.80287
  19   33369.8    299.7   0.023717921   0.23399   0.06863  -0.07220   0.47336
  20   33616.2    297.5   0.051460314   0.50396  -0.36509  -0.57111  -0.21096
  21   33831.4    295.6   0.039022697   0.37973  -0.09309   0.01330  -0.60900
  22   34312.5    291.4   0.223020623   2.13978   0.41563   0.18493   1.39026
  23   34599.1    289.0   0.068111559   0.64808   0.11971   0.75582   0.24998
  24   34764.0    287.7   0.388904579   3.68289   0.24788  -0.34727   1.87105
  25   35290.1    283.4   0.037583315   0.35060   0.54454  -0.23232  -0.01072
  26   35347.0    282.9   0.289695275   2.69814   0.64096   1.49533  -0.22648
  27   35434.3    282.2   0.062962891   0.58497  -0.08691  -0.71656  -0.25292
  28   35618.4    280.8   0.072417274   0.66934   0.20375   0.37092   0.70017
  29   36471.7    274.2   0.006926612   0.06252   0.06736  -0.04164  -0.23718
  30   36542.4    273.7   0.184683491   1.66382  -0.34299  -0.76887   0.97725
  31   36904.3    271.0   0.103813848   0.92609  -0.76130  -0.36743  -0.45991
  32   37395.9    267.4   0.041302101   0.36360  -0.03326   0.22493   0.55848
  33   37909.0    263.8   0.018248077   0.15847  -0.36901   0.02346   0.14750
  34   38231.7    261.6   0.064042328   0.55147   0.35704   0.59165  -0.27193
  35   38473.0    259.9   0.016910822   0.14471   0.05079  -0.18494  -0.32851
  36   38735.0    258.2   0.084718533   0.72003   0.07745   0.56629   0.62717
  37   39491.2    253.2   0.028814412   0.24021   0.32657   0.13820   0.33831
  38   39684.0    252.0   0.000795654   0.00660  -0.02189   0.05727   0.05331
  39   39733.1    251.7   0.025519569   0.21144   0.39865  -0.22826  -0.02051
  40   39979.9    250.1   0.014848455   0.12227   0.26508   0.05586   0.22110
  41   40209.2    248.7   0.079081793   0.64748  -0.36130  -0.40072  -0.59697

FINAL SINGLE POINT ENERGY    -12910.176850312002

DIPOLE MOMENT
-------------
                                X             Y             Z
Electronic contribution:     85.98500     -36.84165      65.74894
Nuclear contribution   :    -87.59662      35.69079     -66.84673
                        -----------------------------------------
Total Dipole Moment    :     -1.61162      -1.15087      -1.09778
                        -----------------------------------------
Magnitude (a.u.)       :      2.26427
Magnitude (Debye)      :      5.75533

Rotational constants in cm-1:     0.002430     0.000083     0.000082
Rotational constants in MHz :    72.852540     2.487534     2.464284

                             ****ORCA TERMINATED NORMALLY****
TOTAL RUN TIME: 0 days 0 hours 9 minutes 17 seconds 355 msec
