                         Program Version 4.2.0 -  RELEASE  -
|  1> # ORCA input file
|  2> # SCF done       -182.010644128700          0.000971533318
|  3> ! CAM-B3LYP def2-SVP def2/J RIJCOSX Grid4 TightSCF
|  4> %maxcore 5000
|  5> %tddft
|  6>     Mode sTDDFT
|  7>     Ethresh 5.0
|  8>     maxcore 5000
|  9> end
| 10>
| 11> %pal
| 12>   nprocs 6
| 13>   end
| 14> * xyz 0 1
| 15>    C        5.01462        -5.46687         7.77339
| 16>    O        3.82526        -5.47369         7.95387
| 17>    C        6.05893        -5.28053         8.80680
| 18>    C        7.31946        -5.14682         8.20011
| 19>    C        8.44381        -4.96479         8.99160
| 20>    C        8.28706        -4.91813        10.37127
| 21>    C        7.02707        -5.04467        10.96419
| 22>    C        5.89835        -5.22460        10.17594
| 23>   Br        6.84592        -4.97607        12.84195
| 24>   Br        9.81991        -4.67882        11.44966
| 25>    C        7.16528        -5.23999         6.75117
| 26>    C        8.16749        -5.06279         5.83780
| 27>    C        9.50494        -4.75931         6.18085
| 28>    N       10.60558        -4.51524         6.39208
| 29>    C        8.03036        -5.12520         4.43294
| 30>    N        8.00507        -5.14733         3.28582
| 31>    C        5.76312        -5.53729         6.47980
| 32>    C        5.23472        -5.80068         5.25818
| 33>    C        3.90691        -6.21449         4.96686
| 34>    S        3.30787        -6.13326         3.30035
| 35>    C        1.82894        -6.81510         3.94246
| 36>    N        1.90373        -7.05302         5.22814
| 37>    N        3.02687        -6.72717         5.77443
| 38>    C        0.68501        -7.06555         3.13317
| 39>    C       -0.47913        -7.50362         3.65499
| 40>    C       -1.65397        -7.75955         2.89632
| 41>    S       -1.70261        -7.60498         1.12200
| 42>    C       -3.33600        -8.06593         1.17345
| 43>    C       -3.75435        -8.29774         2.47233
| 44>    N       -2.78413        -8.12057         3.39764
| 45>    C       -5.06878        -8.67090         2.91650
| 46>    C       -6.09071        -8.99736         2.10813
| 47>    C       -7.38946        -9.42691         2.56173
| 48>    C       -8.10038        -8.91671         3.66852
| 49>    C       -7.71252        -7.67852         4.38243
| 50>    O       -6.88559        -6.87379         4.08409
| 51>    S       -8.78482        -7.46339         5.80860
| 52>    C       -9.77853        -8.89045         5.39561
| 53>    O      -10.64624        -9.29154         6.11272
| 54>    C       -9.30818        -9.46493         4.11175
| 55>    C       -9.95617       -10.52149         3.43935
| 56>    C       -9.25998       -10.99750         2.31875
| 57>    C       -8.04833       -10.47186         1.89670
| 58>    C       -7.63854       -11.22156         0.68485
| 59>    O       -6.67268       -11.10068        -0.00221
| 60>    O       -8.61490       -12.15588         0.44023
| 61>    C       -9.61904       -12.08606         1.37356
| 62>    O      -10.56106       -12.81407         1.36363
| 63>    C      -11.24779       -11.08808         3.74734
| 64>    C      -12.31901       -10.38592         4.16467
| 65>    C      -13.60398       -10.97628         4.32372
| 66>    C      -14.77875       -10.30968         4.44554
| 67>    C      -15.99106       -11.01283         4.96098
| 68>    O      -16.15184       -12.20294         5.05908
| 69>    C      -16.90960        -9.92877         5.37038
| 70>    C      -16.36253        -8.68244         5.00902
| 71>    C      -15.10483        -8.90244         4.29712
| 72>    C      -14.48839        -7.99300         3.48256
| 73>    C      -13.41490        -8.27809         2.60948
| 74>    N      -12.56445        -8.43943         1.85604
| 75>    C      -14.91855        -6.65355         3.34274
| 76>    N      -15.22016        -5.55611         3.20323
| 77>    C      -17.03656        -7.51614         5.33106
| 78>    C      -18.25166        -7.61222         5.99960
| 79>    C      -18.79545        -8.85430         6.34077
| 80>    C      -18.11912       -10.02636         6.02714
| 81>   Br      -20.45329        -8.95461         7.23826
| 82>   Br      -19.16691        -6.02269         6.44925
| 83>    H        9.43170        -4.86194         8.57316
| 84>    H        4.91905        -5.32403        10.61790
| 85>    H        5.86628        -5.70937         4.38436
| 86>    H        0.78565        -6.87650         2.07305
| 87>    H       -0.55997        -7.67132         4.71960
| 88>    H       -3.90747        -8.14056         0.27065
| 89>    H       -5.17016        -8.70153         3.99147
| 90>    H       -5.93649        -9.06835         1.04081
| 91>    H      -11.37695       -12.12426         3.46252
| 92>    H      -12.23003        -9.33266         4.38112
| 93>    H      -13.65558       -12.05582         4.41205
| 94>    H      -16.64357        -6.54145         5.09030
| 95>    H      -18.52703       -10.99001         6.29024
| 96> *
| 97>
| 98>                          ****END OF INPUT****

CARTESIAN COORDINATES (ANGSTROEM)
---------------------------------
  C      5.014620   -5.466870    7.773390
  O      3.825260   -5.473690    7.953870
  C      6.058930   -5.280530    8.806800
  C      7.319460   -5.146820    8.200110
  C      8.443810   -4.964790    8.991600
  C      8.287060   -4.918130   10.371270
  C      7.027070   -5.044670   10.964190
  C      5.898350   -5.224600   10.175940
  Br     6.845920   -4.976070   12.841950
  Br     9.819910   -4.678820   11.449660
  C      7.165280   -5.239990    6.751170
  C      8.167490   -5.062790    5.837800
  C      9.504940   -4.759310    6.180850
  N     10.605580   -4.515240    6.392080
  C      8.030360   -5.125200    4.432940
  N      8.005070   -5.147330    3.285820
  C      5.763120   -5.537290    6.479800
  C      5.234720   -5.800680    5.258180
  C      3.906910   -6.214490    4.966860
  S      3.307870   -6.133260    3.300350
  C      1.828940   -6.815100    3.942460
  N      1.903730   -7.053020    5.228140
  N      3.026870   -6.727170    5.774430
  C      0.685010   -7.065550    3.133170
  C     -0.479130   -7.503620    3.654990
  C     -1.653970   -7.759550    2.896320
  S     -1.702610   -7.604980    1.122000
  C     -3.336000   -8.065930    1.173450
  C     -3.754350   -8.297740    2.472330
  N     -2.784130   -8.120570    3.397640
  C     -5.068780   -8.670900    2.916500
  C     -6.090710   -8.997360    2.108130
  C     -7.389460   -9.426910    2.561730
  C     -8.100380   -8.916710    3.668520
  C     -7.712520   -7.678520    4.382430
  O     -6.885590   -6.873790    4.084090
  S     -8.784820   -7.463390    5.808600
  C     -9.778530   -8.890450    5.395610
  O    -10.646240   -9.291540    6.112720
  C     -9.308180   -9.464930    4.111750
  C     -9.956170  -10.521490    3.439350
  C     -9.259980  -10.997500    2.318750
  C     -8.048330  -10.471860    1.896700
  C     -7.638540  -11.221560    0.684850
  O     -6.672680  -11.100680   -0.002210
  O     -8.614900  -12.155880    0.440230
  C     -9.619040  -12.086060    1.373560
  O    -10.561060  -12.814070    1.363630
  C    -11.247790  -11.088080    3.747340
  C    -12.319010  -10.385920    4.164670
  C    -13.603980  -10.976280    4.323720
  C    -14.778750  -10.309680    4.445540
  C    -15.991060  -11.012830    4.960980
  O    -16.151840  -12.202940    5.059080
  C    -16.909600   -9.928770    5.370380
  C    -16.362530   -8.682440    5.009020
  C    -15.104830   -8.902440    4.297120
  C    -14.488390   -7.993000    3.482560
  C    -13.414900   -8.278090    2.609480
  N    -12.564450   -8.439430    1.856040
  C    -14.918550   -6.653550    3.342740
  N    -15.220160   -5.556110    3.203230
  C    -17.036560   -7.516140    5.331060
  C    -18.251660   -7.612220    5.999600
  C    -18.795450   -8.854300    6.340770
  C    -18.119120  -10.026360    6.027140
  Br   -20.453290   -8.954610    7.238260
  Br   -19.166910   -6.022690    6.449250
  H      9.431700   -4.861940    8.573160
  H      4.919050   -5.324030   10.617900
  H      5.866280   -5.709370    4.384360
  H      0.785650   -6.876500    2.073050
  H     -0.559970   -7.671320    4.719600
  H     -3.907470   -8.140560    0.270650
  H     -5.170160   -8.701530    3.991470
  H     -5.936490   -9.068350    1.040810
  H    -11.376950  -12.124260    3.462520
  H    -12.230030   -9.332660    4.381120
  H    -13.655580  -12.055820    4.412050
  H    -16.643570   -6.541450    5.090300
  H    -18.527030  -10.990010    6.290240

 Total Charge           Charge          ....    0
 Multiplicity           Mult            ....    1
 Number of Electrons    NEL             ....  588
 Basis Dimension        Dim             .... 1101

ORBITAL ENERGIES
----------------

  NO   OCC          E(Eh)            E(eV)
   0   2.0000    -482.883321    -13139.9232
   1   2.0000    -482.882330    -13139.8962
   2   2.0000    -482.881690    -13139.8788
   3   2.0000    -482.880029    -13139.8336
   4   2.0000     -88.990074     -2421.5430
   5   2.0000     -88.985032     -2421.4058
   6   2.0000     -88.962928     -2420.8043
   7   2.0000     -62.560957     -1702.3702
   8   2.0000     -62.559955     -1702.3429
   9   2.0000     -62.559300     -1702.3251
  10   2.0000     -62.557648     -1702.2801
  11   2.0000     -56.394911     -1534.5835
  12   2.0000     -56.393923     -1534.5566
  13   2.0000     -56.393252     -1534.5384
  14   2.0000     -56.392249     -1534.5111
  15   2.0000     -56.392151     -1534.5085
  16   2.0000     -56.391615     -1534.4938
  17   2.0000     -56.391243     -1534.4837
  18   2.0000     -56.391144     -1534.4810
  19   2.0000     -56.390602     -1534.4663
  20   2.0000     -56.390493     -1534.4633
  21   2.0000     -56.388936     -1534.4210
  22   2.0000     -56.388839     -1534.4183
  23   2.0000     -19.304734      -525.3085
  24   2.0000     -19.254787      -523.9494
  25   2.0000     -19.253227      -523.9069
  26   2.0000     -19.252897      -523.8980
  27   2.0000     -19.252544      -523.8883
  28   2.0000     -19.232690      -523.3481
  29   2.0000     -19.226092      -523.1686
  30   2.0000     -14.456290      -393.3757
  31   2.0000     -14.451986      -393.2585
  32   2.0000     -14.433444      -392.7540
  33   2.0000     -14.431896      -392.7118
  34   2.0000     -14.430900      -392.6847
  35   2.0000     -14.428953      -392.6318
  36   2.0000     -14.427506      -392.5924
  37   2.0000     -10.446440      -284.2621
  38   2.0000     -10.445727      -284.2427
  39   2.0000     -10.419413      -283.5267
  40   2.0000     -10.417562      -283.4763
  41   2.0000     -10.383402      -282.5467
  42   2.0000     -10.378952      -282.4257
  43   2.0000     -10.364539      -282.0334
  44   2.0000     -10.362601      -281.9807
  45   2.0000     -10.362091      -281.9668
  46   2.0000     -10.361978      -281.9638
  47   2.0000     -10.361478      -281.9502
  48   2.0000     -10.360147      -281.9139
  49   2.0000     -10.359862      -281.9062
  50   2.0000     -10.359225      -281.8888
  51   2.0000     -10.358889      -281.8797
  52   2.0000     -10.357692      -281.8471
  53   2.0000     -10.354141      -281.7505
  54   2.0000     -10.348726      -281.6032
  55   2.0000     -10.348527      -281.5977
  56   2.0000     -10.344990      -281.5015
  57   2.0000     -10.342046      -281.4214
  58   2.0000     -10.339745      -281.3588
  59   2.0000     -10.337494      -281.2975
  60   2.0000     -10.337007      -281.2842
  61   2.0000     -10.335142      -281.2335
  62   2.0000     -10.334320      -281.2111
  63   2.0000     -10.332332      -281.1571
  64   2.0000     -10.330732      -281.1135
  65   2.0000     -10.328853      -281.0624
  66   2.0000     -10.328329      -281.0481
  67   2.0000     -10.326247      -280.9915
  68   2.0000     -10.325219      -280.9635
  69   2.0000     -10.324116      -280.9335
  70   2.0000     -10.322337      -280.8851
  71   2.0000     -10.320434      -280.8333
  72   2.0000     -10.320218      -280.8274
  73   2.0000     -10.317819      -280.7621
  74   2.0000     -10.316475      -280.7256
  75   2.0000     -10.316212      -280.7184
  76   2.0000     -10.315418      -280.6968
  77   2.0000     -10.313926      -280.6562
  78   2.0000     -10.313424      -280.6425
  79   2.0000     -10.313187      -280.6361
  80   2.0000     -10.311495      -280.5901
  81   2.0000     -10.309623      -280.5391
  82   2.0000     -10.305653      -280.4311
  83   2.0000     -10.297874      -280.2194
  84   2.0000      -8.790304      -239.1963
  85   2.0000      -8.789285      -239.1686
  86   2.0000      -8.788630      -239.1508
  87   2.0000      -8.786979      -239.1058
  88   2.0000      -8.086388      -220.0418
  89   2.0000      -8.081185      -219.9002
  90   2.0000      -8.062238      -219.3846
  91   2.0000      -6.626475      -180.3156
  92   2.0000      -6.625486      -180.2886
  93   2.0000      -6.624766      -180.2691
  94   2.0000      -6.623167      -180.2255
  95   2.0000      -6.612417      -179.9330
  96   2.0000      -6.611608      -179.9110
  97   2.0000      -6.611376      -179.9047
  98   2.0000      -6.610782      -179.8885
  99   2.0000      -6.610578      -179.8830
 100   2.0000      -6.609935      -179.8655
 101   2.0000      -6.609070      -179.8419
 102   2.0000      -6.608283      -179.8205
 103   2.0000      -6.054883      -164.7617
 104   2.0000      -6.051655      -164.6739
 105   2.0000      -6.050081      -164.6311
 106   2.0000      -6.048939      -164.6000
 107   2.0000      -6.046026      -164.5207
 108   2.0000      -6.043860      -164.4618
 109   2.0000      -6.031056      -164.1134
 110   2.0000      -6.027807      -164.0250
 111   2.0000      -6.023339      -163.9034
 112   2.0000      -2.742337       -74.6228
 113   2.0000      -2.741376       -74.5966
 114   2.0000      -2.740669       -74.5774
 115   2.0000      -2.739053       -74.5334
 116   2.0000      -2.738628       -74.5219
 117   2.0000      -2.737981       -74.5043
 118   2.0000      -2.737600       -74.4939
 119   2.0000      -2.736964       -74.4766
 120   2.0000      -2.736939       -74.4759
 121   2.0000      -2.736266       -74.4576
 122   2.0000      -2.735267       -74.4304
 123   2.0000      -2.734680       -74.4144
 124   2.0000      -2.726799       -74.2000
 125   2.0000      -2.726787       -74.1996
 126   2.0000      -2.725753       -74.1715
 127   2.0000      -2.725734       -74.1710
 128   2.0000      -2.725148       -74.1551
 129   2.0000      -2.725123       -74.1544
 130   2.0000      -2.723447       -74.1088
 131   2.0000      -2.723435       -74.1084
 132   2.0000      -1.254636       -34.1404
 133   2.0000      -1.181120       -32.1399
 134   2.0000      -1.180832       -32.1321
 135   2.0000      -1.176771       -32.0216
 136   2.0000      -1.162391       -31.6303
 137   2.0000      -1.149033       -31.2668
 138   2.0000      -1.143569       -31.1181
 139   2.0000      -1.143182       -31.1076
 140   2.0000      -1.084944       -29.5228
 141   2.0000      -1.037098       -28.2209
 142   2.0000      -1.035803       -28.1856
 143   2.0000      -1.030139       -28.0315
 144   2.0000      -1.019971       -27.7548
 145   2.0000      -1.018835       -27.7239
 146   2.0000      -1.009736       -27.4763
 147   2.0000      -1.009060       -27.4579
 148   2.0000      -0.988276       -26.8924
 149   2.0000      -0.987501       -26.8713
 150   2.0000      -0.965920       -26.2840
 151   2.0000      -0.964284       -26.2395
 152   2.0000      -0.956066       -26.0159
 153   2.0000      -0.945888       -25.7389
 154   2.0000      -0.934354       -25.4251
 155   2.0000      -0.929612       -25.2960
 156   2.0000      -0.929135       -25.2831
 157   2.0000      -0.920193       -25.0397
 158   2.0000      -0.918081       -24.9823
 159   2.0000      -0.916175       -24.9304
 160   2.0000      -0.913971       -24.8704
 161   2.0000      -0.903143       -24.5758
 162   2.0000      -0.897559       -24.4238
 163   2.0000      -0.885908       -24.1068
 164   2.0000      -0.879620       -23.9357
 165   2.0000      -0.861932       -23.4544
 166   2.0000      -0.860436       -23.4137
 167   2.0000      -0.857033       -23.3211
 168   2.0000      -0.848542       -23.0900
 169   2.0000      -0.825789       -22.4709
 170   2.0000      -0.811245       -22.0751
 171   2.0000      -0.799197       -21.7473
 172   2.0000      -0.793932       -21.6040
 173   2.0000      -0.785512       -21.3749
 174   2.0000      -0.779872       -21.2214
 175   2.0000      -0.775984       -21.1156
 176   2.0000      -0.771080       -20.9821
 177   2.0000      -0.760599       -20.6970
 178   2.0000      -0.739958       -20.1353
 179   2.0000      -0.737096       -20.0574
 180   2.0000      -0.727056       -19.7842
 181   2.0000      -0.717515       -19.5246
 182   2.0000      -0.712978       -19.4011
 183   2.0000      -0.703378       -19.1399
 184   2.0000      -0.702846       -19.1254
 185   2.0000      -0.698370       -19.0036
 186   2.0000      -0.693043       -18.8587
 187   2.0000      -0.683832       -18.6080
 188   2.0000      -0.676185       -18.3999
 189   2.0000      -0.662709       -18.0332
 190   2.0000      -0.657445       -17.8900
 191   2.0000      -0.649320       -17.6689
 192   2.0000      -0.646578       -17.5943
 193   2.0000      -0.637216       -17.3395
 194   2.0000      -0.634213       -17.2578
 195   2.0000      -0.631609       -17.1870
 196   2.0000      -0.625962       -17.0333
 197   2.0000      -0.625792       -17.0287
 198   2.0000      -0.615177       -16.7398
 199   2.0000      -0.613367       -16.6906
 200   2.0000      -0.608288       -16.5524
 201   2.0000      -0.604201       -16.4411
 202   2.0000      -0.599878       -16.3235
 203   2.0000      -0.587174       -15.9778
 204   2.0000      -0.586518       -15.9600
 205   2.0000      -0.584067       -15.8933
 206   2.0000      -0.581423       -15.8213
 207   2.0000      -0.566618       -15.4185
 208   2.0000      -0.564874       -15.3710
 209   2.0000      -0.562586       -15.3087
 210   2.0000      -0.562244       -15.2994
 211   2.0000      -0.560144       -15.2423
 212   2.0000      -0.558042       -15.1851
 213   2.0000      -0.557704       -15.1759
 214   2.0000      -0.554025       -15.0758
 215   2.0000      -0.552566       -15.0361
 216   2.0000      -0.549655       -14.9569
 217   2.0000      -0.549566       -14.9545
 218   2.0000      -0.545971       -14.8566
 219   2.0000      -0.541047       -14.7226
 220   2.0000      -0.537844       -14.6355
 221   2.0000      -0.535530       -14.5725
 222   2.0000      -0.532529       -14.4908
 223   2.0000      -0.530744       -14.4423
 224   2.0000      -0.529211       -14.4006
 225   2.0000      -0.525948       -14.3118
 226   2.0000      -0.521727       -14.1969
 227   2.0000      -0.520837       -14.1727
 228   2.0000      -0.517852       -14.0915
 229   2.0000      -0.514716       -14.0061
 230   2.0000      -0.513826       -13.9819
 231   2.0000      -0.511952       -13.9309
 232   2.0000      -0.510744       -13.8980
 233   2.0000      -0.509626       -13.8676
 234   2.0000      -0.504055       -13.7160
 235   2.0000      -0.502043       -13.6613
 236   2.0000      -0.499002       -13.5785
 237   2.0000      -0.497072       -13.5260
 238   2.0000      -0.494859       -13.4658
 239   2.0000      -0.493627       -13.4323
 240   2.0000      -0.485568       -13.2130
 241   2.0000      -0.478526       -13.0214
 242   2.0000      -0.474149       -12.9023
 243   2.0000      -0.472502       -12.8574
 244   2.0000      -0.469312       -12.7706
 245   2.0000      -0.468011       -12.7352
 246   2.0000      -0.467737       -12.7278
 247   2.0000      -0.464174       -12.6308
 248   2.0000      -0.463419       -12.6103
 249   2.0000      -0.458248       -12.4696
 250   2.0000      -0.456866       -12.4320
 251   2.0000      -0.454001       -12.3540
 252   2.0000      -0.450286       -12.2529
 253   2.0000      -0.449731       -12.2378
 254   2.0000      -0.442640       -12.0448
 255   2.0000      -0.442439       -12.0394
 256   2.0000      -0.440637       -11.9903
 257   2.0000      -0.438776       -11.9397
 258   2.0000      -0.437538       -11.9060
 259   2.0000      -0.432375       -11.7655
 260   2.0000      -0.427513       -11.6332
 261   2.0000      -0.424428       -11.5493
 262   2.0000      -0.423109       -11.5134
 263   2.0000      -0.416278       -11.3275
 264   2.0000      -0.409564       -11.1448
 265   2.0000      -0.408100       -11.1050
 266   2.0000      -0.407024       -11.0757
 267   2.0000      -0.405759       -11.0413
 268   2.0000      -0.404098       -10.9961
 269   2.0000      -0.396656       -10.7936
 270   2.0000      -0.394512       -10.7352
 271   2.0000      -0.391482       -10.6528
 272   2.0000      -0.387722       -10.5504
 273   2.0000      -0.386912       -10.5284
 274   2.0000      -0.384069       -10.4510
 275   2.0000      -0.382589       -10.4108
 276   2.0000      -0.380869       -10.3640
 277   2.0000      -0.373731       -10.1697
 278   2.0000      -0.367369        -9.9966
 279   2.0000      -0.362567        -9.8660
 280   2.0000      -0.358287        -9.7495
 281   2.0000      -0.355575        -9.6757
 282   2.0000      -0.353645        -9.6232
 283   2.0000      -0.350724        -9.5437
 284   2.0000      -0.349951        -9.5227
 285   2.0000      -0.348721        -9.4892
 286   2.0000      -0.343661        -9.3515
 287   2.0000      -0.339679        -9.2431
 288   2.0000      -0.326878        -8.8948
 289   2.0000      -0.323046        -8.7905
 290   2.0000      -0.320733        -8.7276
 291   2.0000      -0.316818        -8.6211
 292   2.0000      -0.306630        -8.3438
 293   2.0000      -0.282046        -7.6749
 294   0.0000      -0.112890        -3.0719
 295   0.0000      -0.111947        -3.0462
 296   0.0000      -0.105158        -2.8615
 297   0.0000      -0.083649        -2.2762
 298   0.0000      -0.077920        -2.1203

MULLIKEN ATOMIC CHARGES
-----------------------
   0 C :    0.142989
   1 O :   -0.086200
   2 C :   -0.022693
   3 C :    0.039424
   4 C :   -0.006701
   5 C :   -0.027129
   6 C :   -0.012853
   7 C :   -0.015858
   8 Br:    0.021613
   9 Br:    0.025852
  10 C :    0.302894
  11 C :   -0.337426
  12 C :   -0.184968
  13 N :    0.167898
  14 C :   -0.180178
  15 N :    0.155624
  16 C :   -0.058258
  17 C :    0.056568
  18 C :   -0.150223
  19 S :    0.121873
  20 C :   -0.086114
  21 N :   -0.051177
  22 N :    0.018308
  23 C :    0.043379
  24 C :    0.079507
  25 C :   -0.103216
  26 S :    0.125156
  27 C :   -0.083815
  28 C :    0.021134
  29 N :   -0.034391
  30 C :    0.108165
  31 C :   -0.045818
  32 C :    0.044308
  33 C :    0.013068
  34 C :    0.029682
  35 O :   -0.109516
  36 S :    0.032792
  37 C :    0.033455
  38 O :   -0.127052
  39 C :    0.029760
  40 C :    0.044398
  41 C :   -0.058023
  42 C :   -0.074176
  43 C :    0.241733
  44 O :   -0.102160
  45 O :   -0.227336
  46 C :    0.244350
  47 O :   -0.099392
  48 C :   -0.024401
  49 C :    0.058237
  50 C :    0.014637
  51 C :   -0.100316
  52 C :    0.145399
  53 O :   -0.122492
  54 C :   -0.003997
  55 C :    0.025779
  56 C :    0.277274
  57 C :   -0.315777
  58 C :   -0.213898
  59 N :    0.171180
  60 C :   -0.187226
  61 N :    0.169583
  62 C :   -0.009593
  63 C :   -0.021826
  64 C :   -0.015270
  65 C :   -0.019920
  66 Br:    0.021439
  67 Br:    0.027425
  68 H :    0.008506
  69 H :    0.010734
  70 H :    0.013001
  71 H :    0.004326
  72 H :    0.042017
  73 H :    0.043370
  74 H :    0.003433
  75 H :    0.017943
  76 H :    0.033773
  77 H :    0.034897
  78 H :    0.029766
  79 H :    0.012480
  80 H :    0.010260
Sum of atomic charges:   -0.0000000

LOEWDIN ATOMIC CHARGES
----------------------
   0 C :    0.075567
   1 O :   -0.091565
   2 C :   -0.039309
   3 C :   -0.015525
   4 C :   -0.006041
   5 C :   -0.118893
   6 C :   -0.119780
   7 C :    0.007987
   8 Br:    0.143798
   9 Br:    0.144491
  10 C :    0.072970
  11 C :   -0.124663
  12 C :   -0.019546
  13 N :   -0.036290
  14 C :   -0.020475
  15 N :   -0.039617
  16 C :   -0.059509
  17 C :    0.030916
  18 C :   -0.163389
  19 S :    0.408355
  20 C :   -0.134614
  21 N :   -0.071888
  22 N :   -0.021158
  23 C :   -0.058421
  24 C :    0.016449
  25 C :   -0.130228
  26 S :    0.438514
  27 C :   -0.168423
  28 C :   -0.050655
  29 N :   -0.073521
  30 C :    0.033853
  31 C :   -0.038703
  32 C :    0.038065
  33 C :   -0.052073
  34 C :   -0.045305
  35 O :   -0.099262
  36 S :    0.315504
  37 C :   -0.048700
  38 O :   -0.111849
  39 C :   -0.041881
  40 C :    0.022916
  41 C :   -0.035078
  42 C :   -0.045339
  43 C :    0.109985
  44 O :   -0.096720
  45 O :   -0.051189
  46 C :    0.110921
  47 O :   -0.092363
  48 C :    0.015083
  49 C :    0.010025
  50 C :    0.073302
  51 C :   -0.077632
  52 C :    0.084475
  53 O :   -0.123221
  54 C :   -0.043542
  55 C :   -0.010060
  56 C :    0.070357
  57 C :   -0.125463
  58 C :   -0.021562
  59 N :   -0.045527
  60 C :   -0.021237
  61 N :   -0.034810
  62 C :   -0.007202
  63 C :   -0.117088
  64 C :   -0.121890
  65 C :    0.009297
  66 Br:    0.143623
  67 Br:    0.146968
  68 H :    0.044670
  69 H :    0.047969
  70 H :    0.045652
  71 H :    0.028507
  72 H :    0.056397
  73 H :    0.033076
  74 H :    0.037507
  75 H :    0.034949
  76 H :    0.042825
  77 H :    0.031920
  78 H :    0.051187
  79 H :    0.045262
  80 H :    0.047861

  Mayer bond orders larger than 0.100000
B(  0-C ,  1-O ) :   2.3058 B(  0-C ,  2-C ) :   0.9279 B(  0-C , 16-C ) :   0.9033
B(  2-C ,  3-C ) :   1.3274 B(  2-C ,  7-C ) :   1.3740 B(  3-C ,  4-C ) :   1.3516
B(  3-C , 10-C ) :   1.0012 B(  4-C ,  5-C ) :   1.3837 B(  4-C , 68-H ) :   0.9791
B(  5-C ,  6-C ) :   1.4107 B(  5-C ,  9-Br) :   1.0598 B(  6-C ,  7-C ) :   1.3567
B(  6-C ,  8-Br) :   1.0383 B(  7-C , 69-H ) :   1.0077 B( 10-C , 11-C ) :   1.6529
B( 10-C , 16-C ) :   1.0601 B( 11-C , 12-C ) :   1.1369 B( 11-C , 14-C ) :   1.1387
B( 12-C , 13-N ) :   2.9742 B( 14-C , 15-N ) :   2.9607 B( 16-C , 17-C ) :   1.6984
B( 17-C , 18-C ) :   1.1273 B( 17-C , 70-H ) :   0.9118 B( 18-C , 19-S ) :   1.0787
B( 18-C , 22-N ) :   1.6461 B( 19-S , 20-C ) :   1.1296 B( 19-S , 22-N ) :   0.1088
B( 20-C , 21-N ) :   1.6300 B( 20-C , 23-C ) :   1.1193 B( 21-N , 22-N ) :   1.2700
B( 23-C , 24-C ) :   1.6985 B( 23-C , 71-H ) :   0.9462 B( 24-C , 25-C ) :   1.0877
B( 24-C , 72-H ) :   0.9794 B( 25-C , 26-S ) :   1.0892 B( 25-C , 29-N ) :   1.7045
B( 26-S , 27-C ) :   1.1996 B( 27-C , 28-C ) :   1.5047 B( 27-C , 73-H ) :   0.9537
B( 28-C , 29-N ) :   1.3449 B( 28-C , 30-C ) :   1.1100 B( 30-C , 31-C ) :   1.7147
B( 30-C , 74-H ) :   0.9619 B( 31-C , 32-C ) :   1.1116 B( 31-C , 75-H ) :   0.9373
B( 32-C , 33-C ) :   1.3480 B( 32-C , 42-C ) :   1.3349 B( 33-C , 34-C ) :   0.8404
B( 33-C , 39-C ) :   1.3430 B( 34-C , 35-O ) :   2.2025 B( 34-C , 36-S ) :   1.0183
B( 35-O , 36-S ) :   0.1056 B( 36-S , 37-C ) :   1.0389 B( 36-S , 38-O ) :   0.1084
B( 37-C , 38-O ) :   2.1755 B( 37-C , 39-C ) :   0.8370 B( 39-C , 40-C ) :   1.3530
B( 40-C , 41-C ) :   1.3498 B( 40-C , 48-C ) :   1.0703 B( 41-C , 42-C ) :   1.3624
B( 41-C , 46-C ) :   0.9049 B( 42-C , 43-C ) :   0.9097 B( 43-C , 44-O ) :   2.2377
B( 43-C , 45-O ) :   1.0562 B( 45-O , 46-C ) :   1.0601 B( 46-C , 47-O ) :   2.2363
B( 48-C , 49-C ) :   1.7180 B( 48-C , 76-H ) :   0.9532 B( 49-C , 50-C ) :   1.1192
B( 49-C , 77-H ) :   0.9411 B( 50-C , 51-C ) :   1.6619 B( 50-C , 78-H ) :   0.9602
B( 51-C , 52-C ) :   0.9301 B( 51-C , 56-C ) :   1.0258 B( 52-C , 53-O ) :   2.2883
B( 52-C , 54-C ) :   0.9216 B( 54-C , 55-C ) :   1.3258 B( 54-C , 65-C ) :   1.3712
B( 55-C , 56-C ) :   1.0076 B( 55-C , 62-C ) :   1.3646 B( 56-C , 57-C ) :   1.6647
B( 57-C , 58-C ) :   1.1547 B( 57-C , 60-C ) :   1.1275 B( 58-C , 59-N ) :   3.0112
B( 60-C , 61-N ) :   2.9920 B( 62-C , 63-C ) :   1.3719 B( 62-C , 79-H ) :   0.9819
B( 63-C , 64-C ) :   1.4159 B( 63-C , 67-Br) :   1.0567 B( 64-C , 65-C ) :   1.3576
B( 64-C , 66-Br) :   1.0386 B( 65-C , 80-H ) :   1.0083

-----------------------------------------------------------------------------
         ABSORPTION SPECTRUM VIA TRANSITION ELECTRIC DIPOLE MOMENTS
-----------------------------------------------------------------------------
State   Energy  Wavelength   fosc         T2         TX        TY        TZ
        (cm-1)    (nm)                  (au**2)     (au)      (au)      (au)
-----------------------------------------------------------------------------
   0   21160.4    472.6   0.032127991   0.49984   0.15312   0.40789   0.55680
   1   21438.3    466.5   0.648693686   9.96151   3.01463   0.60713   0.71056
   2   22678.6    440.9   1.344954686  19.52392  -4.31946  -0.66113  -0.65508
   3   23820.7    419.8   0.197946139   2.73570  -0.72493   0.79887   1.25379
   4   25210.5    396.7   0.019980191   0.26091  -0.14716   0.17820   0.45552
   5   27316.6    366.1   0.053017448   0.63895   0.19503   0.77270  -0.06202
   6   27488.7    363.8   0.106221753   1.27214  -0.68766   0.87415  -0.18742
   7   28128.1    355.5   0.140945600   1.64963  -0.37986  -0.08490   1.22398
   8   28225.4    354.3   0.034620037   0.40380   0.42496  -0.07624  -0.46625
   9   28838.1    346.8   0.034116895   0.38947  -0.10989   0.01406  -0.61417
  10   29178.2    342.7   0.008757113   0.09880   0.16396  -0.13037  -0.23436
  11   30164.2    331.5   0.051780136   0.56513  -0.57862  -0.11390   0.46622
  12   30189.3    331.2   0.020033055   0.21846  -0.24312   0.13305   0.37636
  13   30390.5    329.1   0.589653456   6.38756  -2.40991  -0.49471   0.57894
  14   31444.7    318.0   0.222986530   2.33457   0.81775   0.33531   1.24636
  15   31703.3    315.4   0.003358051   0.03487  -0.05041  -0.08824  -0.15666
  16   32141.4    311.1   0.038090779   0.39015  -0.59990   0.16316   0.06038
  17   32502.2    307.7   0.059408300   0.60174   0.70238   0.32909   0.01009
  18   32584.9    306.9   0.235990306   2.38426   0.47807   0.24505   1.44764
  19   32720.6    305.6   0.013388479   0.13471   0.27606   0.13165  -0.20288
  20   33113.4    302.0   0.099366864   0.98790  -0.89793  -0.26729  -0.33192
  21   33333.7    300.0   0.099564059   0.98332  -0.75039  -0.09705   0.64095
  22   33728.2    296.5   0.088836367   0.86711  -0.92484   0.02093  -0.10645
  23   33766.1    296.2   0.062836635   0.61264   0.51405  -0.07597  -0.58534
  24   34251.7    292.0   0.010544043   0.10134  -0.22631   0.08189  -0.20838
  25   34541.0    289.5   0.005688575   0.05422   0.11363   0.08552  -0.18437
  26   34945.6    286.2   0.395006458   3.72124  -1.28236  -1.06596   0.96981
  27   35396.1    282.5   0.113599611   1.05657   0.69062   0.09923  -0.75483
  28   35468.6    281.9   0.423276141   3.92876  -1.14193  -0.17958   1.61013
  29   35775.8    279.5   0.020207609   0.18595   0.01213  -0.39457   0.17356
  30   36233.1    276.0   0.000725402   0.00659  -0.05069  -0.01314   0.06204
  31   36377.0    274.9   0.013385924   0.12114  -0.10226   0.19512  -0.26947
  32   36549.2    273.6   0.031549477   0.28418  -0.28945  -0.15718   0.41915
  33   36881.1    271.1   0.086859902   0.77534  -0.79059  -0.22425   0.31625
  34   37191.0    268.9   0.002021306   0.01789   0.01741  -0.12119  -0.05387
  35   37322.2    267.9   0.138912324   1.22532   0.11528  -0.83320  -0.71959
  36   37626.8    265.8   0.238056651   2.08285  -1.38266   0.02200  -0.41306
  37   37940.7    263.6   0.009378146   0.08137  -0.15800   0.07258   0.22615
  38   38365.8    260.6   0.057841748   0.49633   0.58998  -0.37689   0.07883
  39   38586.7    259.2   0.035428814   0.30227   0.04900   0.53009   0.13739
  40   38724.1    258.2   0.044505637   0.37836   0.35263   0.03700   0.50264
  41   38871.2    257.3   0.048450053   0.41034   0.22014  -0.44531  -0.40444
  42   39076.5    255.9   0.024618288   0.20740  -0.00329   0.23853   0.38794
  43   39189.4    255.2   0.009433989   0.07925  -0.02539   0.27897  -0.02792
  44   39291.2    254.5   0.045612342   0.38218  -0.30085  -0.02367  -0.53954
  45   39519.8    253.0   0.012597029   0.10494   0.00478   0.30962  -0.09514
  46   39711.5    251.8   0.002195554   0.01820   0.04791  -0.07605   0.10061
  47   40087.8    249.5   0.022641050   0.18593   0.36553  -0.22730   0.02564

FINAL SINGLE POINT ENERGY    -14195.250772494494

DIPOLE MOMENT
-------------
                                X             Y             Z
Electronic contribution:    -26.17366      58.78418     153.56771
Nuclear contribution   :     25.39355     -59.16296    -152.93739
                        -----------------------------------------
Total Dipole Moment    :     -0.78011      -0.37878       0.63033
                        -----------------------------------------
Magnitude (a.u.)       :      1.07208
Magnitude (Debye)      :      2.72502

Rotational constants in cm-1:     0.001185     0.000123     0.000115
Rotational constants in MHz :    35.518305     3.686223     3.438463

                             ****ORCA TERMINATED NORMALLY****
TOTAL RUN TIME: 0 days 0 hours 8 minutes 16 seconds 7 msec
