                         Program Version 4.2.0 -  RELEASE  -
|  1> # ORCA input file
|  2> # SCF done       -160.094093048279          0.000809034807
|  3> ! CAM-B3LYP def2-SVP def2/J RIJCOSX Grid4 TightSCF
|  4> %maxcore 5000
|  5> %tddft
|  6>     Mode sTDDFT
|  7>     Ethresh 5.0
|  8>     maxcore 5000
|  9> end
| 10>
| 11> %pal
| 12>   nprocs 6
| 13>   end
| 14> * xyz 0 1
| 15>    C        0.89242         0.40570        -1.56890
| 16>    F        0.10731        -0.42320        -0.89344
| 17>    C        0.45657         1.36213        -2.46214
| 18>    C       -0.85534         1.67978        -2.85904
| 19>    N       -1.93169         1.91939        -3.16717
| 20>    O        1.51326         2.02116        -2.96297
| 21>    C        2.63264         1.50376        -2.40616
| 22>    C        3.89490         2.07295        -2.80690
| 23>    O        4.97779         1.71942        -2.40143
| 24>    C        2.31196         0.47422        -1.51098
| 25>    C        3.16587        -0.34353        -0.70879
| 26>    S        4.90073        -0.20955        -0.70995
| 27>    C        5.04561        -1.48667         0.45258
| 28>    C        3.78549        -1.98334         0.81578
| 29>    C        2.73684        -1.33253         0.15542
| 30>    C        3.54191        -3.01991         1.73241
| 31>    N        3.30204        -3.86342         2.47329
| 32>    C        6.33892        -1.86582         0.88816
| 33>    C        6.60048        -2.83797         1.80402
| 34>    C        7.91082        -3.16909         2.21872
| 35>    N        8.18751        -4.14246         3.14581
| 36>    C        7.23874        -5.02770         3.78036
| 37>    C        6.79902        -6.15216         2.84698
| 38>    C        9.56622        -4.25127         3.40058
| 39>    O       10.04327        -5.03989         4.18909
| 40>    C       10.16862        -3.24594         2.54764
| 41>    C        9.13297        -2.60479         1.83554
| 42>    C        9.73121        -1.59777         0.98409
| 43>    O        9.24941        -0.81146         0.19380
| 44>    N       11.10668        -1.69993         1.24108
| 45>    C       12.05097        -0.81848         0.59681
| 46>    C       12.45798         0.34110         1.50262
| 47>    C       11.39028        -2.66928         2.17753
| 48>    C       12.69021        -2.96243         2.63558
| 49>    C       12.94836        -3.92696         3.56816
| 50>    C       14.23032        -4.22158         4.07948
| 51>    C       14.51368        -5.18474         5.02987
| 52>    C       15.90045        -5.14797         5.34038
| 53>    C       16.48407        -4.09741         4.47865
| 54>    C       15.48686        -3.56122         3.73320
| 55>    C       17.83653        -3.74983         4.36282
| 56>    N       18.93230        -3.44734         4.20055
| 57>    C       16.58052        -5.90048         6.26861
| 58>    C       17.93989        -5.72771         6.68794
| 59>    C       18.23094        -6.67171         7.63677
| 60>    C       17.05461        -7.50180         7.83614
| 61>    C       16.05436        -7.03404         7.04047
| 62>    C       14.76864        -7.58021         6.96050
| 63>    N       13.72267        -8.05267         6.91692
| 64>    C       19.47183        -6.86786         8.33189
| 65>    C       20.51105        -5.96603         8.58311
| 66>    O       21.51284        -6.57447         9.25768
| 67>    C       21.16577        -7.85586         9.46270
| 68>    C       19.91590        -8.08017         8.92017
| 69>    F       19.26672        -9.23732         8.93404
| 70>    C       22.01940        -8.74284        10.14115
| 71>    N       22.69461        -9.48516        10.69348
| 72>    C       20.66923        -4.53798         8.36627
| 73>    O       19.87182        -3.80108         7.84593
| 74>    H        3.78120         2.89211        -3.53638
| 75>    H        1.70507        -1.58867         0.31647
| 76>    H        7.16246        -1.32152         0.44251
| 77>    H        5.78638        -3.38545         2.25297
| 78>    H        6.37524        -4.45418         4.12718
| 79>    H        7.75479        -5.45033         4.64675
| 80>    H        6.30703        -5.75613         1.96152
| 81>    H        6.10313        -6.80402         3.36656
| 82>    H        7.66058        -6.73815         2.53608
| 83>    H       11.54327        -0.42784        -0.28952
| 84>    H       12.92529        -1.39165         0.27615
| 85>    H       11.58277         0.92962         1.76617
| 86>    H       13.16371         0.98299         0.98282
| 87>    H       12.92026        -0.01896         2.41919
| 88>    H       13.50415        -2.38459         2.22289
| 89>    H       12.12802        -4.50939         3.96711
| 90>    H       13.79610        -5.83726         5.48784
| 91>    H       15.60380        -2.78229         3.00298
| 92>    H       18.59859        -4.96436         6.32720
| 93>    H       16.98962        -8.33431         8.51147
| 94>    H       21.63296        -4.17408         8.76686
| 95> *
| 96>
| 97>                          ****END OF INPUT****

CARTESIAN COORDINATES (ANGSTROEM)
---------------------------------
  C      0.892420    0.405700   -1.568900
  F      0.107310   -0.423200   -0.893440
  C      0.456570    1.362130   -2.462140
  C     -0.855340    1.679780   -2.859040
  N     -1.931690    1.919390   -3.167170
  O      1.513260    2.021160   -2.962970
  C      2.632640    1.503760   -2.406160
  C      3.894900    2.072950   -2.806900
  O      4.977790    1.719420   -2.401430
  C      2.311960    0.474220   -1.510980
  C      3.165870   -0.343530   -0.708790
  S      4.900730   -0.209550   -0.709950
  C      5.045610   -1.486670    0.452580
  C      3.785490   -1.983340    0.815780
  C      2.736840   -1.332530    0.155420
  C      3.541910   -3.019910    1.732410
  N      3.302040   -3.863420    2.473290
  C      6.338920   -1.865820    0.888160
  C      6.600480   -2.837970    1.804020
  C      7.910820   -3.169090    2.218720
  N      8.187510   -4.142460    3.145810
  C      7.238740   -5.027700    3.780360
  C      6.799020   -6.152160    2.846980
  C      9.566220   -4.251270    3.400580
  O     10.043270   -5.039890    4.189090
  C     10.168620   -3.245940    2.547640
  C      9.132970   -2.604790    1.835540
  C      9.731210   -1.597770    0.984090
  O      9.249410   -0.811460    0.193800
  N     11.106680   -1.699930    1.241080
  C     12.050970   -0.818480    0.596810
  C     12.457980    0.341100    1.502620
  C     11.390280   -2.669280    2.177530
  C     12.690210   -2.962430    2.635580
  C     12.948360   -3.926960    3.568160
  C     14.230320   -4.221580    4.079480
  C     14.513680   -5.184740    5.029870
  C     15.900450   -5.147970    5.340380
  C     16.484070   -4.097410    4.478650
  C     15.486860   -3.561220    3.733200
  C     17.836530   -3.749830    4.362820
  N     18.932300   -3.447340    4.200550
  C     16.580520   -5.900480    6.268610
  C     17.939890   -5.727710    6.687940
  C     18.230940   -6.671710    7.636770
  C     17.054610   -7.501800    7.836140
  C     16.054360   -7.034040    7.040470
  C     14.768640   -7.580210    6.960500
  N     13.722670   -8.052670    6.916920
  C     19.471830   -6.867860    8.331890
  C     20.511050   -5.966030    8.583110
  O     21.512840   -6.574470    9.257680
  C     21.165770   -7.855860    9.462700
  C     19.915900   -8.080170    8.920170
  F     19.266720   -9.237320    8.934040
  C     22.019400   -8.742840   10.141150
  N     22.694610   -9.485160   10.693480
  C     20.669230   -4.537980    8.366270
  O     19.871820   -3.801080    7.845930
  H      3.781200    2.892110   -3.536380
  H      1.705070   -1.588670    0.316470
  H      7.162460   -1.321520    0.442510
  H      5.786380   -3.385450    2.252970
  H      6.375240   -4.454180    4.127180
  H      7.754790   -5.450330    4.646750
  H      6.307030   -5.756130    1.961520
  H      6.103130   -6.804020    3.366560
  H      7.660580   -6.738150    2.536080
  H     11.543270   -0.427840   -0.289520
  H     12.925290   -1.391650    0.276150
  H     11.582770    0.929620    1.766170
  H     13.163710    0.982990    0.982820
  H     12.920260   -0.018960    2.419190
  H     13.504150   -2.384590    2.222890
  H     12.128020   -4.509390    3.967110
  H     13.796100   -5.837260    5.487840
  H     15.603800   -2.782290    3.002980
  H     18.598590   -4.964360    6.327200
  H     16.989620   -8.334310    8.511470
  H     21.632960   -4.174080    8.766860

 Total Charge           Charge          ....    0
 Multiplicity           Mult            ....    1
 Number of Electrons    NEL             ....  410
 Basis Dimension        Dim             ....  935

ORBITAL ENERGIES
----------------

  NO   OCC          E(Eh)            E(eV)
   0   2.0000     -88.988334     -2421.4957
   1   2.0000     -24.843074      -676.0144
   2   2.0000     -24.833408      -675.7514
   3   2.0000     -19.350166      -526.5448
   4   2.0000     -19.341918      -526.3203
   5   2.0000     -19.249500      -523.8055
   6   2.0000     -19.236319      -523.4469
   7   2.0000     -19.202024      -522.5136
   8   2.0000     -19.200065      -522.4603
   9   2.0000     -14.462599      -393.5473
  10   2.0000     -14.461875      -393.5276
  11   2.0000     -14.443671      -393.0323
  12   2.0000     -14.434771      -392.7901
  13   2.0000     -14.422622      -392.4595
  14   2.0000     -14.412638      -392.1878
  15   2.0000     -14.407102      -392.0372
  16   2.0000     -10.415319      -283.4152
  17   2.0000     -10.405324      -283.1433
  18   2.0000     -10.404804      -283.1291
  19   2.0000     -10.395100      -282.8650
  20   2.0000     -10.394218      -282.8411
  21   2.0000     -10.383689      -282.5545
  22   2.0000     -10.383233      -282.5421
  23   2.0000     -10.382946      -282.5343
  24   2.0000     -10.378881      -282.4237
  25   2.0000     -10.370344      -282.1914
  26   2.0000     -10.351051      -281.6664
  27   2.0000     -10.349619      -281.6274
  28   2.0000     -10.348001      -281.5834
  29   2.0000     -10.342524      -281.4344
  30   2.0000     -10.342040      -281.4212
  31   2.0000     -10.336872      -281.2806
  32   2.0000     -10.334176      -281.2072
  33   2.0000     -10.333690      -281.1940
  34   2.0000     -10.331254      -281.1277
  35   2.0000     -10.328952      -281.0651
  36   2.0000     -10.324674      -280.9487
  37   2.0000     -10.324217      -280.9362
  38   2.0000     -10.323663      -280.9212
  39   2.0000     -10.317456      -280.7523
  40   2.0000     -10.317122      -280.7432
  41   2.0000     -10.315475      -280.6983
  42   2.0000     -10.314946      -280.6839
  43   2.0000     -10.313877      -280.6549
  44   2.0000     -10.312585      -280.6197
  45   2.0000     -10.311395      -280.5873
  46   2.0000     -10.309766      -280.5430
  47   2.0000     -10.309457      -280.5346
  48   2.0000     -10.309038      -280.5232
  49   2.0000     -10.308746      -280.5152
  50   2.0000     -10.307426      -280.4793
  51   2.0000     -10.303587      -280.3748
  52   2.0000     -10.301635      -280.3218
  53   2.0000     -10.292616      -280.0763
  54   2.0000     -10.290057      -280.0067
  55   2.0000     -10.274710      -279.5891
  56   2.0000     -10.272289      -279.5232
  57   2.0000     -10.272264      -279.5225
  58   2.0000     -10.262679      -279.2617
  59   2.0000      -8.082183      -219.9274
  60   2.0000      -6.051442      -164.6681
  61   2.0000      -6.046954      -164.5460
  62   2.0000      -6.044590      -164.4817
  63   2.0000      -1.358668       -36.9712
  64   2.0000      -1.348747       -36.7013
  65   2.0000      -1.270894       -34.5828
  66   2.0000      -1.261719       -34.3331
  67   2.0000      -1.163158       -31.6511
  68   2.0000      -1.149363       -31.2757
  69   2.0000      -1.143772       -31.1236
  70   2.0000      -1.137177       -30.9442
  71   2.0000      -1.073807       -29.2198
  72   2.0000      -1.065235       -28.9865
  73   2.0000      -1.026945       -27.9446
  74   2.0000      -1.024279       -27.8720
  75   2.0000      -1.020989       -27.7825
  76   2.0000      -1.015571       -27.6351
  77   2.0000      -1.004121       -27.3235
  78   2.0000      -1.002559       -27.2810
  79   2.0000      -0.988423       -26.8964
  80   2.0000      -0.985582       -26.8190
  81   2.0000      -0.964894       -26.2561
  82   2.0000      -0.949932       -25.8490
  83   2.0000      -0.937768       -25.5180
  84   2.0000      -0.930697       -25.3255
  85   2.0000      -0.923144       -25.1200
  86   2.0000      -0.919509       -25.0211
  87   2.0000      -0.917386       -24.9633
  88   2.0000      -0.881514       -23.9872
  89   2.0000      -0.881468       -23.9860
  90   2.0000      -0.871361       -23.7109
  91   2.0000      -0.862783       -23.4775
  92   2.0000      -0.859909       -23.3993
  93   2.0000      -0.848832       -23.0979
  94   2.0000      -0.826923       -22.5017
  95   2.0000      -0.817161       -22.2361
  96   2.0000      -0.811632       -22.0856
  97   2.0000      -0.800637       -21.7864
  98   2.0000      -0.795740       -21.6532
  99   2.0000      -0.775603       -21.1052
 100   2.0000      -0.767173       -20.8758
 101   2.0000      -0.766626       -20.8609
 102   2.0000      -0.753810       -20.5122
 103   2.0000      -0.740436       -20.1483
 104   2.0000      -0.728935       -19.8353
 105   2.0000      -0.726482       -19.7686
 106   2.0000      -0.719772       -19.5860
 107   2.0000      -0.715619       -19.4730
 108   2.0000      -0.712233       -19.3808
 109   2.0000      -0.701840       -19.0980
 110   2.0000      -0.690163       -18.7803
 111   2.0000      -0.683240       -18.5919
 112   2.0000      -0.679969       -18.5029
 113   2.0000      -0.675579       -18.3834
 114   2.0000      -0.667583       -18.1659
 115   2.0000      -0.658918       -17.9301
 116   2.0000      -0.657530       -17.8923
 117   2.0000      -0.655932       -17.8488
 118   2.0000      -0.647346       -17.6152
 119   2.0000      -0.643553       -17.5120
 120   2.0000      -0.633942       -17.2504
 121   2.0000      -0.631321       -17.1791
 122   2.0000      -0.621563       -16.9136
 123   2.0000      -0.617890       -16.8136
 124   2.0000      -0.608512       -16.5584
 125   2.0000      -0.601755       -16.3746
 126   2.0000      -0.597607       -16.2617
 127   2.0000      -0.591645       -16.0995
 128   2.0000      -0.586561       -15.9611
 129   2.0000      -0.582963       -15.8632
 130   2.0000      -0.580495       -15.7961
 131   2.0000      -0.577331       -15.7100
 132   2.0000      -0.576886       -15.6979
 133   2.0000      -0.574672       -15.6376
 134   2.0000      -0.569867       -15.5069
 135   2.0000      -0.563229       -15.3262
 136   2.0000      -0.556546       -15.1444
 137   2.0000      -0.550680       -14.9848
 138   2.0000      -0.547124       -14.8880
 139   2.0000      -0.540867       -14.7177
 140   2.0000      -0.538800       -14.6615
 141   2.0000      -0.536278       -14.5929
 142   2.0000      -0.535283       -14.5658
 143   2.0000      -0.532420       -14.4879
 144   2.0000      -0.528675       -14.3860
 145   2.0000      -0.527399       -14.3513
 146   2.0000      -0.524871       -14.2825
 147   2.0000      -0.523580       -14.2473
 148   2.0000      -0.520300       -14.1581
 149   2.0000      -0.518019       -14.0960
 150   2.0000      -0.514686       -14.0053
 151   2.0000      -0.510417       -13.8892
 152   2.0000      -0.508544       -13.8382
 153   2.0000      -0.506005       -13.7691
 154   2.0000      -0.505014       -13.7421
 155   2.0000      -0.500582       -13.6215
 156   2.0000      -0.498064       -13.5530
 157   2.0000      -0.492245       -13.3947
 158   2.0000      -0.491462       -13.3734
 159   2.0000      -0.484329       -13.1793
 160   2.0000      -0.480881       -13.0854
 161   2.0000      -0.476078       -12.9547
 162   2.0000      -0.473390       -12.8816
 163   2.0000      -0.471536       -12.8311
 164   2.0000      -0.469380       -12.7725
 165   2.0000      -0.468274       -12.7424
 166   2.0000      -0.467158       -12.7120
 167   2.0000      -0.465319       -12.6620
 168   2.0000      -0.460089       -12.5197
 169   2.0000      -0.459503       -12.5037
 170   2.0000      -0.458988       -12.4897
 171   2.0000      -0.458021       -12.4634
 172   2.0000      -0.454845       -12.3769
 173   2.0000      -0.452223       -12.3056
 174   2.0000      -0.451206       -12.2779
 175   2.0000      -0.449866       -12.2415
 176   2.0000      -0.446779       -12.1575
 177   2.0000      -0.442414       -12.0387
 178   2.0000      -0.441180       -12.0051
 179   2.0000      -0.440794       -11.9946
 180   2.0000      -0.438835       -11.9413
 181   2.0000      -0.438428       -11.9302
 182   2.0000      -0.436028       -11.8649
 183   2.0000      -0.430083       -11.7032
 184   2.0000      -0.428694       -11.6653
 185   2.0000      -0.419030       -11.4024
 186   2.0000      -0.417811       -11.3692
 187   2.0000      -0.416698       -11.3389
 188   2.0000      -0.403351       -10.9757
 189   2.0000      -0.399150       -10.8614
 190   2.0000      -0.379605       -10.3296
 191   2.0000      -0.370975       -10.0947
 192   2.0000      -0.365036        -9.9331
 193   2.0000      -0.358156        -9.7459
 194   2.0000      -0.357360        -9.7243
 195   2.0000      -0.349078        -9.4989
 196   2.0000      -0.346827        -9.4376
 197   2.0000      -0.341753        -9.2996
 198   2.0000      -0.340875        -9.2757
 199   2.0000      -0.330800        -9.0015
 200   2.0000      -0.325375        -8.8539
 201   2.0000      -0.310185        -8.4406
 202   2.0000      -0.305294        -8.3075
 203   2.0000      -0.298322        -8.1177
 204   2.0000      -0.241874        -6.5817
 205   0.0000      -0.134675        -3.6647
 206   0.0000      -0.097261        -2.6466
 207   0.0000      -0.075652        -2.0586
 208   0.0000      -0.065377        -1.7790
 209   0.0000      -0.040596        -1.1047

MULLIKEN ATOMIC CHARGES
-----------------------
   0 C :    0.191947
   1 F :   -0.139260
   2 C :   -0.064325
   3 C :   -0.128926
   4 N :    0.199006
   5 O :   -0.163242
   6 C :    0.025825
   7 C :    0.153620
   8 O :   -0.174369
   9 C :    0.096661
  10 C :   -0.105658
  11 S :    0.227785
  12 C :   -0.057378
  13 C :   -0.058614
  14 C :   -0.011481
  15 C :   -0.164723
  16 N :    0.119425
  17 C :    0.060328
  18 C :   -0.033864
  19 C :    0.139442
  20 N :   -0.253551
  21 C :    0.094868
  22 C :    0.007253
  23 C :    0.167821
  24 O :   -0.193554
  25 C :   -0.059497
  26 C :   -0.068144
  27 C :    0.166397
  28 O :   -0.208394
  29 N :   -0.256300
  30 C :    0.100662
  31 C :    0.002991
  32 C :    0.141780
  33 C :   -0.024654
  34 C :    0.011224
  35 C :    0.109556
  36 C :   -0.100584
  37 C :    0.122242
  38 C :   -0.087046
  39 C :   -0.012711
  40 C :   -0.172959
  41 N :    0.141366
  42 C :    0.092100
  43 C :   -0.085383
  44 C :    0.061761
  45 C :   -0.013245
  46 C :   -0.092085
  47 C :   -0.188250
  48 N :    0.146418
  49 C :    0.050595
  50 C :    0.051848
  51 O :   -0.164531
  52 C :   -0.071552
  53 C :    0.194811
  54 F :   -0.142199
  55 C :   -0.129363
  56 N :    0.193381
  57 C :    0.148571
  58 O :   -0.151110
  59 H :    0.015503
  60 H :    0.009683
  61 H :    0.007686
  62 H :   -0.014080
  63 H :    0.036903
  64 H :    0.046061
  65 H :    0.017668
  66 H :    0.031828
  67 H :    0.025986
  68 H :    0.045423
  69 H :    0.022829
  70 H :    0.031794
  71 H :    0.026722
  72 H :    0.014606
  73 H :   -0.029794
  74 H :    0.017507
  75 H :    0.020046
  76 H :    0.002107
  77 H :    0.016150
  78 H :    0.005193
  79 H :    0.007450
Sum of atomic charges:   -0.0000000

LOEWDIN ATOMIC CHARGES
----------------------
   0 C :    0.077094
   1 F :   -0.018903
   2 C :   -0.026002
   3 C :   -0.043412
   4 N :   -0.001698
   5 O :    0.048500
   6 C :   -0.019613
   7 C :    0.096199
   8 O :   -0.131931
   9 C :   -0.048457
  10 C :   -0.182118
  11 S :    0.541387
  12 C :   -0.145274
  13 C :   -0.105832
  14 C :   -0.012074
  15 C :   -0.026066
  16 N :   -0.058492
  17 C :    0.002450
  18 C :   -0.029817
  19 C :    0.078962
  20 N :    0.005218
  21 C :    0.037417
  22 C :   -0.058325
  23 C :    0.081915
  24 O :   -0.183882
  25 C :   -0.107026
  26 C :   -0.117494
  27 C :    0.078859
  28 O :   -0.199487
  29 N :    0.000464
  30 C :    0.036842
  31 C :   -0.060755
  32 C :    0.068639
  33 C :   -0.033502
  34 C :    0.030443
  35 C :   -0.012446
  36 C :   -0.012572
  37 C :    0.048435
  38 C :   -0.071392
  39 C :    0.053482
  40 C :   -0.033043
  41 N :   -0.051740
  42 C :    0.029213
  43 C :    0.012053
  44 C :   -0.033484
  45 C :    0.048285
  46 C :   -0.086221
  47 C :   -0.033397
  48 N :   -0.058402
  49 C :   -0.041234
  50 C :   -0.001917
  51 O :    0.050799
  52 C :   -0.032778
  53 C :    0.075537
  54 F :   -0.022911
  55 C :   -0.043780
  56 N :   -0.008289
  57 C :    0.096424
  58 O :   -0.107591
  59 H :    0.015115
  60 H :    0.039174
  61 H :    0.037648
  62 H :    0.036491
  63 H :    0.028238
  64 H :    0.039140
  65 H :    0.023053
  66 H :    0.035151
  67 H :    0.030545
  68 H :    0.039063
  69 H :    0.022790
  70 H :    0.033407
  71 H :    0.032008
  72 H :    0.021250
  73 H :    0.027838
  74 H :    0.043415
  75 H :    0.041758
  76 H :    0.035361
  77 H :    0.034546
  78 H :    0.035837
  79 H :    0.010915

  Mayer bond orders larger than 0.100000
B(  0-C ,  1-F ) :   1.1982 B(  0-C ,  2-C ) :   1.5015 B(  0-C ,  9-C ) :   1.1999
B(  2-C ,  3-C ) :   1.0580 B(  2-C ,  5-O ) :   1.1824 B(  2-C ,  6-C ) :   0.1308
B(  3-C ,  4-N ) :   3.0533 B(  5-O ,  6-C ) :   1.1188 B(  6-C ,  7-C ) :   1.0414
B(  6-C ,  9-C ) :   1.3834 B(  7-C ,  8-O ) :   2.1060 B(  7-C , 59-H ) :   0.9536
B(  9-C , 10-C ) :   1.0782 B( 10-C , 11-S ) :   1.1352 B( 10-C , 14-C ) :   1.4626
B( 11-S , 12-C ) :   1.1311 B( 12-C , 13-C ) :   1.4060 B( 12-C , 17-C ) :   1.1585
B( 13-C , 14-C ) :   1.3081 B( 13-C , 15-C ) :   1.1067 B( 14-C , 60-H ) :   1.0044
B( 15-C , 16-N ) :   2.9677 B( 17-C , 18-C ) :   1.6040 B( 17-C , 61-H ) :   0.9230
B( 18-C , 19-C ) :   1.1794 B( 18-C , 62-H ) :   0.9448 B( 19-C , 20-N ) :   1.1758
B( 19-C , 26-C ) :   1.3092 B( 20-N , 21-C ) :   0.9359 B( 20-N , 23-C ) :   1.0578
B( 21-C , 22-C ) :   1.1232 B( 21-C , 63-H ) :   0.9474 B( 21-C , 64-H ) :   0.9275
B( 22-C , 65-H ) :   0.9677 B( 22-C , 66-H ) :   0.9677 B( 22-C , 67-H ) :   0.9635
B( 23-C , 24-O ) :   2.0404 B( 23-C , 25-C ) :   0.9760 B( 24-O , 74-H ) :   0.1090
B( 25-C , 26-C ) :   1.2778 B( 25-C , 32-C ) :   1.3251 B( 26-C , 27-C ) :   0.9850
B( 27-C , 28-O ) :   2.0262 B( 27-C , 29-N ) :   1.0658 B( 28-O , 61-H ) :   0.1139
B( 29-N , 30-C ) :   0.9446 B( 29-N , 32-C ) :   1.1542 B( 30-C , 31-C ) :   1.1203
B( 30-C , 68-H ) :   0.9277 B( 30-C , 69-H ) :   0.9499 B( 31-C , 70-H ) :   0.9634
B( 31-C , 71-H ) :   0.9681 B( 31-C , 72-H ) :   0.9686 B( 32-C , 33-C ) :   1.1740
B( 33-C , 34-C ) :   1.5345 B( 33-C , 73-H ) :   0.9622 B( 34-C , 35-C ) :   1.1407
B( 34-C , 74-H ) :   0.9593 B( 35-C , 36-C ) :   1.4975 B( 35-C , 39-C ) :   1.0218
B( 36-C , 37-C ) :   1.1190 B( 36-C , 75-H ) :   1.0131 B( 37-C , 38-C ) :   1.0896
B( 37-C , 42-C ) :   1.4100 B( 38-C , 39-C ) :   1.7043 B( 38-C , 40-C ) :   1.0867
B( 39-C , 76-H ) :   1.0151 B( 40-C , 41-N ) :   2.9776 B( 42-C , 43-C ) :   1.0955
B( 42-C , 46-C ) :   1.1216 B( 43-C , 44-C ) :   1.6008 B( 43-C , 77-H ) :   0.9912
B( 44-C , 45-C ) :   1.0696 B( 44-C , 49-C ) :   0.9714 B( 45-C , 46-C ) :   1.6442
B( 45-C , 78-H ) :   1.0201 B( 46-C , 47-C ) :   1.0850 B( 47-C , 48-N ) :   2.9787
B( 49-C , 50-C ) :   1.4011 B( 49-C , 53-C ) :   1.2091 B( 50-C , 51-O ) :   1.1306
B( 50-C , 52-C ) :   0.1362 B( 50-C , 57-C ) :   1.0106 B( 51-O , 52-C ) :   1.1779
B( 52-C , 53-C ) :   1.4830 B( 52-C , 55-C ) :   1.0620 B( 53-C , 54-F ) :   1.2072
B( 55-C , 56-N ) :   3.0522 B( 57-C , 58-O ) :   2.1582 B( 57-C , 79-H ) :   0.9435

-----------------------------------------------------------------------------
         ABSORPTION SPECTRUM VIA TRANSITION ELECTRIC DIPOLE MOMENTS
-----------------------------------------------------------------------------
State   Energy  Wavelength   fosc         T2         TX        TY        TZ
        (cm-1)    (nm)                  (au**2)     (au)      (au)      (au)
-----------------------------------------------------------------------------
   0    9699.9   1030.9   0.767668098  26.05433  -4.35407   1.53270  -2.17882
   1   16788.2    595.7   0.221363887   4.34088   2.07694  -0.08817   0.13935
   2   17302.9    577.9   0.049552744   0.94281  -0.65168   0.41575  -0.58760
   3   19426.4    514.8   0.018501893   0.31354   0.01101   0.40376  -0.38781
   4   23076.7    433.3   0.096186804   1.37220  -0.74072  -0.71668   0.55670
   5   24582.0    406.8   0.012756973   0.17085  -0.19852   0.27115  -0.24065
   6   24996.0    400.1   0.490890737   6.46533  -1.75122   1.24883  -1.35609
   7   26317.2    380.0   0.120395657   1.50608  -0.71564   0.47073  -0.87884
   8   26482.2    377.6   0.405518054   5.04118  -1.32131   1.01970  -1.50184
   9   27288.0    366.5   0.081038316   0.97768   0.81851  -0.16936   0.52824
  10   27939.1    357.9   0.020350548   0.23979  -0.29691   0.28824  -0.26184
  11   28320.6    353.1   0.018890183   0.21959   0.32212   0.34025   0.00763
  12   29444.0    339.6   0.177958847   1.98975   0.60146  -0.98578   0.81008
  13   29962.4    333.8   0.000548835   0.00603  -0.01130  -0.05889   0.04934
  14   30679.8    325.9   0.113230860   1.21503   0.29262  -0.75642   0.74648
  15   30836.3    324.3   0.003280359   0.03502  -0.01770  -0.17748   0.05666
  16   31048.8    322.1   0.130275283   1.38131   0.88607  -0.58566   0.50319
  17   31882.4    313.7   0.079674911   0.82271   0.67933   0.57711   0.16782
  18   31978.4    312.7   0.010235477   0.10537   0.26255   0.02668   0.18902
  19   33507.8    298.4   0.014925328   0.14664   0.38062  -0.01975   0.03710
  20   34254.9    291.9   0.018851217   0.18117   0.06046  -0.32231   0.27136
  21   34660.0    288.5   0.066214207   0.62892  -0.77234  -0.18004   0.00144
  22   34903.0    286.5   0.036558288   0.34483  -0.10740  -0.31893   0.48122
  23   34982.9    285.9   0.067766927   0.63773   0.09068  -0.49491   0.62014
  24   35412.9    282.4   0.021244913   0.19750   0.31951   0.27953   0.13144
  25   36276.6    275.7   0.001753823   0.01592   0.03446  -0.11782   0.02912
  26   36576.0    273.4   0.484862644   4.36413   1.10365  -1.24576   1.26261
  27   37206.6    268.8   0.168672012   1.49244  -1.19826  -0.22870   0.06572
  28   37764.4    264.8   0.052297680   0.45591  -0.61242   0.13690  -0.24921
  29   37994.3    263.2   0.000108374   0.00094   0.02641   0.00180   0.01544
  30   38125.7    262.3   0.011519765   0.09947  -0.28696   0.06430  -0.11398
  31   38757.4    258.0   0.009777417   0.08305  -0.14156   0.02869  -0.24938
  32   38861.9    257.3   0.001782928   0.01510   0.10689   0.01837   0.05780
  33   39066.7    256.0   0.018252446   0.15381   0.36610   0.13953   0.01763
  34   39434.0    253.6   0.100724116   0.84089  -0.58872   0.55061  -0.43717
  35   40244.1    248.5   0.000901401   0.00737  -0.01503   0.06282   0.05658

FINAL SINGLE POINT ENERGY     -3080.101382730331

DIPOLE MOMENT
-------------
                                X             Y             Z
Electronic contribution:     -2.79801      -4.72458       6.12102
Nuclear contribution   :      2.08934       6.67523      -7.61759
                        -----------------------------------------
Total Dipole Moment    :     -0.70867       1.95065      -1.49657
                        -----------------------------------------
Magnitude (a.u.)       :      2.55871
Magnitude (Debye)      :      6.50371

Rotational constants in cm-1:     0.004873     0.000304     0.000288
Rotational constants in MHz :   146.100687     9.101563     8.634760

                             ****ORCA TERMINATED NORMALLY****
TOTAL RUN TIME: 0 days 0 hours 7 minutes 24 seconds 12 msec
