                         Program Version 4.2.0 -  RELEASE  -
|  1> # ORCA input file
|  2> # SCF done       -202.672046262077          0.000655293500
|  3> ! CAM-B3LYP def2-SVP def2/J RIJCOSX Grid4 TightSCF
|  4> %maxcore 5000
|  5> %tddft
|  6>     Mode sTDDFT
|  7>     Ethresh 5.0
|  8>     maxcore 5000
|  9> end
| 10>
| 11> %pal
| 12>   nprocs 6
| 13>   end
| 14> * xyz 0 1
| 15>    C       -3.95139         0.72036        -4.78235
| 16>    C       -4.16464         1.29201        -6.00872
| 17>    C       -3.80561         0.68671        -7.23222
| 18>    N       -3.54242         0.24387        -8.25771
| 19>    C       -4.71278         2.57407        -6.22939
| 20>    N       -5.12633         3.61363        -6.48828
| 21>    C       -3.27135        -0.54357        -4.54416
| 22>    C       -3.04445        -0.67790        -3.15154
| 23>    C       -2.40816        -1.76787        -2.60683
| 24>    C       -1.98512        -2.77759        -3.47575
| 25>    C       -2.22389        -2.63873        -4.86526
| 26>    C       -2.85996        -1.53327        -5.41701
| 27>    S       -1.62572        -4.00870        -5.74530
| 28>    C       -1.07247        -4.74004        -4.27919
| 29>    C       -1.31944        -3.99933        -3.17664
| 30>    C       -3.59290         0.49023        -2.44338
| 31>    O       -3.50674         0.70610        -1.25339
| 32>    C       -4.27228         1.30498        -3.48571
| 33>    C       -5.17948         2.30933        -3.31947
| 34>    C       -5.60504         2.99539        -2.15680
| 35>    S       -6.99969         4.03947        -2.32343
| 36>    C       -6.92182         4.52379        -0.66527
| 37>    C       -5.83544         3.89934        -0.02771
| 38>    C       -5.10885         3.04813        -0.86660
| 39>    C       -5.48139         4.08401         1.31995
| 40>    N       -5.16674         4.21791         2.41568
| 41>    C       -7.89684         5.41846        -0.16844
| 42>    C       -7.93459         5.92402         1.09595
| 43>    C       -8.95937         6.79649         1.52669
| 44>    N       -9.00777         7.35977         2.77581
| 45>    C       -8.01630         7.23397         3.81788
| 46>    C       -6.79460         8.10813         3.54872
| 47>    C      -10.15447         8.16644         2.95053
| 48>    O      -10.41550         8.75111         3.97658
| 49>    C      -10.84513         8.06868         1.68013
| 50>    C      -10.09890         7.22648         0.83377
| 51>    C      -10.81889         7.11583        -0.41585
| 52>    O      -10.56514         6.53170        -1.45103
| 53>    N      -11.97869         7.88898        -0.22897
| 54>    C      -12.91394         8.03251        -1.31960
| 55>    C      -13.96784         6.92688        -1.31034
| 56>    C      -12.01512         8.46523         1.02184
| 57>    C      -12.98992         9.30723         1.60012
| 58>    C      -14.28001         9.51130         1.20856
| 59>    C      -15.17959        10.39147         1.85497
| 60>    C      -14.93787        11.35590         2.81692
| 61>    C      -16.15752        12.00346         3.14533
| 62>    C      -17.20353        11.35332         2.32980
| 63>    C      -16.60433        10.41386         1.55521
| 64>    C      -18.57514        11.62848         2.33257
| 65>    N      -19.70915        11.81257         2.31363
| 66>    C      -16.35328        13.05488         4.01620
| 67>    C      -17.58404        13.68281         4.34862
| 68>    C      -17.34838        14.71589         5.23340
| 69>    C      -15.91570        14.76266         5.48832
| 70>    C      -15.31378        13.77663         4.77344
| 71>    C      -13.93688        13.52635         4.75225
| 72>    N      -12.80188        13.34965         4.75193
| 73>    C      -18.33856        15.58899         5.74297
| 74>    C      -18.12201        16.60609         6.61928
| 75>    C      -19.13255        17.46389         7.12166
| 76>    C      -20.34610        17.79417         6.59773
| 77>    C      -20.95055        17.64576         5.28944
| 78>    C      -20.30504        17.62165         4.07988
| 79>    C      -20.96910        17.61360         2.83547
| 80>    N      -21.45703        17.60375         1.79665
| 81>    C      -18.90636        17.68763         3.92644
| 82>    N      -17.77602        17.76330         3.74130
| 83>    C      -22.39239        17.79304         5.46111
| 84>    C      -22.65148        18.26023         6.77579
| 85>    C      -21.37968        18.37060         7.50916
| 86>    O      -21.19469        18.79011         8.62851
| 87>    C      -23.92236        18.53021         7.22411
| 88>    C      -24.98513        18.31889         6.34066
| 89>    C      -24.71680        17.83416         5.03722
| 90>    C      -23.43145        17.56780         4.57969
| 91>    S      -26.17991        17.63489         4.12707
| 92>    C      -27.11867        18.19592         5.46700
| 93>    C      -26.37898        18.51703         6.55075
| 94>    H       -2.24662        -1.83860        -1.54247
| 95>    H       -3.02287        -1.47565        -6.48016
| 96>    H       -0.58828        -5.69564        -4.33463
| 97>    H       -1.04697        -4.29407        -2.17950
| 98>    H       -5.70304         2.63366        -4.21189
| 99>    H       -4.25266         2.48447        -0.54226
|100>    H       -8.66634         5.71006        -0.87269
|101>    H       -7.16819         5.66006         1.80798
|102>    H       -7.72459         6.18561         3.92403
|103>    H       -8.50655         7.56097         4.73897
|104>    H       -6.30447         7.81996         2.62149
|105>    H       -6.08448         8.00135         4.36339
|106>    H       -7.09061         9.15193         3.47795
|107>    H      -12.32826         7.95101        -2.24067
|108>    H      -13.36461         9.02601        -1.27767
|109>    H      -13.48650         5.96459        -1.46490
|110>    H      -14.68224         7.09020        -2.11262
|111>    H      -14.50067         6.89272        -0.36218
|112>    H      -12.64561         9.79113         2.50526
|113>    H      -14.69915         8.95151         0.38574
|114>    H      -13.98629        11.60160         3.24460
|115>    H      -17.08930         9.77102         0.84303
|116>    H      -18.54342        13.39671         3.96428
|117>    H      -15.41925        15.46885         6.12638
|118>    H      -19.34916        15.38857         5.40795
|119>    H      -17.13431        16.74124         7.03731
|120>    H      -18.95068        17.88639         8.10654
|121>    H      -24.09047        18.89318         8.22612
|122>    H      -23.27564        17.19111         3.58224
|123>    H      -28.18441        18.25107         5.35823
|124>    H      -26.79038        18.88249         7.47415
|125> *
|126>
|127>                          ****END OF INPUT****

CARTESIAN COORDINATES (ANGSTROEM)
---------------------------------
  C     -3.951390    0.720360   -4.782350
  C     -4.164640    1.292010   -6.008720
  C     -3.805610    0.686710   -7.232220
  N     -3.542420    0.243870   -8.257710
  C     -4.712780    2.574070   -6.229390
  N     -5.126330    3.613630   -6.488280
  C     -3.271350   -0.543570   -4.544160
  C     -3.044450   -0.677900   -3.151540
  C     -2.408160   -1.767870   -2.606830
  C     -1.985120   -2.777590   -3.475750
  C     -2.223890   -2.638730   -4.865260
  C     -2.859960   -1.533270   -5.417010
  S     -1.625720   -4.008700   -5.745300
  C     -1.072470   -4.740040   -4.279190
  C     -1.319440   -3.999330   -3.176640
  C     -3.592900    0.490230   -2.443380
  O     -3.506740    0.706100   -1.253390
  C     -4.272280    1.304980   -3.485710
  C     -5.179480    2.309330   -3.319470
  C     -5.605040    2.995390   -2.156800
  S     -6.999690    4.039470   -2.323430
  C     -6.921820    4.523790   -0.665270
  C     -5.835440    3.899340   -0.027710
  C     -5.108850    3.048130   -0.866600
  C     -5.481390    4.084010    1.319950
  N     -5.166740    4.217910    2.415680
  C     -7.896840    5.418460   -0.168440
  C     -7.934590    5.924020    1.095950
  C     -8.959370    6.796490    1.526690
  N     -9.007770    7.359770    2.775810
  C     -8.016300    7.233970    3.817880
  C     -6.794600    8.108130    3.548720
  C    -10.154470    8.166440    2.950530
  O    -10.415500    8.751110    3.976580
  C    -10.845130    8.068680    1.680130
  C    -10.098900    7.226480    0.833770
  C    -10.818890    7.115830   -0.415850
  O    -10.565140    6.531700   -1.451030
  N    -11.978690    7.888980   -0.228970
  C    -12.913940    8.032510   -1.319600
  C    -13.967840    6.926880   -1.310340
  C    -12.015120    8.465230    1.021840
  C    -12.989920    9.307230    1.600120
  C    -14.280010    9.511300    1.208560
  C    -15.179590   10.391470    1.854970
  C    -14.937870   11.355900    2.816920
  C    -16.157520   12.003460    3.145330
  C    -17.203530   11.353320    2.329800
  C    -16.604330   10.413860    1.555210
  C    -18.575140   11.628480    2.332570
  N    -19.709150   11.812570    2.313630
  C    -16.353280   13.054880    4.016200
  C    -17.584040   13.682810    4.348620
  C    -17.348380   14.715890    5.233400
  C    -15.915700   14.762660    5.488320
  C    -15.313780   13.776630    4.773440
  C    -13.936880   13.526350    4.752250
  N    -12.801880   13.349650    4.751930
  C    -18.338560   15.588990    5.742970
  C    -18.122010   16.606090    6.619280
  C    -19.132550   17.463890    7.121660
  C    -20.346100   17.794170    6.597730
  C    -20.950550   17.645760    5.289440
  C    -20.305040   17.621650    4.079880
  C    -20.969100   17.613600    2.835470
  N    -21.457030   17.603750    1.796650
  C    -18.906360   17.687630    3.926440
  N    -17.776020   17.763300    3.741300
  C    -22.392390   17.793040    5.461110
  C    -22.651480   18.260230    6.775790
  C    -21.379680   18.370600    7.509160
  O    -21.194690   18.790110    8.628510
  C    -23.922360   18.530210    7.224110
  C    -24.985130   18.318890    6.340660
  C    -24.716800   17.834160    5.037220
  C    -23.431450   17.567800    4.579690
  S    -26.179910   17.634890    4.127070
  C    -27.118670   18.195920    5.467000
  C    -26.378980   18.517030    6.550750
  H     -2.246620   -1.838600   -1.542470
  H     -3.022870   -1.475650   -6.480160
  H     -0.588280   -5.695640   -4.334630
  H     -1.046970   -4.294070   -2.179500
  H     -5.703040    2.633660   -4.211890
  H     -4.252660    2.484470   -0.542260
  H     -8.666340    5.710060   -0.872690
  H     -7.168190    5.660060    1.807980
  H     -7.724590    6.185610    3.924030
  H     -8.506550    7.560970    4.738970
  H     -6.304470    7.819960    2.621490
  H     -6.084480    8.001350    4.363390
  H     -7.090610    9.151930    3.477950
  H    -12.328260    7.951010   -2.240670
  H    -13.364610    9.026010   -1.277670
  H    -13.486500    5.964590   -1.464900
  H    -14.682240    7.090200   -2.112620
  H    -14.500670    6.892720   -0.362180
  H    -12.645610    9.791130    2.505260
  H    -14.699150    8.951510    0.385740
  H    -13.986290   11.601600    3.244600
  H    -17.089300    9.771020    0.843030
  H    -18.543420   13.396710    3.964280
  H    -15.419250   15.468850    6.126380
  H    -19.349160   15.388570    5.407950
  H    -17.134310   16.741240    7.037310
  H    -18.950680   17.886390    8.106540
  H    -24.090470   18.893180    8.226120
  H    -23.275640   17.191110    3.582240
  H    -28.184410   18.251070    5.358230
  H    -26.790380   18.882490    7.474150

 Total Charge           Charge          ....    0
 Multiplicity           Mult            ....    1
 Number of Electrons    NEL             ....  552
 Basis Dimension        Dim             .... 1273

ORBITAL ENERGIES
----------------

  NO   OCC          E(Eh)            E(eV)
   0   2.0000     -88.990101     -2421.5438
   1   2.0000     -88.972307     -2421.0595
   2   2.0000     -88.966965     -2420.9142
   3   2.0000     -19.228579      -523.2362
   4   2.0000     -19.215760      -522.8874
   5   2.0000     -19.201962      -522.5119
   6   2.0000     -19.199502      -522.4450
   7   2.0000     -14.463323      -393.5670
   8   2.0000     -14.461481      -393.5169
   9   2.0000     -14.422442      -392.4546
  10   2.0000     -14.422029      -392.4434
  11   2.0000     -14.420698      -392.4072
  12   2.0000     -14.416941      -392.3049
  13   2.0000     -14.415692      -392.2709
  14   2.0000     -14.411237      -392.1497
  15   2.0000     -14.407452      -392.0467
  16   2.0000     -10.383822      -282.5582
  17   2.0000     -10.382565      -282.5240
  18   2.0000     -10.379588      -282.4429
  19   2.0000     -10.366510      -282.0871
  20   2.0000     -10.353420      -281.7309
  21   2.0000     -10.349953      -281.6365
  22   2.0000     -10.348467      -281.5961
  23   2.0000     -10.348376      -281.5936
  24   2.0000     -10.346923      -281.5541
  25   2.0000     -10.344937      -281.5001
  26   2.0000     -10.343971      -281.4738
  27   2.0000     -10.334554      -281.2175
  28   2.0000     -10.334223      -281.2085
  29   2.0000     -10.331451      -281.1331
  30   2.0000     -10.326869      -281.0084
  31   2.0000     -10.326225      -280.9909
  32   2.0000     -10.324583      -280.9462
  33   2.0000     -10.324318      -280.9390
  34   2.0000     -10.323304      -280.9114
  35   2.0000     -10.323208      -280.9088
  36   2.0000     -10.321535      -280.8633
  37   2.0000     -10.319652      -280.8120
  38   2.0000     -10.318876      -280.7909
  39   2.0000     -10.318122      -280.7704
  40   2.0000     -10.317982      -280.7666
  41   2.0000     -10.316547      -280.7275
  42   2.0000     -10.316185      -280.7177
  43   2.0000     -10.315755      -280.7060
  44   2.0000     -10.314510      -280.6721
  45   2.0000     -10.313386      -280.6415
  46   2.0000     -10.313184      -280.6360
  47   2.0000     -10.312967      -280.6301
  48   2.0000     -10.312553      -280.6188
  49   2.0000     -10.311707      -280.5958
  50   2.0000     -10.310025      -280.5500
  51   2.0000     -10.309772      -280.5432
  52   2.0000     -10.309718      -280.5417
  53   2.0000     -10.309490      -280.5355
  54   2.0000     -10.309065      -280.5239
  55   2.0000     -10.308830      -280.5175
  56   2.0000     -10.308564      -280.5103
  57   2.0000     -10.308119      -280.4982
  58   2.0000     -10.308113      -280.4980
  59   2.0000     -10.306268      -280.4478
  60   2.0000     -10.305825      -280.4358
  61   2.0000     -10.305700      -280.4323
  62   2.0000     -10.305083      -280.4156
  63   2.0000     -10.304182      -280.3911
  64   2.0000     -10.304157      -280.3904
  65   2.0000     -10.302419      -280.3431
  66   2.0000     -10.301254      -280.3114
  67   2.0000     -10.300231      -280.2835
  68   2.0000     -10.299688      -280.2687
  69   2.0000     -10.297722      -280.2153
  70   2.0000     -10.294464      -280.1266
  71   2.0000     -10.291910      -280.0571
  72   2.0000     -10.290148      -280.0092
  73   2.0000     -10.289561      -279.9932
  74   2.0000     -10.285748      -279.8894
  75   2.0000     -10.275018      -279.5975
  76   2.0000     -10.273112      -279.5456
  77   2.0000     -10.270551      -279.4759
  78   2.0000     -10.262849      -279.2663
  79   2.0000      -8.085688      -220.0227
  80   2.0000      -8.068556      -219.5566
  81   2.0000      -8.063326      -219.4143
  82   2.0000      -6.054706      -164.7569
  83   2.0000      -6.050617      -164.6457
  84   2.0000      -6.048165      -164.5789
  85   2.0000      -6.038052      -164.3037
  86   2.0000      -6.033755      -164.1868
  87   2.0000      -6.032819      -164.1613
  88   2.0000      -6.030249      -164.0914
  89   2.0000      -6.028528      -164.0446
  90   2.0000      -6.024980      -163.9480
  91   2.0000      -1.143597       -31.1189
  92   2.0000      -1.143389       -31.1132
  93   2.0000      -1.136466       -30.9248
  94   2.0000      -1.130904       -30.7735
  95   2.0000      -1.073184       -29.2028
  96   2.0000      -1.064137       -28.9566
  97   2.0000      -1.028750       -27.9937
  98   2.0000      -1.025763       -27.9124
  99   2.0000      -1.021447       -27.7950
 100   2.0000      -1.018067       -27.7030
 101   2.0000      -1.014430       -27.6040
 102   2.0000      -1.008902       -27.4536
 103   2.0000      -1.001852       -27.2618
 104   2.0000      -1.001673       -27.2569
 105   2.0000      -0.999793       -27.2058
 106   2.0000      -0.994661       -27.0661
 107   2.0000      -0.992021       -26.9943
 108   2.0000      -0.987111       -26.8607
 109   2.0000      -0.986147       -26.8344
 110   2.0000      -0.982870       -26.7452
 111   2.0000      -0.942970       -25.6595
 112   2.0000      -0.937791       -25.5186
 113   2.0000      -0.937506       -25.5108
 114   2.0000      -0.929958       -25.3055
 115   2.0000      -0.922696       -25.1078
 116   2.0000      -0.917584       -24.9687
 117   2.0000      -0.910236       -24.7688
 118   2.0000      -0.895501       -24.3678
 119   2.0000      -0.890795       -24.2398
 120   2.0000      -0.887475       -24.1494
 121   2.0000      -0.882416       -24.0118
 122   2.0000      -0.882179       -24.0053
 123   2.0000      -0.874733       -23.8027
 124   2.0000      -0.871820       -23.7234
 125   2.0000      -0.860816       -23.4240
 126   2.0000      -0.850641       -23.1471
 127   2.0000      -0.846347       -23.0303
 128   2.0000      -0.833103       -22.6699
 129   2.0000      -0.829355       -22.5679
 130   2.0000      -0.826676       -22.4950
 131   2.0000      -0.823837       -22.4178
 132   2.0000      -0.811197       -22.0738
 133   2.0000      -0.801119       -21.7996
 134   2.0000      -0.787294       -21.4234
 135   2.0000      -0.779054       -21.1991
 136   2.0000      -0.768260       -20.9054
 137   2.0000      -0.766154       -20.8481
 138   2.0000      -0.765628       -20.8338
 139   2.0000      -0.756950       -20.5977
 140   2.0000      -0.739351       -20.1188
 141   2.0000      -0.736445       -20.0397
 142   2.0000      -0.726704       -19.7746
 143   2.0000      -0.720645       -19.6097
 144   2.0000      -0.717525       -19.5249
 145   2.0000      -0.708527       -19.2800
 146   2.0000      -0.702634       -19.1196
 147   2.0000      -0.700634       -19.0652
 148   2.0000      -0.696928       -18.9644
 149   2.0000      -0.690971       -18.8023
 150   2.0000      -0.687889       -18.7184
 151   2.0000      -0.681845       -18.5539
 152   2.0000      -0.677706       -18.4413
 153   2.0000      -0.668782       -18.1985
 154   2.0000      -0.666450       -18.1350
 155   2.0000      -0.662993       -18.0410
 156   2.0000      -0.662171       -18.0186
 157   2.0000      -0.658132       -17.9087
 158   2.0000      -0.650920       -17.7124
 159   2.0000      -0.649335       -17.6693
 160   2.0000      -0.633394       -17.2355
 161   2.0000      -0.627264       -17.0687
 162   2.0000      -0.622294       -16.9335
 163   2.0000      -0.620557       -16.8862
 164   2.0000      -0.613030       -16.6814
 165   2.0000      -0.608140       -16.5483
 166   2.0000      -0.604066       -16.4375
 167   2.0000      -0.600434       -16.3386
 168   2.0000      -0.598517       -16.2865
 169   2.0000      -0.597005       -16.2453
 170   2.0000      -0.592661       -16.1271
 171   2.0000      -0.580910       -15.8074
 172   2.0000      -0.579132       -15.7590
 173   2.0000      -0.572715       -15.5844
 174   2.0000      -0.572116       -15.5681
 175   2.0000      -0.565560       -15.3897
 176   2.0000      -0.561468       -15.2783
 177   2.0000      -0.554699       -15.0941
 178   2.0000      -0.548827       -14.9343
 179   2.0000      -0.547536       -14.8992
 180   2.0000      -0.546486       -14.8706
 181   2.0000      -0.546204       -14.8630
 182   2.0000      -0.544401       -14.8139
 183   2.0000      -0.540066       -14.6959
 184   2.0000      -0.539021       -14.6675
 185   2.0000      -0.537268       -14.6198
 186   2.0000      -0.535313       -14.5666
 187   2.0000      -0.532781       -14.4977
 188   2.0000      -0.531152       -14.4534
 189   2.0000      -0.528372       -14.3777
 190   2.0000      -0.526516       -14.3272
 191   2.0000      -0.526250       -14.3200
 192   2.0000      -0.523438       -14.2435
 193   2.0000      -0.523208       -14.2372
 194   2.0000      -0.520957       -14.1760
 195   2.0000      -0.515992       -14.0409
 196   2.0000      -0.515087       -14.0162
 197   2.0000      -0.513535       -13.9740
 198   2.0000      -0.511455       -13.9174
 199   2.0000      -0.507730       -13.8160
 200   2.0000      -0.506066       -13.7708
 201   2.0000      -0.504004       -13.7147
 202   2.0000      -0.501741       -13.6531
 203   2.0000      -0.499949       -13.6043
 204   2.0000      -0.498611       -13.5679
 205   2.0000      -0.497416       -13.5354
 206   2.0000      -0.492883       -13.4120
 207   2.0000      -0.492131       -13.3916
 208   2.0000      -0.491020       -13.3613
 209   2.0000      -0.489684       -13.3250
 210   2.0000      -0.484458       -13.1828
 211   2.0000      -0.481180       -13.0936
 212   2.0000      -0.479573       -13.0498
 213   2.0000      -0.477826       -13.0023
 214   2.0000      -0.475632       -12.9426
 215   2.0000      -0.472687       -12.8625
 216   2.0000      -0.468423       -12.7464
 217   2.0000      -0.466058       -12.6821
 218   2.0000      -0.464986       -12.6529
 219   2.0000      -0.460170       -12.5219
 220   2.0000      -0.458186       -12.4679
 221   2.0000      -0.456839       -12.4312
 222   2.0000      -0.456174       -12.4131
 223   2.0000      -0.453919       -12.3518
 224   2.0000      -0.453697       -12.3457
 225   2.0000      -0.453396       -12.3375
 226   2.0000      -0.451613       -12.2890
 227   2.0000      -0.451360       -12.2821
 228   2.0000      -0.449502       -12.2316
 229   2.0000      -0.449286       -12.2257
 230   2.0000      -0.449011       -12.2182
 231   2.0000      -0.447494       -12.1769
 232   2.0000      -0.446575       -12.1519
 233   2.0000      -0.442137       -12.0312
 234   2.0000      -0.442119       -12.0307
 235   2.0000      -0.440819       -11.9953
 236   2.0000      -0.438318       -11.9273
 237   2.0000      -0.436103       -11.8670
 238   2.0000      -0.435445       -11.8491
 239   2.0000      -0.433699       -11.8015
 240   2.0000      -0.433128       -11.7860
 241   2.0000      -0.432536       -11.7699
 242   2.0000      -0.429670       -11.6919
 243   2.0000      -0.428508       -11.6603
 244   2.0000      -0.427844       -11.6422
 245   2.0000      -0.426110       -11.5950
 246   2.0000      -0.424169       -11.5422
 247   2.0000      -0.419278       -11.4091
 248   2.0000      -0.418065       -11.3761
 249   2.0000      -0.417391       -11.3578
 250   2.0000      -0.417027       -11.3479
 251   2.0000      -0.413156       -11.2426
 252   2.0000      -0.405856       -11.0439
 253   2.0000      -0.398017       -10.8306
 254   2.0000      -0.395442       -10.7605
 255   2.0000      -0.388343       -10.5673
 256   2.0000      -0.381568       -10.3830
 257   2.0000      -0.378480       -10.2990
 258   2.0000      -0.367691       -10.0054
 259   2.0000      -0.357836        -9.7372
 260   2.0000      -0.354647        -9.6504
 261   2.0000      -0.348808        -9.4916
 262   2.0000      -0.346298        -9.4233
 263   2.0000      -0.345052        -9.3893
 264   2.0000      -0.340955        -9.2779
 265   2.0000      -0.335032        -9.1167
 266   2.0000      -0.325666        -8.8618
 267   2.0000      -0.324219        -8.8224
 268   2.0000      -0.320635        -8.7249
 269   2.0000      -0.314333        -8.5534
 270   2.0000      -0.306367        -8.3367
 271   2.0000      -0.303320        -8.2538
 272   2.0000      -0.296580        -8.0704
 273   2.0000      -0.295518        -8.0415
 274   2.0000      -0.280459        -7.6317
 275   2.0000      -0.241582        -6.5738
 276   0.0000      -0.137290        -3.7359
 277   0.0000      -0.109707        -2.9853
 278   0.0000      -0.086688        -2.3589
 279   0.0000      -0.080178        -2.1818
 280   0.0000      -0.062952        -1.7130

MULLIKEN ATOMIC CHARGES
-----------------------
   0 C :    0.287880
   1 C :   -0.341991
   2 C :   -0.183586
   3 N :    0.154437
   4 C :   -0.202079
   5 N :    0.165871
   6 C :    0.020368
   7 C :   -0.013660
   8 C :   -0.067759
   9 C :    0.116152
  10 C :   -0.093760
  11 C :   -0.023862
  12 S :    0.145672
  13 C :   -0.045601
  14 C :    0.023656
  15 C :    0.158037
  16 O :   -0.153451
  17 C :   -0.077341
  18 C :    0.053250
  19 C :   -0.110761
  20 S :    0.202734
  21 C :   -0.054701
  22 C :   -0.090996
  23 C :    0.043375
  24 C :   -0.156233
  25 N :    0.122502
  26 C :    0.062700
  27 C :   -0.034765
  28 C :    0.148686
  29 N :   -0.264106
  30 C :    0.091955
  31 C :    0.004529
  32 C :    0.152986
  33 O :   -0.170456
  34 C :   -0.034881
  35 C :   -0.064941
  36 C :    0.169302
  37 O :   -0.214234
  38 N :   -0.266711
  39 C :    0.106914
  40 C :    0.003185
  41 C :    0.117027
  42 C :   -0.017181
  43 C :   -0.000934
  44 C :    0.106820
  45 C :   -0.110561
  46 C :    0.117945
  47 C :   -0.090510
  48 C :   -0.005206
  49 C :   -0.174938
  50 N :    0.131100
  51 C :    0.115165
  52 C :   -0.097070
  53 C :    0.100342
  54 C :    0.013845
  55 C :   -0.096498
  56 C :   -0.177181
  57 N :    0.139532
  58 C :    0.027740
  59 C :    0.015545
  60 C :    0.042472
  61 C :   -0.112235
  62 C :    0.261654
  63 C :   -0.332007
  64 C :   -0.180380
  65 N :    0.159575
  66 C :   -0.196689
  67 N :    0.171278
  68 C :   -0.004347
  69 C :    0.005822
  70 C :    0.129372
  71 O :   -0.142510
  72 C :   -0.064795
  73 C :    0.107401
  74 C :   -0.094224
  75 C :   -0.016685
  76 S :    0.144054
  77 C :   -0.051703
  78 C :    0.027302
  79 H :   -0.008404
  80 H :   -0.004077
  81 H :    0.040607
  82 H :   -0.004689
  83 H :    0.019462
  84 H :    0.027867
  85 H :    0.009736
  86 H :   -0.008863
  87 H :    0.038606
  88 H :    0.045418
  89 H :    0.015809
  90 H :    0.032310
  91 H :    0.030267
  92 H :    0.039898
  93 H :    0.026421
  94 H :    0.033288
  95 H :    0.025053
  96 H :    0.019159
  97 H :    0.027405
  98 H :   -0.026082
  99 H :    0.011457
 100 H :   -0.001028
 101 H :    0.002986
 102 H :    0.001767
 103 H :    0.012639
 104 H :    0.004118
 105 H :    0.029663
 106 H :   -0.010578
 107 H :   -0.001634
 108 H :    0.040784
 109 H :   -0.006014
Sum of atomic charges:   -0.0000000

LOEWDIN ATOMIC CHARGES
----------------------
   0 C :    0.075294
   1 C :   -0.136745
   2 C :   -0.018201
   3 N :   -0.048157
   4 C :   -0.026836
   5 N :   -0.045941
   6 C :   -0.022828
   7 C :   -0.054104
   8 C :    0.025481
   9 C :   -0.033525
  10 C :   -0.144287
  11 C :   -0.007422
  12 S :    0.433746
  13 C :   -0.146810
  14 C :   -0.056907
  15 C :    0.088906
  16 O :   -0.138293
  17 C :   -0.081769
  18 C :    0.042572
  19 C :   -0.177027
  20 S :    0.505519
  21 C :   -0.129986
  22 C :   -0.105220
  23 C :    0.019539
  24 C :   -0.023337
  25 N :   -0.054259
  26 C :    0.000832
  27 C :   -0.022711
  28 C :    0.083916
  29 N :    0.000640
  30 C :    0.036560
  31 C :   -0.058776
  32 C :    0.081563
  33 O :   -0.174772
  34 C :   -0.098723
  35 C :   -0.119988
  36 C :    0.081096
  37 O :   -0.201123
  38 N :    0.000397
  39 C :    0.036726
  40 C :   -0.062919
  41 C :    0.064582
  42 C :    0.001006
  43 C :   -0.015162
  44 C :   -0.015053
  45 C :   -0.022513
  46 C :    0.041382
  47 C :   -0.078539
  48 C :    0.052122
  49 C :   -0.030507
  50 N :   -0.062338
  51 C :    0.034658
  52 C :   -0.006720
  53 C :   -0.017046
  54 C :    0.059232
  55 C :   -0.076847
  56 C :   -0.031174
  57 N :   -0.056922
  58 C :    0.034820
  59 C :   -0.025389
  60 C :    0.060645
  61 C :   -0.080873
  62 C :    0.064104
  63 C :   -0.137489
  64 C :   -0.020949
  65 N :   -0.047244
  66 C :   -0.016419
  67 N :   -0.042074
  68 C :   -0.020132
  69 C :   -0.056167
  70 C :    0.083678
  71 O :   -0.141192
  72 C :    0.025227
  73 C :   -0.035379
  74 C :   -0.144194
  75 C :   -0.009590
  76 S :    0.432031
  77 C :   -0.149067
  78 C :   -0.057444
  79 H :    0.041491
  80 H :    0.041385
  81 H :    0.030481
  82 H :    0.036156
  83 H :    0.044867
  84 H :    0.043504
  85 H :    0.038592
  86 H :    0.037865
  87 H :    0.028506
  88 H :    0.039108
  89 H :    0.022527
  90 H :    0.035023
  91 H :    0.031926
  92 H :    0.037401
  93 H :    0.024854
  94 H :    0.034578
  95 H :    0.031389
  96 H :    0.019989
  97 H :    0.052776
  98 H :    0.030856
  99 H :    0.035821
 100 H :    0.036843
 101 H :    0.036153
 102 H :    0.037459
 103 H :    0.039380
 104 H :    0.035442
 105 H :    0.048563
 106 H :    0.041048
 107 H :    0.041349
 108 H :    0.029937
 109 H :    0.035546

  Mayer bond orders larger than 0.100000
B(  0-C ,  1-C ) :   1.6437 B(  0-C ,  6-C ) :   1.0070 B(  0-C , 17-C ) :   1.0584
B(  1-C ,  2-C ) :   1.1416 B(  1-C ,  4-C ) :   1.1362 B(  2-C ,  3-N ) :   2.9765
B(  4-C ,  5-N ) :   2.9965 B(  6-C ,  7-C ) :   1.2657 B(  6-C , 11-C ) :   1.4069
B(  7-C ,  8-C ) :   1.4201 B(  7-C , 15-C ) :   0.9589 B(  8-C ,  9-C ) :   1.2469
B(  8-C , 79-H ) :   1.0175 B(  9-C , 10-C ) :   1.2959 B(  9-C , 14-C ) :   1.1730
B( 10-C , 11-C ) :   1.3255 B( 10-C , 12-S ) :   1.1016 B( 11-C , 80-H ) :   0.9847
B( 12-S , 13-C ) :   1.1273 B( 13-C , 14-C ) :   1.6287 B( 13-C , 81-H ) :   0.9680
B( 14-C , 82-H ) :   1.0000 B( 15-C , 16-O ) :   2.1729 B( 15-C , 17-C ) :   0.9307
B( 17-C , 18-C ) :   1.6413 B( 18-C , 19-C ) :   1.1715 B( 18-C , 83-H ) :   0.9202
B( 19-C , 20-S ) :   1.1138 B( 19-C , 23-C ) :   1.4336 B( 20-S , 21-C ) :   1.1826
B( 21-C , 22-C ) :   1.3825 B( 21-C , 26-C ) :   1.1652 B( 22-C , 23-C ) :   1.3152
B( 22-C , 24-C ) :   1.1205 B( 23-C , 84-H ) :   0.9829 B( 24-C , 25-N ) :   2.9674
B( 26-C , 27-C ) :   1.5976 B( 26-C , 85-H ) :   0.9200 B( 27-C , 28-C ) :   1.1789
B( 27-C , 86-H ) :   0.9474 B( 28-C , 29-N ) :   1.1829 B( 28-C , 35-C ) :   1.2987
B( 29-N , 30-C ) :   0.9375 B( 29-N , 32-C ) :   1.0245 B( 30-C , 31-C ) :   1.1208
B( 30-C , 87-H ) :   0.9480 B( 30-C , 88-H ) :   0.9275 B( 31-C , 89-H ) :   0.9682
B( 31-C , 90-H ) :   0.9680 B( 31-C , 91-H ) :   0.9640 B( 32-C , 33-O ) :   2.1536
B( 32-C , 34-C ) :   0.9669 B( 34-C , 35-C ) :   1.2720 B( 34-C , 41-C ) :   1.3222
B( 35-C , 36-C ) :   0.9890 B( 36-C , 37-O ) :   2.0098 B( 36-C , 38-N ) :   1.0697
B( 37-O , 85-H ) :   0.1171 B( 38-N , 39-C ) :   0.9410 B( 38-N , 41-C ) :   1.1615
B( 39-C , 40-C ) :   1.1164 B( 39-C , 92-H ) :   0.9286 B( 39-C , 93-H ) :   0.9501
B( 40-C , 94-H ) :   0.9596 B( 40-C , 95-H ) :   0.9692 B( 40-C , 96-H ) :   0.9650
B( 41-C , 42-C ) :   1.1957 B( 42-C , 43-C ) :   1.5521 B( 42-C , 97-H ) :   0.9526
B( 43-C , 44-C ) :   1.1231 B( 43-C , 98-H ) :   0.9732 B( 44-C , 45-C ) :   1.5183
B( 44-C , 48-C ) :   1.0280 B( 45-C , 46-C ) :   1.1485 B( 45-C , 99-H ) :   0.9963
B( 46-C , 47-C ) :   1.0976 B( 46-C , 51-C ) :   1.3888 B( 47-C , 48-C ) :   1.6758
B( 47-C , 49-C ) :   1.0879 B( 48-C ,100-H ) :   1.0233 B( 49-C , 50-N ) :   2.9620
B( 51-C , 52-C ) :   1.1221 B( 51-C , 55-C ) :   1.1116 B( 52-C , 53-C ) :   1.5039
B( 52-C ,101-H ) :   1.0067 B( 53-C , 54-C ) :   1.0498 B( 53-C , 58-C ) :   1.1567
B( 54-C , 55-C ) :   1.6796 B( 54-C ,102-H ) :   1.0139 B( 55-C , 56-C ) :   1.0904
B( 56-C , 57-N ) :   2.9703 B( 58-C , 59-C ) :   1.6138 B( 58-C ,103-H ) :   0.9647
B( 59-C , 60-C ) :   1.1462 B( 59-C ,104-H ) :   0.9600 B( 60-C , 61-C ) :   1.6756
B( 60-C ,105-H ) :   0.9274 B( 61-C , 62-C ) :   1.0336 B( 61-C , 70-C ) :   0.9373
B( 62-C , 63-C ) :   1.6472 B( 62-C , 68-C ) :   1.0107 B( 63-C , 64-C ) :   1.1256
B( 63-C , 66-C ) :   1.1732 B( 64-C , 65-N ) :   2.9923 B( 66-C , 67-N ) :   2.9906
B( 68-C , 69-C ) :   1.2671 B( 68-C , 75-C ) :   1.4181 B( 69-C , 70-C ) :   0.9260
B( 69-C , 72-C ) :   1.4226 B( 70-C , 71-O ) :   2.2635 B( 72-C , 73-C ) :   1.2550
B( 72-C ,106-H ) :   1.0158 B( 73-C , 74-C ) :   1.3004 B( 73-C , 78-C ) :   1.1720
B( 74-C , 75-C ) :   1.3223 B( 74-C , 76-S ) :   1.0996 B( 75-C ,107-H ) :   0.9851
B( 76-S , 77-C ) :   1.1269 B( 77-C , 78-C ) :   1.6304 B( 77-C ,108-H ) :   0.9682
B( 78-C ,109-H ) :   0.9989

-----------------------------------------------------------------------------
         ABSORPTION SPECTRUM VIA TRANSITION ELECTRIC DIPOLE MOMENTS
-----------------------------------------------------------------------------
State   Energy  Wavelength   fosc         T2         TX        TY        TZ
        (cm-1)    (nm)                  (au**2)     (au)      (au)      (au)
-----------------------------------------------------------------------------
   0    9186.2   1088.6   1.077214454  38.60493   4.21631  -4.13440  -1.93246
   1   15231.2    656.5   0.175888004   3.80169   1.75397  -0.79855  -0.29596
   2   15523.3    644.2   0.178071487   3.77647   0.93624  -1.51657  -0.77456
   3   18759.0    533.1   0.016959900   0.29764   0.45422   0.00432   0.30217
   4   22004.4    454.5   0.340821497   5.09910  -1.59701   1.52614   0.46857
   5   22149.9    451.5   0.084598549   1.25738   0.52897  -0.98852  -0.01973
   6   22693.9    440.6   0.192140543   2.78731   0.85593   0.11436   1.42885
   7   23316.3    428.9   0.691219470   9.75959  -1.65936   1.81029   1.93106
   8   24078.2    415.3   0.309475562   4.23135   0.94918  -1.32309  -1.25692
   9   24316.1    411.3   0.002917941   0.03951  -0.12801   0.15139  -0.01414
  10   25678.6    389.4   0.163896746   2.10123  -0.87087   1.15696   0.06529
  11   26086.6    383.3   0.026767052   0.33780  -0.28591   0.20862   0.46101
  12   26167.8    382.1   0.007971871   0.10029  -0.13444   0.21716   0.18724
  13   26416.5    378.6   0.027494468   0.34265   0.09299  -0.03553   0.57683
  14   27156.2    368.2   0.115176357   1.39627  -0.21721   1.04109   0.51499
  15   27621.1    362.0   0.027393287   0.32650  -0.28682   0.42428   0.25341
  16   27714.3    360.8   0.020394400   0.24226  -0.41968   0.14622  -0.21154
  17   28068.0    356.3   0.075641776   0.88721  -0.55561   0.45776   0.60742
  18   28656.0    349.0   0.107412197   1.23400   0.57200  -0.83608  -0.45583
  19   29049.5    344.2   0.157365141   1.78339  -0.33924   0.83026   0.98943
  20   29087.0    343.8   0.063355280   0.71707  -0.39733  -0.64799  -0.37323
  21   29611.3    337.7   0.009611321   0.10686  -0.03798   0.06922   0.31721
  22   29658.6    337.2   0.100168183   1.11187  -0.33329   0.27848   0.96085
  23   30001.7    333.3   0.258529560   2.83687   1.57415  -0.39472  -0.45068
  24   30511.9    327.7   0.132670630   1.43147   1.16544  -0.08644   0.25642
  25   30621.9    326.6   0.112139159   1.20559  -1.02083   0.39518   0.08567
  26   30909.0    323.5   0.149637163   1.59378   0.42515  -1.18516   0.09176
  27   31180.0    320.7   0.002861839   0.03022  -0.10925  -0.04685   0.12683
  28   31795.9    314.5   0.137870970   1.42750   0.73136  -0.87015  -0.36805
  29   31868.8    313.8   0.125108270   1.29240  -0.35439   1.01121  -0.37982
  30   32803.5    304.8   0.250542229   2.51441  -0.74622   1.29490  -0.52991
  31   33103.6    302.1   0.097210282   0.96675   0.68893  -0.17367  -0.67968
  32   33487.8    298.6   0.035254697   0.34658  -0.35483  -0.00277  -0.46975
  33   33882.0    295.1   0.076309700   0.74146   0.73707  -0.26971  -0.35417
  34   34146.4    292.9   0.035063476   0.33805  -0.03857   0.01844  -0.57985
  35   34285.0    291.7   0.004624751   0.04441   0.20436  -0.05141  -0.00163
  36   34385.4    290.8   0.213558183   2.04464  -1.36737  -0.02960   0.41721
  37   34690.4    288.3   0.161669899   1.53425   0.72830  -0.80174   0.60086
  38   34966.2    286.0   0.052276255   0.49219  -0.41025   0.49614   0.27881
  39   35002.4    285.7   0.230763841   2.17043  -1.00640   0.22056   1.05306
  40   35227.1    283.9   0.036250632   0.33878   0.14702  -0.51615   0.22529
  41   35358.2    282.8   0.081679526   0.76050   0.43358  -0.75353   0.06855
  42   35473.5    281.9   0.075323361   0.69904  -0.66912  -0.05318   0.49848
  43   35708.1    280.0   0.040806249   0.37621  -0.54381   0.01591  -0.28326
  44   35892.9    278.6   0.007032358   0.06450  -0.18934  -0.07306  -0.15269
  45   35978.1    277.9   0.008570757   0.07843   0.24362   0.07641   0.11505
  46   36393.4    274.8   0.032807533   0.29677  -0.07278   0.02720  -0.53920
  47   37301.2    268.1   0.036481166   0.32197  -0.20143   0.48635   0.21181
  48   37459.2    267.0   0.028740846   0.25259  -0.21538  -0.06396  -0.44957
  49   37521.1    266.5   0.037367930   0.32787  -0.24892   0.09678  -0.50650
  50   37782.8    264.7   0.014670290   0.12783   0.21592   0.02688   0.28369
  51   37988.1    263.2   0.136987091   1.18715  -0.42197   0.53022   0.85321
  52   38227.8    261.6   0.043781397   0.37704  -0.25181   0.55415   0.08091
  53   38310.1    261.0   0.307944092   2.64627  -0.33669  -0.31669  -1.55968
  54   38687.5    258.5   0.102422854   0.87157  -0.04214   0.47223   0.80423
  55   38804.7    257.7   0.038411829   0.32588  -0.41984  -0.12138  -0.36726
  56   38940.4    256.8   0.025761685   0.21780   0.01052   0.05689  -0.46309
  57   39108.6    255.7   0.062458163   0.52577   0.06143   0.17433   0.70114
  58   39489.4    253.2   0.162716770   1.35653   1.14188  -0.06143  -0.22105
  59   39805.7    251.2   0.072386159   0.59867  -0.41348  -0.17263  -0.63079
  60   40272.5    248.3   0.024124101   0.19721   0.10129  -0.31220  -0.29913

FINAL SINGLE POINT ENERGY     -4402.992526626219

DIPOLE MOMENT
-------------
                                X             Y             Z
Electronic contribution:      3.02818      -3.31617     -18.93986
Nuclear contribution   :     -3.91877       0.37141      20.16916
                        -----------------------------------------
Total Dipole Moment    :     -0.89059      -2.94477       1.22930
                        -----------------------------------------
Magnitude (a.u.)       :      3.31300
Magnitude (Debye)      :      8.42097

Rotational constants in cm-1:     0.002672     0.000129     0.000126
Rotational constants in MHz :    80.104431     3.874453     3.771973

                             ****ORCA TERMINATED NORMALLY****
TOTAL RUN TIME: 0 days 0 hours 13 minutes 45 seconds 590 msec
