                         Program Version 4.2.0 -  RELEASE  -
|  1> # ORCA input file
|  2> # SCF done       -197.271924313692          0.000836009411
|  3> ! CAM-B3LYP def2-SVP def2/J RIJCOSX Grid4 TightSCF
|  4> %maxcore 5000
|  5> %tddft
|  6>     Mode sTDDFT
|  7>     Ethresh 5.0
|  8>     maxcore 5000
|  9> end
| 10>
| 11> %pal
| 12>   nprocs 6
| 13>   end
| 14> * xyz 0 1
| 15>    O        5.00101        -7.06056         0.11679
| 16>    N        5.53992        -6.98566         1.33445
| 17>    C        6.52095        -6.11588         1.29427
| 18>    C        7.30866        -5.78863         2.42057
| 19>    N        7.94407        -5.50734         3.32766
| 20>    C        6.64355        -5.57562        -0.02174
| 21>    C        5.64442        -6.23539        -0.71642
| 22>    C        5.26767        -6.10109        -2.06604
| 23>    N        4.97863        -5.94899        -3.16312
| 24>    C        7.64608        -4.63562        -0.52330
| 25>    O        8.46242        -4.05636         0.13094
| 26>    O        7.46402        -4.41316        -1.86994
| 27>    C        8.57440        -4.10385        -2.58253
| 28>    C        9.79598        -4.73117        -2.49541
| 29>    N       10.08384        -5.88288        -1.74748
| 30>    O       11.21365        -6.31817        -1.76640
| 31>    O        9.15200        -6.39938        -1.13333
| 32>    C       10.71813        -4.06538        -3.39164
| 33>    C       10.07941        -3.02019        -3.96320
| 34>    C        8.71059        -2.97859        -3.49212
| 35>    C        7.69143        -2.12134        -3.84394
| 36>    C        6.29704        -2.42926        -3.78671
| 37>    C        5.61341        -1.48600        -4.49520
| 38>    C        6.53547        -0.49345        -4.96137
| 39>    N        6.12735         0.68210        -5.62448
| 40>    O        4.97500         0.72754        -6.01302
| 41>    O        6.93824         1.58226        -5.76000
| 42>    C        7.82408        -0.82511        -4.54777
| 43>    C        8.98400        -0.04603        -4.68531
| 44>    C       10.03180        -0.05925        -3.79858
| 45>    C       11.18915         0.71149        -3.99014
| 46>    N       12.17098         0.89599        -3.04991
| 47>    C       12.21096         0.32576        -1.72241
| 48>    C       12.69910        -1.12028        -1.73974
| 49>    C       13.20831         1.72491        -3.52046
| 50>    O       14.17670         2.04172        -2.86960
| 51>    C       12.80457         2.05172        -4.87774
| 52>    C       11.58317         1.42588        -5.13953
| 53>    C       11.23026         1.71355        -6.51803
| 54>    O       10.30600         1.35225        -7.20780
| 55>    N       12.28003         2.53801        -6.98912
| 56>    C       12.20845         3.06441        -8.33267
| 57>    C       11.72410         4.51189        -8.34866
| 58>    C       13.22913         2.75139        -6.02440
| 59>    C       14.44083         3.47105        -6.05348
| 60>    C       15.00005         4.19493        -7.06706
| 61>    C       16.24929         4.84872        -6.97500
| 62>    C       16.84399         5.55932        -7.99988
| 63>    C       18.09897         6.06947        -7.55759
| 64>    C       18.24342         5.62073        -6.15724
| 65>    C       17.14635         4.89629        -5.82395
| 66>    C       19.33037         5.86676        -5.30666
| 67>    N       20.20589         6.03939        -4.58523
| 68>    C       18.99925         6.81277        -8.28001
| 69>    C       20.25333         7.34410        -7.83580
| 70>    C       20.83213         7.99368        -8.88760
| 71>    C       19.97385         7.91163       -10.05295
| 72>    C       18.86509         7.20723        -9.69642
| 73>    C       17.79695         6.91338       -10.54998
| 74>    N       16.92780         6.68295       -11.26491
| 75>    O       22.03165         8.62668        -8.77276
| 76>    C       22.71947         9.10663        -9.82314
| 77>    O       22.41151         9.02218       -10.98103
| 78>    C       23.94746         9.76242        -9.34451
| 79>    C       24.36926        10.05273        -8.00969
| 80>    N       25.53368        10.65616        -8.02425
| 81>    O       25.91719        10.78474        -9.29486
| 82>    C       24.98946        10.26336       -10.10723
| 83>    C       25.16489        10.27547       -11.50570
| 84>    N       25.30301        10.28262       -12.64090
| 85>    C       23.66197         9.77001        -6.81956
| 86>    N       23.06126         9.54066        -5.87453
| 87>    H       11.72358        -4.40240        -3.55430
| 88>    H       10.46833        -2.37287        -4.72424
| 89>    H        5.89052        -3.32208        -3.35330
| 90>    H        4.55754        -1.45155        -4.68830
| 91>    H        8.99206         0.66683        -5.50284
| 92>    H        9.94953        -0.63618        -2.88856
| 93>    H       11.22063         0.39847        -1.26611
| 94>    H       12.90972         0.94070        -1.14888
| 95>    H       12.04504        -1.75137        -2.33759
| 96>    H       12.72329        -1.50806        -0.72565
| 97>    H       13.70347        -1.16938        -2.15284
| 98>    H       11.48253         2.43708        -8.85864
| 99>    H       13.17859         2.95390        -8.82245
|100>    H       10.71411         4.56603        -7.95018
|101>    H       11.71278         4.88238        -9.36967
|102>    H       12.36577         5.15364        -7.74883
|103>    H       14.97466         3.40627        -5.11387
|104>    H       14.50290         4.30298        -8.01873
|105>    H       16.43261         5.70973        -8.97856
|106>    H       16.96475         4.43380        -4.87211
|107>    H       20.66214         7.25449        -6.84964
|108>    H       20.18942         8.33164       -11.01673
|109> *
|110>
|111>                          ****END OF INPUT****

CARTESIAN COORDINATES (ANGSTROEM)
---------------------------------
  O      5.001010   -7.060560    0.116790
  N      5.539920   -6.985660    1.334450
  C      6.520950   -6.115880    1.294270
  C      7.308660   -5.788630    2.420570
  N      7.944070   -5.507340    3.327660
  C      6.643550   -5.575620   -0.021740
  C      5.644420   -6.235390   -0.716420
  C      5.267670   -6.101090   -2.066040
  N      4.978630   -5.948990   -3.163120
  C      7.646080   -4.635620   -0.523300
  O      8.462420   -4.056360    0.130940
  O      7.464020   -4.413160   -1.869940
  C      8.574400   -4.103850   -2.582530
  C      9.795980   -4.731170   -2.495410
  N     10.083840   -5.882880   -1.747480
  O     11.213650   -6.318170   -1.766400
  O      9.152000   -6.399380   -1.133330
  C     10.718130   -4.065380   -3.391640
  C     10.079410   -3.020190   -3.963200
  C      8.710590   -2.978590   -3.492120
  C      7.691430   -2.121340   -3.843940
  C      6.297040   -2.429260   -3.786710
  C      5.613410   -1.486000   -4.495200
  C      6.535470   -0.493450   -4.961370
  N      6.127350    0.682100   -5.624480
  O      4.975000    0.727540   -6.013020
  O      6.938240    1.582260   -5.760000
  C      7.824080   -0.825110   -4.547770
  C      8.984000   -0.046030   -4.685310
  C     10.031800   -0.059250   -3.798580
  C     11.189150    0.711490   -3.990140
  N     12.170980    0.895990   -3.049910
  C     12.210960    0.325760   -1.722410
  C     12.699100   -1.120280   -1.739740
  C     13.208310    1.724910   -3.520460
  O     14.176700    2.041720   -2.869600
  C     12.804570    2.051720   -4.877740
  C     11.583170    1.425880   -5.139530
  C     11.230260    1.713550   -6.518030
  O     10.306000    1.352250   -7.207800
  N     12.280030    2.538010   -6.989120
  C     12.208450    3.064410   -8.332670
  C     11.724100    4.511890   -8.348660
  C     13.229130    2.751390   -6.024400
  C     14.440830    3.471050   -6.053480
  C     15.000050    4.194930   -7.067060
  C     16.249290    4.848720   -6.975000
  C     16.843990    5.559320   -7.999880
  C     18.098970    6.069470   -7.557590
  C     18.243420    5.620730   -6.157240
  C     17.146350    4.896290   -5.823950
  C     19.330370    5.866760   -5.306660
  N     20.205890    6.039390   -4.585230
  C     18.999250    6.812770   -8.280010
  C     20.253330    7.344100   -7.835800
  C     20.832130    7.993680   -8.887600
  C     19.973850    7.911630  -10.052950
  C     18.865090    7.207230   -9.696420
  C     17.796950    6.913380  -10.549980
  N     16.927800    6.682950  -11.264910
  O     22.031650    8.626680   -8.772760
  C     22.719470    9.106630   -9.823140
  O     22.411510    9.022180  -10.981030
  C     23.947460    9.762420   -9.344510
  C     24.369260   10.052730   -8.009690
  N     25.533680   10.656160   -8.024250
  O     25.917190   10.784740   -9.294860
  C     24.989460   10.263360  -10.107230
  C     25.164890   10.275470  -11.505700
  N     25.303010   10.282620  -12.640900
  C     23.661970    9.770010   -6.819560
  N     23.061260    9.540660   -5.874530
  H     11.723580   -4.402400   -3.554300
  H     10.468330   -2.372870   -4.724240
  H      5.890520   -3.322080   -3.353300
  H      4.557540   -1.451550   -4.688300
  H      8.992060    0.666830   -5.502840
  H      9.949530   -0.636180   -2.888560
  H     11.220630    0.398470   -1.266110
  H     12.909720    0.940700   -1.148880
  H     12.045040   -1.751370   -2.337590
  H     12.723290   -1.508060   -0.725650
  H     13.703470   -1.169380   -2.152840
  H     11.482530    2.437080   -8.858640
  H     13.178590    2.953900   -8.822450
  H     10.714110    4.566030   -7.950180
  H     11.712780    4.882380   -9.369670
  H     12.365770    5.153640   -7.748830
  H     14.974660    3.406270   -5.113870
  H     14.502900    4.302980   -8.018730
  H     16.432610    5.709730   -8.978560
  H     16.964750    4.433800   -4.872110
  H     20.662140    7.254490   -6.849640
  H     20.189420    8.331640  -11.016730

 Total Charge           Charge          ....    0
 Multiplicity           Mult            ....    1
 Number of Electrons    NEL             ....  490
 Basis Dimension        Dim             .... 1118

ORBITAL ENERGIES
----------------

  NO   OCC          E(Eh)            E(eV)
   0   2.0000     -19.388347      -527.5837
   1   2.0000     -19.385069      -527.4946
   2   2.0000     -19.330600      -526.0124
   3   2.0000     -19.324887      -525.8569
   4   2.0000     -19.265214      -524.2331
   5   2.0000     -19.262351      -524.1552
   6   2.0000     -19.261963      -524.1447
   7   2.0000     -19.258358      -524.0466
   8   2.0000     -19.244171      -523.6605
   9   2.0000     -19.243542      -523.6434
  10   2.0000     -19.215621      -522.8836
  11   2.0000     -19.209736      -522.7235
  12   2.0000     -14.671495      -399.2317
  13   2.0000     -14.653374      -398.7386
  14   2.0000     -14.529116      -395.3573
  15   2.0000     -14.525423      -395.2568
  16   2.0000     -14.475228      -393.8910
  17   2.0000     -14.472408      -393.8142
  18   2.0000     -14.464839      -393.6083
  19   2.0000     -14.461474      -393.5167
  20   2.0000     -14.447863      -393.1463
  21   2.0000     -14.441733      -392.9795
  22   2.0000     -14.421253      -392.4222
  23   2.0000     -14.418813      -392.3558
  24   2.0000     -10.468851      -284.8719
  25   2.0000     -10.466024      -284.7950
  26   2.0000     -10.435432      -283.9625
  27   2.0000     -10.431752      -283.8624
  28   2.0000     -10.398043      -282.9451
  29   2.0000     -10.396860      -282.9129
  30   2.0000     -10.396053      -282.8910
  31   2.0000     -10.393773      -282.8290
  32   2.0000     -10.393492      -282.8213
  33   2.0000     -10.379819      -282.4492
  34   2.0000     -10.364107      -282.0217
  35   2.0000     -10.362966      -281.9906
  36   2.0000     -10.362821      -281.9867
  37   2.0000     -10.361926      -281.9623
  38   2.0000     -10.360351      -281.9195
  39   2.0000     -10.357294      -281.8363
  40   2.0000     -10.351144      -281.6689
  41   2.0000     -10.350578      -281.6535
  42   2.0000     -10.346374      -281.5391
  43   2.0000     -10.345711      -281.5211
  44   2.0000     -10.341730      -281.4128
  45   2.0000     -10.340387      -281.3762
  46   2.0000     -10.339534      -281.3530
  47   2.0000     -10.338888      -281.3355
  48   2.0000     -10.334712      -281.2218
  49   2.0000     -10.331887      -281.1449
  50   2.0000     -10.331071      -281.1227
  51   2.0000     -10.324003      -280.9304
  52   2.0000     -10.323866      -280.9267
  53   2.0000     -10.323497      -280.9166
  54   2.0000     -10.322654      -280.8937
  55   2.0000     -10.322576      -280.8916
  56   2.0000     -10.321585      -280.8646
  57   2.0000     -10.320710      -280.8408
  58   2.0000     -10.320037      -280.8225
  59   2.0000     -10.319648      -280.8119
  60   2.0000     -10.317905      -280.7645
  61   2.0000     -10.317241      -280.7464
  62   2.0000     -10.316467      -280.7253
  63   2.0000     -10.314306      -280.6665
  64   2.0000     -10.305092      -280.4158
  65   2.0000     -10.301905      -280.3291
  66   2.0000     -10.299936      -280.2755
  67   2.0000     -10.298766      -280.2437
  68   2.0000     -10.288850      -279.9738
  69   2.0000     -10.286624      -279.9133
  70   2.0000     -10.275270      -279.6043
  71   2.0000     -10.274199      -279.5752
  72   2.0000      -1.341842       -36.5134
  73   2.0000      -1.331527       -36.2327
  74   2.0000      -1.328233       -36.1431
  75   2.0000      -1.324041       -36.0290
  76   2.0000      -1.259048       -34.2604
  77   2.0000      -1.254608       -34.1396
  78   2.0000      -1.165911       -31.7261
  79   2.0000      -1.162331       -31.6286
  80   2.0000      -1.159236       -31.5444
  81   2.0000      -1.156482       -31.4695
  82   2.0000      -1.148479       -31.2517
  83   2.0000      -1.141806       -31.0701
  84   2.0000      -1.085603       -29.5408
  85   2.0000      -1.076339       -29.2887
  86   2.0000      -1.050813       -28.5941
  87   2.0000      -1.050062       -28.5736
  88   2.0000      -1.039008       -28.2728
  89   2.0000      -1.038679       -28.2639
  90   2.0000      -1.033033       -28.1102
  91   2.0000      -1.030883       -28.0517
  92   2.0000      -1.014606       -27.6088
  93   2.0000      -1.013844       -27.5881
  94   2.0000      -1.013532       -27.5796
  95   2.0000      -1.009227       -27.4625
  96   2.0000      -0.998088       -27.1594
  97   2.0000      -0.995133       -27.0789
  98   2.0000      -0.977798       -26.6072
  99   2.0000      -0.976978       -26.5849
 100   2.0000      -0.949490       -25.8369
 101   2.0000      -0.935761       -25.4633
 102   2.0000      -0.931575       -25.3494
 103   2.0000      -0.928994       -25.2792
 104   2.0000      -0.898027       -24.4366
 105   2.0000      -0.895504       -24.3679
 106   2.0000      -0.890100       -24.2208
 107   2.0000      -0.876110       -23.8402
 108   2.0000      -0.872810       -23.7504
 109   2.0000      -0.866281       -23.5727
 110   2.0000      -0.860879       -23.4257
 111   2.0000      -0.843454       -22.9515
 112   2.0000      -0.837300       -22.7841
 113   2.0000      -0.834464       -22.7069
 114   2.0000      -0.822439       -22.3797
 115   2.0000      -0.814666       -22.1682
 116   2.0000      -0.812455       -22.1080
 117   2.0000      -0.808858       -22.0101
 118   2.0000      -0.793546       -21.5935
 119   2.0000      -0.781952       -21.2780
 120   2.0000      -0.776364       -21.1259
 121   2.0000      -0.776131       -21.1196
 122   2.0000      -0.774413       -21.0728
 123   2.0000      -0.754511       -20.5313
 124   2.0000      -0.747189       -20.3321
 125   2.0000      -0.742507       -20.2046
 126   2.0000      -0.740047       -20.1377
 127   2.0000      -0.727453       -19.7950
 128   2.0000      -0.726590       -19.7715
 129   2.0000      -0.716100       -19.4861
 130   2.0000      -0.698714       -19.0130
 131   2.0000      -0.691394       -18.8138
 132   2.0000      -0.688723       -18.7411
 133   2.0000      -0.683514       -18.5994
 134   2.0000      -0.676246       -18.4016
 135   2.0000      -0.672850       -18.3092
 136   2.0000      -0.668111       -18.1802
 137   2.0000      -0.663582       -18.0570
 138   2.0000      -0.656468       -17.8634
 139   2.0000      -0.653738       -17.7891
 140   2.0000      -0.651752       -17.7351
 141   2.0000      -0.649914       -17.6850
 142   2.0000      -0.644042       -17.5253
 143   2.0000      -0.639855       -17.4113
 144   2.0000      -0.634843       -17.2750
 145   2.0000      -0.634672       -17.2703
 146   2.0000      -0.628100       -17.0915
 147   2.0000      -0.625540       -17.0218
 148   2.0000      -0.622498       -16.9390
 149   2.0000      -0.619726       -16.8636
 150   2.0000      -0.613977       -16.7072
 151   2.0000      -0.610774       -16.6200
 152   2.0000      -0.608998       -16.5717
 153   2.0000      -0.607272       -16.5247
 154   2.0000      -0.603845       -16.4315
 155   2.0000      -0.591410       -16.0931
 156   2.0000      -0.589962       -16.0537
 157   2.0000      -0.587097       -15.9757
 158   2.0000      -0.584092       -15.8940
 159   2.0000      -0.581436       -15.8217
 160   2.0000      -0.578303       -15.7364
 161   2.0000      -0.572353       -15.5745
 162   2.0000      -0.566862       -15.4251
 163   2.0000      -0.563914       -15.3449
 164   2.0000      -0.562380       -15.3031
 165   2.0000      -0.557134       -15.1604
 166   2.0000      -0.551791       -15.0150
 167   2.0000      -0.548734       -14.9318
 168   2.0000      -0.547542       -14.8994
 169   2.0000      -0.545785       -14.8516
 170   2.0000      -0.544031       -14.8038
 171   2.0000      -0.537649       -14.6302
 172   2.0000      -0.535923       -14.5832
 173   2.0000      -0.532914       -14.5013
 174   2.0000      -0.531425       -14.4608
 175   2.0000      -0.527595       -14.3566
 176   2.0000      -0.525580       -14.3017
 177   2.0000      -0.522300       -14.2125
 178   2.0000      -0.516318       -14.0497
 179   2.0000      -0.513958       -13.9855
 180   2.0000      -0.513695       -13.9783
 181   2.0000      -0.511647       -13.9226
 182   2.0000      -0.509878       -13.8745
 183   2.0000      -0.507692       -13.8150
 184   2.0000      -0.505307       -13.7501
 185   2.0000      -0.501834       -13.6556
 186   2.0000      -0.497210       -13.5298
 187   2.0000      -0.495923       -13.4947
 188   2.0000      -0.490701       -13.3527
 189   2.0000      -0.490488       -13.3469
 190   2.0000      -0.487972       -13.2784
 191   2.0000      -0.487032       -13.2528
 192   2.0000      -0.485014       -13.1979
 193   2.0000      -0.483989       -13.1700
 194   2.0000      -0.483006       -13.1433
 195   2.0000      -0.482592       -13.1320
 196   2.0000      -0.480148       -13.0655
 197   2.0000      -0.474846       -12.9212
 198   2.0000      -0.473678       -12.8894
 199   2.0000      -0.470949       -12.8152
 200   2.0000      -0.470498       -12.8029
 201   2.0000      -0.469606       -12.7786
 202   2.0000      -0.466618       -12.6973
 203   2.0000      -0.465468       -12.6660
 204   2.0000      -0.464752       -12.6465
 205   2.0000      -0.461538       -12.5591
 206   2.0000      -0.458671       -12.4811
 207   2.0000      -0.455387       -12.3917
 208   2.0000      -0.454240       -12.3605
 209   2.0000      -0.452060       -12.3012
 210   2.0000      -0.450764       -12.2659
 211   2.0000      -0.446458       -12.1487
 212   2.0000      -0.443654       -12.0724
 213   2.0000      -0.442492       -12.0408
 214   2.0000      -0.439545       -11.9606
 215   2.0000      -0.437481       -11.9044
 216   2.0000      -0.434062       -11.8114
 217   2.0000      -0.430975       -11.7274
 218   2.0000      -0.430525       -11.7152
 219   2.0000      -0.427702       -11.6384
 220   2.0000      -0.414494       -11.2790
 221   2.0000      -0.411865       -11.2074
 222   2.0000      -0.411477       -11.1969
 223   2.0000      -0.409803       -11.1513
 224   2.0000      -0.408151       -11.1064
 225   2.0000      -0.407472       -11.0879
 226   2.0000      -0.399437       -10.8692
 227   2.0000      -0.397718       -10.8225
 228   2.0000      -0.392051       -10.6682
 229   2.0000      -0.391937       -10.6651
 230   2.0000      -0.388887       -10.5821
 231   2.0000      -0.386762       -10.5243
 232   2.0000      -0.384265       -10.4564
 233   2.0000      -0.380267       -10.3476
 234   2.0000      -0.370509       -10.0821
 235   2.0000      -0.369075       -10.0431
 236   2.0000      -0.358139        -9.7455
 237   2.0000      -0.352230        -9.5847
 238   2.0000      -0.343976        -9.3601
 239   2.0000      -0.338602        -9.2138
 240   2.0000      -0.330139        -8.9835
 241   2.0000      -0.321407        -8.7459
 242   2.0000      -0.315607        -8.5881
 243   2.0000      -0.309861        -8.4318
 244   2.0000      -0.250723        -6.8225
 245   0.0000      -0.155594        -4.2339
 246   0.0000      -0.134494        -3.6598
 247   0.0000      -0.094065        -2.5596
 248   0.0000      -0.085183        -2.3180
 249   0.0000      -0.083771        -2.2795

MULLIKEN ATOMIC CHARGES
-----------------------
   0 O :   -0.127514
   1 N :    0.076294
   2 C :   -0.187096
   3 C :   -0.168984
   4 N :    0.261167
   5 C :    0.069201
   6 C :    0.008034
   7 C :   -0.118609
   8 N :    0.218858
   9 C :    0.186226
  10 O :   -0.117554
  11 O :   -0.271842
  12 C :    0.150608
  13 C :    0.070088
  14 N :    0.293253
  15 O :   -0.217002
  16 O :   -0.266342
  17 C :    0.026776
  18 C :   -0.003344
  19 C :   -0.000557
  20 C :    0.053243
  21 C :   -0.000270
  22 C :    0.040539
  23 C :    0.097538
  24 N :    0.267686
  25 O :   -0.244536
  26 O :   -0.240591
  27 C :    0.034052
  28 C :   -0.015121
  29 C :   -0.057064
  30 C :    0.137177
  31 N :   -0.259320
  32 C :    0.096196
  33 C :    0.007390
  34 C :    0.154123
  35 O :   -0.182266
  36 C :   -0.049447
  37 C :   -0.044997
  38 C :    0.158194
  39 O :   -0.178279
  40 N :   -0.263107
  41 C :    0.094476
  42 C :   -0.000733
  43 C :    0.139519
  44 C :   -0.042977
  45 C :    0.014898
  46 C :    0.105327
  47 C :   -0.103442
  48 C :    0.118648
  49 C :   -0.090767
  50 C :    0.003393
  51 C :   -0.183679
  52 N :    0.156449
  53 C :    0.108123
  54 C :   -0.105931
  55 C :    0.243324
  56 C :   -0.035679
  57 C :   -0.090131
  58 C :   -0.170683
  59 N :    0.131490
  60 O :   -0.226884
  61 C :    0.208331
  62 O :   -0.153874
  63 C :    0.029144
  64 C :   -0.178586
  65 N :    0.075428
  66 O :   -0.126963
  67 C :    0.008095
  68 C :   -0.150197
  69 N :    0.256737
  70 C :   -0.158633
  71 N :    0.256032
  72 H :    0.008637
  73 H :    0.016497
  74 H :   -0.009741
  75 H :    0.016382
  76 H :    0.054235
  77 H :    0.009866
  78 H :    0.028575
  79 H :    0.047955
  80 H :    0.004754
  81 H :    0.033462
  82 H :    0.028410
  83 H :    0.050841
  84 H :    0.030410
  85 H :    0.034857
  86 H :    0.031744
  87 H :    0.021432
  88 H :    0.009291
  89 H :   -0.008489
  90 H :    0.004552
  91 H :    0.018923
  92 H :    0.018183
  93 H :    0.026170
Sum of atomic charges:   -0.0000000

LOEWDIN ATOMIC CHARGES
----------------------
   0 O :    0.080915
   1 N :    0.027561
   2 C :   -0.040477
   3 C :   -0.030161
   4 N :    0.013948
   5 C :   -0.070439
   6 C :    0.033978
   7 C :   -0.034897
   8 N :    0.010414
   9 C :    0.100741
  10 O :   -0.112209
  11 O :   -0.041210
  12 C :    0.078025
  13 C :   -0.061749
  14 N :    0.294485
  15 O :   -0.180511
  16 O :   -0.222952
  17 C :    0.004358
  18 C :   -0.036606
  19 C :    0.007466
  20 C :    0.062628
  21 C :   -0.041981
  22 C :    0.039031
  23 C :   -0.039946
  24 N :    0.282591
  25 O :   -0.208819
  26 O :   -0.204789
  27 C :    0.004714
  28 C :    0.032164
  29 C :   -0.018669
  30 C :    0.070286
  31 N :   -0.000115
  32 C :    0.039048
  33 C :   -0.062808
  34 C :    0.078329
  35 O :   -0.185655
  36 C :   -0.102537
  37 C :   -0.103297
  38 C :    0.084340
  39 O :   -0.167918
  40 N :    0.000613
  41 C :    0.035749
  42 C :   -0.061428
  43 C :    0.075635
  44 C :   -0.020735
  45 C :    0.007339
  46 C :   -0.013009
  47 C :   -0.015213
  48 C :    0.042895
  49 C :   -0.071370
  50 C :    0.059469
  51 C :   -0.034067
  52 N :   -0.044938
  53 C :    0.037301
  54 C :   -0.036225
  55 C :    0.055921
  56 C :    0.029856
  57 C :   -0.079369
  58 C :   -0.027918
  59 N :   -0.060179
  60 O :   -0.013638
  61 C :    0.102415
  62 O :   -0.127125
  63 C :   -0.079830
  64 C :   -0.050624
  65 N :    0.026079
  66 O :    0.082068
  67 C :    0.043202
  68 C :   -0.040304
  69 N :    0.031090
  70 C :   -0.035659
  71 N :    0.009972
  72 H :    0.040701
  73 H :    0.035719
  74 H :    0.030289
  75 H :    0.043823
  76 H :    0.046935
  77 H :    0.035460
  78 H :    0.025901
  79 H :    0.039876
  80 H :    0.019026
  81 H :    0.035757
  82 H :    0.032295
  83 H :    0.040372
  84 H :    0.023362
  85 H :    0.035682
  86 H :    0.035046
  87 H :    0.022174
  88 H :    0.046435
  89 H :    0.037589
  90 H :    0.036169
  91 H :    0.042770
  92 H :    0.045086
  93 H :    0.044282

  Mayer bond orders larger than 0.100000
B(  0-O ,  1-N ) :   1.0206 B(  0-O ,  6-C ) :   1.1925 B(  1-N ,  2-C ) :   1.7077
B(  1-N ,  6-C ) :   0.1038 B(  2-C ,  3-C ) :   1.1633 B(  2-C ,  5-C ) :   1.2457
B(  3-C ,  4-N ) :   3.0633 B(  5-C ,  6-C ) :   1.5292 B(  5-C ,  9-C ) :   0.9095
B(  6-C ,  7-C ) :   1.1362 B(  7-C ,  8-N ) :   2.9652 B(  9-C , 10-O ) :   2.2378
B(  9-C , 11-O ) :   1.0427 B(  9-C , 16-O ) :   0.1649 B( 11-O , 12-C ) :   1.0876
B( 12-C , 13-C ) :   1.5532 B( 12-C , 19-C ) :   1.0832 B( 13-C , 14-N ) :   0.9547
B( 13-C , 17-C ) :   1.1261 B( 14-N , 15-O ) :   1.5636 B( 14-N , 16-O ) :   1.4646
B( 15-O , 16-O ) :   0.2531 B( 17-C , 18-C ) :   1.5991 B( 17-C , 72-H ) :   1.0147
B( 18-C , 19-C ) :   1.1125 B( 18-C , 73-H ) :   0.9930 B( 19-C , 20-C ) :   1.4846
B( 20-C , 21-C ) :   1.1542 B( 20-C , 27-C ) :   0.9828 B( 21-C , 22-C ) :   1.5386
B( 21-C , 74-H ) :   1.0100 B( 22-C , 23-C ) :   1.1365 B( 22-C , 75-H ) :   1.0125
B( 23-C , 24-N ) :   0.9429 B( 23-C , 27-C ) :   1.4896 B( 24-N , 25-O ) :   1.5271
B( 24-N , 26-O ) :   1.5025 B( 25-O , 26-O ) :   0.2649 B( 27-C , 28-C ) :   1.2170
B( 28-C , 29-C ) :   1.4928 B( 28-C , 76-H ) :   0.9270 B( 29-C , 30-C ) :   1.2104
B( 29-C , 77-H ) :   0.9536 B( 30-C , 31-N ) :   1.1726 B( 30-C , 37-C ) :   1.2865
B( 31-N , 32-C ) :   0.9343 B( 31-N , 34-C ) :   1.0384 B( 32-C , 33-C ) :   1.1232
B( 32-C , 78-H ) :   0.9499 B( 32-C , 79-H ) :   0.9287 B( 33-C , 80-H ) :   0.9663
B( 33-C , 81-H ) :   0.9650 B( 33-C , 82-H ) :   0.9603 B( 34-C , 35-O ) :   2.1356
B( 34-C , 36-C ) :   0.9711 B( 36-C , 37-C ) :   1.3007 B( 36-C , 43-C ) :   1.2916
B( 37-C , 38-C ) :   0.9701 B( 38-C , 39-O ) :   2.0809 B( 38-C , 40-N ) :   1.0410
B( 40-N , 41-C ) :   0.9334 B( 40-N , 43-C ) :   1.1850 B( 41-C , 42-C ) :   1.1186
B( 41-C , 83-H ) :   0.9235 B( 41-C , 84-H ) :   0.9509 B( 42-C , 85-H ) :   0.9612
B( 42-C , 86-H ) :   0.9682 B( 42-C , 87-H ) :   0.9684 B( 43-C , 44-C ) :   1.2020
B( 44-C , 45-C ) :   1.5157 B( 44-C , 88-H ) :   0.9485 B( 45-C , 46-C ) :   1.1387
B( 45-C , 89-H ) :   0.9818 B( 46-C , 47-C ) :   1.5020 B( 46-C , 50-C ) :   1.0320
B( 47-C , 48-C ) :   1.1129 B( 47-C , 90-H ) :   1.0062 B( 48-C , 49-C ) :   1.0984
B( 48-C , 53-C ) :   1.4492 B( 49-C , 50-C ) :   1.7009 B( 49-C , 51-C ) :   1.0864
B( 50-C , 91-H ) :   1.0145 B( 51-C , 52-N ) :   2.9842 B( 53-C , 54-C ) :   1.0801
B( 53-C , 57-C ) :   1.1088 B( 54-C , 55-C ) :   1.5851 B( 54-C , 92-H ) :   1.0151
B( 55-C , 56-C ) :   1.0724 B( 55-C , 60-O ) :   1.0205 B( 56-C , 57-C ) :   1.6093
B( 56-C , 93-H ) :   1.0264 B( 57-C , 58-C ) :   1.1152 B( 58-C , 59-N ) :   2.9548
B( 60-O , 61-C ) :   1.1671 B( 61-C , 62-O ) :   2.1585 B( 61-C , 63-C ) :   0.8904
B( 63-C , 64-C ) :   1.2236 B( 63-C , 67-C ) :   1.5438 B( 64-C , 65-N ) :   1.7084
B( 64-C , 70-C ) :   1.1545 B( 65-N , 66-O ) :   1.0229 B( 65-N , 67-C ) :   0.1024
B( 66-O , 67-C ) :   1.1936 B( 67-C , 68-C ) :   1.1326 B( 68-C , 69-N ) :   3.0363
B( 70-C , 71-N ) :   3.0520

-----------------------------------------------------------------------------
         ABSORPTION SPECTRUM VIA TRANSITION ELECTRIC DIPOLE MOMENTS
-----------------------------------------------------------------------------
State   Energy  Wavelength   fosc         T2         TX        TY        TZ
        (cm-1)    (nm)                  (au**2)     (au)      (au)      (au)
-----------------------------------------------------------------------------
   0    6195.0   1614.2   0.364299331  19.35955   2.93853   2.84694  -1.61850
   1   11834.2    845.0   0.312781336   8.70119  -2.12768  -1.42460   1.46447
   2   15847.6    631.0   0.008006286   0.16632  -0.33563  -0.04623   0.22701
   3   18002.9    555.5   0.015235493   0.27860  -0.45708   0.00995   0.26379
   4   18122.5    551.8   0.021398131   0.38872  -0.23417  -0.27970   0.50562
   5   18728.5    533.9   0.086073189   1.51300   0.89001   0.54156  -0.65391
   6   19950.1    501.3   0.036239997   0.59802   0.61921   0.34962  -0.30392
   7   22553.0    443.4   0.000565430   0.00825   0.02169  -0.05634   0.06789
   8   24052.9    415.8   0.096193933   1.31661  -0.93478  -0.64476   0.16456
   9   24420.0    409.5   0.179030198   2.41355  -1.06047  -1.02240   0.49362
  10   24744.5    404.1   0.106172729   1.41257  -1.05590  -0.54554   0.00598
  11   25113.8    398.2   0.010070138   0.13201   0.15358  -0.32147   0.07126
  12   25997.0    384.7   0.077552654   0.98208  -0.35923  -0.90267  -0.19549
  13   27377.4    365.3   0.018161985   0.21840  -0.39701  -0.21397  -0.12247
  14   27728.7    360.6   0.160536686   1.90599   1.05637   0.61158  -0.64502
  15   28037.5    356.7   0.016263230   0.19096   0.14959   0.33380  -0.23908
  16   28120.1    355.6   0.376299817   4.40547  -1.47947  -1.08430   1.02027
  17   28656.8    349.0   0.008787518   0.10095  -0.10474  -0.26907   0.13260
  18   28784.3    347.4   0.050637961   0.57916   0.71598  -0.16317  -0.19976
  19   29021.7    344.6   0.016558384   0.18783   0.40338   0.05263  -0.14950
  20   29141.2    343.2   0.263009562   2.97126   0.78641  -1.06303   1.10579
  21   29646.9    337.3   0.105775976   1.17458   0.59678  -0.74310   0.51597
  22   30428.8    328.6   0.117916063   1.27574  -0.97475   0.37334  -0.43154
  23   30839.1    324.3   0.006480681   0.06918   0.14292   0.10192   0.19588
  24   31033.6    322.2   0.127339940   1.35085  -0.34503   0.99879  -0.48397
  25   31291.3    319.6   0.026666146   0.28055   0.43806  -0.25896   0.14694
  26   31923.7    313.2   0.072587129   0.74855   0.54637  -0.35747   0.56766
  27   32488.8    307.8   0.027342715   0.27707  -0.18998   0.25337  -0.42045
  28   32788.4    305.0   0.127461156   1.27977   0.03834   1.06860  -0.36931
  29   32978.2    303.2   0.250468735   2.50036   1.56486   0.22707   0.00440
  30   33231.6    300.9   0.062649325   0.62064   0.78481  -0.04703  -0.04997
  31   33269.3    300.6   0.045150401   0.44678   0.05135   0.56854  -0.34771
  32   33596.2    297.7   0.112098015   1.09846   0.92451   0.01953   0.49332
  33   33839.1    295.5   0.048229929   0.46922  -0.68339  -0.04464  -0.01421
  34   34645.3    288.6   0.000656015   0.00623  -0.07401   0.02616  -0.00845
  35   34747.3    287.8   0.024017117   0.22755  -0.39176   0.07684  -0.26109
  36   34860.3    286.9   0.000658791   0.00622   0.01744   0.07094  -0.02975
  37   34931.0    286.3   0.006302293   0.05940  -0.13301   0.09042  -0.18311
  38   35114.2    284.8   0.004166859   0.03907   0.09164   0.14472  -0.09861
  39   35539.2    281.4   0.003619028   0.03352   0.08819   0.07473   0.14199
  40   35775.5    279.5   0.024753108   0.22778   0.33217  -0.33186   0.08553
  41   36280.7    275.6   0.012432429   0.11281  -0.18731  -0.20677   0.18701
  42   36507.8    273.9   0.003410726   0.03076   0.16642   0.01489   0.05328
  43   36861.5    271.3   0.024449500   0.21836  -0.08745   0.10565  -0.44671
  44   37246.0    268.5   0.079459268   0.70233  -0.70442   0.37931  -0.24947
  45   37384.3    267.5   0.021958396   0.19337  -0.42653   0.10588  -0.01527
  46   37580.6    266.1   0.015630699   0.13693  -0.14298  -0.31130   0.13991
  47   37629.1    265.8   0.005738274   0.05020  -0.15787   0.02651   0.15677
  48   38327.9    260.9   0.063229181   0.54310  -0.65730  -0.32319   0.08125
  49   39004.4    256.4   0.205714296   1.73631   0.59762  -1.06629   0.49212
  50   39420.8    253.7   0.002968169   0.02479   0.11537   0.07362   0.07783
  51   40014.7    249.9   0.047317703   0.38930  -0.22970   0.52334  -0.25029

FINAL SINGLE POINT ENERGY     -3397.364946605298

DIPOLE MOMENT
-------------
                                X             Y             Z
Electronic contribution:     18.59357      -0.18590       5.08112
Nuclear contribution   :    -18.63109       0.48037      -5.98578
                        -----------------------------------------
Total Dipole Moment    :     -0.03752       0.29448      -0.90466
                        -----------------------------------------
Magnitude (a.u.)       :      0.95212
Magnitude (Debye)      :      2.42009

Rotational constants in cm-1:     0.002633     0.000221     0.000210
Rotational constants in MHz :    78.937818     6.637865     6.300394

                             ****ORCA TERMINATED NORMALLY****
TOTAL RUN TIME: 0 days 0 hours 9 minutes 26 seconds 539 msec
