                         Program Version 4.2.0 -  RELEASE  -
|  1> # ORCA input file
|  2> # SCF done       -164.631601359819          0.000934038060
|  3> ! CAM-B3LYP def2-SVP def2/J RIJCOSX Grid4 TightSCF
|  4> %maxcore 5000
|  5> %tddft
|  6>     Mode sTDDFT
|  7>     Ethresh 5.0
|  8>     maxcore 5000
|  9> end
| 10>
| 11> %pal
| 12>   nprocs 6
| 13>   end
| 14> * xyz 0 1
| 15>    C        7.53902         2.27526         2.95717
| 16>    C        7.88086         3.18730         3.90718
| 17>    S        6.69199         4.43142         4.03504
| 18>    C        5.70916         3.71358         2.78104
| 19>   Cl        4.24794         4.41424         2.29174
| 20>    C        6.29541         2.57516         2.31138
| 21>    C        6.00244         1.55345         1.30733
| 22>    O        5.04865         1.49780         0.55791
| 23>    C        7.12371         0.58676         1.39670
| 24>    C        8.08556         1.05953         2.38746
| 25>    C        9.29334         0.51636         2.72965
| 26>    C       10.10676         1.11017         3.71974
| 27>    N       10.77986         1.58156         4.51957
| 28>    C        9.88176        -0.63212         2.16104
| 29>    N       10.42515        -1.54793         1.73260
| 30>    C        7.21910        -0.58430         0.70735
| 31>    C        6.35149        -1.15482        -0.25465
| 32>    S        4.88650        -0.47883        -0.89426
| 33>    C        4.63976        -1.86646        -1.89343
| 34>    C        3.39702        -1.98158        -2.62447
| 35>    O        3.06098        -2.92618        -3.29880
| 36>    C        5.65654        -2.81392        -1.75054
| 37>    C        6.60414        -2.40287        -0.81054
| 38>    C        5.74418        -4.12842        -2.35698
| 39>    N        5.71212        -4.44023        -3.68413
| 40>    C        5.67808        -3.52876        -4.80154
| 41>    C        6.90954        -2.62944        -4.84274
| 42>    C        5.86562        -5.83125        -3.88738
| 43>    O        5.88688        -6.34310        -4.98918
| 44>    C        5.99095        -6.38128        -2.55854
| 45>    C        5.93004        -5.29412        -1.64126
| 46>    C        6.06086        -5.81941        -0.30198
| 47>    O        6.07756        -5.28559         0.78697
| 48>    N        6.20998        -7.20697        -0.49767
| 49>    C        6.32710        -8.10629         0.62406
| 50>    C        5.00884        -8.81667         0.92248
| 51>    C        6.16996        -7.55143        -1.83045
| 52>    C        6.33948        -8.88201        -2.30531
| 53>    C        6.29652        -9.18518        -3.62283
| 54>    C        6.52614       -10.48531        -4.18225
| 55>    C        6.67349       -10.64046        -5.57424
| 56>    N        6.93760       -11.79224        -6.14002
| 57>    C        7.11643       -12.84638        -5.33996
| 58>    N        6.94356       -12.82702        -4.01484
| 59>    C        6.63051       -11.68243        -3.45488
| 60>    C        7.43899       -14.09297        -5.99184
| 61>    C        7.95088       -15.21925        -5.45200
| 62>    C        7.85298       -16.50668        -6.22395
| 63>    O        7.59880       -16.62263        -7.39609
| 64>    C        8.07634       -17.54808        -5.21546
| 65>    C        8.04439       -18.91010        -5.16033
| 66>    S        8.43507       -19.46641        -3.55056
| 67>    C        8.64555       -17.85330        -2.97331
| 68>    C        8.42239       -16.94512        -3.96035
| 69>    C        8.48743       -15.50571        -4.12810
| 70>    C        9.13135       -14.65368        -3.27766
| 71>    C        9.63750       -15.09756        -2.03744
| 72>    N       10.03265       -15.44290        -1.01719
| 73>    C        9.44869       -13.30887        -3.55900
| 74>    N        9.81387       -12.23610        -3.74009
| 75>   Cl        7.69452       -19.99815        -6.40982
| 76>    H        8.74380         3.21770         4.54247
| 77>    H        8.07604        -1.21293         0.91983
| 78>    H        2.73960        -1.10162        -2.49502
| 79>    H        7.45588        -2.99878        -0.53445
| 80>    H        4.76200        -2.93631        -4.76531
| 81>    H        5.64759        -4.16278        -5.69223
| 82>    H        6.95333        -1.98280        -3.96875
| 83>    H        6.87485        -2.00630        -5.73186
| 84>    H        7.81534        -3.23094        -4.87629
| 85>    H        6.60932        -7.48429         1.47835
| 86>    H        7.12698        -8.82834         0.43676
| 87>    H        4.23734        -8.08504         1.14944
| 88>    H        5.12962        -9.47195         1.78070
| 89>    H        4.68183        -9.40956         0.07085
| 90>    H        6.53874        -9.64914        -1.57140
| 91>    H        6.11447        -8.39359        -4.33842
| 92>    H        6.56932        -9.79032        -6.23675
| 93>    H        6.45672       -11.72268        -2.38707
| 94>    H        7.17471       -14.13223        -7.04258
| 95>    H        8.91114       -17.69131        -1.94754
| 96> *
| 97>
| 98>                          ****END OF INPUT****

CARTESIAN COORDINATES (ANGSTROEM)
---------------------------------
  C      7.539020    2.275260    2.957170
  C      7.880860    3.187300    3.907180
  S      6.691990    4.431420    4.035040
  C      5.709160    3.713580    2.781040
  Cl     4.247940    4.414240    2.291740
  C      6.295410    2.575160    2.311380
  C      6.002440    1.553450    1.307330
  O      5.048650    1.497800    0.557910
  C      7.123710    0.586760    1.396700
  C      8.085560    1.059530    2.387460
  C      9.293340    0.516360    2.729650
  C     10.106760    1.110170    3.719740
  N     10.779860    1.581560    4.519570
  C      9.881760   -0.632120    2.161040
  N     10.425150   -1.547930    1.732600
  C      7.219100   -0.584300    0.707350
  C      6.351490   -1.154820   -0.254650
  S      4.886500   -0.478830   -0.894260
  C      4.639760   -1.866460   -1.893430
  C      3.397020   -1.981580   -2.624470
  O      3.060980   -2.926180   -3.298800
  C      5.656540   -2.813920   -1.750540
  C      6.604140   -2.402870   -0.810540
  C      5.744180   -4.128420   -2.356980
  N      5.712120   -4.440230   -3.684130
  C      5.678080   -3.528760   -4.801540
  C      6.909540   -2.629440   -4.842740
  C      5.865620   -5.831250   -3.887380
  O      5.886880   -6.343100   -4.989180
  C      5.990950   -6.381280   -2.558540
  C      5.930040   -5.294120   -1.641260
  C      6.060860   -5.819410   -0.301980
  O      6.077560   -5.285590    0.786970
  N      6.209980   -7.206970   -0.497670
  C      6.327100   -8.106290    0.624060
  C      5.008840   -8.816670    0.922480
  C      6.169960   -7.551430   -1.830450
  C      6.339480   -8.882010   -2.305310
  C      6.296520   -9.185180   -3.622830
  C      6.526140  -10.485310   -4.182250
  C      6.673490  -10.640460   -5.574240
  N      6.937600  -11.792240   -6.140020
  C      7.116430  -12.846380   -5.339960
  N      6.943560  -12.827020   -4.014840
  C      6.630510  -11.682430   -3.454880
  C      7.438990  -14.092970   -5.991840
  C      7.950880  -15.219250   -5.452000
  C      7.852980  -16.506680   -6.223950
  O      7.598800  -16.622630   -7.396090
  C      8.076340  -17.548080   -5.215460
  C      8.044390  -18.910100   -5.160330
  S      8.435070  -19.466410   -3.550560
  C      8.645550  -17.853300   -2.973310
  C      8.422390  -16.945120   -3.960350
  C      8.487430  -15.505710   -4.128100
  C      9.131350  -14.653680   -3.277660
  C      9.637500  -15.097560   -2.037440
  N     10.032650  -15.442900   -1.017190
  C      9.448690  -13.308870   -3.559000
  N      9.813870  -12.236100   -3.740090
  Cl     7.694520  -19.998150   -6.409820
  H      8.743800    3.217700    4.542470
  H      8.076040   -1.212930    0.919830
  H      2.739600   -1.101620   -2.495020
  H      7.455880   -2.998780   -0.534450
  H      4.762000   -2.936310   -4.765310
  H      5.647590   -4.162780   -5.692230
  H      6.953330   -1.982800   -3.968750
  H      6.874850   -2.006300   -5.731860
  H      7.815340   -3.230940   -4.876290
  H      6.609320   -7.484290    1.478350
  H      7.126980   -8.828340    0.436760
  H      4.237340   -8.085040    1.149440
  H      5.129620   -9.471950    1.780700
  H      4.681830   -9.409560    0.070850
  H      6.538740   -9.649140   -1.571400
  H      6.114470   -8.393590   -4.338420
  H      6.569320   -9.790320   -6.236750
  H      6.456720  -11.722680   -2.387070
  H      7.174710  -14.132230   -7.042580
  H      8.911140  -17.691310   -1.947540

 Total Charge           Charge          ....    0
 Multiplicity           Mult            ....    1
 Number of Electrons    NEL             ....  456
 Basis Dimension        Dim             ....  974

ORBITAL ENERGIES
----------------

  NO   OCC          E(Eh)            E(eV)
   0   2.0000    -101.625989     -2765.3837
   1   2.0000    -101.617156     -2765.1434
   2   2.0000     -89.002072     -2421.8695
   3   2.0000     -88.993326     -2421.6315
   4   2.0000     -88.987670     -2421.4776
   5   2.0000     -19.238564      -523.5079
   6   2.0000     -19.228823      -523.2429
   7   2.0000     -19.220857      -523.0261
   8   2.0000     -19.193521      -522.2823
   9   2.0000     -19.190260      -522.1935
  10   2.0000     -14.455195      -393.3459
  11   2.0000     -14.454876      -393.3372
  12   2.0000     -14.429898      -392.6575
  13   2.0000     -14.428716      -392.6253
  14   2.0000     -14.427301      -392.5868
  15   2.0000     -14.423859      -392.4932
  16   2.0000     -14.421800      -392.4371
  17   2.0000     -14.416852      -392.3025
  18   2.0000     -10.392032      -282.7816
  19   2.0000     -10.385557      -282.6054
  20   2.0000     -10.376810      -282.3673
  21   2.0000     -10.376261      -282.3524
  22   2.0000     -10.375836      -282.3409
  23   2.0000     -10.375695      -282.3370
  24   2.0000     -10.375311      -282.3266
  25   2.0000     -10.358357      -281.8652
  26   2.0000     -10.358245      -281.8622
  27   2.0000     -10.357347      -281.8377
  28   2.0000     -10.348860      -281.6068
  29   2.0000     -10.346839      -281.5518
  30   2.0000     -10.344307      -281.4829
  31   2.0000     -10.344157      -281.4788
  32   2.0000     -10.340129      -281.3692
  33   2.0000     -10.338061      -281.3129
  34   2.0000     -10.336452      -281.2692
  35   2.0000     -10.335869      -281.2533
  36   2.0000     -10.331571      -281.1363
  37   2.0000     -10.330870      -281.1173
  38   2.0000     -10.329138      -281.0701
  39   2.0000     -10.328309      -281.0476
  40   2.0000     -10.323197      -280.9085
  41   2.0000     -10.321430      -280.8604
  42   2.0000     -10.320851      -280.8446
  43   2.0000     -10.320306      -280.8298
  44   2.0000     -10.319651      -280.8120
  45   2.0000     -10.318017      -280.7675
  46   2.0000     -10.313052      -280.6324
  47   2.0000     -10.312980      -280.6304
  48   2.0000     -10.310281      -280.5570
  49   2.0000     -10.309719      -280.5417
  50   2.0000     -10.309464      -280.5348
  51   2.0000     -10.308865      -280.5185
  52   2.0000     -10.306575      -280.4562
  53   2.0000     -10.300468      -280.2900
  54   2.0000     -10.299661      -280.2680
  55   2.0000     -10.298821      -280.2452
  56   2.0000     -10.298381      -280.2332
  57   2.0000     -10.266601      -279.3684
  58   2.0000     -10.262424      -279.2548
  59   2.0000     -10.262159      -279.2476
  60   2.0000     -10.262056      -279.2447
  61   2.0000      -9.580743      -260.7053
  62   2.0000      -9.571906      -260.4648
  63   2.0000      -8.097749      -220.3509
  64   2.0000      -8.089014      -220.1133
  65   2.0000      -8.081110      -219.8982
  66   2.0000      -7.351370      -200.0410
  67   2.0000      -7.342554      -199.8010
  68   2.0000      -7.340789      -199.7530
  69   2.0000      -7.340247      -199.7383
  70   2.0000      -7.331939      -199.5122
  71   2.0000      -7.331404      -199.4976
  72   2.0000      -6.067155      -165.0957
  73   2.0000      -6.062479      -164.9685
  74   2.0000      -6.060023      -164.9016
  75   2.0000      -6.058386      -164.8571
  76   2.0000      -6.053787      -164.7319
  77   2.0000      -6.051294      -164.6641
  78   2.0000      -6.050247      -164.6356
  79   2.0000      -6.045725      -164.5125
  80   2.0000      -6.043871      -164.4621
  81   2.0000      -1.155809       -31.4512
  82   2.0000      -1.141528       -31.0625
  83   2.0000      -1.138152       -30.9707
  84   2.0000      -1.134545       -30.8725
  85   2.0000      -1.127750       -30.6876
  86   2.0000      -1.098931       -29.9034
  87   2.0000      -1.065947       -29.0059
  88   2.0000      -1.057618       -28.7793
  89   2.0000      -1.047591       -28.5064
  90   2.0000      -1.037824       -28.2406
  91   2.0000      -1.026349       -27.9284
  92   2.0000      -1.017029       -27.6748
  93   2.0000      -1.013781       -27.5864
  94   2.0000      -1.007126       -27.4053
  95   2.0000      -0.999400       -27.1951
  96   2.0000      -0.997299       -27.1379
  97   2.0000      -0.991266       -26.9737
  98   2.0000      -0.987819       -26.8799
  99   2.0000      -0.963925       -26.2297
 100   2.0000      -0.954846       -25.9827
 101   2.0000      -0.939627       -25.5686
 102   2.0000      -0.928407       -25.2632
 103   2.0000      -0.922566       -25.1043
 104   2.0000      -0.910081       -24.7646
 105   2.0000      -0.908592       -24.7240
 106   2.0000      -0.896956       -24.4074
 107   2.0000      -0.884752       -24.0753
 108   2.0000      -0.870732       -23.6938
 109   2.0000      -0.862059       -23.4578
 110   2.0000      -0.856050       -23.2943
 111   2.0000      -0.841705       -22.9040
 112   2.0000      -0.832294       -22.6479
 113   2.0000      -0.820805       -22.3353
 114   2.0000      -0.814915       -22.1750
 115   2.0000      -0.800445       -21.7812
 116   2.0000      -0.792298       -21.5595
 117   2.0000      -0.774336       -21.0707
 118   2.0000      -0.766358       -20.8537
 119   2.0000      -0.762322       -20.7438
 120   2.0000      -0.761480       -20.7209
 121   2.0000      -0.754592       -20.5335
 122   2.0000      -0.742615       -20.2076
 123   2.0000      -0.734653       -19.9909
 124   2.0000      -0.710177       -19.3249
 125   2.0000      -0.709595       -19.3090
 126   2.0000      -0.696169       -18.9437
 127   2.0000      -0.692478       -18.8433
 128   2.0000      -0.687857       -18.7175
 129   2.0000      -0.684336       -18.6217
 130   2.0000      -0.675612       -18.3843
 131   2.0000      -0.666063       -18.1245
 132   2.0000      -0.662466       -18.0266
 133   2.0000      -0.659231       -17.9386
 134   2.0000      -0.650926       -17.7126
 135   2.0000      -0.645012       -17.5517
 136   2.0000      -0.636093       -17.3090
 137   2.0000      -0.626326       -17.0432
 138   2.0000      -0.621108       -16.9012
 139   2.0000      -0.616264       -16.7694
 140   2.0000      -0.610656       -16.6168
 141   2.0000      -0.608975       -16.5710
 142   2.0000      -0.601566       -16.3694
 143   2.0000      -0.586239       -15.9524
 144   2.0000      -0.585459       -15.9312
 145   2.0000      -0.572183       -15.5699
 146   2.0000      -0.568800       -15.4778
 147   2.0000      -0.566477       -15.4146
 148   2.0000      -0.565947       -15.4002
 149   2.0000      -0.562014       -15.2932
 150   2.0000      -0.561909       -15.2903
 151   2.0000      -0.556861       -15.1530
 152   2.0000      -0.549780       -14.9603
 153   2.0000      -0.545009       -14.8304
 154   2.0000      -0.540465       -14.7068
 155   2.0000      -0.539356       -14.6766
 156   2.0000      -0.535156       -14.5623
 157   2.0000      -0.533469       -14.5164
 158   2.0000      -0.532052       -14.4779
 159   2.0000      -0.530788       -14.4435
 160   2.0000      -0.529035       -14.3958
 161   2.0000      -0.526672       -14.3315
 162   2.0000      -0.522737       -14.2244
 163   2.0000      -0.521145       -14.1811
 164   2.0000      -0.517999       -14.0955
 165   2.0000      -0.515751       -14.0343
 166   2.0000      -0.514145       -13.9906
 167   2.0000      -0.512017       -13.9327
 168   2.0000      -0.510729       -13.8976
 169   2.0000      -0.508171       -13.8280
 170   2.0000      -0.503427       -13.6990
 171   2.0000      -0.502375       -13.6703
 172   2.0000      -0.499860       -13.6019
 173   2.0000      -0.497205       -13.5296
 174   2.0000      -0.496601       -13.5132
 175   2.0000      -0.489442       -13.3184
 176   2.0000      -0.486804       -13.2466
 177   2.0000      -0.481636       -13.1060
 178   2.0000      -0.479537       -13.0489
 179   2.0000      -0.476247       -12.9593
 180   2.0000      -0.468620       -12.7518
 181   2.0000      -0.467638       -12.7251
 182   2.0000      -0.463486       -12.6121
 183   2.0000      -0.461727       -12.5642
 184   2.0000      -0.460120       -12.5205
 185   2.0000      -0.457026       -12.4363
 186   2.0000      -0.454974       -12.3805
 187   2.0000      -0.454791       -12.3755
 188   2.0000      -0.453946       -12.3525
 189   2.0000      -0.453338       -12.3360
 190   2.0000      -0.449476       -12.2309
 191   2.0000      -0.447656       -12.1813
 192   2.0000      -0.446856       -12.1596
 193   2.0000      -0.445217       -12.1150
 194   2.0000      -0.442626       -12.0445
 195   2.0000      -0.440036       -11.9740
 196   2.0000      -0.436144       -11.8681
 197   2.0000      -0.434326       -11.8186
 198   2.0000      -0.433597       -11.7988
 199   2.0000      -0.430238       -11.7074
 200   2.0000      -0.428860       -11.6699
 201   2.0000      -0.422738       -11.5033
 202   2.0000      -0.421645       -11.4736
 203   2.0000      -0.420302       -11.4370
 204   2.0000      -0.412200       -11.2165
 205   2.0000      -0.411271       -11.1913
 206   2.0000      -0.406356       -11.0575
 207   2.0000      -0.403382       -10.9766
 208   2.0000      -0.402068       -10.9408
 209   2.0000      -0.394168       -10.7258
 210   2.0000      -0.390242       -10.6190
 211   2.0000      -0.384523       -10.4634
 212   2.0000      -0.359237        -9.7753
 213   2.0000      -0.356996        -9.7143
 214   2.0000      -0.352426        -9.5900
 215   2.0000      -0.349428        -9.5084
 216   2.0000      -0.345526        -9.4022
 217   2.0000      -0.344880        -9.3847
 218   2.0000      -0.341654        -9.2969
 219   2.0000      -0.335109        -9.1188
 220   2.0000      -0.332906        -9.0588
 221   2.0000      -0.331223        -9.0130
 222   2.0000      -0.327216        -8.9040
 223   2.0000      -0.318867        -8.6768
 224   2.0000      -0.315430        -8.5833
 225   2.0000      -0.304916        -8.2972
 226   2.0000      -0.303738        -8.2651
 227   2.0000      -0.247703        -6.7403
 228   0.0000      -0.110863        -3.0167
 229   0.0000      -0.103193        -2.8080
 230   0.0000      -0.073508        -2.0002
 231   0.0000      -0.064116        -1.7447
 232   0.0000      -0.049163        -1.3378

MULLIKEN ATOMIC CHARGES
-----------------------
   0 C :    0.027261
   1 C :   -0.126775
   2 S :    0.192444
   3 C :   -0.167123
   4 Cl:    0.004409
   5 C :    0.078504
   6 C :    0.170646
   7 O :   -0.160041
   8 C :   -0.097981
   9 C :    0.306912
  10 C :   -0.328650
  11 C :   -0.193040
  12 N :    0.158693
  13 C :   -0.187548
  14 N :    0.165652
  15 C :   -0.009665
  16 C :   -0.060335
  17 S :    0.223791
  18 C :   -0.154361
  19 C :    0.184011
  20 O :   -0.178562
  21 C :    0.041742
  22 C :    0.014253
  23 C :    0.088353
  24 N :   -0.230292
  25 C :    0.107054
  26 C :   -0.013443
  27 C :    0.177390
  28 O :   -0.208327
  29 C :   -0.082382
  30 C :   -0.031782
  31 C :    0.133474
  32 O :   -0.195429
  33 N :   -0.268143
  34 C :    0.097325
  35 C :    0.004018
  36 C :    0.138730
  37 C :    0.003145
  38 C :    0.018401
  39 C :    0.035744
  40 C :    0.040443
  41 N :   -0.035786
  42 C :   -0.077565
  43 N :   -0.078885
  44 C :    0.049428
  45 C :    0.088445
  46 C :   -0.106950
  47 C :    0.135192
  48 O :   -0.118344
  49 C :    0.082792
  50 C :   -0.168649
  51 S :    0.185134
  52 C :   -0.128211
  53 C :    0.018969
  54 C :    0.288953
  55 C :   -0.294811
  56 C :   -0.197673
  57 N :    0.158234
  58 C :   -0.184328
  59 N :    0.165743
  60 Cl:    0.000855
  61 H :    0.057114
  62 H :    0.021909
  63 H :   -0.005210
  64 H :    0.019914
  65 H :    0.033124
  66 H :    0.043331
  67 H :    0.022177
  68 H :    0.024336
  69 H :    0.023859
  70 H :    0.044715
  71 H :    0.027015
  72 H :    0.030303
  73 H :    0.026159
  74 H :    0.011947
  75 H :   -0.023553
  76 H :    0.018683
  77 H :    0.028640
  78 H :    0.008445
  79 H :    0.033254
  80 H :    0.052780
Sum of atomic charges:   -0.0000000

LOEWDIN ATOMIC CHARGES
----------------------
   0 C :   -0.058588
   1 C :   -0.146249
   2 S :    0.481610
   3 C :   -0.270651
   4 Cl:    0.195827
   5 C :   -0.117735
   6 C :    0.083866
   7 O :   -0.151835
   8 C :   -0.089300
   9 C :    0.074605
  10 C :   -0.130985
  11 C :   -0.014798
  12 N :   -0.046226
  13 C :   -0.024432
  14 N :   -0.038802
  15 C :    0.064647
  16 C :   -0.175018
  17 S :    0.545335
  18 C :   -0.223365
  19 C :    0.088394
  20 O :   -0.125868
  21 C :   -0.040640
  22 C :    0.011499
  23 C :    0.075517
  24 N :    0.016250
  25 C :    0.034365
  26 C :   -0.063435
  27 C :    0.085247
  28 O :   -0.195961
  29 C :   -0.123502
  30 C :   -0.120673
  31 C :    0.079348
  32 O :   -0.199206
  33 N :   -0.004930
  34 C :    0.035675
  35 C :   -0.061230
  36 C :    0.082936
  37 C :   -0.035555
  38 C :    0.032115
  39 C :   -0.058151
  40 C :    0.066316
  41 N :   -0.061310
  42 C :    0.016112
  43 N :   -0.063162
  44 C :    0.066766
  45 C :    0.061949
  46 C :   -0.056571
  47 C :    0.082105
  48 O :   -0.123009
  49 C :   -0.119272
  50 C :   -0.272064
  51 S :    0.475755
  52 C :   -0.153777
  53 C :   -0.054977
  54 C :    0.071578
  55 C :   -0.115155
  56 C :   -0.014878
  57 N :   -0.049495
  58 C :   -0.018902
  59 N :   -0.051006
  60 Cl:    0.193110
  61 H :    0.038990
  62 H :    0.055537
  63 H :   -0.000403
  64 H :    0.045858
  65 H :    0.022512
  66 H :    0.036789
  67 H :    0.021015
  68 H :    0.031827
  69 H :    0.028452
  70 H :    0.038701
  71 H :    0.023680
  72 H :    0.032810
  73 H :    0.031474
  74 H :    0.020579
  75 H :    0.028585
  76 H :    0.040245
  77 H :    0.035809
  78 H :    0.025338
  79 H :    0.054636
  80 H :    0.037354

  Mayer bond orders larger than 0.100000
B(  0-C ,  1-C ) :   1.5465 B(  0-C ,  5-C ) :   1.2253 B(  0-C ,  9-C ) :   0.9979
B(  1-C ,  2-S ) :   1.1636 B(  1-C , 61-H ) :   0.9534 B(  2-S ,  3-C ) :   1.1523
B(  3-C ,  4-Cl) :   1.1321 B(  3-C ,  5-C ) :   1.4697 B(  5-C ,  6-C ) :   0.9711
B(  6-C ,  7-O ) :   2.1538 B(  6-C ,  8-C ) :   0.9574 B(  8-C ,  9-C ) :   1.0634
B(  8-C , 15-C ) :   1.5823 B(  9-C , 10-C ) :   1.6592 B( 10-C , 11-C ) :   1.1479
B( 10-C , 13-C ) :   1.1367 B( 11-C , 12-N ) :   2.9903 B( 13-C , 14-N ) :   2.9710
B( 15-C , 16-C ) :   1.2003 B( 15-C , 62-H ) :   0.9433 B( 16-C , 17-S ) :   1.1371
B( 16-C , 22-C ) :   1.3651 B( 17-S , 18-C ) :   1.1154 B( 18-C , 19-C ) :   1.0034
B( 18-C , 21-C ) :   1.4159 B( 19-C , 20-O ) :   2.1128 B( 19-C , 63-H ) :   0.9540
B( 21-C , 22-C ) :   1.3313 B( 21-C , 23-C ) :   0.9650 B( 22-C , 64-H ) :   1.0121
B( 23-C , 24-N ) :   1.2281 B( 23-C , 30-C ) :   1.4590 B( 24-N , 25-C ) :   0.9417
B( 24-N , 27-C ) :   1.0432 B( 25-C , 26-C ) :   1.1105 B( 25-C , 65-H ) :   0.9425
B( 25-C , 66-H ) :   0.9290 B( 26-C , 67-H ) :   0.9699 B( 26-C , 68-H ) :   0.9673
B( 26-C , 69-H ) :   0.9653 B( 27-C , 28-O ) :   2.0179 B( 27-C , 29-C ) :   0.9989
B( 28-O , 76-H ) :   0.1142 B( 29-C , 30-C ) :   1.2049 B( 29-C , 36-C ) :   1.3761
B( 30-C , 31-C ) :   0.9594 B( 31-C , 32-O ) :   2.1479 B( 31-C , 33-N ) :   1.0327
B( 33-N , 34-C ) :   0.9464 B( 33-N , 36-C ) :   1.1577 B( 34-C , 35-C ) :   1.1205
B( 34-C , 70-H ) :   0.9263 B( 34-C , 71-H ) :   0.9501 B( 35-C , 72-H ) :   0.9636
B( 35-C , 73-H ) :   0.9682 B( 35-C , 74-H ) :   0.9684 B( 36-C , 37-C ) :   1.1448
B( 37-C , 38-C ) :   1.6365 B( 37-C , 75-H ) :   0.9580 B( 38-C , 39-C ) :   1.0746
B( 38-C , 76-H ) :   0.9566 B( 39-C , 40-C ) :   1.2974 B( 39-C , 44-C ) :   1.2937
B( 40-C , 41-N ) :   1.5708 B( 40-C , 77-H ) :   0.9864 B( 41-N , 42-C ) :   1.5122
B( 42-C , 43-N ) :   1.4636 B( 42-C , 45-C ) :   1.0163 B( 43-N , 44-C ) :   1.5655
B( 44-C , 78-H ) :   0.9833 B( 45-C , 46-C ) :   1.7096 B( 45-C , 79-H ) :   0.9481
B( 46-C , 47-C ) :   0.9225 B( 46-C , 54-C ) :   1.0097 B( 47-C , 48-O ) :   2.2923
B( 47-C , 49-C ) :   0.9251 B( 49-C , 50-C ) :   1.4811 B( 49-C , 53-C ) :   1.2214
B( 50-C , 51-S ) :   1.1556 B( 50-C , 60-Cl) :   1.1292 B( 51-S , 52-C ) :   1.1571
B( 52-C , 53-C ) :   1.5515 B( 52-C , 80-H ) :   0.9559 B( 53-C , 54-C ) :   1.0112
B( 54-C , 55-C ) :   1.7035 B( 55-C , 56-C ) :   1.1386 B( 55-C , 58-C ) :   1.1540
B( 56-C , 57-N ) :   3.0005 B( 58-C , 59-N ) :   2.9824

-----------------------------------------------------------------------------
         ABSORPTION SPECTRUM VIA TRANSITION ELECTRIC DIPOLE MOMENTS
-----------------------------------------------------------------------------
State   Energy  Wavelength   fosc         T2         TX        TY        TZ
        (cm-1)    (nm)                  (au**2)     (au)      (au)      (au)
-----------------------------------------------------------------------------
   0   14403.9    694.3   0.060131108   1.37434   0.42198  -1.08362   0.14850
   1   17249.7    579.7   0.597435992  11.40210   0.48853  -3.31910  -0.38345
   2   22767.6    439.2   0.099717223   1.44188   0.50864   1.08773  -0.00249
   3   25314.6    395.0   0.010161994   0.13215   0.13540  -0.28369  -0.18260
   4   25792.9    387.7   0.639432879   8.16151   1.62568   1.27351   1.97405
   5   26670.8    374.9   0.053724665   0.66315  -0.68694   0.28628  -0.33061
   6   27051.0    369.7   0.037710913   0.45894  -0.60129   0.18175  -0.25371
   7   27233.8    367.2   0.052727367   0.63739   0.48464  -0.61957   0.13653
   8   27332.5    365.9   0.014628326   0.17619   0.15801  -0.29343  -0.25520
   9   28464.4    351.3   0.031857068   0.36845   0.34672  -0.48800   0.10050
  10   28836.0    346.8   0.094403922   1.07778   0.19863  -0.91340  -0.45169
  11   29145.8    343.1   0.238486337   2.69378  -0.22988  -1.39210  -0.83845
  12   29299.5    341.3   0.047186693   0.53019   0.25725   0.37272   0.57017
  13   29441.5    339.7   0.080238207   0.89722   0.67834  -0.04875   0.65931
  14   29575.6    338.1   0.142505386   1.58625  -0.32858   1.21183   0.09875
  15   29925.5    334.2   0.085372716   0.93919  -0.13717   0.95288   0.11128
  16   31456.2    317.9   0.001446456   0.01514   0.01141   0.04441   0.11418
  17   32206.9    310.5   0.052145238   0.53302  -0.20223   0.27699   0.64451
  18   32344.2    309.2   0.008358757   0.08508   0.08592  -0.26847   0.07496
  19   32645.1    306.3   0.046332763   0.46725  -0.22789   0.53839   0.35419
  20   32772.1    305.1   0.022177886   0.22279   0.23738   0.11823   0.39046
  21   32889.3    304.1   0.298840261   2.99130  -0.01721  -1.51594  -0.83243
  22   33409.2    299.3   0.052419786   0.51654   0.35181  -0.58290  -0.23021
  23   33854.9    295.4   0.061223552   0.59535   0.37724  -0.64927  -0.17746
  24   34274.8    291.8   0.451593023   4.33758   0.02196  -1.77604  -1.08755
  25   34512.2    289.8   0.124367494   1.18634   0.02997   0.95861   0.51624
  26   34988.2    285.8   0.177037188   1.66578  -0.64979   1.04787   0.38147
  27   35633.3    280.6   0.002858602   0.02641   0.05370  -0.14731  -0.04273
  28   35927.1    278.3   0.016489324   0.15110  -0.23827   0.28567   0.11277
  29   36043.6    277.4   0.051860850   0.47368  -0.13638  -0.53081  -0.41632
  30   36397.8    274.7   0.073271165   0.66273   0.00931   0.57298   0.57821
  31   36842.4    271.4   0.011182334   0.09992  -0.00470   0.13179   0.28728
  32   36906.6    271.0   0.435330718   3.88321   1.40805  -1.36826  -0.16873
  33   37020.4    270.1   0.145372251   1.29275   0.08616   0.74236   0.85687
  34   37395.2    267.4   0.024632936   0.21686   0.04334  -0.04892  -0.46107
  35   38306.9    261.0   0.339844288   2.92065   0.52454   1.61110   0.22332
  36   38464.3    260.0   0.045937702   0.39318  -0.58909  -0.00204  -0.21481
  37   38863.5    257.3   0.138968471   1.17720  -0.09418   0.47886   0.96903
  38   39265.0    254.7   0.036152095   0.30311   0.12939  -0.08810   0.52784
  39   39694.0    251.9   0.052682144   0.43693  -0.13236  -0.62633  -0.16470
  40   39860.3    250.9   0.005524230   0.04563  -0.08817  -0.15315  -0.11999
  41   39939.3    250.4   0.014909295   0.12289   0.31668   0.04605   0.14314
  42   40196.0    248.8   0.070762711   0.57956   0.09192   0.29423   0.69609

FINAL SINGLE POINT ENERGY     -4575.894553861004

DIPOLE MOMENT
-------------
                                X             Y             Z
Electronic contribution:      5.37090      -5.35868       7.41801
Nuclear contribution   :     -7.16442       6.64671      -6.42816
                        -----------------------------------------
Total Dipole Moment    :     -1.79353       1.28803       0.98985
                        -----------------------------------------
Magnitude (a.u.)       :      2.41983
Magnitude (Debye)      :      6.15071

Rotational constants in cm-1:     0.003175     0.000282     0.000268
Rotational constants in MHz :    95.179989     8.451097     8.037946

                             ****ORCA TERMINATED NORMALLY****
TOTAL RUN TIME: 0 days 0 hours 7 minutes 2 seconds 330 msec
