                         Program Version 4.2.0 -  RELEASE  -
|  1> # ORCA input file
|  2> # SCF done       -180.472664741984          0.000864178890
|  3> ! CAM-B3LYP def2-SVP def2/J RIJCOSX Grid4 TightSCF
|  4> %maxcore 5000
|  5> %tddft
|  6>     Mode sTDDFT
|  7>     Ethresh 5.0
|  8>     maxcore 5000
|  9> end
| 10>
| 11> %pal
| 12>   nprocs 6
| 13>   end
| 14> * xyz 0 1
| 15>    C       -0.26598         0.80657        -2.79888
| 16>    C       -1.19285         1.65911        -3.31519
| 17>    S       -1.84692         1.04987        -4.79034
| 18>    C       -0.85517        -0.38683        -4.71396
| 19>   Cl       -0.93114        -1.57760        -5.91559
| 20>    C       -0.06965        -0.36513        -3.59925
| 21>    C        0.93965        -1.23419        -2.98747
| 22>    O        1.33564        -2.30317        -3.38756
| 23>    C        1.31663        -0.53348        -1.71364
| 24>    C        0.60544         0.74173        -1.64554
| 25>    C        0.75448         1.73509        -0.71831
| 26>    C        0.00403         2.92870        -0.79633
| 27>    N       -0.60184         3.90107        -0.84532
| 28>    C        1.65117         1.71320         0.36973
| 29>    N        2.36934         1.75962         1.26368
| 30>    C        2.03397        -1.08400        -0.70729
| 31>    C        2.77753        -2.32407        -0.75804
| 32>    C        2.75094        -3.17309         0.34520
| 33>    C        3.42107        -4.38584         0.32568
| 34>    N        3.34639        -5.18593         1.51981
| 35>    O        2.43848        -4.95522         2.28948
| 36>    O        4.19239        -6.04056         1.69821
| 37>    C        4.17796        -4.78912        -0.79354
| 38>    C        4.24367        -3.88933        -1.86667
| 39>    C        3.56532        -2.69349        -1.85720
| 40>    C        4.81546        -6.08326        -0.86962
| 41>    C        5.95804        -6.30722        -1.55138
| 42>    C        6.68061        -7.52442        -1.70980
| 43>    N        6.54282        -8.72822        -1.06219
| 44>    C        5.63866        -9.08803         0.00583
| 45>    C        4.30690        -9.60753        -0.53260
| 46>    C        7.46553        -9.68169        -1.53828
| 47>    O        7.53495       -10.81682        -1.10906
| 48>    C        8.22296        -8.98695        -2.55390
| 49>    C        7.72365        -7.66458        -2.62023
| 50>    C        8.46936        -6.94632        -3.62847
| 51>    O        8.39631        -5.80795        -4.04049
| 52>    N        9.39160        -7.89761        -4.11040
| 53>    C       10.36732        -7.54899        -5.11421
| 54>    C       11.74071        -7.27988        -4.50361
| 55>    C        9.25578        -9.11404        -3.48127
| 56>    C       10.04234       -10.25335        -3.78717
| 57>    C        9.85901       -11.44692        -3.16700
| 58>    C       10.60876       -12.61993        -3.44929
| 59>    S       10.18654       -14.12649        -2.68857
| 60>    C       11.46131       -14.99807        -3.48610
| 61>    C       12.18144       -14.11423        -4.30520
| 62>    C       11.68836       -12.79985        -4.28463
| 63>    N       13.32255       -14.38025        -5.11381
| 64>    O       14.00342       -15.36091        -4.88582
| 65>    O       13.56900       -13.57356        -5.98859
| 66>    C       11.46445       -16.39712        -3.23082
| 67>    C       12.30920       -17.34226        -3.71071
| 68>    C       12.22512       -18.73894        -3.45675
| 69>    S       13.49423       -19.71168        -4.15738
| 70>    C       12.85094       -21.20326        -3.53489
| 71>    C       11.69680       -20.94315        -2.81566
| 72>    C       11.34441       -19.56425        -2.76944
| 73>    C       10.12885       -19.27167        -2.02479
| 74>    O        9.58422       -18.22478        -1.80847
| 75>    S        9.46027       -20.82326        -1.40319
| 76>    C       10.78043       -21.83025        -2.11125
| 77>    O       10.80147       -23.01869        -1.96894
| 78>    C       13.58853       -22.39486        -3.85729
| 79>    C       13.30353       -23.64254        -3.48672
| 80>    H       -1.54054         2.59836        -2.93305
| 81>    H        2.03081        -0.59170         0.25802
| 82>    H        2.18839        -2.90938         1.22934
| 83>    H        4.81542        -4.16450        -2.73871
| 84>    H        3.65570        -2.02472        -2.69724
| 85>    H        4.33082        -6.88367        -0.33638
| 86>    H        6.43773        -5.48383        -2.06636
| 87>    H        5.50298        -8.23582         0.67442
| 88>    H        6.13107        -9.89218         0.56100
| 89>    H        3.83440        -8.88293        -1.19264
| 90>    H        3.63617        -9.82074         0.29467
| 91>    H        4.47025       -10.52449        -1.09327
| 92>    H        9.99513        -6.63860        -5.59246
| 93>    H       10.42222        -8.34270        -5.86462
| 94>    H       11.67959        -6.44884        -3.80562
| 95>    H       12.44793        -7.02406        -5.28745
| 96>    H       12.10955        -8.15268        -3.96939
| 97>    H       10.79742       -10.15199        -4.55225
| 98>    H        9.09016       -11.53904        -2.41089
| 99>    H       12.14581       -12.02019        -4.86633
|100>    H       10.66150       -16.71012        -2.57651
|101>    H       13.14467       -17.05787        -4.33458
|102>    H       14.46354       -22.20285        -4.46691
|103>    H       12.44960       -23.88568        -2.88072
|104>    H       13.93810       -24.45734        -3.79011
|105> *
|106>
|107>                          ****END OF INPUT****

CARTESIAN COORDINATES (ANGSTROEM)
---------------------------------
  C     -0.265980    0.806570   -2.798880
  C     -1.192850    1.659110   -3.315190
  S     -1.846920    1.049870   -4.790340
  C     -0.855170   -0.386830   -4.713960
  Cl    -0.931140   -1.577600   -5.915590
  C     -0.069650   -0.365130   -3.599250
  C      0.939650   -1.234190   -2.987470
  O      1.335640   -2.303170   -3.387560
  C      1.316630   -0.533480   -1.713640
  C      0.605440    0.741730   -1.645540
  C      0.754480    1.735090   -0.718310
  C      0.004030    2.928700   -0.796330
  N     -0.601840    3.901070   -0.845320
  C      1.651170    1.713200    0.369730
  N      2.369340    1.759620    1.263680
  C      2.033970   -1.084000   -0.707290
  C      2.777530   -2.324070   -0.758040
  C      2.750940   -3.173090    0.345200
  C      3.421070   -4.385840    0.325680
  N      3.346390   -5.185930    1.519810
  O      2.438480   -4.955220    2.289480
  O      4.192390   -6.040560    1.698210
  C      4.177960   -4.789120   -0.793540
  C      4.243670   -3.889330   -1.866670
  C      3.565320   -2.693490   -1.857200
  C      4.815460   -6.083260   -0.869620
  C      5.958040   -6.307220   -1.551380
  C      6.680610   -7.524420   -1.709800
  N      6.542820   -8.728220   -1.062190
  C      5.638660   -9.088030    0.005830
  C      4.306900   -9.607530   -0.532600
  C      7.465530   -9.681690   -1.538280
  O      7.534950  -10.816820   -1.109060
  C      8.222960   -8.986950   -2.553900
  C      7.723650   -7.664580   -2.620230
  C      8.469360   -6.946320   -3.628470
  O      8.396310   -5.807950   -4.040490
  N      9.391600   -7.897610   -4.110400
  C     10.367320   -7.548990   -5.114210
  C     11.740710   -7.279880   -4.503610
  C      9.255780   -9.114040   -3.481270
  C     10.042340  -10.253350   -3.787170
  C      9.859010  -11.446920   -3.167000
  C     10.608760  -12.619930   -3.449290
  S     10.186540  -14.126490   -2.688570
  C     11.461310  -14.998070   -3.486100
  C     12.181440  -14.114230   -4.305200
  C     11.688360  -12.799850   -4.284630
  N     13.322550  -14.380250   -5.113810
  O     14.003420  -15.360910   -4.885820
  O     13.569000  -13.573560   -5.988590
  C     11.464450  -16.397120   -3.230820
  C     12.309200  -17.342260   -3.710710
  C     12.225120  -18.738940   -3.456750
  S     13.494230  -19.711680   -4.157380
  C     12.850940  -21.203260   -3.534890
  C     11.696800  -20.943150   -2.815660
  C     11.344410  -19.564250   -2.769440
  C     10.128850  -19.271670   -2.024790
  O      9.584220  -18.224780   -1.808470
  S      9.460270  -20.823260   -1.403190
  C     10.780430  -21.830250   -2.111250
  O     10.801470  -23.018690   -1.968940
  C     13.588530  -22.394860   -3.857290
  C     13.303530  -23.642540   -3.486720
  H     -1.540540    2.598360   -2.933050
  H      2.030810   -0.591700    0.258020
  H      2.188390   -2.909380    1.229340
  H      4.815420   -4.164500   -2.738710
  H      3.655700   -2.024720   -2.697240
  H      4.330820   -6.883670   -0.336380
  H      6.437730   -5.483830   -2.066360
  H      5.502980   -8.235820    0.674420
  H      6.131070   -9.892180    0.561000
  H      3.834400   -8.882930   -1.192640
  H      3.636170   -9.820740    0.294670
  H      4.470250  -10.524490   -1.093270
  H      9.995130   -6.638600   -5.592460
  H     10.422220   -8.342700   -5.864620
  H     11.679590   -6.448840   -3.805620
  H     12.447930   -7.024060   -5.287450
  H     12.109550   -8.152680   -3.969390
  H     10.797420  -10.151990   -4.552250
  H      9.090160  -11.539040   -2.410890
  H     12.145810  -12.020190   -4.866330
  H     10.661500  -16.710120   -2.576510
  H     13.144670  -17.057870   -4.334580
  H     14.463540  -22.202850   -4.466910
  H     12.449600  -23.885680   -2.880720
  H     13.938100  -24.457340   -3.790110

 Total Charge           Charge          ....    0
 Multiplicity           Mult            ....    1
 Number of Electrons    NEL             ....  490
 Basis Dimension        Dim             .... 1055

ORBITAL ENERGIES
----------------

  NO   OCC          E(Eh)            E(eV)
   0   2.0000    -101.624929     -2765.3549
   1   2.0000     -89.002164     -2421.8720
   2   2.0000     -88.984665     -2421.3958
   3   2.0000     -88.984016     -2421.3782
   4   2.0000     -88.942454     -2420.2472
   5   2.0000     -19.253139      -523.9045
   6   2.0000     -19.251883      -523.8704
   7   2.0000     -19.251719      -523.8659
   8   2.0000     -19.249563      -523.8072
   9   2.0000     -19.234985      -523.4106
  10   2.0000     -19.233628      -523.3736
  11   2.0000     -19.231674      -523.3205
  12   2.0000     -19.193390      -522.2787
  13   2.0000     -19.192949      -522.2667
  14   2.0000     -14.659536      -398.9062
  15   2.0000     -14.658835      -398.8872
  16   2.0000     -14.456353      -393.3774
  17   2.0000     -14.454927      -393.3386
  18   2.0000     -14.428728      -392.6256
  19   2.0000     -14.428024      -392.6065
  20   2.0000     -10.399617      -282.9880
  21   2.0000     -10.398360      -282.9538
  22   2.0000     -10.389260      -282.7061
  23   2.0000     -10.384768      -282.5839
  24   2.0000     -10.377099      -282.3752
  25   2.0000     -10.375018      -282.3186
  26   2.0000     -10.357972      -281.8548
  27   2.0000     -10.357306      -281.8366
  28   2.0000     -10.345875      -281.5256
  29   2.0000     -10.345169      -281.5064
  30   2.0000     -10.341909      -281.4177
  31   2.0000     -10.341406      -281.4040
  32   2.0000     -10.340667      -281.3838
  33   2.0000     -10.339784      -281.3598
  34   2.0000     -10.339109      -281.3415
  35   2.0000     -10.337945      -281.3098
  36   2.0000     -10.333020      -281.1758
  37   2.0000     -10.330441      -281.1056
  38   2.0000     -10.329666      -281.0845
  39   2.0000     -10.326388      -280.9953
  40   2.0000     -10.324990      -280.9573
  41   2.0000     -10.321229      -280.8549
  42   2.0000     -10.318988      -280.7939
  43   2.0000     -10.313250      -280.6378
  44   2.0000     -10.312852      -280.6270
  45   2.0000     -10.312423      -280.6153
  46   2.0000     -10.308766      -280.5158
  47   2.0000     -10.308626      -280.5120
  48   2.0000     -10.307399      -280.4786
  49   2.0000     -10.307007      -280.4679
  50   2.0000     -10.305895      -280.4377
  51   2.0000     -10.304871      -280.4098
  52   2.0000     -10.303735      -280.3789
  53   2.0000     -10.301618      -280.3213
  54   2.0000     -10.300863      -280.3007
  55   2.0000     -10.299819      -280.2723
  56   2.0000     -10.299384      -280.2605
  57   2.0000     -10.298795      -280.2445
  58   2.0000     -10.298123      -280.2262
  59   2.0000     -10.296524      -280.1827
  60   2.0000     -10.280914      -279.7579
  61   2.0000     -10.267690      -279.3980
  62   2.0000     -10.263781      -279.2917
  63   2.0000     -10.262301      -279.2514
  64   2.0000     -10.260417      -279.2001
  65   2.0000      -9.579681      -260.6764
  66   2.0000      -8.097849      -220.3537
  67   2.0000      -8.080624      -219.8850
  68   2.0000      -8.079589      -219.8568
  69   2.0000      -8.041516      -218.8208
  70   2.0000      -7.350283      -200.0114
  71   2.0000      -7.339751      -199.7248
  72   2.0000      -7.339191      -199.7095
  73   2.0000      -6.067209      -165.0971
  74   2.0000      -6.062589      -164.9714
  75   2.0000      -6.060160      -164.9053
  76   2.0000      -6.049722      -164.6213
  77   2.0000      -6.048721      -164.5941
  78   2.0000      -6.045460      -164.5053
  79   2.0000      -6.044485      -164.4788
  80   2.0000      -6.043063      -164.4401
  81   2.0000      -6.041957      -164.4100
  82   2.0000      -6.010579      -163.5562
  83   2.0000      -6.007022      -163.4594
  84   2.0000      -6.002523      -163.3370
  85   2.0000      -1.333565       -36.2881
  86   2.0000      -1.332116       -36.2487
  87   2.0000      -1.158977       -31.5374
  88   2.0000      -1.155006       -31.4293
  89   2.0000      -1.151679       -31.3388
  90   2.0000      -1.149475       -31.2788
  91   2.0000      -1.149244       -31.2725
  92   2.0000      -1.135606       -30.9014
  93   2.0000      -1.128905       -30.7191
  94   2.0000      -1.065932       -29.0055
  95   2.0000      -1.056557       -28.7504
  96   2.0000      -1.046774       -28.4842
  97   2.0000      -1.025740       -27.9118
  98   2.0000      -1.020629       -27.7727
  99   2.0000      -1.018209       -27.7069
 100   2.0000      -1.006913       -27.3995
 101   2.0000      -1.003585       -27.3089
 102   2.0000      -0.995701       -27.0944
 103   2.0000      -0.963809       -26.2266
 104   2.0000      -0.938976       -25.5508
 105   2.0000      -0.936260       -25.4769
 106   2.0000      -0.934588       -25.4314
 107   2.0000      -0.928527       -25.2665
 108   2.0000      -0.921662       -25.0797
 109   2.0000      -0.915477       -24.9114
 110   2.0000      -0.912966       -24.8431
 111   2.0000      -0.905112       -24.6293
 112   2.0000      -0.890526       -24.2324
 113   2.0000      -0.886593       -24.1254
 114   2.0000      -0.874184       -23.7877
 115   2.0000      -0.857658       -23.3380
 116   2.0000      -0.853419       -23.2227
 117   2.0000      -0.841138       -22.8885
 118   2.0000      -0.840638       -22.8749
 119   2.0000      -0.822396       -22.3785
 120   2.0000      -0.821796       -22.3622
 121   2.0000      -0.815520       -22.1914
 122   2.0000      -0.803788       -21.8722
 123   2.0000      -0.798798       -21.7364
 124   2.0000      -0.778902       -21.1950
 125   2.0000      -0.769675       -20.9439
 126   2.0000      -0.763166       -20.7668
 127   2.0000      -0.761761       -20.7286
 128   2.0000      -0.748940       -20.3797
 129   2.0000      -0.734729       -19.9930
 130   2.0000      -0.724633       -19.7183
 131   2.0000      -0.711310       -19.3557
 132   2.0000      -0.710964       -19.3463
 133   2.0000      -0.706372       -19.2214
 134   2.0000      -0.700611       -19.0646
 135   2.0000      -0.693178       -18.8623
 136   2.0000      -0.688584       -18.7373
 137   2.0000      -0.685578       -18.6555
 138   2.0000      -0.683917       -18.6103
 139   2.0000      -0.681191       -18.5361
 140   2.0000      -0.659855       -17.9556
 141   2.0000      -0.658118       -17.9083
 142   2.0000      -0.652237       -17.7483
 143   2.0000      -0.646506       -17.5923
 144   2.0000      -0.644186       -17.5292
 145   2.0000      -0.642646       -17.4873
 146   2.0000      -0.637497       -17.3472
 147   2.0000      -0.628959       -17.1148
 148   2.0000      -0.623525       -16.9670
 149   2.0000      -0.616952       -16.7881
 150   2.0000      -0.613811       -16.7026
 151   2.0000      -0.608780       -16.5658
 152   2.0000      -0.606274       -16.4976
 153   2.0000      -0.601887       -16.3782
 154   2.0000      -0.595795       -16.2124
 155   2.0000      -0.592551       -16.1241
 156   2.0000      -0.589668       -16.0457
 157   2.0000      -0.585685       -15.9373
 158   2.0000      -0.579387       -15.7659
 159   2.0000      -0.575334       -15.6556
 160   2.0000      -0.570732       -15.5304
 161   2.0000      -0.568954       -15.4820
 162   2.0000      -0.567846       -15.4519
 163   2.0000      -0.563148       -15.3240
 164   2.0000      -0.559811       -15.2332
 165   2.0000      -0.558160       -15.1883
 166   2.0000      -0.555097       -15.1050
 167   2.0000      -0.550193       -14.9715
 168   2.0000      -0.545314       -14.8388
 169   2.0000      -0.543678       -14.7942
 170   2.0000      -0.539039       -14.6680
 171   2.0000      -0.535215       -14.5639
 172   2.0000      -0.534178       -14.5357
 173   2.0000      -0.532917       -14.5014
 174   2.0000      -0.530817       -14.4443
 175   2.0000      -0.529015       -14.3952
 176   2.0000      -0.523803       -14.2534
 177   2.0000      -0.521641       -14.1946
 178   2.0000      -0.516967       -14.0674
 179   2.0000      -0.515731       -14.0337
 180   2.0000      -0.514238       -13.9931
 181   2.0000      -0.509707       -13.8698
 182   2.0000      -0.508358       -13.8331
 183   2.0000      -0.506280       -13.7766
 184   2.0000      -0.503889       -13.7115
 185   2.0000      -0.502292       -13.6680
 186   2.0000      -0.498748       -13.5716
 187   2.0000      -0.493178       -13.4201
 188   2.0000      -0.490903       -13.3581
 189   2.0000      -0.489746       -13.3267
 190   2.0000      -0.486727       -13.2445
 191   2.0000      -0.483509       -13.1569
 192   2.0000      -0.478725       -13.0268
 193   2.0000      -0.471333       -12.8256
 194   2.0000      -0.469858       -12.7855
 195   2.0000      -0.467393       -12.7184
 196   2.0000      -0.466811       -12.7026
 197   2.0000      -0.461864       -12.5680
 198   2.0000      -0.461213       -12.5503
 199   2.0000      -0.460015       -12.5176
 200   2.0000      -0.459885       -12.5141
 201   2.0000      -0.456625       -12.4254
 202   2.0000      -0.454861       -12.3774
 203   2.0000      -0.452845       -12.3225
 204   2.0000      -0.452456       -12.3120
 205   2.0000      -0.451979       -12.2990
 206   2.0000      -0.450605       -12.2616
 207   2.0000      -0.445775       -12.1302
 208   2.0000      -0.444042       -12.0830
 209   2.0000      -0.441092       -12.0027
 210   2.0000      -0.439779       -11.9670
 211   2.0000      -0.436913       -11.8890
 212   2.0000      -0.436745       -11.8844
 213   2.0000      -0.432920       -11.7804
 214   2.0000      -0.425792       -11.5864
 215   2.0000      -0.424832       -11.5603
 216   2.0000      -0.422264       -11.4904
 217   2.0000      -0.419165       -11.4061
 218   2.0000      -0.410912       -11.1815
 219   2.0000      -0.402954       -10.9649
 220   2.0000      -0.399305       -10.8657
 221   2.0000      -0.395128       -10.7520
 222   2.0000      -0.393583       -10.7099
 223   2.0000      -0.390272       -10.6199
 224   2.0000      -0.389246       -10.5919
 225   2.0000      -0.378396       -10.2967
 226   2.0000      -0.377379       -10.2690
 227   2.0000      -0.367546       -10.0014
 228   2.0000      -0.363055        -9.8792
 229   2.0000      -0.360141        -9.7999
 230   2.0000      -0.357294        -9.7225
 231   2.0000      -0.354816        -9.6550
 232   2.0000      -0.350872        -9.5477
 233   2.0000      -0.348890        -9.4938
 234   2.0000      -0.345333        -9.3970
 235   2.0000      -0.340730        -9.2717
 236   2.0000      -0.340290        -9.2598
 237   2.0000      -0.335244        -9.1225
 238   2.0000      -0.334165        -9.0931
 239   2.0000      -0.324784        -8.8378
 240   2.0000      -0.320113        -8.7107
 241   2.0000      -0.317182        -8.6310
 242   2.0000      -0.309284        -8.4161
 243   2.0000      -0.277730        -7.5574
 244   2.0000      -0.239548        -6.5184
 245   0.0000      -0.107381        -2.9220
 246   0.0000      -0.095376        -2.5953
 247   0.0000      -0.077448        -2.1075
 248   0.0000      -0.060450        -1.6449
 249   0.0000      -0.055808        -1.5186

MULLIKEN ATOMIC CHARGES
-----------------------
   0 C :    0.030822
   1 C :   -0.124513
   2 S :    0.193840
   3 C :   -0.168498
   4 Cl:    0.005155
   5 C :    0.071640
   6 C :    0.142588
   7 O :   -0.123169
   8 C :   -0.091400
   9 C :    0.284511
  10 C :   -0.316964
  11 C :   -0.194138
  12 N :    0.160795
  13 C :   -0.196696
  14 N :    0.171289
  15 C :   -0.032569
  16 C :    0.059763
  17 C :   -0.052840
  18 C :    0.137263
  19 N :    0.250002
  20 O :   -0.227634
  21 O :   -0.239193
  22 C :    0.071059
  23 C :   -0.053184
  24 C :    0.113845
  25 C :    0.007326
  26 C :   -0.032549
  27 C :    0.105128
  28 N :   -0.265255
  29 C :    0.089799
  30 C :    0.004863
  31 C :    0.166551
  32 O :   -0.215833
  33 C :   -0.068764
  34 C :   -0.043399
  35 C :    0.151164
  36 O :   -0.195852
  37 N :   -0.270634
  38 C :    0.095764
  39 C :    0.004746
  40 C :    0.149037
  41 C :   -0.028261
  42 C :    0.085235
  43 C :   -0.071227
  44 S :    0.209353
  45 C :   -0.158243
  46 C :    0.159487
  47 C :   -0.021275
  48 N :    0.267509
  49 O :   -0.240375
  50 O :   -0.237407
  51 C :    0.041260
  52 C :    0.063690
  53 C :   -0.144517
  54 S :    0.175477
  55 C :   -0.143706
  56 C :    0.068140
  57 C :    0.060818
  58 C :    0.054869
  59 O :   -0.151147
  60 S :    0.003072
  61 C :    0.047722
  62 O :   -0.141226
  63 C :    0.031061
  64 C :   -0.003222
  65 H :    0.055566
  66 H :    0.041134
  67 H :    0.010695
  68 H :    0.006597
  69 H :   -0.001662
  70 H :    0.010927
  71 H :    0.015577
  72 H :    0.045834
  73 H :    0.039440
  74 H :    0.016866
  75 H :    0.026121
  76 H :    0.028086
  77 H :    0.044002
  78 H :    0.025010
  79 H :    0.031703
  80 H :    0.025508
  81 H :    0.013978
  82 H :   -0.025018
  83 H :    0.010028
  84 H :    0.004770
  85 H :    0.005187
  86 H :    0.004619
  87 H :   -0.006427
  88 H :    0.057079
  89 H :    0.033428
Sum of atomic charges:   -0.0000000

LOEWDIN ATOMIC CHARGES
----------------------
   0 C :   -0.060064
   1 C :   -0.147174
   2 S :    0.483046
   3 C :   -0.271134
   4 Cl:    0.195782
   5 C :   -0.118270
   6 C :    0.080831
   7 O :   -0.122195
   8 C :   -0.080555
   9 C :    0.073341
  10 C :   -0.129422
  11 C :   -0.015433
  12 N :   -0.045043
  13 C :   -0.025776
  14 N :   -0.038485
  15 C :    0.079262
  16 C :   -0.039602
  17 C :    0.025643
  18 C :   -0.034309
  19 N :    0.287700
  20 O :   -0.195569
  21 O :   -0.198581
  22 C :    0.012925
  23 C :   -0.004411
  24 C :    0.047145
  25 C :   -0.005727
  26 C :   -0.016385
  27 C :    0.067491
  28 N :    0.002460
  29 C :    0.035184
  30 C :   -0.062796
  31 C :    0.081172
  32 O :   -0.203355
  33 C :   -0.127742
  34 C :   -0.112036
  35 C :    0.080287
  36 O :   -0.197572
  37 N :   -0.005267
  38 C :    0.035699
  39 C :   -0.060962
  40 C :    0.083135
  41 C :   -0.042501
  42 C :    0.014124
  43 C :   -0.173457
  44 S :    0.512468
  45 C :   -0.137440
  46 C :   -0.070599
  47 C :   -0.027357
  48 N :    0.289900
  49 O :   -0.201330
  50 O :   -0.201727
  51 C :   -0.032698
  52 C :   -0.031639
  53 C :   -0.127203
  54 S :    0.491642
  55 C :   -0.119010
  56 C :   -0.119185
  57 C :   -0.114328
  58 C :   -0.040935
  59 O :   -0.133860
  60 S :    0.296738
  61 C :   -0.039007
  62 O :   -0.126253
  63 C :   -0.063398
  64 C :    0.009743
  65 H :    0.038625
  66 H :    0.049530
  67 H :    0.044012
  68 H :    0.041984
  69 H :    0.037958
  70 H :    0.029374
  71 H :    0.044826
  72 H :    0.029683
  73 H :    0.036981
  74 H :    0.019922
  75 H :    0.032394
  76 H :    0.032205
  77 H :    0.038241
  78 H :    0.023106
  79 H :    0.033032
  80 H :    0.031489
  81 H :    0.021403
  82 H :    0.029113
  83 H :    0.038209
  84 H :    0.038659
  85 H :    0.029212
  86 H :    0.025573
  87 H :    0.029572
  88 H :    0.028021
  89 H :    0.030955

  Mayer bond orders larger than 0.100000
B(  0-C ,  1-C ) :   1.5429 B(  0-C ,  5-C ) :   1.2191 B(  0-C ,  9-C ) :   1.0061
B(  1-C ,  2-S ) :   1.1657 B(  1-C , 65-H ) :   0.9541 B(  2-S ,  3-C ) :   1.1545
B(  3-C ,  4-Cl) :   1.1324 B(  3-C ,  5-C ) :   1.4739 B(  5-C ,  6-C ) :   0.9561
B(  6-C ,  7-O ) :   2.2443 B(  6-C ,  8-C ) :   0.9190 B(  8-C ,  9-C ) :   1.0399
B(  8-C , 15-C ) :   1.7105 B(  9-C , 10-C ) :   1.6795 B( 10-C , 11-C ) :   1.1420
B( 10-C , 13-C ) :   1.1327 B( 11-C , 12-N ) :   2.9947 B( 13-C , 14-N ) :   2.9909
B( 15-C , 16-C ) :   1.0430 B( 15-C , 66-H ) :   0.9501 B( 16-C , 17-C ) :   1.2965
B( 16-C , 24-C ) :   1.3249 B( 17-C , 18-C ) :   1.3705 B( 17-C , 67-H ) :   0.9969
B( 18-C , 19-N ) :   0.8881 B( 18-C , 22-C ) :   1.3305 B( 19-N , 20-O ) :   1.5621
B( 19-N , 21-O ) :   1.5047 B( 20-O , 21-O ) :   0.2614 B( 22-C , 23-C ) :   1.3375
B( 22-C , 25-C ) :   1.0650 B( 23-C , 24-C ) :   1.4180 B( 23-C , 68-H ) :   0.9912
B( 24-C , 69-H ) :   0.9821 B( 25-C , 26-C ) :   1.6631 B( 25-C , 70-H ) :   0.9447
B( 26-C , 27-C ) :   1.1672 B( 26-C , 71-H ) :   0.9456 B( 27-C , 28-N ) :   1.1722
B( 27-C , 34-C ) :   1.3579 B( 28-N , 29-C ) :   0.9355 B( 28-N , 31-C ) :   1.0642
B( 29-C , 30-C ) :   1.1178 B( 29-C , 72-H ) :   0.9500 B( 29-C , 73-H ) :   0.9268
B( 30-C , 74-H ) :   0.9663 B( 30-C , 75-H ) :   0.9687 B( 30-C , 76-H ) :   0.9603
B( 31-C , 32-O ) :   2.0102 B( 31-C , 33-C ) :   0.9931 B( 32-O , 83-H ) :   0.1186
B( 33-C , 34-C ) :   1.2413 B( 33-C , 40-C ) :   1.3346 B( 34-C , 35-C ) :   0.9763
B( 35-C , 36-O ) :   2.1307 B( 35-C , 37-N ) :   1.0327 B( 37-N , 38-C ) :   0.9458
B( 37-N , 40-C ) :   1.1610 B( 38-C , 39-C ) :   1.1201 B( 38-C , 77-H ) :   0.9277
B( 38-C , 78-H ) :   0.9503 B( 39-C , 79-H ) :   0.9637 B( 39-C , 80-H ) :   0.9677
B( 39-C , 81-H ) :   0.9686 B( 40-C , 41-C ) :   1.1627 B( 41-C , 42-C ) :   1.6225
B( 41-C , 82-H ) :   0.9645 B( 42-C , 43-C ) :   1.1166 B( 42-C , 83-H ) :   0.9403
B( 43-C , 44-S ) :   1.1194 B( 43-C , 47-C ) :   1.4391 B( 44-S , 45-C ) :   1.1943
B( 45-C , 46-C ) :   1.3829 B( 45-C , 51-C ) :   1.1542 B( 46-C , 47-C ) :   1.2969
B( 46-C , 48-N ) :   0.9278 B( 47-C , 84-H ) :   0.9943 B( 48-N , 49-O ) :   1.4966
B( 48-N , 50-O ) :   1.5473 B( 49-O , 50-O ) :   0.2566 B( 51-C , 52-C ) :   1.6935
B( 51-C , 85-H ) :   0.9097 B( 52-C , 53-C ) :   1.1497 B( 52-C , 86-H ) :   0.9251
B( 53-C , 54-S ) :   1.1506 B( 53-C , 57-C ) :   1.4747 B( 54-S , 55-C ) :   1.1573
B( 55-C , 56-C ) :   1.4994 B( 55-C , 63-C ) :   1.1127 B( 56-C , 57-C ) :   1.2247
B( 56-C , 61-C ) :   0.8758 B( 57-C , 58-C ) :   0.8837 B( 58-C , 59-O ) :   2.0940
B( 58-C , 60-S ) :   1.0369 B( 59-O , 60-S ) :   0.1020 B( 59-O , 85-H ) :   0.1113
B( 60-S , 61-C ) :   1.0262 B( 60-S , 62-O ) :   0.1018 B( 61-C , 62-O ) :   2.1315
B( 63-C , 64-C ) :   1.9329 B( 63-C , 87-H ) :   0.9444 B( 64-C , 88-H ) :   0.9338
B( 64-C , 89-H ) :   0.9428

-----------------------------------------------------------------------------
         ABSORPTION SPECTRUM VIA TRANSITION ELECTRIC DIPOLE MOMENTS
-----------------------------------------------------------------------------
State   Energy  Wavelength   fosc         T2         TX        TY        TZ
        (cm-1)    (nm)                  (au**2)     (au)      (au)      (au)
-----------------------------------------------------------------------------
   0   14992.3    667.0   1.238321967  27.19201  -3.09217   4.02293   1.20273
   1   19068.6    524.4   0.055966607   0.96624  -0.50332  -0.83583   0.11956
   2   21748.0    459.8   0.276957310   4.19246  -0.78859  -1.43931   1.22433
   3   23679.1    422.3   0.553737162   7.69864   0.14490  -2.75197   0.32298
   4   24435.2    409.2   0.134201796   1.80808   0.44666  -1.26545   0.08491
   5   26210.0    381.5   0.242780655   3.04946  -0.83259   1.53484  -0.02309
   6   26768.8    373.6   0.008981131   0.11045   0.16078   0.26635  -0.11687
   7   28014.9    357.0   0.083507179   0.98132   0.64620  -0.69866  -0.27498
   8   28302.6    353.3   0.012154661   0.14138  -0.19999  -0.30116  -0.10337
   9   28959.6    345.3   0.002204225   0.02506   0.10057  -0.09976   0.07064
  10   29297.9    341.3   0.055294421   0.62133  -0.64765   0.08520   0.44116
  11   29465.5    339.4   0.139955736   1.56370   0.40439  -1.14625  -0.29372
  12   30043.1    332.9   0.115988884   1.27101   0.25401  -1.02837   0.38593
  13   30754.5    325.2   0.383377549   4.10387  -1.38055   1.46247  -0.24315
  14   31239.3    320.1   0.000330071   0.00348  -0.00767   0.04356   0.03901
  15   31460.5    317.9   0.075789099   0.79308   0.16903  -0.87207  -0.06324
  16   32370.2    308.9   0.034014652   0.34594   0.25498  -0.52833  -0.04237
  17   32699.4    305.8   0.000079226   0.00080   0.01656   0.00707   0.02176
  18   32777.8    305.1   0.018345983   0.18426   0.31713   0.28726  -0.03424
  19   33233.4    300.9   0.010712360   0.10612  -0.00731  -0.29372   0.14068
  20   33639.8    297.3   0.032582361   0.31886  -0.43434  -0.22975  -0.27827
  21   34033.3    293.8   0.039310430   0.38026   0.48425  -0.37062  -0.09164
  22   34243.3    292.0   0.002775049   0.02668   0.11140  -0.11853   0.01478
  23   34479.5    290.0   0.035285056   0.33690   0.50923  -0.23768  -0.14525
  24   34503.6    289.8   0.090063418   0.85933  -0.17989   0.20455  -0.88608
  25   35106.8    284.8   0.089751780   0.84164   0.79295  -0.31682  -0.33541
  26   35273.6    283.5   0.101758947   0.94973  -0.61533   0.48457  -0.57990
  27   35424.5    282.3   0.011358659   0.10556  -0.08156   0.29856   0.09883
  28   35892.5    278.6   0.009478988   0.08694   0.14461  -0.25530   0.02926
  29   36840.7    271.4   0.032009475   0.28604   0.21639  -0.26686   0.40988
  30   36998.3    270.3   0.081771400   0.72760   0.20715  -0.39786   0.72554
  31   37235.3    268.6   0.416233703   3.68009   0.92302   0.64384   1.55357
  32   37565.7    266.2   0.283025139   2.48033   0.17490  -1.42377  -0.65009
  33   37997.3    263.2   0.001849802   0.01603   0.07319  -0.07149  -0.07456
  34   38285.8    261.2   0.046496204   0.39981  -0.19101  -0.57043   0.19478
  35   38533.3    259.5   0.024143716   0.20627  -0.22493  -0.39450  -0.00707
  36   38614.0    259.0   0.238747316   2.03549   0.06176   0.12709   1.41969
  37   38642.3    258.8   0.040720003   0.34691  -0.52151  -0.08984  -0.25860
  38   38919.4    256.9   0.038565975   0.32622   0.56362   0.05508  -0.07430
  39   39238.1    254.9   0.001605631   0.01347   0.01941  -0.09174   0.06839
  40   39471.8    253.3   0.043103961   0.35951   0.07796   0.52100  -0.28634
  41   40104.2    249.4   0.035500523   0.29142   0.49810  -0.07193  -0.19531

FINAL SINGLE POINT ENERGY     -4784.090317624165

DIPOLE MOMENT
-------------
                                X             Y             Z
Electronic contribution:    -39.30816      22.58711      -6.05879
Nuclear contribution   :     39.30957     -22.75010       3.63810
                        -----------------------------------------
Total Dipole Moment    :      0.00141      -0.16299      -2.42069
                        -----------------------------------------
Magnitude (a.u.)       :      2.42617
Magnitude (Debye)      :      6.16684

Rotational constants in cm-1:     0.002374     0.000208     0.000204
Rotational constants in MHz :    71.163868     6.249848     6.119675

                             ****ORCA TERMINATED NORMALLY****
TOTAL RUN TIME: 0 days 0 hours 10 minutes 2 seconds 826 msec
