                         Program Version 4.2.0 -  RELEASE  -
|  1> # ORCA input file
|  2> # SCF done       -187.163210946055          0.000820685936
|  3> ! CAM-B3LYP def2-SVP def2/J RIJCOSX Grid4 TightSCF
|  4> %maxcore 5000
|  5> %tddft
|  6>     Mode sTDDFT
|  7>     Ethresh 5.0
|  8>     maxcore 5000
|  9> end
| 10>
| 11> %pal
| 12>   nprocs 6
| 13>   end
| 14> * xyz 0 1
| 15>    C       12.41055        -1.36942         2.47921
| 16>    C       13.04298        -2.46427         2.97943
| 17>    S       14.75710        -2.26208         2.95146
| 18>    C       14.62237        -0.66125         2.26049
| 19>   Cl       15.99475         0.27026         1.91957
| 20>    C       13.31375        -0.33483         2.06627
| 21>    C       12.55276         0.80558         1.54260
| 22>    O       12.95478         1.87174         1.14926
| 23>    C       11.12647         0.33486         1.54864
| 24>    C       11.04731        -0.91804         2.27454
| 25>    C        9.94940        -1.50350         2.84790
| 26>    C       10.04701        -2.72598         3.54420
| 27>    N       10.09643        -3.73659         4.08556
| 28>    C        8.64694        -0.97354         2.85127
| 29>    N        7.56359        -0.59393         2.89184
| 30>    C       10.20780         1.05401         0.85517
| 31>    C        8.89709         0.68592         0.42846
| 32>    C        7.92398         1.68563         0.20977
| 33>    C        6.58571         1.36589        -0.17665
| 34>    N        5.64376         2.33351        -0.18932
| 35>    C        6.00606         3.55509         0.00609
| 36>    C        7.36928         3.89209         0.25698
| 37>    N        8.27126         2.98009         0.39859
| 38>    F        7.73853         5.15834         0.39583
| 39>    F        5.06421         4.49046         0.01727
| 40>    C        6.19157         0.04771        -0.49720
| 41>    C        7.17193        -0.94714        -0.34768
| 42>    C        8.50508        -0.63227         0.11863
| 43>    N        9.28650        -1.71548         0.13483
| 44>    S        8.44394        -2.98144        -0.37450
| 45>    N        7.05415        -2.24172        -0.65364
| 46>    C        4.88608        -0.14210        -1.06218
| 47>    N        4.00180        -1.15010        -0.82196
| 48>    C        4.10245        -2.19716         0.17077
| 49>    C        4.23347        -3.57083        -0.47835
| 50>    C        2.80392        -0.97605        -1.55886
| 51>    O        1.85323        -1.72164        -1.48698
| 52>    C        3.03329         0.23048        -2.32480
| 53>    C        4.31080         0.72614        -1.98893
| 54>    C        4.55366         1.89942        -2.80116
| 55>    O        5.51003         2.63463        -2.91753
| 56>    N        3.35831         2.06611        -3.54177
| 57>    C        3.25711         3.16278        -4.47404
| 58>    C        3.51583         2.71613        -5.91138
| 59>    C        2.45174         1.06946        -3.27519
| 60>    C        1.14471         0.83665        -3.78663
| 61>    C        0.43252         1.53304        -4.70120
| 62>    C       -0.89510         1.18954        -5.12926
| 63>    C       -1.58189         0.00912        -4.79371
| 64>    N       -2.81000        -0.22836        -5.18619
| 65>    C       -3.40582         0.67513        -5.97082
| 66>    N       -2.82458         1.79575        -6.40415
| 67>    C       -1.61440         2.05491        -5.97380
| 68>    C       -4.73451         0.40985        -6.46884
| 69>    C       -5.64025        -0.47937        -6.01176
| 70>    C       -6.78552        -0.87785        -6.90461
| 71>    O       -7.15911        -0.29731        -7.89194
| 72>    C       -7.26857        -2.13497        -6.32565
| 73>    C       -8.18395        -3.09529        -6.64267
| 74>    S       -8.19759        -4.35149        -5.42864
| 75>    C       -6.97476        -3.56088        -4.50175
| 76>    C       -6.57792        -2.40464        -5.09695
| 77>    C       -5.66736        -1.31140        -4.81539
| 78>    C       -5.13542        -1.03424        -3.58953
| 79>    C       -5.29787        -1.92171        -2.50389
| 80>    N       -5.41703        -2.64172        -1.61904
| 81>    C       -4.47788         0.16654        -3.25060
| 82>    N       -4.01000         1.15103        -2.89187
| 83>   Cl       -9.20852        -3.15672        -7.98927
| 84>    H       12.62765        -3.37887         3.35358
| 85>    H       10.52148         2.05013         0.55841
| 86>    H        3.18493        -2.16797         0.76755
| 87>    H        4.95431        -1.98449         0.81666
| 88>    H        3.35563        -3.77523        -1.08493
| 89>    H        4.31020        -4.33083         0.29370
| 90>    H        5.12144        -3.60801        -1.10246
| 91>    H        4.03069         3.87708        -4.17617
| 92>    H        2.28321         3.64586        -4.36732
| 93>    H        4.53141         2.33857        -6.00026
| 94>    H        3.40095         3.56016        -6.58590
| 95>    H        2.82923         1.92766        -6.21197
| 96>    H        0.69629        -0.03898        -3.33493
| 97>    H        0.83204         2.42142        -5.16656
| 98>    H       -1.12769        -0.76852        -4.19406
| 99>    H       -1.18157         2.98886        -6.31300
|100>    H       -4.99561         0.95581        -7.36833
|101>    H       -6.63073        -4.00900        -3.59078
|102> *
|103>
|104>                          ****END OF INPUT****

CARTESIAN COORDINATES (ANGSTROEM)
---------------------------------
  C     12.410550   -1.369420    2.479210
  C     13.042980   -2.464270    2.979430
  S     14.757100   -2.262080    2.951460
  C     14.622370   -0.661250    2.260490
  Cl    15.994750    0.270260    1.919570
  C     13.313750   -0.334830    2.066270
  C     12.552760    0.805580    1.542600
  O     12.954780    1.871740    1.149260
  C     11.126470    0.334860    1.548640
  C     11.047310   -0.918040    2.274540
  C      9.949400   -1.503500    2.847900
  C     10.047010   -2.725980    3.544200
  N     10.096430   -3.736590    4.085560
  C      8.646940   -0.973540    2.851270
  N      7.563590   -0.593930    2.891840
  C     10.207800    1.054010    0.855170
  C      8.897090    0.685920    0.428460
  C      7.923980    1.685630    0.209770
  C      6.585710    1.365890   -0.176650
  N      5.643760    2.333510   -0.189320
  C      6.006060    3.555090    0.006090
  C      7.369280    3.892090    0.256980
  N      8.271260    2.980090    0.398590
  F      7.738530    5.158340    0.395830
  F      5.064210    4.490460    0.017270
  C      6.191570    0.047710   -0.497200
  C      7.171930   -0.947140   -0.347680
  C      8.505080   -0.632270    0.118630
  N      9.286500   -1.715480    0.134830
  S      8.443940   -2.981440   -0.374500
  N      7.054150   -2.241720   -0.653640
  C      4.886080   -0.142100   -1.062180
  N      4.001800   -1.150100   -0.821960
  C      4.102450   -2.197160    0.170770
  C      4.233470   -3.570830   -0.478350
  C      2.803920   -0.976050   -1.558860
  O      1.853230   -1.721640   -1.486980
  C      3.033290    0.230480   -2.324800
  C      4.310800    0.726140   -1.988930
  C      4.553660    1.899420   -2.801160
  O      5.510030    2.634630   -2.917530
  N      3.358310    2.066110   -3.541770
  C      3.257110    3.162780   -4.474040
  C      3.515830    2.716130   -5.911380
  C      2.451740    1.069460   -3.275190
  C      1.144710    0.836650   -3.786630
  C      0.432520    1.533040   -4.701200
  C     -0.895100    1.189540   -5.129260
  C     -1.581890    0.009120   -4.793710
  N     -2.810000   -0.228360   -5.186190
  C     -3.405820    0.675130   -5.970820
  N     -2.824580    1.795750   -6.404150
  C     -1.614400    2.054910   -5.973800
  C     -4.734510    0.409850   -6.468840
  C     -5.640250   -0.479370   -6.011760
  C     -6.785520   -0.877850   -6.904610
  O     -7.159110   -0.297310   -7.891940
  C     -7.268570   -2.134970   -6.325650
  C     -8.183950   -3.095290   -6.642670
  S     -8.197590   -4.351490   -5.428640
  C     -6.974760   -3.560880   -4.501750
  C     -6.577920   -2.404640   -5.096950
  C     -5.667360   -1.311400   -4.815390
  C     -5.135420   -1.034240   -3.589530
  C     -5.297870   -1.921710   -2.503890
  N     -5.417030   -2.641720   -1.619040
  C     -4.477880    0.166540   -3.250600
  N     -4.010000    1.151030   -2.891870
  Cl    -9.208520   -3.156720   -7.989270
  H     12.627650   -3.378870    3.353580
  H     10.521480    2.050130    0.558410
  H      3.184930   -2.167970    0.767550
  H      4.954310   -1.984490    0.816660
  H      3.355630   -3.775230   -1.084930
  H      4.310200   -4.330830    0.293700
  H      5.121440   -3.608010   -1.102460
  H      4.030690    3.877080   -4.176170
  H      2.283210    3.645860   -4.367320
  H      4.531410    2.338570   -6.000260
  H      3.400950    3.560160   -6.585900
  H      2.829230    1.927660   -6.211970
  H      0.696290   -0.038980   -3.334930
  H      0.832040    2.421420   -5.166560
  H     -1.127690   -0.768520   -4.194060
  H     -1.181570    2.988860   -6.313000
  H     -4.995610    0.955810   -7.368330
  H     -6.630730   -4.009000   -3.590780

 Total Charge           Charge          ....    0
 Multiplicity           Mult            ....    1
 Number of Electrons    NEL             ....  510
 Basis Dimension        Dim             .... 1076

ORBITAL ENERGIES
----------------

  NO   OCC          E(Eh)            E(eV)
   0   2.0000    -101.617950     -2765.1650
   1   2.0000    -101.617115     -2765.1423
   2   2.0000     -89.051615     -2423.2176
   3   2.0000     -88.993880     -2421.6466
   4   2.0000     -88.992901     -2421.6200
   5   2.0000     -24.818593      -675.3482
   6   2.0000     -24.814269      -675.2306
   7   2.0000     -19.222335      -523.0663
   8   2.0000     -19.219690      -522.9944
   9   2.0000     -19.203357      -522.5499
  10   2.0000     -19.199533      -522.4459
  11   2.0000     -14.464460      -393.5980
  12   2.0000     -14.462174      -393.5358
  13   2.0000     -14.460816      -393.4988
  14   2.0000     -14.456613      -393.3844
  15   2.0000     -14.456430      -393.3795
  16   2.0000     -14.452392      -393.2696
  17   2.0000     -14.431719      -392.7070
  18   2.0000     -14.428954      -392.6318
  19   2.0000     -14.425532      -392.5387
  20   2.0000     -14.422431      -392.4543
  21   2.0000     -14.421054      -392.4168
  22   2.0000     -14.417194      -392.3118
  23   2.0000     -10.436352      -283.9876
  24   2.0000     -10.430242      -283.8213
  25   2.0000     -10.384869      -282.5867
  26   2.0000     -10.382049      -282.5099
  27   2.0000     -10.378227      -282.4059
  28   2.0000     -10.377162      -282.3769
  29   2.0000     -10.375894      -282.3424
  30   2.0000     -10.375428      -282.3298
  31   2.0000     -10.361804      -281.9590
  32   2.0000     -10.356123      -281.8044
  33   2.0000     -10.354631      -281.7638
  34   2.0000     -10.353691      -281.7383
  35   2.0000     -10.352371      -281.7023
  36   2.0000     -10.351009      -281.6653
  37   2.0000     -10.349498      -281.6241
  38   2.0000     -10.348524      -281.5977
  39   2.0000     -10.348273      -281.5908
  40   2.0000     -10.347696      -281.5751
  41   2.0000     -10.346872      -281.5527
  42   2.0000     -10.339003      -281.3386
  43   2.0000     -10.337913      -281.3089
  44   2.0000     -10.330439      -281.1055
  45   2.0000     -10.328905      -281.0638
  46   2.0000     -10.328611      -281.0558
  47   2.0000     -10.328054      -281.0406
  48   2.0000     -10.324730      -280.9502
  49   2.0000     -10.322171      -280.8805
  50   2.0000     -10.321081      -280.8509
  51   2.0000     -10.320505      -280.8352
  52   2.0000     -10.319632      -280.8115
  53   2.0000     -10.316840      -280.7355
  54   2.0000     -10.314318      -280.6669
  55   2.0000     -10.313484      -280.6442
  56   2.0000     -10.313415      -280.6423
  57   2.0000     -10.312793      -280.6254
  58   2.0000     -10.312686      -280.6225
  59   2.0000     -10.311468      -280.5893
  60   2.0000     -10.307745      -280.4880
  61   2.0000     -10.307349      -280.4772
  62   2.0000     -10.304973      -280.4126
  63   2.0000     -10.301308      -280.3129
  64   2.0000     -10.299907      -280.2747
  65   2.0000     -10.274569      -279.5852
  66   2.0000     -10.272474      -279.5282
  67   2.0000     -10.271662      -279.5061
  68   2.0000     -10.247274      -278.8425
  69   2.0000      -9.572739      -260.4875
  70   2.0000      -9.571905      -260.4648
  71   2.0000      -8.142715      -221.5745
  72   2.0000      -8.089561      -220.1281
  73   2.0000      -8.088648      -220.1033
  74   2.0000      -7.343361      -199.8230
  75   2.0000      -7.342554      -199.8011
  76   2.0000      -7.332784      -199.5352
  77   2.0000      -7.332242      -199.5204
  78   2.0000      -7.331928      -199.5119
  79   2.0000      -7.331401      -199.4976
  80   2.0000      -6.113685      -166.3618
  81   2.0000      -6.105972      -166.1519
  82   2.0000      -6.105657      -166.1434
  83   2.0000      -6.058922      -164.8717
  84   2.0000      -6.058016      -164.8470
  85   2.0000      -6.054326      -164.7466
  86   2.0000      -6.053461      -164.7230
  87   2.0000      -6.051859      -164.6795
  88   2.0000      -6.050873      -164.6526
  89   2.0000      -1.346012       -36.6269
  90   2.0000      -1.331096       -36.2210
  91   2.0000      -1.148910       -31.2634
  92   2.0000      -1.143986       -31.1294
  93   2.0000      -1.139696       -31.0127
  94   2.0000      -1.137023       -30.9400
  95   2.0000      -1.136447       -30.9243
  96   2.0000      -1.116576       -30.3836
  97   2.0000      -1.103229       -30.0204
  98   2.0000      -1.074071       -29.2270
  99   2.0000      -1.065263       -28.9873
 100   2.0000      -1.040798       -28.3215
 101   2.0000      -1.038462       -28.2580
 102   2.0000      -1.037970       -28.2446
 103   2.0000      -1.021700       -27.8019
 104   2.0000      -1.016968       -27.6731
 105   2.0000      -1.004378       -27.3305
 106   2.0000      -1.000548       -27.2263
 107   2.0000      -1.000485       -27.2246
 108   2.0000      -0.994145       -27.0521
 109   2.0000      -0.988684       -26.9035
 110   2.0000      -0.988431       -26.8966
 111   2.0000      -0.981146       -26.6983
 112   2.0000      -0.956242       -26.0207
 113   2.0000      -0.953201       -25.9379
 114   2.0000      -0.944922       -25.7126
 115   2.0000      -0.936673       -25.4882
 116   2.0000      -0.917457       -24.9653
 117   2.0000      -0.909966       -24.7614
 118   2.0000      -0.904266       -24.6063
 119   2.0000      -0.898769       -24.4567
 120   2.0000      -0.889884       -24.2150
 121   2.0000      -0.880767       -23.9669
 122   2.0000      -0.865414       -23.5491
 123   2.0000      -0.864466       -23.5233
 124   2.0000      -0.832990       -22.6668
 125   2.0000      -0.832791       -22.6614
 126   2.0000      -0.826359       -22.4864
 127   2.0000      -0.822429       -22.3794
 128   2.0000      -0.818070       -22.2608
 129   2.0000      -0.807889       -21.9838
 130   2.0000      -0.786463       -21.4008
 131   2.0000      -0.779924       -21.2228
 132   2.0000      -0.768859       -20.9217
 133   2.0000      -0.766530       -20.8583
 134   2.0000      -0.762728       -20.7549
 135   2.0000      -0.758226       -20.6324
 136   2.0000      -0.753245       -20.4968
 137   2.0000      -0.749361       -20.3912
 138   2.0000      -0.738770       -20.1030
 139   2.0000      -0.716013       -19.4837
 140   2.0000      -0.709776       -19.3140
 141   2.0000      -0.698424       -19.0051
 142   2.0000      -0.695939       -18.9375
 143   2.0000      -0.693431       -18.8692
 144   2.0000      -0.691505       -18.8168
 145   2.0000      -0.686405       -18.6780
 146   2.0000      -0.676419       -18.4063
 147   2.0000      -0.676021       -18.3955
 148   2.0000      -0.675895       -18.3921
 149   2.0000      -0.667967       -18.1763
 150   2.0000      -0.664904       -18.0930
 151   2.0000      -0.657105       -17.8807
 152   2.0000      -0.647004       -17.6059
 153   2.0000      -0.641495       -17.4560
 154   2.0000      -0.632745       -17.2179
 155   2.0000      -0.623511       -16.9666
 156   2.0000      -0.621600       -16.9146
 157   2.0000      -0.619136       -16.8475
 158   2.0000      -0.616503       -16.7759
 159   2.0000      -0.611231       -16.6324
 160   2.0000      -0.609538       -16.5864
 161   2.0000      -0.600901       -16.3514
 162   2.0000      -0.593569       -16.1518
 163   2.0000      -0.589381       -16.0379
 164   2.0000      -0.584973       -15.9179
 165   2.0000      -0.577554       -15.7160
 166   2.0000      -0.576240       -15.6803
 167   2.0000      -0.572024       -15.5656
 168   2.0000      -0.568681       -15.4746
 169   2.0000      -0.566497       -15.4152
 170   2.0000      -0.561735       -15.2856
 171   2.0000      -0.559079       -15.2133
 172   2.0000      -0.552914       -15.0456
 173   2.0000      -0.550229       -14.9725
 174   2.0000      -0.549274       -14.9465
 175   2.0000      -0.547343       -14.8940
 176   2.0000      -0.543687       -14.7945
 177   2.0000      -0.538983       -14.6665
 178   2.0000      -0.538109       -14.6427
 179   2.0000      -0.533236       -14.5101
 180   2.0000      -0.531263       -14.4564
 181   2.0000      -0.528607       -14.3841
 182   2.0000      -0.526353       -14.3228
 183   2.0000      -0.524339       -14.2680
 184   2.0000      -0.523502       -14.2452
 185   2.0000      -0.520481       -14.1630
 186   2.0000      -0.518869       -14.1192
 187   2.0000      -0.516531       -14.0555
 188   2.0000      -0.515927       -14.0391
 189   2.0000      -0.511658       -13.9229
 190   2.0000      -0.511092       -13.9075
 191   2.0000      -0.507323       -13.8050
 192   2.0000      -0.503648       -13.7050
 193   2.0000      -0.501787       -13.6543
 194   2.0000      -0.498717       -13.5708
 195   2.0000      -0.498055       -13.5528
 196   2.0000      -0.494253       -13.4493
 197   2.0000      -0.488398       -13.2900
 198   2.0000      -0.487774       -13.2730
 199   2.0000      -0.487172       -13.2566
 200   2.0000      -0.484934       -13.1957
 201   2.0000      -0.481161       -13.0930
 202   2.0000      -0.479576       -13.0499
 203   2.0000      -0.470796       -12.8110
 204   2.0000      -0.467523       -12.7219
 205   2.0000      -0.463954       -12.6248
 206   2.0000      -0.461730       -12.5643
 207   2.0000      -0.459680       -12.5085
 208   2.0000      -0.457038       -12.4366
 209   2.0000      -0.456158       -12.4127
 210   2.0000      -0.454687       -12.3727
 211   2.0000      -0.452252       -12.3064
 212   2.0000      -0.450645       -12.2627
 213   2.0000      -0.449295       -12.2259
 214   2.0000      -0.446386       -12.1468
 215   2.0000      -0.444484       -12.0950
 216   2.0000      -0.444029       -12.0827
 217   2.0000      -0.442882       -12.0514
 218   2.0000      -0.437211       -11.8971
 219   2.0000      -0.436905       -11.8888
 220   2.0000      -0.434918       -11.8347
 221   2.0000      -0.433626       -11.7996
 222   2.0000      -0.431177       -11.7329
 223   2.0000      -0.429526       -11.6880
 224   2.0000      -0.426017       -11.5925
 225   2.0000      -0.424054       -11.5391
 226   2.0000      -0.418365       -11.3843
 227   2.0000      -0.416659       -11.3379
 228   2.0000      -0.415075       -11.2948
 229   2.0000      -0.411679       -11.2024
 230   2.0000      -0.408472       -11.1151
 231   2.0000      -0.406848       -11.0709
 232   2.0000      -0.403982       -10.9929
 233   2.0000      -0.403399       -10.9770
 234   2.0000      -0.400234       -10.8909
 235   2.0000      -0.397239       -10.8094
 236   2.0000      -0.393103       -10.6969
 237   2.0000      -0.384052       -10.4506
 238   2.0000      -0.377724       -10.2784
 239   2.0000      -0.363889        -9.9019
 240   2.0000      -0.362246        -9.8572
 241   2.0000      -0.356749        -9.7076
 242   2.0000      -0.346286        -9.4229
 243   2.0000      -0.344025        -9.3614
 244   2.0000      -0.343197        -9.3389
 245   2.0000      -0.340007        -9.2521
 246   2.0000      -0.338738        -9.2175
 247   2.0000      -0.333872        -9.0851
 248   2.0000      -0.331962        -9.0332
 249   2.0000      -0.323424        -8.8008
 250   2.0000      -0.320717        -8.7271
 251   2.0000      -0.311294        -8.4708
 252   2.0000      -0.306162        -8.3311
 253   2.0000      -0.301797        -8.2123
 254   2.0000      -0.249208        -6.7813
 255   0.0000      -0.131425        -3.5762
 256   0.0000      -0.102180        -2.7805
 257   0.0000      -0.076972        -2.0945
 258   0.0000      -0.071064        -1.9337
 259   0.0000      -0.048490        -1.3195

MULLIKEN ATOMIC CHARGES
-----------------------
   0 C :    0.009780
   1 C :   -0.131567
   2 S :    0.182667
   3 C :   -0.172031
   4 Cl:   -0.000368
   5 C :    0.097547
   6 C :    0.123907
   7 O :   -0.121948
   8 C :   -0.115893
   9 C :    0.336849
  10 C :   -0.328520
  11 C :   -0.204049
  12 N :    0.156516
  13 C :   -0.190323
  14 N :    0.159961
  15 C :   -0.049140
  16 C :    0.117974
  17 C :   -0.050473
  18 C :   -0.046611
  19 N :    0.033000
  20 C :    0.152807
  21 C :    0.149968
  22 N :    0.017368
  23 F :   -0.129948
  24 F :   -0.135854
  25 C :    0.049669
  26 C :    0.078501
  27 C :   -0.073422
  28 N :   -0.282876
  29 S :    0.555774
  30 N :   -0.270000
  31 C :    0.030402
  32 N :   -0.247528
  33 C :    0.131173
  34 C :   -0.006675
  35 C :    0.165661
  36 O :   -0.183963
  37 C :   -0.069194
  38 C :    0.004493
  39 C :    0.140264
  40 O :   -0.200028
  41 N :   -0.269825
  42 C :    0.099334
  43 C :    0.001075
  44 C :    0.126650
  45 C :   -0.014253
  46 C :    0.018520
  47 C :    0.032970
  48 C :    0.055870
  49 N :   -0.077072
  50 C :   -0.076193
  51 N :   -0.035981
  52 C :    0.032885
  53 C :    0.084604
  54 C :   -0.102324
  55 C :    0.133846
  56 O :   -0.118717
  57 C :    0.084118
  58 C :   -0.170946
  59 S :    0.186523
  60 C :   -0.125355
  61 C :    0.019999
  62 C :    0.281098
  63 C :   -0.284515
  64 C :   -0.193981
  65 N :    0.157973
  66 C :   -0.179397
  67 N :    0.161742
  68 Cl:    0.001416
  69 H :    0.051713
  70 H :    0.043019
  71 H :    0.030151
  72 H :    0.031409
  73 H :    0.033670
  74 H :    0.013267
  75 H :    0.017160
  76 H :    0.044655
  77 H :    0.027514
  78 H :    0.029368
  79 H :    0.025269
  80 H :    0.020348
  81 H :    0.013883
  82 H :   -0.014993
  83 H :    0.025580
  84 H :    0.009066
  85 H :    0.031186
  86 H :    0.053804
Sum of atomic charges:   -0.0000000

LOEWDIN ATOMIC CHARGES
----------------------
   0 C :   -0.054368
   1 C :   -0.153760
   2 S :    0.472324
   3 C :   -0.272179
   4 Cl:    0.192184
   5 C :   -0.117750
   6 C :    0.081673
   7 O :   -0.125820
   8 C :   -0.070961
   9 C :    0.078376
  10 C :   -0.137673
  11 C :   -0.017922
  12 N :   -0.054474
  13 C :   -0.015006
  14 N :   -0.060125
  15 C :    0.076214
  16 C :   -0.039212
  17 C :    0.019662
  18 C :    0.011895
  19 N :   -0.019466
  20 C :    0.063953
  21 C :    0.074948
  22 N :   -0.042927
  23 F :   -0.018624
  24 F :   -0.023295
  25 C :   -0.019015
  26 C :   -0.037087
  27 C :   -0.039770
  28 N :   -0.284623
  29 S :    0.685167
  30 N :   -0.267153
  31 C :    0.087273
  32 N :    0.011701
  33 C :    0.043496
  34 C :   -0.065718
  35 C :    0.084584
  36 O :   -0.183560
  37 C :   -0.110663
  38 C :   -0.102247
  39 C :    0.086675
  40 O :   -0.195043
  41 N :   -0.002265
  42 C :    0.035138
  43 C :   -0.063390
  44 C :    0.078260
  45 C :   -0.016411
  46 C :   -0.001525
  47 C :   -0.057965
  48 C :    0.071810
  49 N :   -0.059024
  50 C :    0.018017
  51 N :   -0.061482
  52 C :    0.055865
  53 C :    0.057202
  54 C :   -0.052900
  55 C :    0.082170
  56 O :   -0.123179
  57 C :   -0.119797
  58 C :   -0.272340
  59 S :    0.476786
  60 C :   -0.153019
  61 C :   -0.054614
  62 C :    0.069706
  63 C :   -0.112014
  64 C :   -0.015067
  65 N :   -0.045612
  66 C :   -0.017427
  67 N :   -0.050892
  68 Cl:    0.193321
  69 H :    0.036765
  70 H :    0.053224
  71 H :    0.032966
  72 H :    0.028046
  73 H :    0.027584
  74 H :    0.027199
  75 H :    0.015359
  76 H :    0.038626
  77 H :    0.022241
  78 H :    0.033696
  79 H :    0.031705
  80 H :    0.021311
  81 H :    0.047151
  82 H :    0.031389
  83 H :    0.032334
  84 H :    0.027622
  85 H :    0.053843
  86 H :    0.037905

  Mayer bond orders larger than 0.100000
B(  0-C ,  1-C ) :   1.5509 B(  0-C ,  5-C ) :   1.2202 B(  0-C ,  9-C ) :   1.0172
B(  1-C ,  2-S ) :   1.1565 B(  1-C , 69-H ) :   0.9548 B(  2-S ,  3-C ) :   1.1497
B(  3-C ,  4-Cl) :   1.1288 B(  3-C ,  5-C ) :   1.4834 B(  5-C ,  6-C ) :   0.9237
B(  6-C ,  7-O ) :   2.2830 B(  6-C ,  8-C ) :   0.9334 B(  8-C ,  9-C ) :   1.0355
B(  8-C , 15-C ) :   1.6659 B(  9-C , 10-C ) :   1.6443 B( 10-C , 11-C ) :   1.1434
B( 10-C , 13-C ) :   1.1716 B( 11-C , 12-N ) :   2.9982 B( 13-C , 14-N ) :   2.9810
B( 15-C , 16-C ) :   1.1006 B( 15-C , 70-H ) :   0.9366 B( 16-C , 17-C ) :   1.3043
B( 16-C , 25-C ) :   0.1402 B( 16-C , 27-C ) :   1.1809 B( 17-C , 18-C ) :   1.1166
B( 17-C , 22-N ) :   1.4486 B( 18-C , 19-N ) :   1.4267 B( 18-C , 25-C ) :   1.3475
B( 19-N , 20-C ) :   1.6750 B( 20-C , 21-C ) :   1.0820 B( 20-C , 24-F ) :   1.1817
B( 21-C , 22-N ) :   1.6925 B( 21-C , 23-F ) :   1.1885 B( 25-C , 26-C ) :   1.2377
B( 25-C , 31-C ) :   1.0109 B( 26-C , 27-C ) :   1.0998 B( 26-C , 30-N ) :   1.5071
B( 27-C , 28-N ) :   1.5160 B( 28-N , 29-S ) :   1.2719 B( 28-N , 30-N ) :   0.1466
B( 29-S , 30-N ) :   1.2866 B( 31-C , 32-N ) :   1.2644 B( 31-C , 38-C ) :   1.3910
B( 32-N , 33-C ) :   0.9292 B( 32-N , 35-C ) :   1.0156 B( 33-C , 34-C ) :   1.1094
B( 33-C , 71-H ) :   0.9406 B( 33-C , 72-H ) :   0.9488 B( 34-C , 73-H ) :   0.9640
B( 34-C , 74-H ) :   0.9652 B( 34-C , 75-H ) :   0.9600 B( 35-C , 36-O ) :   2.1214
B( 35-C , 37-C ) :   0.9793 B( 37-C , 38-C ) :   1.2454 B( 37-C , 44-C ) :   1.3426
B( 38-C , 39-C ) :   0.9578 B( 39-C , 40-O ) :   2.1089 B( 39-C , 41-N ) :   1.0373
B( 41-N , 42-C ) :   0.9436 B( 41-N , 44-C ) :   1.1743 B( 42-C , 43-C ) :   1.1155
B( 42-C , 76-H ) :   0.9235 B( 42-C , 77-H ) :   0.9512 B( 43-C , 78-H ) :   0.9610
B( 43-C , 79-H ) :   0.9684 B( 43-C , 80-H ) :   0.9684 B( 44-C , 45-C ) :   1.1772
B( 45-C , 46-C ) :   1.6035 B( 45-C , 81-H ) :   0.9431 B( 46-C , 47-C ) :   1.0807
B( 46-C , 82-H ) :   0.9837 B( 47-C , 48-C ) :   1.2949 B( 47-C , 52-C ) :   1.2942
B( 48-C , 49-N ) :   1.5691 B( 48-C , 83-H ) :   0.9818 B( 49-N , 50-C ) :   1.4618
B( 50-C , 51-N ) :   1.5115 B( 50-C , 53-C ) :   1.0185 B( 51-N , 52-C ) :   1.5775
B( 52-C , 84-H ) :   0.9872 B( 53-C , 54-C ) :   1.7094 B( 53-C , 85-H ) :   0.9495
B( 54-C , 55-C ) :   0.9219 B( 54-C , 62-C ) :   1.0083 B( 55-C , 56-O ) :   2.2911
B( 55-C , 57-C ) :   0.9255 B( 57-C , 58-C ) :   1.4788 B( 57-C , 61-C ) :   1.2217
B( 58-C , 59-S ) :   1.1574 B( 58-C , 68-Cl) :   1.1299 B( 59-S , 60-C ) :   1.1562
B( 60-C , 61-C ) :   1.5534 B( 60-C , 86-H ) :   0.9555 B( 61-C , 62-C ) :   1.0104
B( 62-C , 63-C ) :   1.7099 B( 63-C , 64-C ) :   1.1363 B( 63-C , 66-C ) :   1.1525
B( 64-C , 65-N ) :   2.9998 B( 66-C , 67-N ) :   2.9794

-----------------------------------------------------------------------------
         ABSORPTION SPECTRUM VIA TRANSITION ELECTRIC DIPOLE MOMENTS
-----------------------------------------------------------------------------
State   Energy  Wavelength   fosc         T2         TX        TY        TZ
        (cm-1)    (nm)                  (au**2)     (au)      (au)      (au)
-----------------------------------------------------------------------------
   0    9953.7   1004.6   0.522439796  17.27928  -3.49453   0.49362  -2.19634
   1   18361.9    544.6   0.344091857   6.16925   2.21602  -0.19443   1.10485
   2   20000.4    500.0   0.110073460   1.81184   0.98700  -0.35324   0.84433
   3   22139.3    451.7   0.183980080   2.73579  -1.42369   0.23929  -0.80725
   4   22720.1    440.1   0.001719052   0.02491  -0.03687   0.11811  -0.09797
   5   23530.9    425.0   0.036700935   0.51347  -0.55895  -0.44712   0.03347
   6   24013.1    416.4   0.132655259   1.81866  -0.28825  -0.90014   0.96194
   7   25088.6    398.6   0.038556386   0.50594   0.68871   0.05103  -0.17033
   8   25688.8    389.3   0.008572279   0.10986   0.20900  -0.04884   0.25256
   9   26400.0    378.8   0.003449839   0.04302   0.08080   0.16042  -0.10371
  10   26764.6    373.6   0.172545346   2.12236  -1.34396  -0.56009   0.04922
  11   27889.7    358.6   0.180665596   2.13259   0.81287   1.03341   0.63553
  12   28141.7    355.3   0.052617434   0.61554  -0.68050   0.30955  -0.23799
  13   28481.4    351.1   0.248731845   2.87505  -0.99095   1.37586  -0.00929
  14   28755.8    347.8   0.014935195   0.17099  -0.40279  -0.01348  -0.09253
  15   29199.0    342.5   0.007573147   0.08539   0.28386  -0.05682   0.03976
  16   29640.6    337.4   0.025661697   0.28502   0.00287   0.41022   0.34165
  17   30104.9    332.2   0.059387901   0.64943   0.72811   0.30124   0.16895
  18   30492.0    328.0   0.034142171   0.36862   0.30444   0.40854  -0.33020
  19   30689.5    325.8   0.031586663   0.33884  -0.48255   0.32420  -0.02963
  20   30867.7    324.0   0.032676160   0.34850   0.02032   0.34139  -0.48118
  21   31048.4    322.1   0.064759936   0.68666  -0.40837  -0.71237   0.11145
  22   31523.9    317.2   0.006537073   0.06827   0.22019  -0.07896  -0.11639
  23   31941.9    313.1   0.045883025   0.47290  -0.40371   0.00289  -0.55669
  24   32150.2    311.0   0.013508305   0.13832  -0.14821  -0.09835   0.32662
  25   32168.8    310.9   0.153493307   1.57084   1.12443   0.52974   0.16087
  26   33227.1    301.0   0.244331046   2.42082  -1.20603  -0.97906  -0.08799
  27   33346.4    299.9   0.067389388   0.66530   0.80955  -0.08923   0.04434
  28   33612.1    297.5   0.158070315   1.54821  -1.18165   0.30754  -0.23944
  29   34376.1    290.9   0.092848236   0.88919  -0.83951  -0.12675   0.41030
  30   34460.8    290.2   0.036394132   0.34768   0.27622   0.25665  -0.45334
  31   34701.5    288.2   0.018115629   0.17186  -0.12201  -0.06089   0.39150
  32   35184.8    284.2   0.059495927   0.55668  -0.73437  -0.10617  -0.07814
  33   35635.4    280.6   0.158444089   1.46376  -0.57804  -0.75647  -0.74658
  34   36038.8    277.5   0.243932784   2.22831  -1.28720   0.11083  -0.74775
  35   36253.7    275.8   0.021908085   0.19894  -0.36854   0.24938  -0.03047
  36   36282.8    275.6   0.039344676   0.35699  -0.42449   0.12124  -0.40262
  37   36368.1    275.0   0.226203194   2.04764   0.93451   1.02866   0.34084
  38   36864.2    271.3   0.002539832   0.02268   0.04210   0.14319   0.02016
  39   36919.1    270.9   0.095340389   0.85016  -0.79382  -0.28206  -0.37477
  40   37189.3    268.9   0.103212088   0.91367  -0.92724  -0.14437  -0.18177
  41   37577.6    266.1   0.017643247   0.15457  -0.15663  -0.32710  -0.15179
  42   37808.1    264.5   0.010276371   0.08948  -0.27114  -0.09757  -0.08027
  43   38057.0    262.8   0.016272654   0.14077   0.36879   0.00114  -0.06901
  44   38413.0    260.3   0.078464108   0.67246  -0.31472  -0.72370  -0.22286
  45   38560.6    259.3   0.064293523   0.54891  -0.71527  -0.11083  -0.15813
  46   38822.6    257.6   0.331596771   2.81191  -1.61831  -0.35263   0.26199
  47   39028.5    256.2   0.283349939   2.39010   0.78184   0.76841   1.09013
  48   39039.4    256.2   0.109094545   0.91997  -0.93666   0.20647   0.00442
  49   39182.1    255.2   0.040757486   0.34245  -0.26796   0.26995   0.44471
  50   39524.5    253.0   0.141673976   1.18005   0.43904  -0.82152   0.55893
  51   39543.7    252.9   0.029428370   0.24500  -0.46604  -0.14173  -0.08788
  52   39720.6    251.8   0.010531296   0.08729   0.18770  -0.22702  -0.02276
  53   39883.6    250.7   0.054263891   0.44791  -0.12764  -0.60645   0.25266
  54   40085.9    249.5   0.011328484   0.09304  -0.01454   0.30412  -0.01834
  55   40294.3    248.2   0.015228744   0.12442   0.28861  -0.18404   0.08518

FINAL SINGLE POINT ENERGY     -5031.942237815019

DIPOLE MOMENT
-------------
                                X             Y             Z
Electronic contribution:     20.67045       0.36426      19.48488
Nuclear contribution   :    -19.39515      -1.49341     -21.33700
                        -----------------------------------------
Total Dipole Moment    :      1.27530      -1.12915      -1.85213
                        -----------------------------------------
Magnitude (a.u.)       :      2.51630
Magnitude (Debye)      :      6.39592

Rotational constants in cm-1:     0.002516     0.000260     0.000245
Rotational constants in MHz :    75.419778     7.789148     7.347167

                             ****ORCA TERMINATED NORMALLY****
TOTAL RUN TIME: 0 days 0 hours 11 minutes 29 seconds 590 msec
