                         Program Version 4.2.0 -  RELEASE  -
|  1> # ORCA input file
|  2> # SCF done       -173.644658210740          0.000625910080
|  3> ! CAM-B3LYP def2-SVP def2/J RIJCOSX Grid4 TightSCF
|  4> %maxcore 5000
|  5> %tddft
|  6>     Mode sTDDFT
|  7>     Ethresh 5.0
|  8>     maxcore 5000
|  9> end
| 10>
| 11> %pal
| 12>   nprocs 6
| 13>   end
| 14> * xyz 0 1
| 15>    C       -0.23718         0.30413         1.31913
| 16>    C       -1.43227         0.82708         1.70254
| 17>    S       -1.59287         0.82445         3.42196
| 18>    C       -0.01468         0.10226         3.63196
| 19>   Cl        0.59975        -0.24322         5.17260
| 20>    C        0.57556        -0.11159         2.42289
| 21>    C        1.83710        -0.66071         1.92160
| 22>    O        2.76103        -1.10569         2.57670
| 23>    C        1.75123        -0.55723         0.45158
| 24>    C        0.47590         0.03540         0.08403
| 25>    C       -0.01796         0.30802        -1.16534
| 26>    C       -1.29254         0.88840        -1.33583
| 27>    N       -2.32699         1.35890        -1.49397
| 28>    C        0.63076         0.06346        -2.39120
| 29>    N        1.10066        -0.10880        -3.42507
| 30>    C        2.71876        -0.95423        -0.43547
| 31>    C        3.97021        -1.55041        -0.21410
| 32>    C        4.83044        -1.90240        -1.26155
| 33>    C        6.00181        -2.49676        -0.85112
| 34>    C        6.08621        -2.62215         0.53796
| 35>    S        4.67480        -1.97514         1.31656
| 36>    C        7.17973        -3.22817         1.20664
| 37>    N        7.34488        -3.36171         2.56575
| 38>    C        6.46297        -2.94345         3.63007
| 39>    C        5.37074        -3.97329         3.90215
| 40>    C        8.52935        -4.04973         2.88486
| 41>    O        8.88512        -4.27738         4.02444
| 42>    C        9.13146        -4.34850         1.60791
| 43>    C        8.28991        -3.81963         0.59606
| 44>    C        8.89728        -4.12301        -0.68103
| 45>    O        8.57168        -3.87893        -1.82653
| 46>    N       10.06340        -4.83680        -0.35282
| 47>    C       10.98305        -5.26859        -1.37708
| 48>    C       12.20945        -4.36283        -1.45662
| 49>    C       10.21428        -4.98291         1.00564
| 50>    C       11.27071        -5.72198         1.60495
| 51>    C       11.41808        -5.82292         2.94546
| 52>    C       12.41612        -6.60946         3.62523
| 53>    C       12.57597        -6.44898         5.00381
| 54>    C       13.49571        -7.20625         5.70880
| 55>    N       13.56734        -7.00405         7.13344
| 56>    O       13.13878        -5.95942         7.57134
| 57>    O       14.04533        -7.89009         7.81439
| 58>    C       14.29367        -8.17430         5.07331
| 59>    C       14.12426        -8.32615         3.69157
| 60>    C       13.22086        -7.56658         2.98661
| 61>    C       15.28713        -8.96774         5.76559
| 62>    C       15.49326       -10.27356         5.50700
| 63>    C       16.41789       -11.10660         6.20727
| 64>    C       17.59609       -10.80361         6.80703
| 65>    C       18.16113       -11.78829         7.78966
| 66>    O       17.79644       -12.92719         7.94806
| 67>    C       19.19674       -11.03725         8.50596
| 68>    C       20.03613       -11.24202         9.55998
| 69>    S       21.02108        -9.82522         9.84135
| 70>    C       20.29696        -8.98003         8.52304
| 71>    C       19.34885        -9.74065         7.91290
| 72>    C       18.45185        -9.62905         6.77788
| 73>    C       18.58158        -8.69271         5.78687
| 74>    C       19.53189        -7.65340         5.87568
| 75>    N       20.29204        -6.79636         5.93432
| 76>    C       17.86704        -8.69143         4.57561
| 77>    N       17.33430        -8.65281         3.55938
| 78>   Cl       20.18461       -12.62518        10.52530
| 79>    H       -2.23146         1.21428         1.10240
| 80>    H        2.50495        -0.80027        -1.48675
| 81>    H        4.57520        -1.72019        -2.29058
| 82>    H        6.77447        -2.83815        -1.51711
| 83>    H        6.02959        -1.96990         3.39440
| 84>    H        7.09440        -2.84569         4.51844
| 85>    H        4.76351        -4.14334         3.01680
| 86>    H        4.72502        -3.61403         4.69742
| 87>    H        5.81787        -4.91574         4.20947
| 88>    H       10.42850        -5.21984        -2.31837
| 89>    H       11.27543        -6.30702        -1.19628
| 90>    H       11.90347        -3.34447        -1.68292
| 91>    H       12.87227        -4.70892        -2.24475
| 92>    H       12.75514        -4.35845        -0.51544
| 93>    H       11.95971        -6.21695         0.93623
| 94>    H       10.73655        -5.27749         3.58494
| 95>    H       11.97057        -5.73300         5.54078
| 96>    H       14.75573        -9.03094         3.17422
| 97>    H       13.12507        -7.72653         1.92442
| 98>    H       15.83980        -8.49074         6.56363
| 99>    H       14.83793       -10.78332         4.81278
|100>    H       16.10785       -12.13999         6.33800
|101>    H       20.61445        -7.98058         8.30075
|102> *
|103>
|104>                          ****END OF INPUT****

CARTESIAN COORDINATES (ANGSTROEM)
---------------------------------
  C     -0.237180    0.304130    1.319130
  C     -1.432270    0.827080    1.702540
  S     -1.592870    0.824450    3.421960
  C     -0.014680    0.102260    3.631960
  Cl     0.599750   -0.243220    5.172600
  C      0.575560   -0.111590    2.422890
  C      1.837100   -0.660710    1.921600
  O      2.761030   -1.105690    2.576700
  C      1.751230   -0.557230    0.451580
  C      0.475900    0.035400    0.084030
  C     -0.017960    0.308020   -1.165340
  C     -1.292540    0.888400   -1.335830
  N     -2.326990    1.358900   -1.493970
  C      0.630760    0.063460   -2.391200
  N      1.100660   -0.108800   -3.425070
  C      2.718760   -0.954230   -0.435470
  C      3.970210   -1.550410   -0.214100
  C      4.830440   -1.902400   -1.261550
  C      6.001810   -2.496760   -0.851120
  C      6.086210   -2.622150    0.537960
  S      4.674800   -1.975140    1.316560
  C      7.179730   -3.228170    1.206640
  N      7.344880   -3.361710    2.565750
  C      6.462970   -2.943450    3.630070
  C      5.370740   -3.973290    3.902150
  C      8.529350   -4.049730    2.884860
  O      8.885120   -4.277380    4.024440
  C      9.131460   -4.348500    1.607910
  C      8.289910   -3.819630    0.596060
  C      8.897280   -4.123010   -0.681030
  O      8.571680   -3.878930   -1.826530
  N     10.063400   -4.836800   -0.352820
  C     10.983050   -5.268590   -1.377080
  C     12.209450   -4.362830   -1.456620
  C     10.214280   -4.982910    1.005640
  C     11.270710   -5.721980    1.604950
  C     11.418080   -5.822920    2.945460
  C     12.416120   -6.609460    3.625230
  C     12.575970   -6.448980    5.003810
  C     13.495710   -7.206250    5.708800
  N     13.567340   -7.004050    7.133440
  O     13.138780   -5.959420    7.571340
  O     14.045330   -7.890090    7.814390
  C     14.293670   -8.174300    5.073310
  C     14.124260   -8.326150    3.691570
  C     13.220860   -7.566580    2.986610
  C     15.287130   -8.967740    5.765590
  C     15.493260  -10.273560    5.507000
  C     16.417890  -11.106600    6.207270
  C     17.596090  -10.803610    6.807030
  C     18.161130  -11.788290    7.789660
  O     17.796440  -12.927190    7.948060
  C     19.196740  -11.037250    8.505960
  C     20.036130  -11.242020    9.559980
  S     21.021080   -9.825220    9.841350
  C     20.296960   -8.980030    8.523040
  C     19.348850   -9.740650    7.912900
  C     18.451850   -9.629050    6.777880
  C     18.581580   -8.692710    5.786870
  C     19.531890   -7.653400    5.875680
  N     20.292040   -6.796360    5.934320
  C     17.867040   -8.691430    4.575610
  N     17.334300   -8.652810    3.559380
  Cl    20.184610  -12.625180   10.525300
  H     -2.231460    1.214280    1.102400
  H      2.504950   -0.800270   -1.486750
  H      4.575200   -1.720190   -2.290580
  H      6.774470   -2.838150   -1.517110
  H      6.029590   -1.969900    3.394400
  H      7.094400   -2.845690    4.518440
  H      4.763510   -4.143340    3.016800
  H      4.725020   -3.614030    4.697420
  H      5.817870   -4.915740    4.209470
  H     10.428500   -5.219840   -2.318370
  H     11.275430   -6.307020   -1.196280
  H     11.903470   -3.344470   -1.682920
  H     12.872270   -4.708920   -2.244750
  H     12.755140   -4.358450   -0.515440
  H     11.959710   -6.216950    0.936230
  H     10.736550   -5.277490    3.584940
  H     11.970570   -5.733000    5.540780
  H     14.755730   -9.030940    3.174220
  H     13.125070   -7.726530    1.924420
  H     15.839800   -8.490740    6.563630
  H     14.837930  -10.783320    4.812780
  H     16.107850  -12.139990    6.338000
  H     20.614450   -7.980580    8.300750

 Total Charge           Charge          ....    0
 Multiplicity           Mult            ....    1
 Number of Electrons    NEL             ....  478
 Basis Dimension        Dim             .... 1031

ORBITAL ENERGIES
----------------

  NO   OCC          E(Eh)            E(eV)
   0   2.0000    -101.619106     -2765.1965
   1   2.0000    -101.618690     -2765.1851
   2   2.0000     -88.995222     -2421.6831
   3   2.0000     -88.993455     -2421.6350
   4   2.0000     -88.975888     -2421.1570
   5   2.0000     -19.253123      -523.9041
   6   2.0000     -19.251923      -523.8715
   7   2.0000     -19.227627      -523.2103
   8   2.0000     -19.221341      -523.0393
   9   2.0000     -19.201532      -522.5002
  10   2.0000     -19.197935      -522.4024
  11   2.0000     -14.658055      -398.8660
  12   2.0000     -14.462816      -393.5532
  13   2.0000     -14.462259      -393.5381
  14   2.0000     -14.428048      -392.6072
  15   2.0000     -14.424110      -392.5000
  16   2.0000     -14.421576      -392.4310
  17   2.0000     -14.418086      -392.3361
  18   2.0000     -10.384464      -282.5756
  19   2.0000     -10.381672      -282.4997
  20   2.0000     -10.380211      -282.4599
  21   2.0000     -10.377965      -282.3988
  22   2.0000     -10.377504      -282.3862
  23   2.0000     -10.377287      -282.3803
  24   2.0000     -10.354640      -281.7641
  25   2.0000     -10.353114      -281.7226
  26   2.0000     -10.352379      -281.7026
  27   2.0000     -10.349620      -281.6275
  28   2.0000     -10.348823      -281.6058
  29   2.0000     -10.345768      -281.5227
  30   2.0000     -10.342948      -281.4459
  31   2.0000     -10.331830      -281.1434
  32   2.0000     -10.330095      -281.0962
  33   2.0000     -10.329744      -281.0866
  34   2.0000     -10.329707      -281.0856
  35   2.0000     -10.326210      -280.9905
  36   2.0000     -10.324089      -280.9327
  37   2.0000     -10.323325      -280.9120
  38   2.0000     -10.322728      -280.8957
  39   2.0000     -10.322337      -280.8851
  40   2.0000     -10.322236      -280.8823
  41   2.0000     -10.320762      -280.8422
  42   2.0000     -10.316708      -280.7319
  43   2.0000     -10.315522      -280.6996
  44   2.0000     -10.312692      -280.6226
  45   2.0000     -10.312567      -280.6192
  46   2.0000     -10.310449      -280.5616
  47   2.0000     -10.308153      -280.4991
  48   2.0000     -10.307743      -280.4879
  49   2.0000     -10.307247      -280.4744
  50   2.0000     -10.306334      -280.4496
  51   2.0000     -10.305534      -280.4278
  52   2.0000     -10.302230      -280.3379
  53   2.0000     -10.302198      -280.3371
  54   2.0000     -10.301522      -280.3187
  55   2.0000     -10.300911      -280.3020
  56   2.0000     -10.300755      -280.2978
  57   2.0000     -10.299701      -280.2691
  58   2.0000     -10.297120      -280.1989
  59   2.0000     -10.283648      -279.8323
  60   2.0000     -10.273633      -279.5598
  61   2.0000     -10.271153      -279.4923
  62   2.0000     -10.268910      -279.4312
  63   2.0000     -10.259736      -279.1816
  64   2.0000      -9.573882      -260.5186
  65   2.0000      -9.573480      -260.5076
  66   2.0000      -8.091037      -220.1683
  67   2.0000      -8.089200      -220.1183
  68   2.0000      -8.068588      -219.5575
  69   2.0000      -7.344483      -199.8536
  70   2.0000      -7.344121      -199.8437
  71   2.0000      -7.333923      -199.5662
  72   2.0000      -7.333504      -199.5548
  73   2.0000      -7.333427      -199.5527
  74   2.0000      -7.332978      -199.5405
  75   2.0000      -6.060418      -164.9123
  76   2.0000      -6.058643      -164.8640
  77   2.0000      -6.055807      -164.7869
  78   2.0000      -6.053976      -164.7371
  79   2.0000      -6.053252      -164.7174
  80   2.0000      -6.051384      -164.6665
  81   2.0000      -6.038062      -164.3040
  82   2.0000      -6.033225      -164.1724
  83   2.0000      -6.031056      -164.1134
  84   2.0000      -1.333697       -36.2917
  85   2.0000      -1.152088       -31.3499
  86   2.0000      -1.144412       -31.1410
  87   2.0000      -1.143097       -31.1053
  88   2.0000      -1.138682       -30.9851
  89   2.0000      -1.135853       -30.9081
  90   2.0000      -1.072949       -29.1964
  91   2.0000      -1.064650       -28.9706
  92   2.0000      -1.040603       -28.3162
  93   2.0000      -1.039065       -28.2744
  94   2.0000      -1.022838       -27.8328
  95   2.0000      -1.017770       -27.6949
  96   2.0000      -1.005024       -27.3481
  97   2.0000      -1.001337       -27.2478
  98   2.0000      -1.000350       -27.2209
  99   2.0000      -0.998629       -27.1741
 100   2.0000      -0.991020       -26.9670
 101   2.0000      -0.988443       -26.8969
 102   2.0000      -0.958164       -26.0730
 103   2.0000      -0.955178       -25.9917
 104   2.0000      -0.941896       -25.6303
 105   2.0000      -0.935330       -25.4516
 106   2.0000      -0.924819       -25.1656
 107   2.0000      -0.912792       -24.8383
 108   2.0000      -0.909681       -24.7537
 109   2.0000      -0.902611       -24.5613
 110   2.0000      -0.899383       -24.4735
 111   2.0000      -0.885628       -24.0992
 112   2.0000      -0.876646       -23.8548
 113   2.0000      -0.858977       -23.3740
 114   2.0000      -0.846675       -23.0392
 115   2.0000      -0.843068       -22.9411
 116   2.0000      -0.835226       -22.7276
 117   2.0000      -0.833427       -22.6787
 118   2.0000      -0.825839       -22.4722
 119   2.0000      -0.812493       -22.1091
 120   2.0000      -0.806494       -21.9458
 121   2.0000      -0.799036       -21.7429
 122   2.0000      -0.776007       -21.1162
 123   2.0000      -0.765805       -20.8386
 124   2.0000      -0.761280       -20.7155
 125   2.0000      -0.756125       -20.5752
 126   2.0000      -0.753374       -20.5004
 127   2.0000      -0.733961       -19.9721
 128   2.0000      -0.719327       -19.5739
 129   2.0000      -0.714944       -19.4546
 130   2.0000      -0.705892       -19.2083
 131   2.0000      -0.702206       -19.1080
 132   2.0000      -0.698334       -19.0026
 133   2.0000      -0.688808       -18.7434
 134   2.0000      -0.684224       -18.6187
 135   2.0000      -0.679091       -18.4790
 136   2.0000      -0.677882       -18.4461
 137   2.0000      -0.659566       -17.9477
 138   2.0000      -0.657246       -17.8846
 139   2.0000      -0.645469       -17.5641
 140   2.0000      -0.645132       -17.5549
 141   2.0000      -0.642913       -17.4945
 142   2.0000      -0.632050       -17.1990
 143   2.0000      -0.629670       -17.1342
 144   2.0000      -0.621733       -16.9182
 145   2.0000      -0.620802       -16.8929
 146   2.0000      -0.617143       -16.7933
 147   2.0000      -0.615110       -16.7380
 148   2.0000      -0.612114       -16.6565
 149   2.0000      -0.606866       -16.5137
 150   2.0000      -0.604542       -16.4504
 151   2.0000      -0.597587       -16.2612
 152   2.0000      -0.592996       -16.1362
 153   2.0000      -0.581290       -15.8177
 154   2.0000      -0.574393       -15.6300
 155   2.0000      -0.571790       -15.5592
 156   2.0000      -0.569955       -15.5093
 157   2.0000      -0.559106       -15.2141
 158   2.0000      -0.552996       -15.0478
 159   2.0000      -0.551523       -15.0077
 160   2.0000      -0.550583       -14.9821
 161   2.0000      -0.549102       -14.9418
 162   2.0000      -0.545365       -14.8401
 163   2.0000      -0.541835       -14.7441
 164   2.0000      -0.538815       -14.6619
 165   2.0000      -0.538501       -14.6533
 166   2.0000      -0.535083       -14.5604
 167   2.0000      -0.533231       -14.5100
 168   2.0000      -0.529584       -14.4107
 169   2.0000      -0.527416       -14.3517
 170   2.0000      -0.525666       -14.3041
 171   2.0000      -0.523719       -14.2511
 172   2.0000      -0.518072       -14.0975
 173   2.0000      -0.511983       -13.9318
 174   2.0000      -0.510416       -13.8891
 175   2.0000      -0.506369       -13.7790
 176   2.0000      -0.506215       -13.7748
 177   2.0000      -0.503984       -13.7141
 178   2.0000      -0.503124       -13.6907
 179   2.0000      -0.500099       -13.6084
 180   2.0000      -0.498003       -13.5513
 181   2.0000      -0.495881       -13.4936
 182   2.0000      -0.493350       -13.4247
 183   2.0000      -0.488129       -13.2827
 184   2.0000      -0.486623       -13.2417
 185   2.0000      -0.485246       -13.2042
 186   2.0000      -0.483611       -13.1597
 187   2.0000      -0.477170       -12.9845
 188   2.0000      -0.471188       -12.8217
 189   2.0000      -0.469911       -12.7869
 190   2.0000      -0.465931       -12.6786
 191   2.0000      -0.464513       -12.6400
 192   2.0000      -0.462548       -12.5866
 193   2.0000      -0.459743       -12.5103
 194   2.0000      -0.458616       -12.4796
 195   2.0000      -0.455243       -12.3878
 196   2.0000      -0.454977       -12.3806
 197   2.0000      -0.453513       -12.3407
 198   2.0000      -0.452360       -12.3093
 199   2.0000      -0.449393       -12.2286
 200   2.0000      -0.446698       -12.1553
 201   2.0000      -0.446583       -12.1521
 202   2.0000      -0.445269       -12.1164
 203   2.0000      -0.444435       -12.0937
 204   2.0000      -0.443443       -12.0667
 205   2.0000      -0.438621       -11.9355
 206   2.0000      -0.437982       -11.9181
 207   2.0000      -0.436401       -11.8751
 208   2.0000      -0.432610       -11.7719
 209   2.0000      -0.431025       -11.7288
 210   2.0000      -0.430113       -11.7040
 211   2.0000      -0.426588       -11.6080
 212   2.0000      -0.418030       -11.3752
 213   2.0000      -0.416646       -11.3375
 214   2.0000      -0.411593       -11.2000
 215   2.0000      -0.410372       -11.1668
 216   2.0000      -0.406070       -11.0497
 217   2.0000      -0.404075       -10.9954
 218   2.0000      -0.403248       -10.9729
 219   2.0000      -0.394612       -10.7379
 220   2.0000      -0.390268       -10.6197
 221   2.0000      -0.382266       -10.4020
 222   2.0000      -0.377827       -10.2812
 223   2.0000      -0.373106       -10.1527
 224   2.0000      -0.356882        -9.7113
 225   2.0000      -0.356208        -9.6929
 226   2.0000      -0.346084        -9.4174
 227   2.0000      -0.343486        -9.3467
 228   2.0000      -0.342476        -9.3193
 229   2.0000      -0.340092        -9.2544
 230   2.0000      -0.338728        -9.2173
 231   2.0000      -0.334828        -9.1111
 232   2.0000      -0.333945        -9.0871
 233   2.0000      -0.323601        -8.8056
 234   2.0000      -0.320045        -8.7089
 235   2.0000      -0.318012        -8.6536
 236   2.0000      -0.301734        -8.2106
 237   2.0000      -0.297546        -8.0966
 238   2.0000      -0.244238        -6.6460
 239   0.0000      -0.113153        -3.0790
 240   0.0000      -0.099297        -2.7020
 241   0.0000      -0.072944        -1.9849
 242   0.0000      -0.059457        -1.6179
 243   0.0000      -0.052761        -1.4357

MULLIKEN ATOMIC CHARGES
-----------------------
   0 C :    0.026293
   1 C :   -0.129027
   2 S :    0.184365
   3 C :   -0.173940
   4 Cl:   -0.003443
   5 C :    0.083543
   6 C :    0.167804
   7 O :   -0.169031
   8 C :   -0.112393
   9 C :    0.309492
  10 C :   -0.341705
  11 C :   -0.195836
  12 N :    0.155277
  13 C :   -0.180941
  14 N :    0.148951
  15 C :   -0.011851
  16 C :   -0.044913
  17 C :    0.039417
  18 C :    0.016773
  19 C :   -0.103934
  20 S :    0.176628
  21 C :    0.169075
  22 N :   -0.259305
  23 C :    0.082800
  24 C :    0.014846
  25 C :    0.162678
  26 O :   -0.211799
  27 C :   -0.060773
  28 C :   -0.079481
  29 C :    0.164426
  30 O :   -0.203482
  31 N :   -0.258691
  32 C :    0.099969
  33 C :    0.001144
  34 C :    0.129791
  35 C :    0.001617
  36 C :    0.004278
  37 C :    0.109891
  38 C :   -0.074796
  39 C :    0.163845
  40 N :    0.243694
  41 O :   -0.221679
  42 O :   -0.235905
  43 C :    0.013561
  44 C :   -0.006268
  45 C :    0.019549
  46 C :    0.040406
  47 C :    0.001464
  48 C :    0.035572
  49 C :   -0.127700
  50 C :    0.128223
  51 O :   -0.126503
  52 C :    0.096800
  53 C :   -0.170432
  54 S :    0.187859
  55 C :   -0.122840
  56 C :    0.006570
  57 C :    0.277437
  58 C :   -0.327626
  59 C :   -0.185846
  60 N :    0.159286
  61 C :   -0.188644
  62 N :    0.170629
  63 Cl:    0.001670
  64 H :    0.054782
  65 H :    0.009539
  66 H :    0.010690
  67 H :    0.009450
  68 H :    0.044191
  69 H :    0.042275
  70 H :    0.018845
  71 H :    0.027596
  72 H :    0.025293
  73 H :    0.046863
  74 H :    0.021932
  75 H :    0.031114
  76 H :    0.027022
  77 H :    0.018855
  78 H :   -0.026343
  79 H :    0.018597
  80 H :    0.020711
  81 H :    0.008020
  82 H :   -0.011900
  83 H :    0.033265
  84 H :    0.012554
  85 H :    0.035413
  86 H :    0.054400
Sum of atomic charges:   -0.0000000

LOEWDIN ATOMIC CHARGES
----------------------
   0 C :   -0.058153
   1 C :   -0.147772
   2 S :    0.472531
   3 C :   -0.272757
   4 Cl:    0.189168
   5 C :   -0.116001
   6 C :    0.082043
   7 O :   -0.163044
   8 C :   -0.105085
   9 C :    0.075666
  10 C :   -0.142588
  11 C :   -0.015577
  12 N :   -0.054604
  13 C :   -0.023124
  14 N :   -0.050179
  15 C :    0.058256
  16 C :   -0.185465
  17 C :   -0.010543
  18 C :   -0.026716
  19 C :   -0.173153
  20 S :    0.536413
  21 C :    0.057582
  22 N :    0.002801
  23 C :    0.026538
  24 C :   -0.062414
  25 C :    0.080824
  26 O :   -0.199985
  27 C :   -0.123180
  28 C :   -0.112395
  29 C :    0.085002
  30 O :   -0.191527
  31 N :    0.001192
  32 C :    0.036241
  33 C :   -0.060531
  34 C :    0.082299
  35 C :   -0.045045
  36 C :    0.038173
  37 C :   -0.024435
  38 C :    0.019784
  39 C :   -0.023737
  40 N :    0.285045
  41 O :   -0.190028
  42 O :   -0.195026
  43 C :   -0.005502
  44 C :    0.007539
  45 C :    0.016222
  46 C :    0.040599
  47 C :   -0.034467
  48 C :    0.073595
  49 C :   -0.084976
  50 C :    0.081839
  51 O :   -0.130157
  52 C :   -0.117593
  53 C :   -0.271777
  54 S :    0.477558
  55 C :   -0.149739
  56 C :   -0.057968
  57 C :    0.070575
  58 C :   -0.139434
  59 C :   -0.017890
  60 N :   -0.048812
  61 C :   -0.008870
  62 N :   -0.046809
  63 Cl:    0.193607
  64 H :    0.037975
  65 H :    0.052523
  66 H :    0.041473
  67 H :    0.036502
  68 H :    0.015922
  69 H :    0.038024
  70 H :    0.014520
  71 H :    0.033799
  72 H :    0.029368
  73 H :    0.038913
  74 H :    0.022035
  75 H :    0.033090
  76 H :    0.032182
  77 H :    0.022905
  78 H :    0.027240
  79 H :    0.039579
  80 H :    0.048417
  81 H :    0.038537
  82 H :    0.033496
  83 H :    0.034661
  84 H :    0.036575
  85 H :    0.050310
  86 H :    0.037923

  Mayer bond orders larger than 0.100000
B(  0-C ,  1-C ) :   1.5541 B(  0-C ,  5-C ) :   1.2239 B(  0-C ,  9-C ) :   0.9894
B(  1-C ,  2-S ) :   1.1574 B(  1-C , 64-H ) :   0.9527 B(  2-S ,  3-C ) :   1.1473
B(  3-C ,  4-Cl) :   1.1255 B(  3-C ,  5-C ) :   1.4768 B(  5-C ,  6-C ) :   0.9683
B(  6-C ,  7-O ) :   2.1435 B(  6-C ,  8-C ) :   0.9693 B(  8-C ,  9-C ) :   1.0891
B(  8-C , 15-C ) :   1.5105 B(  9-C , 10-C ) :   1.6344 B( 10-C , 11-C ) :   1.1512
B( 10-C , 13-C ) :   1.1411 B( 11-C , 12-N ) :   2.9883 B( 13-C , 14-N ) :   2.9588
B( 15-C , 16-C ) :   1.2534 B( 15-C , 65-H ) :   0.9415 B( 16-C , 17-C ) :   1.3220
B( 16-C , 20-S ) :   1.1041 B( 17-C , 18-C ) :   1.3450 B( 17-C , 66-H ) :   1.0052
B( 18-C , 19-C ) :   1.3916 B( 18-C , 67-H ) :   0.9679 B( 19-C , 20-S ) :   1.0867
B( 19-C , 21-C ) :   1.1735 B( 21-C , 22-N ) :   1.1850 B( 21-C , 28-C ) :   1.3629
B( 22-N , 23-C ) :   0.9348 B( 22-N , 25-C ) :   1.0588 B( 23-C , 24-C ) :   1.1171
B( 23-C , 68-H ) :   0.9433 B( 23-C , 69-H ) :   0.9229 B( 24-C , 70-H ) :   0.9646
B( 24-C , 71-H ) :   0.9674 B( 24-C , 72-H ) :   0.9629 B( 25-C , 26-O ) :   2.0197
B( 25-C , 27-C ) :   0.9899 B( 26-O , 79-H ) :   0.1138 B( 27-C , 28-C ) :   1.2479
B( 27-C , 34-C ) :   1.3379 B( 28-C , 29-C ) :   0.9784 B( 29-C , 30-O ) :   2.0345
B( 29-C , 31-N ) :   1.0563 B( 30-O , 67-H ) :   0.1046 B( 31-N , 32-C ) :   0.9437
B( 31-N , 34-C ) :   1.1645 B( 32-C , 33-C ) :   1.1195 B( 32-C , 73-H ) :   0.9275
B( 32-C , 74-H ) :   0.9488 B( 33-C , 75-H ) :   0.9636 B( 33-C , 76-H ) :   0.9682
B( 33-C , 77-H ) :   0.9686 B( 34-C , 35-C ) :   1.1501 B( 35-C , 36-C ) :   1.6196
B( 35-C , 78-H ) :   0.9567 B( 36-C , 37-C ) :   1.0685 B( 36-C , 79-H ) :   0.9640
B( 37-C , 38-C ) :   1.2835 B( 37-C , 45-C ) :   1.3091 B( 38-C , 39-C ) :   1.3585
B( 38-C , 80-H ) :   1.0064 B( 39-C , 40-N ) :   0.8799 B( 39-C , 43-C ) :   1.3481
B( 40-N , 41-O ) :   1.5665 B( 40-N , 42-O ) :   1.5151 B( 41-O , 42-O ) :   0.2659
B( 43-C , 44-C ) :   1.3524 B( 43-C , 46-C ) :   1.0756 B( 44-C , 45-C ) :   1.4157
B( 44-C , 81-H ) :   0.9794 B( 45-C , 82-H ) :   0.9910 B( 46-C , 47-C ) :   1.7231
B( 46-C , 83-H ) :   0.9368 B( 47-C , 48-C ) :   1.1226 B( 47-C , 84-H ) :   0.9575
B( 48-C , 49-C ) :   1.7169 B( 48-C , 85-H ) :   0.9255 B( 49-C , 50-C ) :   0.9373
B( 49-C , 57-C ) :   1.0278 B( 50-C , 51-O ) :   2.2786 B( 50-C , 52-C ) :   0.9243
B( 52-C , 53-C ) :   1.4839 B( 52-C , 56-C ) :   1.2197 B( 53-C , 54-S ) :   1.1507
B( 53-C , 63-Cl) :   1.1302 B( 54-S , 55-C ) :   1.1619 B( 55-C , 56-C ) :   1.5520
B( 55-C , 86-H ) :   0.9553 B( 56-C , 57-C ) :   1.0121 B( 57-C , 58-C ) :   1.6631
B( 58-C , 59-C ) :   1.1266 B( 58-C , 61-C ) :   1.1686 B( 59-C , 60-N ) :   3.0028
B( 61-C , 62-N ) :   2.9914

-----------------------------------------------------------------------------
         ABSORPTION SPECTRUM VIA TRANSITION ELECTRIC DIPOLE MOMENTS
-----------------------------------------------------------------------------
State   Energy  Wavelength   fosc         T2         TX        TY        TZ
        (cm-1)    (nm)                  (au**2)     (au)      (au)      (au)
-----------------------------------------------------------------------------
   0   14044.5    712.0   1.313208651  30.78244  -4.83276   2.64827  -0.64305
   1   19984.9    500.4   0.042927719   0.70715   0.44350  -0.29674   0.64992
   2   23680.7    422.3   0.069296506   0.96337   0.82272   0.01330   0.53509
   3   25257.7    395.9   0.202658331   2.64147   1.38329  -0.72961   0.44233
   4   25639.9    390.0   0.492869984   6.32836   2.30507  -0.74323   0.68017
   5   26380.3    379.1   0.004851027   0.06054   0.22380  -0.02806   0.09830
   6   26478.0    377.7   0.025229595   0.31369  -0.34664   0.35898  -0.25430
   7   27056.5    369.6   0.046483237   0.56559  -0.40409   0.14950  -0.61640
   8   27673.6    361.4   0.002034788   0.02421  -0.04768   0.13248  -0.06621
   9   28608.7    349.5   0.063875065   0.73504  -0.47384   0.32779  -0.63487
  10   28980.6    345.1   0.007729161   0.08780   0.25940   0.00657  -0.14307
  11   29422.1    339.9   0.195471359   2.18718   1.26118  -0.75965  -0.13975
  12   29542.0    338.5   0.015565800   0.17346   0.10784   0.34007   0.21491
  13   29932.6    334.1   0.227223732   2.49911  -0.19685   0.86611  -1.30775
  14   31456.2    317.9   0.035109581   0.36745  -0.32603   0.29164  -0.41964
  15   31546.0    317.0   0.104536588   1.09094   0.32280  -0.44195   0.88962
  16   32273.1    309.9   0.004088892   0.04171  -0.06667   0.09896   0.16575
  17   32665.6    306.1   0.049821079   0.50211  -0.13824   0.04549  -0.69349
  18   33156.8    301.6   0.017990099   0.17862  -0.03011  -0.00447   0.42154
  19   33273.7    300.5   0.072497570   0.71729  -0.29260   0.04870   0.79329
  20   33638.7    297.3   0.210397550   2.05910  -0.72139   0.91231  -0.84047
  21   34097.4    293.3   0.006043963   0.05835  -0.05769   0.15122  -0.17933
  22   34815.8    287.2   0.032188508   0.30437  -0.00150   0.53282  -0.14306
  23   35384.9    282.6   0.005419735   0.05042  -0.03371  -0.03486   0.21925
  24   36057.4    277.3   0.247324860   2.25813   0.05588   0.19519  -1.48893
  25   36272.8    275.7   0.124394032   1.12900   0.70967  -0.50201  -0.61103
  26   36476.8    274.1   0.013950399   0.12591  -0.02761   0.05726  -0.34909
  27   36583.8    273.3   0.095385418   0.85836   0.12115   0.31683  -0.86215
  28   36970.4    270.5   0.038474081   0.34260   0.30267  -0.46798   0.17886
  29   37457.6    267.0   0.293885260   2.58294   0.61521  -0.95205   1.13932
  30   37684.1    265.4   0.281084505   2.45558   0.00311  -0.18676   1.55586
  31   37863.5    264.1   0.028480920   0.24763  -0.24437   0.06403   0.42874
  32   38343.5    260.8   0.164760985   1.41462  -0.41041   0.12981  -1.10875
  33   38550.0    259.4   0.012299842   0.10504   0.13060   0.10572  -0.27714
  34   38690.7    258.5   0.515731709   4.38826  -0.84130   0.52394  -1.84552
  35   38742.0    258.1   0.149292637   1.26862  -0.65240   0.46763  -0.79013
  36   39457.9    253.4   0.000242376   0.00202   0.00191  -0.01152  -0.04343
  37   39743.0    251.6   0.007425599   0.06151  -0.04402   0.03021  -0.24220
  38   39872.1    250.8   0.014627546   0.12078   0.33734  -0.03865   0.07406
  39   40244.4    248.5   0.006187160   0.05061  -0.08084   0.04879   0.20420

FINAL SINGLE POINT ENERGY     -4712.234998271745

DIPOLE MOMENT
-------------
                                X             Y             Z
Electronic contribution:     -1.94676      -1.84446      43.82273
Nuclear contribution   :      2.68558       0.81328     -42.88618
                        -----------------------------------------
Total Dipole Moment    :      0.73882      -1.03119       0.93655
                        -----------------------------------------
Magnitude (a.u.)       :      1.57681
Magnitude (Debye)      :      4.00793

Rotational constants in cm-1:     0.002802     0.000230     0.000217
Rotational constants in MHz :    84.003769     6.886260     6.503043

                             ****ORCA TERMINATED NORMALLY****
TOTAL RUN TIME: 0 days 0 hours 10 minutes 4 seconds 410 msec
