                         Program Version 4.2.0 -  RELEASE  -
|  1> # ORCA input file
|  2> # SCF done       -156.435159676684          0.000769081365
|  3> ! CAM-B3LYP def2-SVP def2/J RIJCOSX Grid4 TightSCF
|  4> %maxcore 5000
|  5> %tddft
|  6>     Mode sTDDFT
|  7>     Ethresh 5.0
|  8>     maxcore 5000
|  9> end
| 10>
| 11> %pal
| 12>   nprocs 6
| 13>   end
| 14> * xyz 0 1
| 15>    C        2.11503        -0.68625         7.39147
| 16>    C        1.18419        -0.20222         8.25777
| 17>    S        0.54086        -1.45967         9.24936
| 18>    C        1.54637        -2.66694         8.48190
| 19>   Cl        1.48568        -4.29346         8.95094
| 20>    C        2.32413        -2.09729         7.51918
| 21>    C        3.33730        -2.54429         6.55577
| 22>    O        3.72350        -3.67361         6.36196
| 23>    C        3.73457        -1.30186         5.82195
| 24>    C        2.98038        -0.17252         6.34928
| 25>    C        3.06460         1.14608         5.98868
| 26>    C        2.26712         2.12872         6.61263
| 27>    N        1.62331         2.93987         7.10647
| 28>    C        3.91717         1.68013         5.00252
| 29>    N        4.58843         2.17937         4.21583
| 30>    C        4.55584        -1.27067         4.74005
| 31>    C        5.34536        -2.35779         4.24278
| 32>    C        5.50215        -2.56985         2.85993
| 33>    N        6.19488        -3.56001         2.36230
| 34>    C        6.76404        -4.41957         3.22040
| 35>    N        6.74588        -4.25599         4.54819
| 36>    C        6.07929        -3.24949         5.04781
| 37>    C        7.44683        -5.57222         2.70867
| 38>    C        7.55356        -5.83319         1.38668
| 39>    C        8.18317        -6.98224         0.84828
| 40>    O        8.71912        -7.94265         1.64172
| 41>    C        9.19707        -8.94139         0.85510
| 42>    C        8.99485        -8.60089        -0.47993
| 43>    C        8.34361        -7.35035        -0.48581
| 44>    O        7.95102        -6.64614        -1.56124
| 45>    O        9.34708        -9.25094        -1.61868
| 46>    C        9.77917       -10.06984         1.49118
| 47>    C       10.02424       -11.27386         0.91592
| 48>    C       10.60988       -12.39625         1.57130
| 49>    C       11.27248       -12.36870         2.75230
| 50>    C       11.82684       -13.51621         3.38619
| 51>    S       12.87122       -13.32444         4.75504
| 52>    C       13.12105       -15.03582         4.88512
| 53>    C       13.91964       -15.52368         5.97422
| 54>    O       14.22972       -16.67877         6.18306
| 55>    C       12.39055       -15.72066         3.90787
| 56>    C       11.65215       -14.85408         3.09091
| 57>    C       12.30832       -17.15653         3.76846
| 58>    C       13.29521       -18.06698         3.84484
| 59>    C       12.95248       -19.51545         4.04483
| 60>    O       11.87904       -20.03019         3.85303
| 61>    C       14.19069       -20.10202         4.56541
| 62>    C       14.59222       -21.29985         5.07830
| 63>    S       16.27709       -21.23511         5.53662
| 64>    C       16.42516       -19.59689         5.01804
| 65>    C       15.24493       -19.12845         4.53320
| 66>    C       14.74006       -17.90114         3.95714
| 67>    C       15.50451       -16.89442         3.43995
| 68>    C       16.90899       -16.89291         3.57615
| 69>    N       18.05060       -16.87466         3.68415
| 70>    C       14.99972       -15.81488         2.68976
| 71>    N       14.64412       -14.94126         2.03492
| 72>   Cl       13.67392       -22.70686         5.28964
| 73>    H        0.82684         0.80045         8.38337
| 74>    H        4.61223        -0.35755         4.15924
| 75>    H        5.01464        -1.92020         2.14302
| 76>    H        6.16101        -3.10243         6.11573
| 77>    H        7.86457        -6.24027         3.44605
| 78>    H        7.13392        -5.14707         0.66584
| 79>    H        8.19808        -7.13795        -2.35613
| 80>    H        9.94618        -9.97705        -1.41264
| 81>    H        9.97794        -9.92630         2.54338
| 82>    H        9.70432       -11.45323        -0.10218
| 83>    H       10.52785       -13.33847         1.04795
| 84>    H       11.43833       -11.42878         3.25844
| 85>    H       14.26196       -14.71625         6.64934
| 86>    H       11.02634       -15.20646         2.29138
| 87>    H       11.30774       -17.55233         3.62136
| 88>    H       17.36383       -19.09039         5.12441
| 89> *
| 90>
| 91>                          ****END OF INPUT****

CARTESIAN COORDINATES (ANGSTROEM)
---------------------------------
  C      2.115030   -0.686250    7.391470
  C      1.184190   -0.202220    8.257770
  S      0.540860   -1.459670    9.249360
  C      1.546370   -2.666940    8.481900
  Cl     1.485680   -4.293460    8.950940
  C      2.324130   -2.097290    7.519180
  C      3.337300   -2.544290    6.555770
  O      3.723500   -3.673610    6.361960
  C      3.734570   -1.301860    5.821950
  C      2.980380   -0.172520    6.349280
  C      3.064600    1.146080    5.988680
  C      2.267120    2.128720    6.612630
  N      1.623310    2.939870    7.106470
  C      3.917170    1.680130    5.002520
  N      4.588430    2.179370    4.215830
  C      4.555840   -1.270670    4.740050
  C      5.345360   -2.357790    4.242780
  C      5.502150   -2.569850    2.859930
  N      6.194880   -3.560010    2.362300
  C      6.764040   -4.419570    3.220400
  N      6.745880   -4.255990    4.548190
  C      6.079290   -3.249490    5.047810
  C      7.446830   -5.572220    2.708670
  C      7.553560   -5.833190    1.386680
  C      8.183170   -6.982240    0.848280
  O      8.719120   -7.942650    1.641720
  C      9.197070   -8.941390    0.855100
  C      8.994850   -8.600890   -0.479930
  C      8.343610   -7.350350   -0.485810
  O      7.951020   -6.646140   -1.561240
  O      9.347080   -9.250940   -1.618680
  C      9.779170  -10.069840    1.491180
  C     10.024240  -11.273860    0.915920
  C     10.609880  -12.396250    1.571300
  C     11.272480  -12.368700    2.752300
  C     11.826840  -13.516210    3.386190
  S     12.871220  -13.324440    4.755040
  C     13.121050  -15.035820    4.885120
  C     13.919640  -15.523680    5.974220
  O     14.229720  -16.678770    6.183060
  C     12.390550  -15.720660    3.907870
  C     11.652150  -14.854080    3.090910
  C     12.308320  -17.156530    3.768460
  C     13.295210  -18.066980    3.844840
  C     12.952480  -19.515450    4.044830
  O     11.879040  -20.030190    3.853030
  C     14.190690  -20.102020    4.565410
  C     14.592220  -21.299850    5.078300
  S     16.277090  -21.235110    5.536620
  C     16.425160  -19.596890    5.018040
  C     15.244930  -19.128450    4.533200
  C     14.740060  -17.901140    3.957140
  C     15.504510  -16.894420    3.439950
  C     16.908990  -16.892910    3.576150
  N     18.050600  -16.874660    3.684150
  C     14.999720  -15.814880    2.689760
  N     14.644120  -14.941260    2.034920
  Cl    13.673920  -22.706860    5.289640
  H      0.826840    0.800450    8.383370
  H      4.612230   -0.357550    4.159240
  H      5.014640   -1.920200    2.143020
  H      6.161010   -3.102430    6.115730
  H      7.864570   -6.240270    3.446050
  H      7.133920   -5.147070    0.665840
  H      8.198080   -7.137950   -2.356130
  H      9.946180   -9.977050   -1.412640
  H      9.977940   -9.926300    2.543380
  H      9.704320  -11.453230   -0.102180
  H     10.527850  -13.338470    1.047950
  H     11.438330  -11.428780    3.258440
  H     14.261960  -14.716250    6.649340
  H     11.026340  -15.206460    2.291380
  H     11.307740  -17.552330    3.621360
  H     17.363830  -19.090390    5.124410

 Total Charge           Charge          ....    0
 Multiplicity           Mult            ....    1
 Number of Electrons    NEL             ....  434
 Basis Dimension        Dim             ....  912

ORBITAL ENERGIES
----------------

  NO   OCC          E(Eh)            E(eV)
   0   2.0000    -101.618995     -2765.1934
   1   2.0000    -101.614070     -2765.0594
   2   2.0000     -88.995864     -2421.7006
   3   2.0000     -88.989480     -2421.5269
   4   2.0000     -88.977080     -2421.1894
   5   2.0000     -19.294990      -525.0434
   6   2.0000     -19.278577      -524.5967
   7   2.0000     -19.266307      -524.2629
   8   2.0000     -19.223551      -523.0994
   9   2.0000     -19.218516      -522.9624
  10   2.0000     -19.218127      -522.9518
  11   2.0000     -14.423331      -392.4788
  12   2.0000     -14.421759      -392.4360
  13   2.0000     -14.416457      -392.2917
  14   2.0000     -14.414978      -392.2515
  15   2.0000     -14.410128      -392.1195
  16   2.0000     -14.406615      -392.0239
  17   2.0000     -10.380923      -282.4793
  18   2.0000     -10.378281      -282.4074
  19   2.0000     -10.374186      -282.2960
  20   2.0000     -10.372141      -282.2403
  21   2.0000     -10.367884      -282.1245
  22   2.0000     -10.351236      -281.6714
  23   2.0000     -10.350236      -281.6442
  24   2.0000     -10.349978      -281.6372
  25   2.0000     -10.347119      -281.5594
  26   2.0000     -10.346243      -281.5356
  27   2.0000     -10.345556      -281.5169
  28   2.0000     -10.343978      -281.4740
  29   2.0000     -10.342832      -281.4428
  30   2.0000     -10.335117      -281.2328
  31   2.0000     -10.331802      -281.1426
  32   2.0000     -10.328911      -281.0639
  33   2.0000     -10.327725      -281.0317
  34   2.0000     -10.326934      -281.0102
  35   2.0000     -10.326386      -280.9953
  36   2.0000     -10.325457      -280.9700
  37   2.0000     -10.324040      -280.9314
  38   2.0000     -10.323859      -280.9265
  39   2.0000     -10.318409      -280.7782
  40   2.0000     -10.317827      -280.7624
  41   2.0000     -10.316415      -280.7239
  42   2.0000     -10.314864      -280.6817
  43   2.0000     -10.312976      -280.6304
  44   2.0000     -10.312391      -280.6144
  45   2.0000     -10.309835      -280.5449
  46   2.0000     -10.307663      -280.4858
  47   2.0000     -10.305297      -280.4214
  48   2.0000     -10.304563      -280.4014
  49   2.0000     -10.301912      -280.3293
  50   2.0000     -10.298666      -280.2409
  51   2.0000     -10.297551      -280.2106
  52   2.0000     -10.296852      -280.1916
  53   2.0000     -10.296683      -280.1870
  54   2.0000     -10.296103      -280.1712
  55   2.0000     -10.291347      -280.0418
  56   2.0000     -10.289542      -279.9927
  57   2.0000     -10.269365      -279.4436
  58   2.0000      -9.573792      -260.5161
  59   2.0000      -9.568856      -260.3818
  60   2.0000      -8.091556      -220.1824
  61   2.0000      -8.085203      -220.0096
  62   2.0000      -8.072775      -219.6714
  63   2.0000      -7.344448      -199.8526
  64   2.0000      -7.339488      -199.7176
  65   2.0000      -7.333819      -199.5634
  66   2.0000      -7.333269      -199.5484
  67   2.0000      -7.328892      -199.4293
  68   2.0000      -7.328362      -199.4149
  69   2.0000      -6.060905      -164.9256
  70   2.0000      -6.056337      -164.8013
  71   2.0000      -6.054579      -164.7535
  72   2.0000      -6.053835      -164.7332
  73   2.0000      -6.049964      -164.6279
  74   2.0000      -6.047475      -164.5602
  75   2.0000      -6.041758      -164.4046
  76   2.0000      -6.037826      -164.2976
  77   2.0000      -6.035274      -164.2282
  78   2.0000      -1.216469       -33.1018
  79   2.0000      -1.171915       -31.8894
  80   2.0000      -1.154250       -31.4087
  81   2.0000      -1.140911       -31.0458
  82   2.0000      -1.135201       -30.8904
  83   2.0000      -1.130487       -30.7621
  84   2.0000      -1.084803       -29.5190
  85   2.0000      -1.040281       -28.3075
  86   2.0000      -1.034065       -28.1383
  87   2.0000      -1.019743       -27.7486
  88   2.0000      -1.014547       -27.6072
  89   2.0000      -1.005380       -27.3578
  90   2.0000      -1.001033       -27.2395
  91   2.0000      -0.993468       -27.0336
  92   2.0000      -0.990420       -26.9507
  93   2.0000      -0.984146       -26.7800
  94   2.0000      -0.979524       -26.6542
  95   2.0000      -0.957920       -26.0663
  96   2.0000      -0.950955       -25.8768
  97   2.0000      -0.938007       -25.5245
  98   2.0000      -0.930251       -25.3134
  99   2.0000      -0.913326       -24.8529
 100   2.0000      -0.908080       -24.7101
 101   2.0000      -0.903882       -24.5959
 102   2.0000      -0.899410       -24.4742
 103   2.0000      -0.893809       -24.3218
 104   2.0000      -0.881964       -23.9995
 105   2.0000      -0.861806       -23.4509
 106   2.0000      -0.846972       -23.0473
 107   2.0000      -0.837947       -22.8017
 108   2.0000      -0.834768       -22.7152
 109   2.0000      -0.828346       -22.5404
 110   2.0000      -0.813913       -22.1477
 111   2.0000      -0.788470       -21.4553
 112   2.0000      -0.778595       -21.1866
 113   2.0000      -0.764343       -20.7988
 114   2.0000      -0.757181       -20.6039
 115   2.0000      -0.750830       -20.4311
 116   2.0000      -0.749541       -20.3960
 117   2.0000      -0.736848       -20.0507
 118   2.0000      -0.726634       -19.7727
 119   2.0000      -0.718168       -19.5424
 120   2.0000      -0.705754       -19.2045
 121   2.0000      -0.694232       -18.8910
 122   2.0000      -0.693442       -18.8695
 123   2.0000      -0.686449       -18.6792
 124   2.0000      -0.678865       -18.4728
 125   2.0000      -0.672617       -18.3028
 126   2.0000      -0.671695       -18.2777
 127   2.0000      -0.666442       -18.1348
 128   2.0000      -0.661787       -18.0081
 129   2.0000      -0.647171       -17.6104
 130   2.0000      -0.631897       -17.1948
 131   2.0000      -0.624214       -16.9857
 132   2.0000      -0.620799       -16.8928
 133   2.0000      -0.616194       -16.7675
 134   2.0000      -0.609651       -16.5895
 135   2.0000      -0.608951       -16.5704
 136   2.0000      -0.608573       -16.5601
 137   2.0000      -0.602026       -16.3819
 138   2.0000      -0.592286       -16.1169
 139   2.0000      -0.583767       -15.8851
 140   2.0000      -0.580112       -15.7856
 141   2.0000      -0.574097       -15.6220
 142   2.0000      -0.570352       -15.5201
 143   2.0000      -0.563937       -15.3455
 144   2.0000      -0.560079       -15.2405
 145   2.0000      -0.552604       -15.0371
 146   2.0000      -0.548011       -14.9121
 147   2.0000      -0.544879       -14.8269
 148   2.0000      -0.538576       -14.6554
 149   2.0000      -0.537279       -14.6201
 150   2.0000      -0.534907       -14.5556
 151   2.0000      -0.530017       -14.4225
 152   2.0000      -0.529211       -14.4006
 153   2.0000      -0.528697       -14.3866
 154   2.0000      -0.524124       -14.2621
 155   2.0000      -0.520762       -14.1707
 156   2.0000      -0.519381       -14.1331
 157   2.0000      -0.516568       -14.0565
 158   2.0000      -0.514791       -14.0082
 159   2.0000      -0.507632       -13.8134
 160   2.0000      -0.505487       -13.7550
 161   2.0000      -0.504845       -13.7375
 162   2.0000      -0.501793       -13.6545
 163   2.0000      -0.499505       -13.5922
 164   2.0000      -0.498792       -13.5728
 165   2.0000      -0.496856       -13.5201
 166   2.0000      -0.494032       -13.4433
 167   2.0000      -0.490578       -13.3493
 168   2.0000      -0.489545       -13.3212
 169   2.0000      -0.486913       -13.2496
 170   2.0000      -0.481525       -13.1030
 171   2.0000      -0.479145       -13.0382
 172   2.0000      -0.476979       -12.9792
 173   2.0000      -0.471376       -12.8268
 174   2.0000      -0.469432       -12.7739
 175   2.0000      -0.457996       -12.4627
 176   2.0000      -0.456065       -12.4102
 177   2.0000      -0.455224       -12.3873
 178   2.0000      -0.451907       -12.2970
 179   2.0000      -0.451666       -12.2905
 180   2.0000      -0.450236       -12.2515
 181   2.0000      -0.449517       -12.2320
 182   2.0000      -0.446838       -12.1591
 183   2.0000      -0.443636       -12.0719
 184   2.0000      -0.439778       -11.9670
 185   2.0000      -0.436726       -11.8839
 186   2.0000      -0.435865       -11.8605
 187   2.0000      -0.435457       -11.8494
 188   2.0000      -0.434235       -11.8161
 189   2.0000      -0.430117       -11.7041
 190   2.0000      -0.429008       -11.6739
 191   2.0000      -0.425080       -11.5670
 192   2.0000      -0.422740       -11.5033
 193   2.0000      -0.419603       -11.4180
 194   2.0000      -0.416011       -11.3202
 195   2.0000      -0.406732       -11.0677
 196   2.0000      -0.405344       -11.0300
 197   2.0000      -0.402136       -10.9427
 198   2.0000      -0.400088       -10.8870
 199   2.0000      -0.395291       -10.7564
 200   2.0000      -0.381601       -10.3839
 201   2.0000      -0.378582       -10.3017
 202   2.0000      -0.367750       -10.0070
 203   2.0000      -0.361265        -9.8305
 204   2.0000      -0.347708        -9.4616
 205   2.0000      -0.345910        -9.4127
 206   2.0000      -0.339099        -9.2273
 207   2.0000      -0.337675        -9.1886
 208   2.0000      -0.329783        -8.9739
 209   2.0000      -0.325839        -8.8665
 210   2.0000      -0.322120        -8.7653
 211   2.0000      -0.318592        -8.6693
 212   2.0000      -0.316936        -8.6243
 213   2.0000      -0.307847        -8.3769
 214   2.0000      -0.303667        -8.2632
 215   2.0000      -0.287577        -7.8254
 216   2.0000      -0.245155        -6.6710
 217   0.0000      -0.099831        -2.7165
 218   0.0000      -0.092199        -2.5089
 219   0.0000      -0.071903        -1.9566
 220   0.0000      -0.054030        -1.4702
 221   0.0000      -0.042217        -1.1488

MULLIKEN ATOMIC CHARGES
-----------------------
   0 C :    0.030196
   1 C :   -0.128340
   2 S :    0.188608
   3 C :   -0.171488
   4 Cl:    0.001223
   5 C :    0.074347
   6 C :    0.140403
   7 O :   -0.122973
   8 C :   -0.101320
   9 C :    0.293044
  10 C :   -0.325761
  11 C :   -0.194610
  12 N :    0.158177
  13 C :   -0.191413
  14 N :    0.160075
  15 C :   -0.013292
  16 C :   -0.039858
  17 C :    0.053940
  18 N :   -0.066852
  19 C :   -0.045491
  20 N :   -0.063387
  21 C :    0.110903
  22 C :    0.032700
  23 C :    0.008975
  24 C :    0.082092
  25 O :   -0.211242
  26 C :    0.103353
  27 C :    0.053704
  28 C :    0.100702
  29 O :   -0.164356
  30 O :   -0.196591
  31 C :    0.030150
  32 C :   -0.043062
  33 C :    0.015941
  34 C :    0.068744
  35 C :   -0.044053
  36 S :    0.163976
  37 C :   -0.188036
  38 C :    0.201739
  39 O :   -0.205416
  40 C :    0.084627
  41 C :   -0.006516
  42 C :   -0.001735
  43 C :   -0.101847
  44 C :    0.129838
  45 O :   -0.125966
  46 C :    0.094271
  47 C :   -0.174649
  48 S :    0.183510
  49 C :   -0.120805
  50 C :    0.022346
  51 C :    0.311434
  52 C :   -0.328201
  53 C :   -0.191365
  54 N :    0.157316
  55 C :   -0.194317
  56 N :    0.170012
  57 Cl:   -0.002785
  58 H :    0.054290
  59 H :    0.035281
  60 H :    0.007882
  61 H :    0.007810
  62 H :   -0.004629
  63 H :    0.025523
  64 H :    0.196644
  65 H :    0.192941
  66 H :    0.007458
  67 H :   -0.025577
  68 H :   -0.002878
  69 H :   -0.011287
  70 H :   -0.012798
  71 H :   -0.013307
  72 H :    0.030501
  73 H :    0.051525
Sum of atomic charges:   -0.0000000

LOEWDIN ATOMIC CHARGES
----------------------
   0 C :   -0.059801
   1 C :   -0.148400
   2 S :    0.477336
   3 C :   -0.272012
   4 Cl:    0.192881
   5 C :   -0.117138
   6 C :    0.080040
   7 O :   -0.123638
   8 C :   -0.088161
   9 C :    0.074728
  10 C :   -0.135604
  11 C :   -0.015318
  12 N :   -0.050554
  13 C :   -0.024102
  14 N :   -0.044372
  15 C :    0.078330
  16 C :   -0.100304
  17 C :    0.065391
  18 N :   -0.087717
  19 C :    0.047117
  20 N :   -0.083600
  21 C :    0.087201
  22 C :   -0.044501
  23 C :    0.015530
  24 C :   -0.001398
  25 O :    0.007924
  26 C :   -0.010686
  27 C :   -0.012255
  28 C :    0.005303
  29 O :   -0.037343
  30 O :   -0.053329
  31 C :   -0.008209
  32 C :   -0.056733
  33 C :   -0.003430
  34 C :   -0.043204
  35 C :   -0.133947
  36 S :    0.480423
  37 C :   -0.236848
  38 C :    0.082690
  39 O :   -0.149516
  40 C :   -0.028695
  41 C :   -0.039970
  42 C :    0.060881
  43 C :   -0.057497
  44 C :    0.084780
  45 O :   -0.130154
  46 C :   -0.115149
  47 C :   -0.273076
  48 S :    0.476292
  49 C :   -0.147158
  50 C :   -0.047923
  51 C :    0.083219
  52 C :   -0.132538
  53 C :   -0.015393
  54 N :   -0.051389
  55 C :   -0.020511
  56 N :   -0.052102
  57 Cl:    0.190224
  58 H :    0.037915
  59 H :    0.047962
  60 H :    0.027350
  61 H :    0.026485
  62 H :    0.035043
  63 H :    0.046869
  64 H :    0.106280
  65 H :    0.093985
  66 H :    0.041075
  67 H :    0.020529
  68 H :    0.033199
  69 H :    0.027800
  70 H :   -0.001544
  71 H :    0.032196
  72 H :    0.050060
  73 H :    0.038183

  Mayer bond orders larger than 0.100000
B(  0-C ,  1-C ) :   1.5426 B(  0-C ,  5-C ) :   1.2203 B(  0-C ,  9-C ) :   1.0031
B(  1-C ,  2-S ) :   1.1639 B(  1-C , 58-H ) :   0.9537 B(  2-S ,  3-C ) :   1.1514
B(  3-C ,  4-Cl) :   1.1293 B(  3-C ,  5-C ) :   1.4784 B(  5-C ,  6-C ) :   0.9474
B(  6-C ,  7-O ) :   2.2483 B(  6-C ,  8-C ) :   0.9263 B(  8-C ,  9-C ) :   1.0553
B(  8-C , 15-C ) :   1.6858 B(  9-C , 10-C ) :   1.6607 B( 10-C , 11-C ) :   1.1457
B( 10-C , 13-C ) :   1.1374 B( 11-C , 12-N ) :   2.9913 B( 13-C , 14-N ) :   2.9748
B( 15-C , 16-C ) :   1.0668 B( 15-C , 59-H ) :   0.9431 B( 16-C , 17-C ) :   1.2884
B( 16-C , 21-C ) :   1.2937 B( 17-C , 18-N ) :   1.6024 B( 17-C , 60-H ) :   0.9903
B( 18-N , 19-C ) :   1.4902 B( 19-C , 20-N ) :   1.4822 B( 19-C , 22-C ) :   1.0719
B( 20-N , 21-C ) :   1.6036 B( 21-C , 61-H ) :   0.9820 B( 22-C , 23-C ) :   1.6008
B( 22-C , 62-H ) :   0.9834 B( 23-C , 24-C ) :   1.1534 B( 23-C , 63-H ) :   0.9665
B( 24-C , 25-O ) :   1.1241 B( 24-C , 26-C ) :   0.1089 B( 24-C , 28-C ) :   1.3695
B( 25-O , 26-C ) :   1.1136 B( 26-C , 27-C ) :   1.3289 B( 26-C , 31-C ) :   1.1706
B( 27-C , 28-C ) :   1.2412 B( 27-C , 30-O ) :   1.2327 B( 28-C , 29-O ) :   1.2875
B( 29-O , 64-H ) :   0.9502 B( 30-O , 65-H ) :   0.9510 B( 31-C , 32-C ) :   1.6399
B( 31-C , 66-H ) :   0.9484 B( 32-C , 33-C ) :   1.1541 B( 32-C , 67-H ) :   0.9661
B( 33-C , 34-C ) :   1.7118 B( 33-C , 68-H ) :   0.9711 B( 34-C , 35-C ) :   1.1147
B( 34-C , 69-H ) :   0.9538 B( 35-C , 36-S ) :   1.1633 B( 35-C , 41-C ) :   1.4502
B( 36-S , 37-C ) :   1.1043 B( 37-C , 38-C ) :   1.0535 B( 37-C , 40-C ) :   1.4198
B( 38-C , 39-O ) :   2.0744 B( 38-C , 70-H ) :   0.9546 B( 40-C , 41-C ) :   1.3093
B( 40-C , 42-C ) :   1.0068 B( 41-C , 71-H ) :   0.9999 B( 42-C , 43-C ) :   1.8062
B( 42-C , 72-H ) :   0.9430 B( 43-C , 44-C ) :   0.9276 B( 43-C , 51-C ) :   0.9866
B( 44-C , 45-O ) :   2.2868 B( 44-C , 46-C ) :   0.9268 B( 46-C , 47-C ) :   1.4751
B( 46-C , 50-C ) :   1.2248 B( 47-C , 48-S ) :   1.1564 B( 47-C , 57-Cl) :   1.1270
B( 48-S , 49-C ) :   1.1583 B( 49-C , 50-C ) :   1.5513 B( 49-C , 73-H ) :   0.9569
B( 50-C , 51-C ) :   1.0190 B( 51-C , 52-C ) :   1.6911 B( 52-C , 53-C ) :   1.1319
B( 52-C , 55-C ) :   1.1622 B( 53-C , 54-N ) :   3.0082 B( 55-C , 56-N ) :   3.0123

-----------------------------------------------------------------------------
         ABSORPTION SPECTRUM VIA TRANSITION ELECTRIC DIPOLE MOMENTS
-----------------------------------------------------------------------------
State   Energy  Wavelength   fosc         T2         TX        TY        TZ
        (cm-1)    (nm)                  (au**2)     (au)      (au)      (au)
-----------------------------------------------------------------------------
   0   17967.1    556.6   1.591592309  29.16286  -2.99252   4.39562   0.94141
   1   20437.4    489.3   0.140573797   2.26441  -0.10486   0.29878   1.47110
   2   23590.4    423.9   0.582539198   8.12954  -1.15779   2.31348  -1.19869
   3   25844.3    386.9   0.047610104   0.60647  -0.37825   0.41887   0.53661
   4   26339.4    379.7   0.008609786   0.10761   0.14090  -0.19458  -0.22338
   5   26701.5    374.5   0.010864698   0.13395   0.07442  -0.02450  -0.35751
   6   27563.5    362.8   0.051614284   0.61647  -0.41617  -0.29779   0.59548
   7   28538.4    350.4   0.010316434   0.11901  -0.17746  -0.17475  -0.23870
   8   29202.0    342.4   0.014244476   0.16059   0.13515  -0.16926   0.33715
   9   29468.9    339.3   0.132191733   1.47678   0.20892  -0.26751   1.16686
  10   29914.3    334.3   0.101373657   1.11563   0.02001  -0.82680   0.65698
  11   30187.7    331.3   0.192877140   2.10342  -0.03227  -0.50248   1.36011
  12   31176.0    320.8   0.167390032   1.76760   0.92647  -0.79344  -0.52888
  13   31980.0    312.7   0.241930031   2.49050   0.58053  -1.23089  -0.79900
  14   32446.4    308.2   0.066473967   0.67447  -0.16864   0.10921  -0.79630
  15   32947.3    303.5   0.137425558   1.37316  -0.08972   0.10320  -1.16382
  16   33276.0    300.5   0.052335643   0.51778  -0.52263   0.38343  -0.31243
  17   33461.2    298.9   0.039167865   0.38536   0.03328   0.61827  -0.04461
  18   34411.8    290.6   0.005509679   0.05271   0.17072   0.15272   0.01553
  19   34550.7    289.4   0.070232760   0.66920   0.29057   0.38039   0.66338
  20   35301.0    283.3   0.080399846   0.74980   0.12395  -0.47114   0.71587
  21   35516.1    281.6   0.047350553   0.43891   0.39324  -0.49301  -0.20300
  22   35791.1    279.4   0.122771688   1.12927  -0.40438  -0.97967   0.07739
  23   36037.1    277.5   0.082314784   0.75198  -0.40658   0.75611  -0.12234
  24   36322.4    275.3   0.050771856   0.46018  -0.36545   0.11076   0.56068
  25   37166.9    269.1   0.211142859   1.87023  -0.75143  -0.91847   0.67970
  26   37366.7    267.6   0.410993095   3.62097  -1.08241  -1.07838   1.13422
  27   37815.9    264.4   0.063367955   0.55166   0.06165  -0.64124  -0.36970
  28   37929.3    263.6   0.629225397   5.46144   0.37596   2.09210  -0.97118
  29   37971.8    263.4   0.092490047   0.80188  -0.24244   0.06849   0.85931
  30   38409.4    260.4   0.118752212   1.01784   0.29264   0.87810  -0.40143
  31   39028.5    256.2   0.006902120   0.05822   0.13184  -0.03477  -0.19907
  32   39098.1    255.8   0.041142832   0.34643  -0.11337   0.57359   0.06756
  33   39277.0    254.6   0.039746550   0.33315   0.12715   0.56297  -0.00709
  34   39460.7    253.4   0.014631141   0.12206   0.28599  -0.20068   0.00164
  35   39709.0    251.8   0.021793473   0.18068  -0.25506  -0.03544  -0.33819
  36   40042.3    249.7   0.065235492   0.53634   0.17954  -0.70772   0.05694

FINAL SINGLE POINT ENERGY     -4463.064656586737

DIPOLE MOMENT
-------------
                                X             Y             Z
Electronic contribution:     -5.96180     -22.02904      30.35131
Nuclear contribution   :      5.02159      20.62124     -30.55635
                        -----------------------------------------
Total Dipole Moment    :     -0.94021      -1.40780      -0.20504
                        -----------------------------------------
Magnitude (a.u.)       :      1.70526
Magnitude (Debye)      :      4.33444

Rotational constants in cm-1:     0.002239     0.000233     0.000219
Rotational constants in MHz :    67.109855     6.985199     6.560329

                             ****ORCA TERMINATED NORMALLY****
TOTAL RUN TIME: 0 days 0 hours 7 minutes 41 seconds 439 msec
