                         Program Version 4.2.0 -  RELEASE  -
|  1> # ORCA input file
|  2> # SCF done       -199.138109996571          0.000556453977
|  3> ! CAM-B3LYP def2-SVP def2/J RIJCOSX Grid4 TightSCF
|  4> %maxcore 5000
|  5> %tddft
|  6>     Mode sTDDFT
|  7>     Ethresh 5.0
|  8>     maxcore 5000
|  9> end
| 10>
| 11> %pal
| 12>   nprocs 6
| 13>   end
| 14> * xyz 0 1
| 15>    C       12.98237        -0.57465         1.22259
| 16>    C       14.21333        -1.13672         1.07752
| 17>    S       14.11688        -2.85904         1.07197
| 18>    C       12.38302        -2.83160         1.26828
| 19>   Cl       11.47668        -4.25727         1.34991
| 20>    C       11.93109        -1.54432         1.33309
| 21>    C       10.64328        -0.87530         1.47358
| 22>    O        9.54604        -1.36789         1.61235
| 23>    C       10.97101         0.59197         1.44228
| 24>    C       12.41433         0.75551         1.27665
| 25>    C       13.11384         1.92050         1.15164
| 26>    C       14.51770         1.91881         0.99074
| 27>    N       15.65704         1.92938         0.86352
| 28>    C       12.55406         3.21601         1.14431
| 29>    N       12.15690         4.29141         1.10661
| 30>    C       10.05604         1.56412         1.60579
| 31>    C        8.63116         1.31928         1.75528
| 32>    C        7.83689         0.60380         0.84788
| 33>    C        8.35266         0.07141        -0.43603
| 34>    O        9.42429         0.25349        -0.93086
| 35>    S        7.06823        -0.88771        -1.22076
| 36>    C        5.85091        -0.47420         0.03248
| 37>    O        4.71836        -0.85290        -0.02605
| 38>    C        6.48630         0.35613         1.07446
| 39>    C        5.78790         0.85901         2.19903
| 40>    C        6.59424         1.56692         3.10728
| 41>    C        7.95051         1.77553         2.88275
| 42>    C        8.51399         2.44206         4.08034
| 43>    O        9.63459         2.78370         4.29704
| 44>    O        7.48810         2.58650         4.97375
| 45>    C        6.31225         2.05936         4.48058
| 46>    O        5.32137         2.00415         5.13780
| 47>    C        4.38048         0.63970         2.38295
| 48>    C        3.55232         1.57485         2.89992
| 49>    C        2.14578         1.50317         3.09531
| 50>    N        1.29891         0.41997         3.06627
| 51>    C        1.63026        -0.98139         2.95043
| 52>    C        2.40262        -1.48745         4.16507
| 53>    C       -0.03595         0.80101         3.31275
| 54>    O       -0.96029         0.01350         3.35275
| 55>    C        0.01588         2.23627         3.48031
| 56>    C        1.36653         2.62801         3.34973
| 57>    C        1.43846         4.06884         3.49052
| 58>    O        2.36347         4.84659         3.43235
| 59>    N        0.09792         4.45493         3.70660
| 60>    C       -0.25157         5.83099         3.96730
| 61>    C       -0.47854         6.08374         5.45545
| 62>    C       -0.75468         3.37955         3.70321
| 63>    C       -2.15874         3.48379         3.86957
| 64>    C       -2.97085         2.39736         3.89755
| 65>    C       -4.37666         2.51969         4.04816
| 66>    S       -5.43623         1.12419         4.16581
| 67>    C       -6.74287         2.29257         4.30234
| 68>    N       -6.31487         3.52712         4.24750
| 69>    N       -5.03373         3.65045         4.11125
| 70>    C       -8.10187         1.90970         4.45683
| 71>    C       -9.08933         2.82058         4.62907
| 72>    C      -10.45390         2.46187         4.76129
| 73>    C      -11.48176         3.28295         5.10527
| 74>    C      -12.89140         2.87442         4.80509
| 75>    O      -13.27077         1.76711         4.51213
| 76>    C      -13.65471         4.12498         4.89441
| 77>    C      -14.93490         4.53497         4.66835
| 78>    S      -15.09775         6.24409         4.99686
| 79>    C      -13.43652         6.38214         5.44601
| 80>    C      -12.79863         5.18654         5.34069
| 81>    C      -11.47748         4.64630         5.60402
| 82>    C      -10.51641         5.26156         6.36032
| 83>    C      -10.67439         6.59460         6.79578
| 84>    N      -10.78680         7.68426         7.13592
| 85>    C       -9.37040         4.62489         6.88168
| 86>    N       -8.46683         4.13452         7.39087
| 87>   Cl      -16.25255         3.60799         4.14629
| 88>    H       15.16909        -0.66228         0.97349
| 89>    H       10.36263         2.59758         1.70417
| 90>    H        3.99868        -0.28846         1.99020
| 91>    H        3.94730         2.55094         3.14974
| 92>    H        2.17863        -1.16174         2.02249
| 93>    H        0.66950        -1.50144         2.88401
| 94>    H        3.32934        -0.93567         4.30282
| 95>    H        2.63639        -2.54050         4.03615
| 96>    H        1.79897        -1.37355         5.06224
| 97>    H       -1.13824         6.10033         3.38728
| 98>    H        0.59524         6.42781         3.61717
| 99>    H       -1.29843         5.47752         5.83381
|100>    H       -0.71558         7.13134         5.61726
|101>    H        0.42123         5.84064         6.01531
|102>    H       -2.60265         4.46287         3.97388
|103>    H       -2.56619         1.39867         3.80630
|104>    H       -8.31628         0.85033         4.46497
|105>    H       -8.81522         3.86547         4.63334
|106>    H      -10.73339         1.44934         4.48920
|107>    H      -13.04889         7.33545         5.74614
|108> *
|109>
|110>                          ****END OF INPUT****

CARTESIAN COORDINATES (ANGSTROEM)
---------------------------------
  C     12.982370   -0.574650    1.222590
  C     14.213330   -1.136720    1.077520
  S     14.116880   -2.859040    1.071970
  C     12.383020   -2.831600    1.268280
  Cl    11.476680   -4.257270    1.349910
  C     11.931090   -1.544320    1.333090
  C     10.643280   -0.875300    1.473580
  O      9.546040   -1.367890    1.612350
  C     10.971010    0.591970    1.442280
  C     12.414330    0.755510    1.276650
  C     13.113840    1.920500    1.151640
  C     14.517700    1.918810    0.990740
  N     15.657040    1.929380    0.863520
  C     12.554060    3.216010    1.144310
  N     12.156900    4.291410    1.106610
  C     10.056040    1.564120    1.605790
  C      8.631160    1.319280    1.755280
  C      7.836890    0.603800    0.847880
  C      8.352660    0.071410   -0.436030
  O      9.424290    0.253490   -0.930860
  S      7.068230   -0.887710   -1.220760
  C      5.850910   -0.474200    0.032480
  O      4.718360   -0.852900   -0.026050
  C      6.486300    0.356130    1.074460
  C      5.787900    0.859010    2.199030
  C      6.594240    1.566920    3.107280
  C      7.950510    1.775530    2.882750
  C      8.513990    2.442060    4.080340
  O      9.634590    2.783700    4.297040
  O      7.488100    2.586500    4.973750
  C      6.312250    2.059360    4.480580
  O      5.321370    2.004150    5.137800
  C      4.380480    0.639700    2.382950
  C      3.552320    1.574850    2.899920
  C      2.145780    1.503170    3.095310
  N      1.298910    0.419970    3.066270
  C      1.630260   -0.981390    2.950430
  C      2.402620   -1.487450    4.165070
  C     -0.035950    0.801010    3.312750
  O     -0.960290    0.013500    3.352750
  C      0.015880    2.236270    3.480310
  C      1.366530    2.628010    3.349730
  C      1.438460    4.068840    3.490520
  O      2.363470    4.846590    3.432350
  N      0.097920    4.454930    3.706600
  C     -0.251570    5.830990    3.967300
  C     -0.478540    6.083740    5.455450
  C     -0.754680    3.379550    3.703210
  C     -2.158740    3.483790    3.869570
  C     -2.970850    2.397360    3.897550
  C     -4.376660    2.519690    4.048160
  S     -5.436230    1.124190    4.165810
  C     -6.742870    2.292570    4.302340
  N     -6.314870    3.527120    4.247500
  N     -5.033730    3.650450    4.111250
  C     -8.101870    1.909700    4.456830
  C     -9.089330    2.820580    4.629070
  C    -10.453900    2.461870    4.761290
  C    -11.481760    3.282950    5.105270
  C    -12.891400    2.874420    4.805090
  O    -13.270770    1.767110    4.512130
  C    -13.654710    4.124980    4.894410
  C    -14.934900    4.534970    4.668350
  S    -15.097750    6.244090    4.996860
  C    -13.436520    6.382140    5.446010
  C    -12.798630    5.186540    5.340690
  C    -11.477480    4.646300    5.604020
  C    -10.516410    5.261560    6.360320
  C    -10.674390    6.594600    6.795780
  N    -10.786800    7.684260    7.135920
  C     -9.370400    4.624890    6.881680
  N     -8.466830    4.134520    7.390870
  Cl   -16.252550    3.607990    4.146290
  H     15.169090   -0.662280    0.973490
  H     10.362630    2.597580    1.704170
  H      3.998680   -0.288460    1.990200
  H      3.947300    2.550940    3.149740
  H      2.178630   -1.161740    2.022490
  H      0.669500   -1.501440    2.884010
  H      3.329340   -0.935670    4.302820
  H      2.636390   -2.540500    4.036150
  H      1.798970   -1.373550    5.062240
  H     -1.138240    6.100330    3.387280
  H      0.595240    6.427810    3.617170
  H     -1.298430    5.477520    5.833810
  H     -0.715580    7.131340    5.617260
  H      0.421230    5.840640    6.015310
  H     -2.602650    4.462870    3.973880
  H     -2.566190    1.398670    3.806300
  H     -8.316280    0.850330    4.464970
  H     -8.815220    3.865470    4.633340
  H    -10.733390    1.449340    4.489200
  H    -13.048890    7.335450    5.746140

 Total Charge           Charge          ....    0
 Multiplicity           Mult            ....    1
 Number of Electrons    NEL             ....  546
 Basis Dimension        Dim             .... 1146

ORBITAL ENERGIES
----------------

  NO   OCC          E(Eh)            E(eV)
   0   2.0000    -101.628286     -2765.4463
   1   2.0000    -101.619083     -2765.1958
   2   2.0000     -89.005055     -2421.9507
   3   2.0000     -88.994967     -2421.6762
   4   2.0000     -88.986958     -2421.4582
   5   2.0000     -88.963051     -2420.8077
   6   2.0000     -19.301700      -525.2260
   7   2.0000     -19.256812      -524.0045
   8   2.0000     -19.253493      -523.9142
   9   2.0000     -19.250648      -523.8368
  10   2.0000     -19.247418      -523.7489
  11   2.0000     -19.238197      -523.4980
  12   2.0000     -19.222489      -523.0705
  13   2.0000     -19.201777      -522.5069
  14   2.0000     -19.199178      -522.4362
  15   2.0000     -14.462322      -393.5398
  16   2.0000     -14.460607      -393.4931
  17   2.0000     -14.452219      -393.2649
  18   2.0000     -14.451447      -393.2439
  19   2.0000     -14.429666      -392.6512
  20   2.0000     -14.429334      -392.6421
  21   2.0000     -14.423270      -392.4771
  22   2.0000     -14.419090      -392.3634
  23   2.0000     -10.442965      -284.1675
  24   2.0000     -10.442857      -284.1646
  25   2.0000     -10.418743      -283.5084
  26   2.0000     -10.417861      -283.4844
  27   2.0000     -10.394031      -282.8360
  28   2.0000     -10.388470      -282.6846
  29   2.0000     -10.384512      -282.5769
  30   2.0000     -10.381743      -282.5016
  31   2.0000     -10.378731      -282.4196
  32   2.0000     -10.378101      -282.4025
  33   2.0000     -10.360936      -281.9354
  34   2.0000     -10.358563      -281.8708
  35   2.0000     -10.354276      -281.7542
  36   2.0000     -10.353750      -281.7399
  37   2.0000     -10.353470      -281.7322
  38   2.0000     -10.353326      -281.7283
  39   2.0000     -10.351448      -281.6772
  40   2.0000     -10.349341      -281.6199
  41   2.0000     -10.347327      -281.5651
  42   2.0000     -10.344208      -281.4802
  43   2.0000     -10.344162      -281.4790
  44   2.0000     -10.339549      -281.3534
  45   2.0000     -10.339154      -281.3427
  46   2.0000     -10.338281      -281.3189
  47   2.0000     -10.337031      -281.2849
  48   2.0000     -10.336128      -281.2603
  49   2.0000     -10.330904      -281.1182
  50   2.0000     -10.330810      -281.1156
  51   2.0000     -10.330318      -281.1023
  52   2.0000     -10.324675      -280.9487
  53   2.0000     -10.323969      -280.9295
  54   2.0000     -10.323762      -280.9238
  55   2.0000     -10.322875      -280.8997
  56   2.0000     -10.320778      -280.8426
  57   2.0000     -10.318699      -280.7861
  58   2.0000     -10.315401      -280.6963
  59   2.0000     -10.312684      -280.6224
  60   2.0000     -10.311842      -280.5995
  61   2.0000     -10.309782      -280.5434
  62   2.0000     -10.309703      -280.5413
  63   2.0000     -10.309389      -280.5327
  64   2.0000     -10.308507      -280.5087
  65   2.0000     -10.305913      -280.4381
  66   2.0000     -10.305007      -280.4135
  67   2.0000     -10.302505      -280.3454
  68   2.0000     -10.302396      -280.3424
  69   2.0000     -10.274167      -279.5743
  70   2.0000     -10.270562      -279.4762
  71   2.0000     -10.265630      -279.3420
  72   2.0000     -10.264592      -279.3137
  73   2.0000      -9.583078      -260.7688
  74   2.0000      -9.573872      -260.5183
  75   2.0000      -8.100714      -220.4316
  76   2.0000      -8.090692      -220.1589
  77   2.0000      -8.083127      -219.9531
  78   2.0000      -8.062328      -219.3871
  79   2.0000      -7.353724      -200.1050
  80   2.0000      -7.344524      -199.8547
  81   2.0000      -7.343128      -199.8167
  82   2.0000      -7.342534      -199.8005
  83   2.0000      -7.333901      -199.5656
  84   2.0000      -7.333358      -199.5508
  85   2.0000      -6.070052      -165.1745
  86   2.0000      -6.065430      -165.0487
  87   2.0000      -6.063074      -164.9846
  88   2.0000      -6.060079      -164.9031
  89   2.0000      -6.055476      -164.7779
  90   2.0000      -6.052918      -164.7083
  91   2.0000      -6.051681      -164.6746
  92   2.0000      -6.048349      -164.5839
  93   2.0000      -6.045697      -164.5118
  94   2.0000      -6.031183      -164.1168
  95   2.0000      -6.027885      -164.0271
  96   2.0000      -6.023400      -163.9050
  97   2.0000      -1.251081       -34.0436
  98   2.0000      -1.181512       -32.1506
  99   2.0000      -1.177419       -32.0392
 100   2.0000      -1.177019       -32.0283
 101   2.0000      -1.156585       -31.4723
 102   2.0000      -1.154793       -31.4235
 103   2.0000      -1.142808       -31.0974
 104   2.0000      -1.139484       -31.0069
 105   2.0000      -1.139384       -31.0042
 106   2.0000      -1.135837       -30.9077
 107   2.0000      -1.073044       -29.1990
 108   2.0000      -1.062812       -28.9206
 109   2.0000      -1.049639       -28.5621
 110   2.0000      -1.040161       -28.3042
 111   2.0000      -1.030690       -28.0465
 112   2.0000      -1.026551       -27.9339
 113   2.0000      -1.018772       -27.7222
 114   2.0000      -1.007676       -27.4203
 115   2.0000      -0.999480       -27.1972
 116   2.0000      -0.999415       -27.1955
 117   2.0000      -0.990408       -26.9504
 118   2.0000      -0.968557       -26.3558
 119   2.0000      -0.964887       -26.2559
 120   2.0000      -0.964290       -26.2397
 121   2.0000      -0.956232       -26.0204
 122   2.0000      -0.949553       -25.8387
 123   2.0000      -0.943331       -25.6693
 124   2.0000      -0.935132       -25.4462
 125   2.0000      -0.919729       -25.0271
 126   2.0000      -0.916121       -24.9289
 127   2.0000      -0.909507       -24.7489
 128   2.0000      -0.905121       -24.6296
 129   2.0000      -0.896643       -24.3989
 130   2.0000      -0.887699       -24.1555
 131   2.0000      -0.876646       -23.8547
 132   2.0000      -0.869400       -23.6576
 133   2.0000      -0.854481       -23.2516
 134   2.0000      -0.843940       -22.9648
 135   2.0000      -0.834476       -22.7073
 136   2.0000      -0.826004       -22.4767
 137   2.0000      -0.823731       -22.4149
 138   2.0000      -0.811117       -22.0716
 139   2.0000      -0.808748       -22.0072
 140   2.0000      -0.794970       -21.6322
 141   2.0000      -0.790793       -21.5186
 142   2.0000      -0.776701       -21.1351
 143   2.0000      -0.769160       -20.9299
 144   2.0000      -0.765114       -20.8198
 145   2.0000      -0.764798       -20.8112
 146   2.0000      -0.759549       -20.6684
 147   2.0000      -0.733044       -19.9471
 148   2.0000      -0.730785       -19.8857
 149   2.0000      -0.722823       -19.6690
 150   2.0000      -0.713118       -19.4049
 151   2.0000      -0.711227       -19.3535
 152   2.0000      -0.703869       -19.1532
 153   2.0000      -0.698203       -18.9991
 154   2.0000      -0.691885       -18.8271
 155   2.0000      -0.688560       -18.7367
 156   2.0000      -0.686858       -18.6904
 157   2.0000      -0.681616       -18.5477
 158   2.0000      -0.677903       -18.4467
 159   2.0000      -0.657607       -17.8944
 160   2.0000      -0.652136       -17.7455
 161   2.0000      -0.648200       -17.6384
 162   2.0000      -0.647280       -17.6134
 163   2.0000      -0.640158       -17.4196
 164   2.0000      -0.633565       -17.2402
 165   2.0000      -0.631808       -17.1924
 166   2.0000      -0.623787       -16.9741
 167   2.0000      -0.620938       -16.8966
 168   2.0000      -0.620068       -16.8729
 169   2.0000      -0.612436       -16.6652
 170   2.0000      -0.611977       -16.6527
 171   2.0000      -0.609112       -16.5748
 172   2.0000      -0.598359       -16.2822
 173   2.0000      -0.590093       -16.0572
 174   2.0000      -0.588056       -16.0018
 175   2.0000      -0.584771       -15.9124
 176   2.0000      -0.583905       -15.8889
 177   2.0000      -0.575625       -15.6635
 178   2.0000      -0.572354       -15.5745
 179   2.0000      -0.571200       -15.5432
 180   2.0000      -0.567002       -15.4289
 181   2.0000      -0.564315       -15.3558
 182   2.0000      -0.556910       -15.1543
 183   2.0000      -0.555782       -15.1236
 184   2.0000      -0.554824       -15.0975
 185   2.0000      -0.552938       -15.0462
 186   2.0000      -0.552139       -15.0245
 187   2.0000      -0.550811       -14.9883
 188   2.0000      -0.550148       -14.9703
 189   2.0000      -0.546130       -14.8609
 190   2.0000      -0.543715       -14.7952
 191   2.0000      -0.541654       -14.7392
 192   2.0000      -0.537489       -14.6258
 193   2.0000      -0.536643       -14.6028
 194   2.0000      -0.534650       -14.5486
 195   2.0000      -0.532938       -14.5020
 196   2.0000      -0.529747       -14.4152
 197   2.0000      -0.525325       -14.2948
 198   2.0000      -0.524724       -14.2785
 199   2.0000      -0.522179       -14.2092
 200   2.0000      -0.520786       -14.1713
 201   2.0000      -0.516749       -14.0615
 202   2.0000      -0.515767       -14.0347
 203   2.0000      -0.514480       -13.9997
 204   2.0000      -0.513123       -13.9628
 205   2.0000      -0.509720       -13.8702
 206   2.0000      -0.508884       -13.8474
 207   2.0000      -0.506503       -13.7826
 208   2.0000      -0.506200       -13.7744
 209   2.0000      -0.503144       -13.6912
 210   2.0000      -0.499816       -13.6007
 211   2.0000      -0.497176       -13.5288
 212   2.0000      -0.493973       -13.4417
 213   2.0000      -0.489791       -13.3279
 214   2.0000      -0.486526       -13.2390
 215   2.0000      -0.486226       -13.2309
 216   2.0000      -0.482075       -13.1179
 217   2.0000      -0.479741       -13.0544
 218   2.0000      -0.472728       -12.8636
 219   2.0000      -0.470772       -12.8104
 220   2.0000      -0.469908       -12.7868
 221   2.0000      -0.465804       -12.6752
 222   2.0000      -0.461592       -12.5606
 223   2.0000      -0.461271       -12.5518
 224   2.0000      -0.460856       -12.5405
 225   2.0000      -0.457562       -12.4509
 226   2.0000      -0.456323       -12.4172
 227   2.0000      -0.455646       -12.3988
 228   2.0000      -0.455025       -12.3819
 229   2.0000      -0.453234       -12.3331
 230   2.0000      -0.452774       -12.3206
 231   2.0000      -0.447907       -12.1882
 232   2.0000      -0.447262       -12.1706
 233   2.0000      -0.444390       -12.0925
 234   2.0000      -0.442756       -12.0480
 235   2.0000      -0.441655       -12.0180
 236   2.0000      -0.439988       -11.9727
 237   2.0000      -0.433843       -11.8055
 238   2.0000      -0.430724       -11.7206
 239   2.0000      -0.429852       -11.6969
 240   2.0000      -0.427343       -11.6286
 241   2.0000      -0.426140       -11.5959
 242   2.0000      -0.423760       -11.5311
 243   2.0000      -0.422876       -11.5071
 244   2.0000      -0.416411       -11.3311
 245   2.0000      -0.414234       -11.2719
 246   2.0000      -0.411016       -11.1843
 247   2.0000      -0.405941       -11.0462
 248   2.0000      -0.405522       -11.0348
 249   2.0000      -0.404900       -11.0179
 250   2.0000      -0.404353       -11.0030
 251   2.0000      -0.393826       -10.7165
 252   2.0000      -0.387679       -10.5493
 253   2.0000      -0.384868       -10.4728
 254   2.0000      -0.383110       -10.4250
 255   2.0000      -0.379359       -10.3229
 256   2.0000      -0.367062        -9.9883
 257   2.0000      -0.362190        -9.8557
 258   2.0000      -0.357572        -9.7300
 259   2.0000      -0.353710        -9.6249
 260   2.0000      -0.351626        -9.5682
 261   2.0000      -0.347527        -9.4567
 262   2.0000      -0.346450        -9.4274
 263   2.0000      -0.345463        -9.4005
 264   2.0000      -0.341254        -9.2860
 265   2.0000      -0.335266        -9.1231
 266   2.0000      -0.335086        -9.1182
 267   2.0000      -0.330029        -8.9806
 268   2.0000      -0.324263        -8.8236
 269   2.0000      -0.316576        -8.6145
 270   2.0000      -0.315925        -8.5967
 271   2.0000      -0.296307        -8.0629
 272   2.0000      -0.249469        -6.7884
 273   0.0000      -0.118178        -3.2158
 274   0.0000      -0.108352        -2.9484
 275   0.0000      -0.102348        -2.7850
 276   0.0000      -0.091346        -2.4857
 277   0.0000      -0.068404        -1.8614

MULLIKEN ATOMIC CHARGES
-----------------------
   0 C :    0.035712
   1 C :   -0.125491
   2 S :    0.198657
   3 C :   -0.163663
   4 Cl:    0.007257
   5 C :    0.073778
   6 C :    0.159090
   7 O :   -0.146470
   8 C :   -0.038630
   9 C :    0.292966
  10 C :   -0.305371
  11 C :   -0.198280
  12 N :    0.165041
  13 C :   -0.184603
  14 N :    0.172285
  15 C :   -0.067244
  16 C :   -0.002789
  17 C :    0.078889
  18 C :    0.046045
  19 O :   -0.130143
  20 S :    0.036307
  21 C :    0.037290
  22 O :   -0.130365
  23 C :    0.037933
  24 C :    0.051928
  25 C :   -0.076170
  26 C :   -0.054914
  27 C :    0.240628
  28 O :   -0.100865
  29 O :   -0.225568
  30 C :    0.228662
  31 O :   -0.089425
  32 C :   -0.054548
  33 C :    0.039411
  34 C :    0.078251
  35 N :   -0.262048
  36 C :    0.092869
  37 C :   -0.004136
  38 C :    0.167217
  39 O :   -0.209982
  40 C :   -0.068423
  41 C :   -0.026350
  42 C :    0.155819
  43 O :   -0.176360
  44 N :   -0.262482
  45 C :    0.094483
  46 C :    0.000080
  47 C :    0.152071
  48 C :   -0.025417
  49 C :    0.083335
  50 C :   -0.110337
  51 S :    0.141978
  52 C :   -0.097147
  53 N :   -0.036022
  54 N :   -0.037885
  55 C :    0.069749
  56 C :    0.025592
  57 C :    0.027806
  58 C :   -0.114815
  59 C :    0.139771
  60 O :   -0.124726
  61 C :    0.082457
  62 C :   -0.171459
  63 S :    0.186442
  64 C :   -0.128984
  65 C :    0.026198
  66 C :    0.265338
  67 C :   -0.304305
  68 C :   -0.185651
  69 N :    0.155251
  70 C :   -0.212244
  71 N :    0.180226
  72 Cl:    0.000731
  73 H :    0.056857
  74 H :    0.054113
  75 H :    0.022387
  76 H :    0.014314
  77 H :    0.038712
  78 H :    0.045131
  79 H :    0.028988
  80 H :    0.023657
  81 H :    0.025462
  82 H :    0.030119
  83 H :    0.046085
  84 H :    0.022545
  85 H :    0.029000
  86 H :    0.031131
  87 H :    0.007406
  88 H :    0.015854
  89 H :    0.007804
  90 H :    0.050557
  91 H :    0.022285
  92 H :    0.053364
Sum of atomic charges:   -0.0000000

LOEWDIN ATOMIC CHARGES
----------------------
   0 C :   -0.054956
   1 C :   -0.146462
   2 S :    0.488848
   3 C :   -0.268790
   4 Cl:    0.199543
   5 C :   -0.117068
   6 C :    0.089458
   7 O :   -0.136341
   8 C :   -0.051551
   9 C :    0.074091
  10 C :   -0.115927
  11 C :   -0.014217
  12 N :   -0.040627
  13 C :   -0.020532
  14 N :   -0.030678
  15 C :    0.072199
  16 C :    0.014132
  17 C :   -0.024601
  18 C :   -0.043324
  19 O :   -0.114998
  20 S :    0.324326
  21 C :   -0.037579
  22 O :   -0.112875
  23 C :   -0.052698
  24 C :    0.040207
  25 C :   -0.051981
  26 C :   -0.033065
  27 C :    0.104517
  28 O :   -0.093865
  29 O :   -0.051277
  30 C :    0.109881
  31 O :   -0.088351
  32 C :   -0.031366
  33 C :    0.020006
  34 C :    0.063581
  35 N :    0.000759
  36 C :    0.035219
  37 C :   -0.062289
  38 C :    0.082012
  39 O :   -0.199371
  40 C :   -0.123598
  41 C :   -0.095431
  42 C :    0.083878
  43 O :   -0.179056
  44 N :   -0.000767
  45 C :    0.036850
  46 C :   -0.059835
  47 C :    0.086743
  48 C :   -0.011373
  49 C :   -0.000081
  50 C :   -0.148971
  51 S :    0.421509
  52 C :   -0.151664
  53 N :   -0.057954
  54 N :   -0.066025
  55 C :   -0.008456
  56 C :    0.007380
  57 C :    0.062603
  58 C :   -0.075510
  59 C :    0.079549
  60 O :   -0.130587
  61 C :   -0.118625
  62 C :   -0.272000
  63 S :    0.475173
  64 C :   -0.151390
  65 C :   -0.056548
  66 C :    0.066483
  67 C :   -0.126921
  68 C :   -0.015425
  69 N :   -0.045730
  70 C :   -0.027007
  71 N :   -0.035860
  72 Cl:    0.192722
  73 H :    0.039474
  74 H :    0.053911
  75 H :    0.033680
  76 H :    0.045175
  77 H :    0.025057
  78 H :    0.037781
  79 H :    0.023794
  80 H :    0.031563
  81 H :    0.031412
  82 H :    0.026141
  83 H :    0.038605
  84 H :    0.024657
  85 H :    0.033367
  86 H :    0.032659
  87 H :    0.039469
  88 H :    0.039202
  89 H :    0.038731
  90 H :    0.042760
  91 H :    0.046613
  92 H :    0.037884

  Mayer bond orders larger than 0.100000
B(  0-C ,  1-C ) :   1.5401 B(  0-C ,  5-C ) :   1.2225 B(  0-C ,  9-C ) :   1.0074
B(  1-C ,  2-S ) :   1.1640 B(  1-C , 73-H ) :   0.9545 B(  2-S ,  3-C ) :   1.1609
B(  3-C ,  4-Cl) :   1.1362 B(  3-C ,  5-C ) :   1.4569 B(  5-C ,  6-C ) :   0.9724
B(  6-C ,  7-O ) :   2.2054 B(  6-C ,  8-C ) :   0.9149 B(  8-C ,  9-C ) :   1.0380
B(  8-C , 15-C ) :   1.7756 B(  9-C , 10-C ) :   1.6937 B( 10-C , 11-C ) :   1.1412
B( 10-C , 13-C ) :   1.1351 B( 11-C , 12-N ) :   2.9937 B( 13-C , 14-N ) :   2.9758
B( 15-C , 16-C ) :   1.0120 B( 15-C , 74-H ) :   0.9172 B( 16-C , 17-C ) :   1.3783
B( 16-C , 26-C ) :   1.3992 B( 17-C , 18-C ) :   0.8265 B( 17-C , 23-C ) :   1.3441
B( 18-C , 19-O ) :   2.1823 B( 18-C , 20-S ) :   1.0364 B( 19-O , 20-S ) :   0.1089
B( 20-S , 21-C ) :   1.0358 B( 20-S , 22-O ) :   0.1029 B( 21-C , 22-O ) :   2.1537
B( 21-C , 23-C ) :   0.8552 B( 23-C , 24-C ) :   1.3353 B( 24-C , 25-C ) :   1.3240
B( 24-C , 32-C ) :   1.1108 B( 25-C , 26-C ) :   1.3445 B( 25-C , 30-C ) :   0.9041
B( 26-C , 27-C ) :   0.9004 B( 27-C , 28-O ) :   2.2403 B( 27-C , 29-O ) :   1.0711
B( 29-O , 30-C ) :   1.0407 B( 30-C , 31-O ) :   2.2642 B( 32-C , 33-C ) :   1.6085
B( 32-C , 75-H ) :   0.9468 B( 33-C , 34-C ) :   1.2023 B( 33-C , 76-H ) :   0.9353
B( 34-C , 35-N ) :   1.1663 B( 34-C , 41-C ) :   1.3678 B( 35-N , 36-C ) :   0.9378
B( 35-N , 38-C ) :   1.0637 B( 36-C , 37-C ) :   1.1162 B( 36-C , 77-H ) :   0.9503
B( 36-C , 78-H ) :   0.9230 B( 37-C , 79-H ) :   0.9668 B( 37-C , 80-H ) :   0.9671
B( 37-C , 81-H ) :   0.9620 B( 38-C , 39-O ) :   2.0225 B( 38-C , 40-C ) :   0.9919
B( 39-O , 88-H ) :   0.1117 B( 40-C , 41-C ) :   1.2530 B( 40-C , 47-C ) :   1.3265
B( 41-C , 42-C ) :   0.9630 B( 42-C , 43-O ) :   2.1472 B( 42-C , 44-N ) :   1.0289
B( 44-N , 45-C ) :   0.9396 B( 44-N , 47-C ) :   1.1783 B( 45-C , 46-C ) :   1.1192
B( 45-C , 82-H ) :   0.9502 B( 45-C , 83-H ) :   0.9291 B( 46-C , 84-H ) :   0.9686
B( 46-C , 85-H ) :   0.9682 B( 46-C , 86-H ) :   0.9645 B( 47-C , 48-C ) :   1.1323
B( 48-C , 49-C ) :   1.6481 B( 48-C , 87-H ) :   0.9740 B( 49-C , 50-C ) :   1.1114
B( 49-C , 88-H ) :   0.9258 B( 50-C , 51-S ) :   1.1137 B( 50-C , 54-N ) :   1.6391
B( 51-S , 52-C ) :   1.0992 B( 52-C , 53-N ) :   1.6426 B( 52-C , 55-C ) :   1.1003
B( 53-N , 54-N ) :   1.2609 B( 55-C , 56-C ) :   1.7097 B( 55-C , 89-H ) :   0.9608
B( 56-C , 57-C ) :   1.1025 B( 56-C , 90-H ) :   0.9528 B( 57-C , 58-C ) :   1.6540
B( 57-C , 91-H ) :   0.9559 B( 58-C , 59-C ) :   0.9311 B( 58-C , 66-C ) :   1.0341
B( 59-C , 60-O ) :   2.2840 B( 59-C , 61-C ) :   0.9265 B( 61-C , 62-C ) :   1.4836
B( 61-C , 65-C ) :   1.2218 B( 62-C , 63-S ) :   1.1534 B( 62-C , 72-Cl) :   1.1297
B( 63-S , 64-C ) :   1.1587 B( 64-C , 65-C ) :   1.5515 B( 64-C , 92-H ) :   0.9566
B( 65-C , 66-C ) :   1.0110 B( 66-C , 67-C ) :   1.6662 B( 67-C , 68-C ) :   1.1363
B( 67-C , 70-C ) :   1.1449 B( 68-C , 69-N ) :   2.9988 B( 70-C , 71-N ) :   3.0184

-----------------------------------------------------------------------------
         ABSORPTION SPECTRUM VIA TRANSITION ELECTRIC DIPOLE MOMENTS
-----------------------------------------------------------------------------
State   Energy  Wavelength   fosc         T2         TX        TY        TZ
        (cm-1)    (nm)                  (au**2)     (au)      (au)      (au)
-----------------------------------------------------------------------------
   0   14214.9    703.5   1.175223234  27.21783  -4.87656   1.59693   0.94170
   1   16592.7    602.7   0.046512138   0.92284   0.62556  -0.46069  -0.56505
   2   19194.5    521.0   0.006416236   0.11005   0.31238  -0.10794  -0.02851
   3   21708.0    460.7   0.059701073   0.90539  -0.83468  -0.40635   0.20877
   4   24162.5    413.9   0.551769968   7.51781  -2.51168   0.73136   0.82121
   5   25232.6    396.3   0.090325717   1.17849  -1.08438  -0.02034  -0.04675
   6   25532.3    391.7   0.013092518   0.16881  -0.29364   0.20534   0.20107
   7   25785.2    387.8   0.003518133   0.04492   0.19064  -0.06206  -0.06873
   8   26620.0    375.7   0.001085651   0.01343   0.08870  -0.03053  -0.06802
   9   26874.7    372.1   0.055486061   0.67970   0.79713   0.03700  -0.20714
  10   27524.3    363.3   0.166935857   1.99668  -1.40126   0.12866  -0.12881
  11   27730.4    360.6   0.002455524   0.02915  -0.15117   0.01435   0.07807
  12   28049.4    356.5   0.054678002   0.64175   0.69812   0.29641  -0.25791
  13   28617.9    349.4   0.010574481   0.12165  -0.17061   0.30308   0.02603
  14   29143.3    343.1   0.049709521   0.56153  -0.69049  -0.05864   0.28517
  15   29297.0    341.3   0.045922597   0.51603  -0.57876   0.15251   0.39726
  16   29411.1    340.0   0.209620022   2.34637  -1.01641  -1.05541  -0.44651
  17   30218.5    330.9   0.190426740   2.07458   1.40059  -0.22906  -0.24587
  18   31223.4    320.3   0.001570731   0.01656   0.12335  -0.03134  -0.01910
  19   31504.3    317.4   0.035573784   0.37174   0.57579  -0.15470  -0.12754
  20   31587.2    316.6   0.146347744   1.52528  -1.19562  -0.26720   0.15611
  21   31965.2    312.8   0.069067835   0.71133   0.77249  -0.27164  -0.20200
  22   32255.0    310.0   0.241804436   2.46798   1.51384   0.35179   0.22917
  23   32536.2    307.4   0.014382942   0.14553  -0.08935  -0.22588  -0.29415
  24   32552.9    307.2   0.044477098   0.44980  -0.18835   0.63972   0.07132
  25   32803.5    304.8   0.022909179   0.22991   0.43241  -0.00895  -0.20701
  26   33194.6    301.3   0.002377279   0.02358   0.15041   0.02731   0.01445
  27   33611.0    297.5   0.076777679   0.75202  -0.86377   0.00618   0.07671
  28   33844.2    295.5   0.025474841   0.24780  -0.25898  -0.42153  -0.05514
  29   33961.7    294.4   0.005266536   0.05105  -0.00722   0.06699   0.21567
  30   34212.9    292.3   0.021387210   0.20580   0.00484   0.44457  -0.09017
  31   34279.2    291.7   0.048860327   0.46925   0.50287   0.45746  -0.08429
  32   34627.1    288.8   0.019604560   0.18639  -0.11968  -0.38594  -0.15204
  33   34850.7    286.9   0.021535833   0.20344   0.43191  -0.12906   0.01534
  34   35527.0    281.5   0.060001230   0.55600  -0.65260  -0.35634  -0.05603
  35   35531.9    281.4   0.035863930   0.33229   0.00858  -0.49613  -0.29338
  36   35733.1    279.9   0.036418024   0.33552  -0.32825  -0.24756  -0.40803
  37   36075.3    277.2   0.011599024   0.10585   0.00819   0.32475   0.01789
  38   36207.1    276.2   0.290458926   2.64099  -0.13429   1.61656   0.09844
  39   36252.3    275.8   0.010585112   0.09612  -0.27680  -0.13528  -0.03473
  40   36538.7    273.7   0.082228755   0.74088   0.08260   0.68370  -0.51635
  41   36626.2    273.0   0.344044512   3.09242   1.57817  -0.46853   0.61828
  42   36784.0    271.9   0.227732133   2.03817  -0.54671  -1.30559  -0.18634
  43   36849.4    271.4   0.034869365   0.31152  -0.55538  -0.05364  -0.01418
  44   37119.5    269.4   0.059871929   0.53100  -0.62382  -0.11130  -0.35982
  45   37339.1    267.8   0.055114853   0.48594   0.26313   0.64517   0.02132
  46   37434.4    267.1   0.127283804   1.11938  -0.28794  -1.01694   0.04800
  47   37821.2    264.4   0.004567941   0.03976   0.13904  -0.12470   0.06984
  48   38293.6    261.1   0.234218625   2.01359   1.35074   0.05736   0.43106
  49   38353.8    260.7   0.109386202   0.93892  -0.92684   0.02401  -0.28161
  50   38433.0    260.2   0.159276075   1.36434   0.81231  -0.83513   0.08400
  51   38598.3    259.1   0.005058351   0.04314  -0.08327   0.18749   0.03250
  52   38963.6    256.6   0.026009592   0.21976  -0.03374   0.39759   0.24605
  53   39166.6    255.3   0.056752116   0.47703  -0.34706   0.50002   0.32642
  54   39385.5    253.9   0.056526113   0.47249   0.56890  -0.38532  -0.01894
  55   39679.6    252.0   0.033773514   0.28021  -0.28786  -0.40390   0.18496
  56   39862.4    250.9   0.077736716   0.64200   0.23756  -0.58013  -0.49902
  57   40135.1    249.2   0.000858951   0.00705   0.07448   0.03306   0.02015

FINAL SINGLE POINT ENERGY     -5540.956549891747

DIPOLE MOMENT
-------------
                                X             Y             Z
Electronic contribution:     12.03627     -17.35058     -16.42643
Nuclear contribution   :    -13.14346      14.94212      15.21130
                        -----------------------------------------
Total Dipole Moment    :     -1.10719      -2.40846      -1.21513
                        -----------------------------------------
Magnitude (a.u.)       :      2.91600
Magnitude (Debye)      :      7.41189

Rotational constants in cm-1:     0.002934     0.000161     0.000156
Rotational constants in MHz :    87.953177     4.819525     4.680313

                             ****ORCA TERMINATED NORMALLY****
TOTAL RUN TIME: 0 days 0 hours 9 minutes 6 seconds 46 msec
