                         Program Version 4.2.0 -  RELEASE  -
|  1> # ORCA input file
|  2> # SCF done       -144.426049980384          0.000958022718
|  3> ! CAM-B3LYP def2-SVP def2/J RIJCOSX Grid4 TightSCF
|  4> %maxcore 5000
|  5> %tddft
|  6>     Mode sTDDFT
|  7>     Ethresh 5.0
|  8>     maxcore 5000
|  9> end
| 10>
| 11> %pal
| 12>   nprocs 6
| 13>   end
| 14> * xyz 0 1
| 15>    C        2.67555         2.36520         1.59306
| 16>    C        2.42421         3.62360         2.04908
| 17>    S        3.82102         4.62506         1.91760
| 18>    C        4.77299         3.32491         1.23838
| 19>   Cl        6.39450         3.54554         0.80957
| 20>    C        4.01948         2.19364         1.12751
| 21>    C        4.21603         0.82414         0.64712
| 22>    O        5.22433         0.33342         0.19889
| 23>    C        2.88351         0.16092         0.84109
| 24>    C        1.96806         1.10950         1.47103
| 25>    C        0.70260         0.88197         1.94008
| 26>    C       -0.06116         1.91419         2.52821
| 27>    N       -0.70233         2.74131         2.99673
| 28>    C        0.04156        -0.36051         1.96872
| 29>    N       -0.52914        -1.35278         2.06643
| 30>    C        2.60940        -1.13556         0.57251
| 31>    C        3.55163        -2.11903         0.10715
| 32>    C        3.54892        -3.38383         0.72131
| 33>    N        4.51382        -4.25172         0.55982
| 34>    C        5.50853        -3.92021        -0.26791
| 35>    N        5.48531        -2.84692        -1.06172
| 36>    C        4.53098        -1.95892        -0.88241
| 37>    C        6.65418        -4.79451        -0.27154
| 38>    O        6.68793        -5.68401         0.72960
| 39>    C        7.82410        -6.38670         0.63217
| 40>    C        8.54527        -5.97021        -0.46343
| 41>    C        7.80039        -4.92754        -1.05763
| 42>    C        8.25977        -4.23022        -2.29634
| 43>    O        9.21985        -4.63389        -2.89865
| 44>    O        7.57799        -3.16966        -2.69858
| 45>    C        8.07034        -7.33509         1.70277
| 46>    N        9.15752        -8.10520         1.68628
| 47>    C        9.31444        -8.91095         2.72224
| 48>    C        8.42473        -8.95843         3.78838
| 49>    C        7.31802        -8.10440         3.71546
| 50>    N        7.15566        -7.31604         2.65690
| 51>    C        6.30365        -7.99208         4.74595
| 52>    C        5.31489        -7.08449         4.60987
| 53>    C        4.26031        -6.88023         5.53933
| 54>    C        3.38171        -5.84481         5.53709
| 55>    C        2.09936        -5.96669         6.30747
| 56>    O        1.85133        -6.78874         7.15443
| 57>    C        1.24238        -4.91420         5.75196
| 58>    C       -0.05201        -4.50211         5.87607
| 59>    S       -0.36529        -3.13064         4.83744
| 60>    C        1.25835        -3.12242         4.26146
| 61>    C        1.99325        -4.11979         4.82366
| 62>    C        3.36022        -4.60543         4.77704
| 63>    C        4.41624        -3.88804         4.27869
| 64>    C        4.20631        -2.62935         3.67976
| 65>    N        4.03139        -1.60090         3.19881
| 66>    C        5.78210        -4.21228         4.42247
| 67>    N        6.90812        -4.37980         4.56300
| 68>   Cl       -1.26240        -5.15485         6.86263
| 69>    H        1.51893         4.03319         2.45162
| 70>    H        1.63572        -1.52973         0.83634
| 71>    H        2.74818        -3.67504         1.38994
| 72>    H        4.52334        -1.12902        -1.57261
| 73>    H        9.48793        -6.34448        -0.80439
| 74>    H        6.80579        -2.93472        -2.11973
| 75>    H       10.19659        -9.53746         2.69601
| 76>    H        8.58301        -9.61340         4.62944
| 77>    H        6.39555        -8.61883         5.62157
| 78>    H        5.32258        -6.49257         3.70424
| 79>    H        4.07564        -7.65351         6.27805
| 80>    H        1.54822        -2.38429         3.54122
| 81> *
| 82>
| 83>                          ****END OF INPUT****

CARTESIAN COORDINATES (ANGSTROEM)
---------------------------------
  C      2.675550    2.365200    1.593060
  C      2.424210    3.623600    2.049080
  S      3.821020    4.625060    1.917600
  C      4.772990    3.324910    1.238380
  Cl     6.394500    3.545540    0.809570
  C      4.019480    2.193640    1.127510
  C      4.216030    0.824140    0.647120
  O      5.224330    0.333420    0.198890
  C      2.883510    0.160920    0.841090
  C      1.968060    1.109500    1.471030
  C      0.702600    0.881970    1.940080
  C     -0.061160    1.914190    2.528210
  N     -0.702330    2.741310    2.996730
  C      0.041560   -0.360510    1.968720
  N     -0.529140   -1.352780    2.066430
  C      2.609400   -1.135560    0.572510
  C      3.551630   -2.119030    0.107150
  C      3.548920   -3.383830    0.721310
  N      4.513820   -4.251720    0.559820
  C      5.508530   -3.920210   -0.267910
  N      5.485310   -2.846920   -1.061720
  C      4.530980   -1.958920   -0.882410
  C      6.654180   -4.794510   -0.271540
  O      6.687930   -5.684010    0.729600
  C      7.824100   -6.386700    0.632170
  C      8.545270   -5.970210   -0.463430
  C      7.800390   -4.927540   -1.057630
  C      8.259770   -4.230220   -2.296340
  O      9.219850   -4.633890   -2.898650
  O      7.577990   -3.169660   -2.698580
  C      8.070340   -7.335090    1.702770
  N      9.157520   -8.105200    1.686280
  C      9.314440   -8.910950    2.722240
  C      8.424730   -8.958430    3.788380
  C      7.318020   -8.104400    3.715460
  N      7.155660   -7.316040    2.656900
  C      6.303650   -7.992080    4.745950
  C      5.314890   -7.084490    4.609870
  C      4.260310   -6.880230    5.539330
  C      3.381710   -5.844810    5.537090
  C      2.099360   -5.966690    6.307470
  O      1.851330   -6.788740    7.154430
  C      1.242380   -4.914200    5.751960
  C     -0.052010   -4.502110    5.876070
  S     -0.365290   -3.130640    4.837440
  C      1.258350   -3.122420    4.261460
  C      1.993250   -4.119790    4.823660
  C      3.360220   -4.605430    4.777040
  C      4.416240   -3.888040    4.278690
  C      4.206310   -2.629350    3.679760
  N      4.031390   -1.600900    3.198810
  C      5.782100   -4.212280    4.422470
  N      6.908120   -4.379800    4.563000
  Cl    -1.262400   -5.154850    6.862630
  H      1.518930    4.033190    2.451620
  H      1.635720   -1.529730    0.836340
  H      2.748180   -3.675040    1.389940
  H      4.523340   -1.129020   -1.572610
  H      9.487930   -6.344480   -0.804390
  H      6.805790   -2.934720   -2.119730
  H     10.196590   -9.537460    2.696010
  H      8.583010   -9.613400    4.629440
  H      6.395550   -8.618830    5.621570
  H      5.322580   -6.492570    3.704240
  H      4.075640   -7.653510    6.278050
  H      1.548220   -2.384290    3.541220

 Total Charge           Charge          ....    0
 Multiplicity           Mult            ....    1
 Number of Electrons    NEL             ....  396
 Basis Dimension        Dim             ....  832

ORBITAL ENERGIES
----------------

  NO   OCC          E(Eh)            E(eV)
   0   2.0000    -101.625179     -2765.3617
   1   2.0000    -101.618559     -2765.1816
   2   2.0000     -89.004287     -2421.9298
   3   2.0000     -88.994692     -2421.6687
   4   2.0000     -19.302122      -525.2374
   5   2.0000     -19.234992      -523.4107
   6   2.0000     -19.223354      -523.0940
   7   2.0000     -19.217226      -522.9273
   8   2.0000     -19.171812      -521.6915
   9   2.0000     -14.448441      -393.1621
  10   2.0000     -14.443315      -393.0226
  11   2.0000     -14.435966      -392.8226
  12   2.0000     -14.433264      -392.7491
  13   2.0000     -14.432797      -392.7364
  14   2.0000     -14.421899      -392.4398
  15   2.0000     -14.421363      -392.4252
  16   2.0000     -14.416807      -392.3013
  17   2.0000     -10.391093      -282.7560
  18   2.0000     -10.386152      -282.6216
  19   2.0000     -10.383329      -282.5448
  20   2.0000     -10.380025      -282.4549
  21   2.0000     -10.379718      -282.4465
  22   2.0000     -10.377610      -282.3891
  23   2.0000     -10.364326      -282.0276
  24   2.0000     -10.362785      -281.9857
  25   2.0000     -10.358361      -281.8653
  26   2.0000     -10.357635      -281.8456
  27   2.0000     -10.356991      -281.8280
  28   2.0000     -10.355197      -281.7792
  29   2.0000     -10.350509      -281.6517
  30   2.0000     -10.349521      -281.6248
  31   2.0000     -10.346912      -281.5538
  32   2.0000     -10.341012      -281.3933
  33   2.0000     -10.340553      -281.3807
  34   2.0000     -10.339540      -281.3532
  35   2.0000     -10.339417      -281.3498
  36   2.0000     -10.338360      -281.3211
  37   2.0000     -10.334737      -281.2225
  38   2.0000     -10.332354      -281.1577
  39   2.0000     -10.332158      -281.1523
  40   2.0000     -10.323969      -280.9295
  41   2.0000     -10.323399      -280.9140
  42   2.0000     -10.323017      -280.9036
  43   2.0000     -10.322228      -280.8821
  44   2.0000     -10.318492      -280.7804
  45   2.0000     -10.317249      -280.7466
  46   2.0000     -10.311434      -280.5884
  47   2.0000     -10.310193      -280.5546
  48   2.0000     -10.305837      -280.4361
  49   2.0000     -10.302963      -280.3579
  50   2.0000     -10.298582      -280.2387
  51   2.0000     -10.298044      -280.2240
  52   2.0000     -10.295091      -280.1437
  53   2.0000     -10.281850      -279.7834
  54   2.0000      -9.579943      -260.6835
  55   2.0000      -9.573381      -260.5049
  56   2.0000      -8.100004      -220.4123
  57   2.0000      -8.090061      -220.1417
  58   2.0000      -7.350609      -200.0202
  59   2.0000      -7.344008      -199.8406
  60   2.0000      -7.339974      -199.7308
  61   2.0000      -7.339397      -199.7151
  62   2.0000      -7.333427      -199.5527
  63   2.0000      -7.332863      -199.5373
  64   2.0000      -6.069323      -165.1547
  65   2.0000      -6.064724      -165.0295
  66   2.0000      -6.062343      -164.9647
  67   2.0000      -6.059420      -164.8852
  68   2.0000      -6.054732      -164.7576
  69   2.0000      -6.052391      -164.6939
  70   2.0000      -1.230438       -33.4819
  71   2.0000      -1.152780       -31.3687
  72   2.0000      -1.152093       -31.3500
  73   2.0000      -1.140594       -31.0372
  74   2.0000      -1.115082       -30.3429
  75   2.0000      -1.095401       -29.8074
  76   2.0000      -1.066315       -29.0159
  77   2.0000      -1.049594       -28.5609
  78   2.0000      -1.041965       -28.3533
  79   2.0000      -1.035347       -28.1732
  80   2.0000      -1.026945       -27.9446
  81   2.0000      -1.016153       -27.6509
  82   2.0000      -1.009586       -27.4722
  83   2.0000      -1.005960       -27.3736
  84   2.0000      -1.000309       -27.2198
  85   2.0000      -0.995469       -27.0881
  86   2.0000      -0.991966       -26.9928
  87   2.0000      -0.967927       -26.3386
  88   2.0000      -0.958377       -26.0788
  89   2.0000      -0.948383       -25.8068
  90   2.0000      -0.931956       -25.3598
  91   2.0000      -0.920392       -25.0451
  92   2.0000      -0.915757       -24.9190
  93   2.0000      -0.909801       -24.7569
  94   2.0000      -0.905235       -24.6327
  95   2.0000      -0.886720       -24.1289
  96   2.0000      -0.858577       -23.3631
  97   2.0000      -0.850319       -23.1384
  98   2.0000      -0.844237       -22.9729
  99   2.0000      -0.836100       -22.7515
 100   2.0000      -0.809592       -22.0301
 101   2.0000      -0.798818       -21.7370
 102   2.0000      -0.778026       -21.1712
 103   2.0000      -0.773880       -21.0583
 104   2.0000      -0.766143       -20.8478
 105   2.0000      -0.764901       -20.8140
 106   2.0000      -0.748960       -20.3802
 107   2.0000      -0.745450       -20.2847
 108   2.0000      -0.724780       -19.7223
 109   2.0000      -0.704054       -19.1583
 110   2.0000      -0.702006       -19.1026
 111   2.0000      -0.695703       -18.9310
 112   2.0000      -0.689722       -18.7683
 113   2.0000      -0.683664       -18.6034
 114   2.0000      -0.680708       -18.5230
 115   2.0000      -0.671340       -18.2681
 116   2.0000      -0.668955       -18.2032
 117   2.0000      -0.665170       -18.1002
 118   2.0000      -0.646853       -17.6018
 119   2.0000      -0.634597       -17.2683
 120   2.0000      -0.632058       -17.1992
 121   2.0000      -0.625429       -17.0188
 122   2.0000      -0.623235       -16.9591
 123   2.0000      -0.620878       -16.8950
 124   2.0000      -0.613554       -16.6956
 125   2.0000      -0.605343       -16.4722
 126   2.0000      -0.592439       -16.1211
 127   2.0000      -0.584402       -15.9024
 128   2.0000      -0.576849       -15.6969
 129   2.0000      -0.569884       -15.5073
 130   2.0000      -0.565077       -15.3765
 131   2.0000      -0.559454       -15.2235
 132   2.0000      -0.557298       -15.1649
 133   2.0000      -0.552792       -15.0422
 134   2.0000      -0.550022       -14.9669
 135   2.0000      -0.547789       -14.9061
 136   2.0000      -0.543525       -14.7901
 137   2.0000      -0.538707       -14.6590
 138   2.0000      -0.537788       -14.6340
 139   2.0000      -0.535711       -14.5774
 140   2.0000      -0.530071       -14.4240
 141   2.0000      -0.528261       -14.3747
 142   2.0000      -0.525361       -14.2958
 143   2.0000      -0.523336       -14.2407
 144   2.0000      -0.520138       -14.1537
 145   2.0000      -0.518410       -14.1066
 146   2.0000      -0.512922       -13.9573
 147   2.0000      -0.508504       -13.8371
 148   2.0000      -0.506549       -13.7839
 149   2.0000      -0.505272       -13.7491
 150   2.0000      -0.502682       -13.6787
 151   2.0000      -0.501849       -13.6560
 152   2.0000      -0.500602       -13.6221
 153   2.0000      -0.497018       -13.5246
 154   2.0000      -0.490201       -13.3390
 155   2.0000      -0.485754       -13.2180
 156   2.0000      -0.477096       -12.9824
 157   2.0000      -0.474253       -12.9051
 158   2.0000      -0.469135       -12.7658
 159   2.0000      -0.467181       -12.7126
 160   2.0000      -0.462263       -12.5788
 161   2.0000      -0.461102       -12.5472
 162   2.0000      -0.458214       -12.4686
 163   2.0000      -0.457027       -12.4363
 164   2.0000      -0.453430       -12.3384
 165   2.0000      -0.452421       -12.3110
 166   2.0000      -0.451595       -12.2885
 167   2.0000      -0.447433       -12.1753
 168   2.0000      -0.446579       -12.1520
 169   2.0000      -0.444873       -12.1056
 170   2.0000      -0.442628       -12.0445
 171   2.0000      -0.438626       -11.9356
 172   2.0000      -0.434153       -11.8139
 173   2.0000      -0.426790       -11.6135
 174   2.0000      -0.420325       -11.4376
 175   2.0000      -0.417868       -11.3708
 176   2.0000      -0.413155       -11.2425
 177   2.0000      -0.411081       -11.1861
 178   2.0000      -0.406534       -11.0624
 179   2.0000      -0.404606       -11.0099
 180   2.0000      -0.398621       -10.8470
 181   2.0000      -0.390168       -10.6170
 182   2.0000      -0.386837       -10.5264
 183   2.0000      -0.380155       -10.3445
 184   2.0000      -0.373141       -10.1537
 185   2.0000      -0.361447        -9.8355
 186   2.0000      -0.352500        -9.5920
 187   2.0000      -0.351360        -9.5610
 188   2.0000      -0.347897        -9.4668
 189   2.0000      -0.347059        -9.4440
 190   2.0000      -0.339646        -9.2422
 191   2.0000      -0.337829        -9.1928
 192   2.0000      -0.334383        -9.0990
 193   2.0000      -0.327137        -8.9018
 194   2.0000      -0.322781        -8.7833
 195   2.0000      -0.319694        -8.6993
 196   2.0000      -0.305589        -8.3155
 197   2.0000      -0.288877        -7.8607
 198   0.0000      -0.110997        -3.0204
 199   0.0000      -0.104919        -2.8550
 200   0.0000      -0.066646        -1.8135
 201   0.0000      -0.057949        -1.5769
 202   0.0000      -0.050227        -1.3667

MULLIKEN ATOMIC CHARGES
-----------------------
   0 C :    0.029534
   1 C :   -0.125241
   2 S :    0.198484
   3 C :   -0.167005
   4 Cl:    0.011523
   5 C :    0.072299
   6 C :    0.166417
   7 O :   -0.124048
   8 C :   -0.052263
   9 C :    0.299994
  10 C :   -0.333708
  11 C :   -0.191934
  12 N :    0.164300
  13 C :   -0.172940
  14 N :    0.132265
  15 C :   -0.021835
  16 C :   -0.034576
  17 C :    0.076125
  18 N :   -0.049987
  19 C :   -0.062757
  20 N :   -0.145996
  21 C :    0.157899
  22 C :    0.171478
  23 O :   -0.141550
  24 C :    0.262229
  25 C :   -0.085823
  26 C :   -0.065927
  27 C :    0.159701
  28 O :   -0.185908
  29 O :   -0.174237
  30 C :   -0.124845
  31 N :   -0.045567
  32 C :    0.089934
  33 C :   -0.035285
  34 C :    0.062845
  35 N :   -0.040638
  36 C :    0.004927
  37 C :    0.035673
  38 C :    0.042892
  39 C :   -0.120108
  40 C :    0.136246
  41 O :   -0.124156
  42 C :    0.086553
  43 C :   -0.173955
  44 S :    0.220751
  45 C :   -0.127909
  46 C :    0.020343
  47 C :    0.275816
  48 C :   -0.300618
  49 C :   -0.192994
  50 N :    0.133489
  51 C :   -0.201180
  52 N :    0.184785
  53 Cl:    0.001296
  54 H :    0.057131
  55 H :    0.025861
  56 H :    0.008613
  57 H :    0.022794
  58 H :    0.013995
  59 H :    0.177853
  60 H :    0.014360
  61 H :    0.000071
  62 H :   -0.003724
  63 H :    0.061523
  64 H :    0.022696
  65 H :    0.024017
Sum of atomic charges:   -0.0000000

LOEWDIN ATOMIC CHARGES
----------------------
   0 C :   -0.059702
   1 C :   -0.145442
   2 S :    0.487201
   3 C :   -0.268872
   4 Cl:    0.201879
   5 C :   -0.115176
   6 C :    0.090053
   7 O :   -0.115045
   8 C :   -0.066055
   9 C :    0.085054
  10 C :   -0.138239
  11 C :   -0.017047
  12 N :   -0.044437
  13 C :   -0.011739
  14 N :   -0.063097
  15 C :    0.073685
  16 C :   -0.081465
  17 C :    0.075060
  18 N :   -0.074121
  19 C :    0.043178
  20 N :   -0.058313
  21 C :    0.105927
  22 C :    0.013709
  23 O :    0.068689
  24 C :    0.027823
  25 C :   -0.002328
  26 C :   -0.082589
  27 C :    0.067078
  28 O :   -0.173548
  29 O :   -0.040025
  30 C :    0.017327
  31 N :   -0.078488
  32 C :    0.058862
  33 C :   -0.055144
  34 C :    0.034988
  35 N :   -0.063863
  36 C :    0.009898
  37 C :    0.004792
  38 C :    0.068713
  39 C :   -0.074877
  40 C :    0.080328
  41 O :   -0.129479
  42 C :   -0.120181
  43 C :   -0.272742
  44 S :    0.502112
  45 C :   -0.156381
  46 C :   -0.060980
  47 C :    0.073088
  48 C :   -0.130763
  49 C :    0.002254
  50 N :   -0.068725
  51 C :   -0.025047
  52 N :   -0.034493
  53 Cl:    0.193930
  54 H :    0.038967
  55 H :    0.044279
  56 H :    0.026985
  57 H :    0.035006
  58 H :    0.047143
  59 H :    0.036026
  60 H :    0.030389
  61 H :    0.036021
  62 H :    0.033744
  63 H :    0.042829
  64 H :    0.046750
  65 H :    0.024641

  Mayer bond orders larger than 0.100000
B(  0-C ,  1-C ) :   1.5324 B(  0-C ,  5-C ) :   1.2207 B(  0-C ,  9-C ) :   1.0136
B(  1-C ,  2-S ) :   1.1723 B(  1-C , 54-H ) :   0.9536 B(  2-S ,  3-C ) :   1.1537
B(  3-C ,  4-Cl) :   1.1385 B(  3-C ,  5-C ) :   1.4715 B(  5-C ,  6-C ) :   0.9606
B(  6-C ,  7-O ) :   2.2326 B(  6-C ,  8-C ) :   0.9134 B(  8-C ,  9-C ) :   1.0567
B(  8-C , 15-C ) :   1.7303 B(  9-C , 10-C ) :   1.6529 B( 10-C , 11-C ) :   1.1367
B( 10-C , 13-C ) :   1.1549 B( 11-C , 12-N ) :   2.9955 B( 13-C , 14-N ) :   2.9190
B( 15-C , 16-C ) :   1.0429 B( 15-C , 55-H ) :   0.9336 B( 16-C , 17-C ) :   1.3109
B( 16-C , 21-C ) :   1.3289 B( 17-C , 18-N ) :   1.5750 B( 17-C , 56-H ) :   0.9740
B( 18-N , 19-C ) :   1.5631 B( 19-C , 20-N ) :   1.4662 B( 19-C , 22-C ) :   1.0071
B( 20-N , 21-C ) :   1.5076 B( 20-N , 59-H ) :   0.1670 B( 21-C , 57-H ) :   0.9763
B( 22-C , 23-O ) :   1.2117 B( 22-C , 24-C ) :   0.1253 B( 22-C , 26-C ) :   1.4042
B( 23-O , 24-C ) :   1.1829 B( 24-C , 25-C ) :   1.4438 B( 24-C , 30-C ) :   0.9359
B( 25-C , 26-C ) :   1.2486 B( 25-C , 58-H ) :   1.0312 B( 26-C , 27-C ) :   0.8780
B( 27-C , 28-O ) :   2.1866 B( 27-C , 29-O ) :   1.3239 B( 29-O , 59-H ) :   0.8759
B( 30-C , 31-N ) :   1.6121 B( 30-C , 35-N ) :   1.5976 B( 31-N , 32-C ) :   1.5443
B( 32-C , 33-C ) :   1.3677 B( 32-C , 60-H ) :   0.9790 B( 33-C , 34-C ) :   1.3375
B( 33-C , 61-H ) :   0.9752 B( 34-C , 35-N ) :   1.5058 B( 34-C , 36-C ) :   1.0434
B( 36-C , 37-C ) :   1.7245 B( 36-C , 62-H ) :   0.9872 B( 37-C , 38-C ) :   1.0706
B( 37-C , 63-H ) :   0.9357 B( 38-C , 39-C ) :   1.6730 B( 38-C , 64-H ) :   0.9567
B( 39-C , 40-C ) :   0.9270 B( 39-C , 47-C ) :   1.0310 B( 40-C , 41-O ) :   2.2841
B( 40-C , 42-C ) :   0.9293 B( 42-C , 43-C ) :   1.4748 B( 42-C , 46-C ) :   1.2201
B( 43-C , 44-S ) :   1.1560 B( 43-C , 53-Cl) :   1.1306 B( 44-S , 45-C ) :   1.1729
B( 45-C , 46-C ) :   1.5351 B( 45-C , 65-H ) :   0.9604 B( 46-C , 47-C ) :   1.0100
B( 47-C , 48-C ) :   1.6587 B( 48-C , 49-C ) :   1.1517 B( 48-C , 51-C ) :   1.1396
B( 49-C , 50-N ) :   2.9548 B( 51-C , 52-N ) :   3.0181

-----------------------------------------------------------------------------
         ABSORPTION SPECTRUM VIA TRANSITION ELECTRIC DIPOLE MOMENTS
-----------------------------------------------------------------------------
State   Energy  Wavelength   fosc         T2         TX        TY        TZ
        (cm-1)    (nm)                  (au**2)     (au)      (au)      (au)
-----------------------------------------------------------------------------
   0   22739.2    439.8   0.530900709   7.68622  -1.70317   2.16490   0.31402
   1   23801.9    420.1   0.005047931   0.06982  -0.20371  -0.12010   0.11789
   2   26096.1    383.2   0.416291855   5.25168  -1.14088   1.92036   0.51213
   3   27415.0    364.8   0.009775970   0.11739  -0.01168  -0.18310   0.28937
   4   27932.8    358.0   0.005267104   0.06208  -0.08994  -0.22660  -0.05139
   5   28170.8    355.0   0.005114074   0.05976   0.00580  -0.23323   0.07304
   6   28464.4    351.3   0.324802062   3.75658  -1.36819   1.35055   0.24628
   7   28742.5    347.9   0.008398539   0.09620  -0.07708  -0.16273   0.25253
   8   28911.6    345.9   0.034390632   0.39160  -0.30138  -0.53346   0.12724
   9   29645.6    337.3   0.020868464   0.23174  -0.26038   0.36036   0.18462
  10   31375.6    318.7   0.022127315   0.23217   0.27057  -0.08950  -0.38853
  11   31853.2    313.9   0.091462734   0.94529  -0.25735   0.88363  -0.31346
  12   32194.6    310.6   0.021611675   0.22099  -0.46288  -0.08062  -0.01547
  13   32498.8    307.7   0.039959952   0.40479  -0.50532  -0.24499   0.29905
  14   32994.0    303.1   0.006968835   0.06953   0.24237  -0.00963  -0.10343
  15   33183.0    301.4   0.065842138   0.65323   0.50409   0.57248  -0.26717
  16   34677.2    288.4   0.061798464   0.58669   0.07313   0.45028  -0.61530
  17   34815.1    287.2   0.257017273   2.43036  -0.04375   1.26923  -0.90415
  18   35014.8    285.6   0.009340585   0.08782  -0.25115  -0.13430  -0.08188
  19   35050.2    285.3   0.005787960   0.05436  -0.18493  -0.12303   0.07091
  20   35174.9    284.3   0.052814506   0.49431   0.56295  -0.39455  -0.14739
  21   35303.4    283.3   0.029814869   0.27803   0.31968  -0.41927  -0.00701
  22   35555.3    281.3   0.061475032   0.56921  -0.62667  -0.14807   0.39315
  23   36253.7    275.8   0.760217552   6.90338   1.76977  -1.68533  -0.96486
  24   36399.5    274.7   0.597839110   5.40710   2.28060  -0.41398  -0.18592
  25   37063.6    269.8   0.011051998   0.09817   0.00642   0.25509   0.18181
  26   37508.9    266.6   0.175249193   1.53815  -1.14539  -0.41927   0.22456
  27   37619.9    265.8   0.217361055   1.90213   0.91987   1.01922  -0.13093
  28   37633.7    265.7   0.003828606   0.03349   0.17878   0.02980   0.02535
  29   38087.9    262.6   0.538576463   4.65517   1.91325   0.97533  -0.20830
  30   38142.6    262.2   0.148598604   1.28257   1.10979   0.22238  -0.03844
  31   38272.2    261.3   0.045170979   0.38855   0.52194   0.05921   0.33560
  32   39091.8    255.8   0.003150013   0.02653   0.14050   0.08079   0.01615
  33   39583.2    252.6   0.006554454   0.05451   0.04444  -0.21976   0.06513
  34   39691.5    251.9   0.002989885   0.02480  -0.10982  -0.02448   0.11018
  35   39852.8    250.9   0.002046354   0.01690   0.00401   0.12937  -0.01229
  36   40088.4    249.4   0.034608924   0.28421  -0.47519   0.17967   0.16164

FINAL SINGLE POINT ENERGY     -3944.680061594144

DIPOLE MOMENT
-------------
                                X             Y             Z
Electronic contribution:    -17.97935      26.47510       7.32406
Nuclear contribution   :     16.68328     -26.20412      -5.79408
                        -----------------------------------------
Total Dipole Moment    :     -1.29607       0.27098       1.52998
                        -----------------------------------------
Magnitude (a.u.)       :      2.02338
Magnitude (Debye)      :      5.14302

Rotational constants in cm-1:     0.001589     0.001207     0.000771
Rotational constants in MHz :    47.623035    36.186960    23.120578

                             ****ORCA TERMINATED NORMALLY****
TOTAL RUN TIME: 0 days 0 hours 5 minutes 46 seconds 847 msec
