                         Program Version 4.2.0 -  RELEASE  -
|  1> # ORCA input file
|  2> # SCF done       -175.113709957681          0.000639936638
|  3> ! CAM-B3LYP def2-SVP def2/J RIJCOSX Grid4 TightSCF
|  4> %maxcore 5000
|  5> %tddft
|  6>     Mode sTDDFT
|  7>     Ethresh 5.0
|  8>     maxcore 5000
|  9> end
| 10>
| 11> %pal
| 12>   nprocs 6
| 13>   end
| 14> * xyz 0 1
| 15>    C        2.86516         2.88627         2.19040
| 16>    C        2.49696         4.09608         2.69312
| 17>    S        3.61085         4.63820         3.89395
| 18>    C        4.59912         3.20758         3.71721
| 19>   Cl        5.99940         2.98142         4.64202
| 20>    C        4.06832         2.37497         2.77675
| 21>    C        4.39923         1.07305         2.19140
| 22>    O        5.35759         0.37406         2.42675
| 23>    C        3.31619         0.82500         1.18448
| 24>    C        2.37589         1.93995         1.20948
| 25>    C        1.21858         2.08382         0.49392
| 26>    C        0.39916         3.22313         0.64601
| 27>    N       -0.27641         4.14318         0.75834
| 28>    C        0.70631         1.15660        -0.43574
| 29>    N        0.23689         0.43895        -1.19859
| 30>    C        3.31041        -0.20838         0.30765
| 31>    C        4.21254        -1.32781         0.33532
| 32>    C        4.52608        -2.04771         1.49984
| 33>    N        5.36271        -3.05484         1.50206
| 34>    C        5.90348        -3.42802         0.33945
| 35>    N        5.62767        -2.84764        -0.82956
| 36>    C        4.81636        -1.82375        -0.83514
| 37>    C        6.81174        -4.54718         0.29202
| 38>    N        7.40638        -5.13817         1.37125
| 39>    C        7.25564        -4.79837         2.76664
| 40>    C        6.04168        -5.49092         3.37744
| 41>    C        8.22086        -6.21910         0.98264
| 42>    O        8.86913        -6.88687         1.76181
| 43>    C        8.08698        -6.27079        -0.45716
| 44>    C        7.22604        -5.21791        -0.85282
| 45>    C        7.07288        -5.28077        -2.29724
| 46>    O        6.44988        -4.62332        -3.09279
| 47>    N        7.86910        -6.39301        -2.67204
| 48>    C        8.00591        -6.76641        -4.05897
| 49>    C        9.35204        -6.33910        -4.63815
| 50>    C        8.46776        -6.98719        -1.59252
| 51>    C        9.28643        -8.14269        -1.67082
| 52>    C        9.86026        -8.70922        -0.57642
| 53>    C       10.65139        -9.88316        -0.64133
| 54>    O       10.92854       -10.47777        -1.81528
| 55>    C       11.66360       -11.59087        -1.57475
| 56>    C       11.88638       -11.70882        -0.20845
| 57>    C       11.23752       -10.62593         0.38815
| 58>    C       11.18299       -10.31326         1.84467
| 59>    F       11.75244        -9.13022         2.13005
| 60>    F        9.93103       -10.26393         2.31720
| 61>    F       11.83421       -11.23344         2.57102
| 62>    C       12.15292       -12.40772        -2.62155
| 63>    C       11.88330       -12.34135        -3.95348
| 64>    C       12.83760       -12.97577        -4.92009
| 65>    O       13.69100       -13.78690        -4.65894
| 66>    C       12.52551       -12.33454        -6.20378
| 67>    C       13.01979       -12.34334        -7.47417
| 68>    S       12.09035       -11.27600        -8.50088
| 69>    C       11.03724       -10.83983        -7.20402
| 70>    C       11.38869       -11.47213        -6.05346
| 71>    C       10.89352       -11.58497        -4.69494
| 72>    C        9.63296       -11.23286        -4.29244
| 73>    C        8.79155       -10.44845        -5.10296
| 74>    N        8.11545        -9.74737        -5.71100
| 75>    C        9.03190       -11.66338        -3.09200
| 76>    N        8.48057       -12.04582        -2.16136
| 77>   Cl       14.33256       -13.22520        -8.07917
| 78>    H        1.65352         4.70861         2.44320
| 79>    H        2.59830        -0.20597        -0.50872
| 80>    H        4.04834        -1.82545         2.44398
| 81>    H        4.65057        -1.35336        -1.79535
| 82>    H        7.16194        -3.71614         2.86232
| 83>    H        8.16637        -5.14226         3.26486
| 84>    H        5.13311        -5.15465         2.88539
| 85>    H        5.97837        -5.24995         4.43436
| 86>    H        6.13209        -6.56900         3.26924
| 87>    H        7.20190        -6.24760        -4.58795
| 88>    H        7.85890        -7.84337        -4.17532
| 89>    H        9.45972        -5.25904        -4.57587
| 90>    H        9.40549        -6.63647        -5.68144
| 91>    H       10.17769        -6.80025        -4.10005
| 92>    H        9.43813        -8.58936        -2.64337
| 93>    H        9.71057        -8.27946         0.40528
| 94>    H       12.43535       -12.48331         0.28712
| 95>    H       12.91356       -13.12185        -2.32863
| 96>    H       10.24120       -10.14401        -7.38154
| 97> *
| 98>
| 99>                          ****END OF INPUT****

CARTESIAN COORDINATES (ANGSTROEM)
---------------------------------
  C      2.865160    2.886270    2.190400
  C      2.496960    4.096080    2.693120
  S      3.610850    4.638200    3.893950
  C      4.599120    3.207580    3.717210
  Cl     5.999400    2.981420    4.642020
  C      4.068320    2.374970    2.776750
  C      4.399230    1.073050    2.191400
  O      5.357590    0.374060    2.426750
  C      3.316190    0.825000    1.184480
  C      2.375890    1.939950    1.209480
  C      1.218580    2.083820    0.493920
  C      0.399160    3.223130    0.646010
  N     -0.276410    4.143180    0.758340
  C      0.706310    1.156600   -0.435740
  N      0.236890    0.438950   -1.198590
  C      3.310410   -0.208380    0.307650
  C      4.212540   -1.327810    0.335320
  C      4.526080   -2.047710    1.499840
  N      5.362710   -3.054840    1.502060
  C      5.903480   -3.428020    0.339450
  N      5.627670   -2.847640   -0.829560
  C      4.816360   -1.823750   -0.835140
  C      6.811740   -4.547180    0.292020
  N      7.406380   -5.138170    1.371250
  C      7.255640   -4.798370    2.766640
  C      6.041680   -5.490920    3.377440
  C      8.220860   -6.219100    0.982640
  O      8.869130   -6.886870    1.761810
  C      8.086980   -6.270790   -0.457160
  C      7.226040   -5.217910   -0.852820
  C      7.072880   -5.280770   -2.297240
  O      6.449880   -4.623320   -3.092790
  N      7.869100   -6.393010   -2.672040
  C      8.005910   -6.766410   -4.058970
  C      9.352040   -6.339100   -4.638150
  C      8.467760   -6.987190   -1.592520
  C      9.286430   -8.142690   -1.670820
  C      9.860260   -8.709220   -0.576420
  C     10.651390   -9.883160   -0.641330
  O     10.928540  -10.477770   -1.815280
  C     11.663600  -11.590870   -1.574750
  C     11.886380  -11.708820   -0.208450
  C     11.237520  -10.625930    0.388150
  C     11.182990  -10.313260    1.844670
  F     11.752440   -9.130220    2.130050
  F      9.931030  -10.263930    2.317200
  F     11.834210  -11.233440    2.571020
  C     12.152920  -12.407720   -2.621550
  C     11.883300  -12.341350   -3.953480
  C     12.837600  -12.975770   -4.920090
  O     13.691000  -13.786900   -4.658940
  C     12.525510  -12.334540   -6.203780
  C     13.019790  -12.343340   -7.474170
  S     12.090350  -11.276000   -8.500880
  C     11.037240  -10.839830   -7.204020
  C     11.388690  -11.472130   -6.053460
  C     10.893520  -11.584970   -4.694940
  C      9.632960  -11.232860   -4.292440
  C      8.791550  -10.448450   -5.102960
  N      8.115450   -9.747370   -5.711000
  C      9.031900  -11.663380   -3.092000
  N      8.480570  -12.045820   -2.161360
  Cl    14.332560  -13.225200   -8.079170
  H      1.653520    4.708610    2.443200
  H      2.598300   -0.205970   -0.508720
  H      4.048340   -1.825450    2.443980
  H      4.650570   -1.353360   -1.795350
  H      7.161940   -3.716140    2.862320
  H      8.166370   -5.142260    3.264860
  H      5.133110   -5.154650    2.885390
  H      5.978370   -5.249950    4.434360
  H      6.132090   -6.569000    3.269240
  H      7.201900   -6.247600   -4.587950
  H      7.858900   -7.843370   -4.175320
  H      9.459720   -5.259040   -4.575870
  H      9.405490   -6.636470   -5.681440
  H     10.177690   -6.800250   -4.100050
  H      9.438130   -8.589360   -2.643370
  H      9.710570   -8.279460    0.405280
  H     12.435350  -12.483310    0.287120
  H     12.913560  -13.121850   -2.328630
  H     10.241200  -10.144010   -7.381540

 Total Charge           Charge          ....    0
 Multiplicity           Mult            ....    1
 Number of Electrons    NEL             ....  466
 Basis Dimension        Dim             ....  993

ORBITAL ENERGIES
----------------

  NO   OCC          E(Eh)            E(eV)
   0   2.0000    -101.625610     -2765.3734
   1   2.0000    -101.620866     -2765.2443
   2   2.0000     -89.002978     -2421.8941
   3   2.0000     -88.997185     -2421.7365
   4   2.0000     -24.803207      -674.9296
   5   2.0000     -24.796671      -674.7517
   6   2.0000     -24.796177      -674.7383
   7   2.0000     -19.325555      -525.8751
   8   2.0000     -19.232865      -523.3529
   9   2.0000     -19.223927      -523.1096
  10   2.0000     -19.191082      -522.2159
  11   2.0000     -19.188223      -522.1381
  12   2.0000     -14.452163      -393.2633
  13   2.0000     -14.451879      -393.2556
  14   2.0000     -14.431691      -392.7063
  15   2.0000     -14.430300      -392.6684
  16   2.0000     -14.429019      -392.6336
  17   2.0000     -14.426072      -392.5534
  18   2.0000     -14.420641      -392.4056
  19   2.0000     -14.420323      -392.3969
  20   2.0000     -10.524665      -286.3907
  21   2.0000     -10.390135      -282.7299
  22   2.0000     -10.385751      -282.6106
  23   2.0000     -10.380942      -282.4798
  24   2.0000     -10.380501      -282.4678
  25   2.0000     -10.374490      -282.3042
  26   2.0000     -10.373051      -282.2651
  27   2.0000     -10.372565      -282.2518
  28   2.0000     -10.366138      -282.0770
  29   2.0000     -10.363954      -282.0175
  30   2.0000     -10.359303      -281.8910
  31   2.0000     -10.358679      -281.8740
  32   2.0000     -10.354419      -281.7581
  33   2.0000     -10.352920      -281.7173
  34   2.0000     -10.346481      -281.5421
  35   2.0000     -10.340026      -281.3664
  36   2.0000     -10.338533      -281.3258
  37   2.0000     -10.337000      -281.2841
  38   2.0000     -10.335076      -281.2317
  39   2.0000     -10.334922      -281.2275
  40   2.0000     -10.333920      -281.2003
  41   2.0000     -10.333798      -281.1969
  42   2.0000     -10.333508      -281.1891
  43   2.0000     -10.331826      -281.1433
  44   2.0000     -10.330586      -281.1095
  45   2.0000     -10.323553      -280.9182
  46   2.0000     -10.322289      -280.8838
  47   2.0000     -10.321082      -280.8509
  48   2.0000     -10.318155      -280.7713
  49   2.0000     -10.317634      -280.7571
  50   2.0000     -10.314761      -280.6789
  51   2.0000     -10.312374      -280.6140
  52   2.0000     -10.310539      -280.5640
  53   2.0000     -10.309606      -280.5386
  54   2.0000     -10.308168      -280.4995
  55   2.0000     -10.306175      -280.4453
  56   2.0000     -10.305038      -280.4143
  57   2.0000     -10.299366      -280.2600
  58   2.0000     -10.291920      -280.0574
  59   2.0000     -10.268149      -279.4105
  60   2.0000     -10.264284      -279.3054
  61   2.0000     -10.260931      -279.2141
  62   2.0000     -10.245370      -278.7907
  63   2.0000      -9.580354      -260.6947
  64   2.0000      -9.575686      -260.5677
  65   2.0000      -8.098683      -220.3764
  66   2.0000      -8.092917      -220.2195
  67   2.0000      -7.351013      -200.0312
  68   2.0000      -7.346337      -199.9040
  69   2.0000      -7.340399      -199.7424
  70   2.0000      -7.339815      -199.7265
  71   2.0000      -7.335702      -199.6146
  72   2.0000      -7.335168      -199.6001
  73   2.0000      -6.068047      -165.1199
  74   2.0000      -6.063404      -164.9936
  75   2.0000      -6.062307      -164.9638
  76   2.0000      -6.060989      -164.9279
  77   2.0000      -6.057717      -164.8389
  78   2.0000      -6.055126      -164.7683
  79   2.0000      -1.389742       -37.8168
  80   2.0000      -1.293496       -35.1978
  81   2.0000      -1.288938       -35.0738
  82   2.0000      -1.246859       -33.9287
  83   2.0000      -1.150223       -31.2992
  84   2.0000      -1.141529       -31.0626
  85   2.0000      -1.133633       -30.8477
  86   2.0000      -1.126514       -30.6540
  87   2.0000      -1.101655       -29.9776
  88   2.0000      -1.063065       -28.9275
  89   2.0000      -1.053197       -28.6590
  90   2.0000      -1.047700       -28.5094
  91   2.0000      -1.042738       -28.3744
  92   2.0000      -1.026829       -27.9414
  93   2.0000      -1.024250       -27.8712
  94   2.0000      -1.008006       -27.4292
  95   2.0000      -1.004572       -27.3358
  96   2.0000      -0.998031       -27.1578
  97   2.0000      -0.994216       -27.0540
  98   2.0000      -0.993338       -27.0301
  99   2.0000      -0.965601       -26.2753
 100   2.0000      -0.961254       -26.1571
 101   2.0000      -0.947928       -25.7944
 102   2.0000      -0.941854       -25.6292
 103   2.0000      -0.938149       -25.5283
 104   2.0000      -0.924850       -25.1665
 105   2.0000      -0.914799       -24.8929
 106   2.0000      -0.914062       -24.8729
 107   2.0000      -0.902363       -24.5545
 108   2.0000      -0.879555       -23.9339
 109   2.0000      -0.866217       -23.5710
 110   2.0000      -0.856741       -23.3131
 111   2.0000      -0.842292       -22.9199
 112   2.0000      -0.837230       -22.7822
 113   2.0000      -0.828647       -22.5486
 114   2.0000      -0.816062       -22.2062
 115   2.0000      -0.813731       -22.1427
 116   2.0000      -0.805006       -21.9053
 117   2.0000      -0.784202       -21.3392
 118   2.0000      -0.772186       -21.0123
 119   2.0000      -0.765923       -20.8418
 120   2.0000      -0.761981       -20.7346
 121   2.0000      -0.755654       -20.5624
 122   2.0000      -0.753339       -20.4994
 123   2.0000      -0.738176       -20.0868
 124   2.0000      -0.733004       -19.9460
 125   2.0000      -0.721078       -19.6215
 126   2.0000      -0.702584       -19.1183
 127   2.0000      -0.701200       -19.0806
 128   2.0000      -0.699311       -19.0292
 129   2.0000      -0.697754       -18.9869
 130   2.0000      -0.689583       -18.7645
 131   2.0000      -0.686380       -18.6774
 132   2.0000      -0.680426       -18.5153
 133   2.0000      -0.672844       -18.3090
 134   2.0000      -0.671368       -18.2688
 135   2.0000      -0.669529       -18.2188
 136   2.0000      -0.662360       -18.0237
 137   2.0000      -0.648745       -17.6533
 138   2.0000      -0.638557       -17.3760
 139   2.0000      -0.630536       -17.1578
 140   2.0000      -0.627648       -17.0792
 141   2.0000      -0.627444       -17.0736
 142   2.0000      -0.620342       -16.8804
 143   2.0000      -0.616853       -16.7854
 144   2.0000      -0.606748       -16.5105
 145   2.0000      -0.603552       -16.4235
 146   2.0000      -0.594144       -16.1675
 147   2.0000      -0.590476       -16.0677
 148   2.0000      -0.585354       -15.9283
 149   2.0000      -0.582538       -15.8517
 150   2.0000      -0.572497       -15.5784
 151   2.0000      -0.567508       -15.4427
 152   2.0000      -0.566051       -15.4030
 153   2.0000      -0.562552       -15.3078
 154   2.0000      -0.554468       -15.0878
 155   2.0000      -0.553447       -15.0601
 156   2.0000      -0.549711       -14.9584
 157   2.0000      -0.547773       -14.9057
 158   2.0000      -0.547392       -14.8953
 159   2.0000      -0.546052       -14.8588
 160   2.0000      -0.540408       -14.7053
 161   2.0000      -0.536722       -14.6049
 162   2.0000      -0.534875       -14.5547
 163   2.0000      -0.530713       -14.4414
 164   2.0000      -0.529325       -14.4037
 165   2.0000      -0.526405       -14.3242
 166   2.0000      -0.525664       -14.3041
 167   2.0000      -0.523085       -14.2339
 168   2.0000      -0.521880       -14.2011
 169   2.0000      -0.518573       -14.1111
 170   2.0000      -0.515420       -14.0253
 171   2.0000      -0.514513       -14.0006
 172   2.0000      -0.511737       -13.9251
 173   2.0000      -0.508865       -13.8469
 174   2.0000      -0.507632       -13.8134
 175   2.0000      -0.506714       -13.7884
 176   2.0000      -0.505203       -13.7473
 177   2.0000      -0.504650       -13.7322
 178   2.0000      -0.500422       -13.6172
 179   2.0000      -0.499288       -13.5863
 180   2.0000      -0.497411       -13.5353
 181   2.0000      -0.495337       -13.4788
 182   2.0000      -0.490079       -13.3357
 183   2.0000      -0.483602       -13.1595
 184   2.0000      -0.481197       -13.0940
 185   2.0000      -0.479357       -13.0440
 186   2.0000      -0.472469       -12.8565
 187   2.0000      -0.466579       -12.6963
 188   2.0000      -0.464975       -12.6526
 189   2.0000      -0.463477       -12.6119
 190   2.0000      -0.461481       -12.5575
 191   2.0000      -0.460261       -12.5243
 192   2.0000      -0.458347       -12.4723
 193   2.0000      -0.457921       -12.4607
 194   2.0000      -0.456106       -12.4113
 195   2.0000      -0.453819       -12.3490
 196   2.0000      -0.452882       -12.3235
 197   2.0000      -0.449173       -12.2226
 198   2.0000      -0.448337       -12.1999
 199   2.0000      -0.445137       -12.1128
 200   2.0000      -0.442900       -12.0519
 201   2.0000      -0.441133       -12.0038
 202   2.0000      -0.440675       -11.9914
 203   2.0000      -0.438625       -11.9356
 204   2.0000      -0.438013       -11.9189
 205   2.0000      -0.429710       -11.6930
 206   2.0000      -0.427206       -11.6249
 207   2.0000      -0.426698       -11.6110
 208   2.0000      -0.419760       -11.4222
 209   2.0000      -0.418495       -11.3878
 210   2.0000      -0.416965       -11.3462
 211   2.0000      -0.414043       -11.2667
 212   2.0000      -0.411174       -11.1886
 213   2.0000      -0.407363       -11.0849
 214   2.0000      -0.401410       -10.9229
 215   2.0000      -0.400948       -10.9104
 216   2.0000      -0.394953       -10.7472
 217   2.0000      -0.391955       -10.6656
 218   2.0000      -0.384066       -10.4510
 219   2.0000      -0.360832        -9.8187
 220   2.0000      -0.358097        -9.7443
 221   2.0000      -0.349259        -9.5038
 222   2.0000      -0.347579        -9.4581
 223   2.0000      -0.346088        -9.4175
 224   2.0000      -0.337731        -9.1901
 225   2.0000      -0.334371        -9.0987
 226   2.0000      -0.332485        -9.0474
 227   2.0000      -0.322508        -8.7759
 228   2.0000      -0.318413        -8.6645
 229   2.0000      -0.314181        -8.5493
 230   2.0000      -0.313577        -8.5329
 231   2.0000      -0.295199        -8.0328
 232   2.0000      -0.243698        -6.6314
 233   0.0000      -0.117166        -3.1882
 234   0.0000      -0.102921        -2.8006
 235   0.0000      -0.076378        -2.0784
 236   0.0000      -0.061082        -1.6621
 237   0.0000      -0.052411        -1.4262

MULLIKEN ATOMIC CHARGES
-----------------------
   0 C :    0.031100
   1 C :   -0.127545
   2 S :    0.195571
   3 C :   -0.171477
   4 Cl:    0.005963
   5 C :    0.077343
   6 C :    0.141678
   7 O :   -0.123196
   8 C :   -0.094993
   9 C :    0.287457
  10 C :   -0.318571
  11 C :   -0.193808
  12 N :    0.162415
  13 C :   -0.190959
  14 N :    0.167422
  15 C :   -0.016372
  16 C :   -0.022014
  17 C :    0.116539
  18 N :   -0.066003
  19 C :   -0.171614
  20 N :   -0.000509
  21 C :    0.060305
  22 C :    0.190788
  23 N :   -0.254073
  24 C :    0.136809
  25 C :    0.004316
  26 C :    0.165768
  27 O :   -0.202067
  28 C :   -0.066376
  29 C :   -0.049554
  30 C :    0.149442
  31 O :   -0.148402
  32 N :   -0.265665
  33 C :    0.099439
  34 C :    0.002229
  35 C :    0.139137
  36 C :   -0.001335
  37 C :   -0.014393
  38 C :    0.166454
  39 O :   -0.206406
  40 C :    0.166233
  41 C :   -0.021008
  42 C :   -0.105154
  43 C :    0.543549
  44 F :   -0.158172
  45 F :   -0.149619
  46 F :   -0.156189
  47 C :    0.029670
  48 C :   -0.128157
  49 C :    0.136787
  50 O :   -0.127052
  51 C :    0.082135
  52 C :   -0.170028
  53 S :    0.186508
  54 C :   -0.132325
  55 C :    0.024431
  56 C :    0.262345
  57 C :   -0.311508
  58 C :   -0.151488
  59 N :    0.124821
  60 C :   -0.214840
  61 N :    0.183796
  62 Cl:    0.002359
  63 H :    0.056797
  64 H :    0.045072
  65 H :    0.007752
  66 H :    0.017228
  67 H :    0.029057
  68 H :    0.031558
  69 H :    0.015485
  70 H :    0.013843
  71 H :    0.021980
  72 H :    0.045324
  73 H :    0.028100
  74 H :    0.026840
  75 H :    0.025426
  76 H :    0.005742
  77 H :   -0.018958
  78 H :    0.040023
  79 H :    0.014529
  80 H :    0.029552
  81 H :    0.052714
Sum of atomic charges:   -0.0000000

LOEWDIN ATOMIC CHARGES
----------------------
   0 C :   -0.059629
   1 C :   -0.147220
   2 S :    0.483801
   3 C :   -0.270369
   4 Cl:    0.196852
   5 C :   -0.118544
   6 C :    0.081292
   7 O :   -0.123647
   8 C :   -0.077627
   9 C :    0.072346
  10 C :   -0.128306
  11 C :   -0.015429
  12 N :   -0.044336
  13 C :   -0.024376
  14 N :   -0.037192
  15 C :    0.074896
  16 C :   -0.083189
  17 C :    0.085721
  18 N :   -0.067769
  19 C :    0.029320
  20 N :   -0.044948
  21 C :    0.070671
  22 C :    0.052616
  23 N :    0.014465
  24 C :    0.037713
  25 C :   -0.061387
  26 C :    0.078442
  27 O :   -0.191454
  28 C :   -0.118455
  29 C :   -0.092111
  30 C :    0.084873
  31 O :   -0.158203
  32 N :   -0.002676
  33 C :    0.033789
  34 C :   -0.061372
  35 C :    0.082910
  36 C :   -0.012468
  37 C :    0.006816
  38 C :    0.077740
  39 O :    0.038854
  40 C :    0.021532
  41 C :    0.008995
  42 C :   -0.108080
  43 C :    0.167208
  44 F :   -0.056921
  45 F :   -0.048584
  46 F :   -0.056678
  47 C :    0.050715
  48 C :   -0.084500
  49 C :    0.080306
  50 O :   -0.132215
  51 C :   -0.117971
  52 C :   -0.271666
  53 S :    0.474591
  54 C :   -0.155328
  55 C :   -0.056112
  56 C :    0.070006
  57 C :   -0.138703
  58 C :   -0.010642
  59 N :   -0.055692
  60 C :   -0.031110
  61 N :   -0.045774
  62 Cl:    0.194082
  63 H :    0.038923
  64 H :    0.050613
  65 H :    0.027767
  66 H :    0.032578
  67 H :    0.025663
  68 H :    0.030813
  69 H :    0.018889
  70 H :    0.027637
  71 H :    0.026729
  72 H :    0.039451
  73 H :    0.021703
  74 H :    0.030583
  75 H :    0.031406
  76 H :    0.017840
  77 H :    0.033324
  78 H :    0.045427
  79 H :    0.046227
  80 H :    0.057636
  81 H :    0.036928

  Mayer bond orders larger than 0.100000
B(  0-C ,  1-C ) :   1.5393 B(  0-C ,  5-C ) :   1.2202 B(  0-C ,  9-C ) :   1.0067
B(  1-C ,  2-S ) :   1.1654 B(  1-C , 63-H ) :   0.9545 B(  2-S ,  3-C ) :   1.1567
B(  3-C ,  4-Cl) :   1.1344 B(  3-C ,  5-C ) :   1.4689 B(  5-C ,  6-C ) :   0.9530
B(  6-C ,  7-O ) :   2.2452 B(  6-C ,  8-C ) :   0.9201 B(  8-C ,  9-C ) :   1.0437
B(  8-C , 15-C ) :   1.7287 B(  9-C , 10-C ) :   1.6746 B( 10-C , 11-C ) :   1.1423
B( 10-C , 13-C ) :   1.1360 B( 11-C , 12-N ) :   2.9928 B( 13-C , 14-N ) :   2.9782
B( 15-C , 16-C ) :   1.0360 B( 15-C , 64-H ) :   0.9425 B( 16-C , 17-C ) :   1.3100
B( 16-C , 21-C ) :   1.2899 B( 17-C , 18-N ) :   1.5663 B( 17-C , 65-H ) :   0.9821
B( 18-N , 19-C ) :   1.4883 B( 19-C , 20-N ) :   1.6285 B( 19-C , 22-C ) :   0.9855
B( 20-N , 21-C ) :   1.5864 B( 20-N , 22-C ) :  -0.1203 B( 21-C , 66-H ) :   0.9933
B( 22-C , 23-N ) :   1.2099 B( 22-C , 29-C ) :   1.3879 B( 23-N , 24-C ) :   0.9347
B( 23-N , 26-C ) :   1.0634 B( 24-C , 25-C ) :   1.1227 B( 24-C , 67-H ) :   0.9393
B( 24-C , 68-H ) :   0.9293 B( 25-C , 69-H ) :   0.9638 B( 25-C , 70-H ) :   0.9679
B( 25-C , 71-H ) :   0.9657 B( 26-C , 27-O ) :   2.0222 B( 26-C , 28-C ) :   0.9836
B( 27-O , 78-H ) :   0.1179 B( 28-C , 29-C ) :   1.2555 B( 28-C , 35-C ) :   1.3236
B( 29-C , 30-C ) :   0.9410 B( 30-C , 31-O ) :   2.1930 B( 30-C , 32-N ) :   1.0105
B( 32-N , 33-C ) :   0.9322 B( 32-N , 35-C ) :   1.1892 B( 33-C , 34-C ) :   1.1195
B( 33-C , 72-H ) :   0.9239 B( 33-C , 73-H ) :   0.9441 B( 34-C , 74-H ) :   0.9631
B( 34-C , 75-H ) :   0.9676 B( 34-C , 76-H ) :   0.9688 B( 35-C , 36-C ) :   1.1384
B( 36-C , 37-C ) :   1.5790 B( 36-C , 77-H ) :   0.9773 B( 37-C , 38-C ) :   1.1860
B( 37-C , 78-H ) :   0.9145 B( 38-C , 39-O ) :   1.1661 B( 38-C , 42-C ) :   1.3921
B( 39-O , 40-C ) :   1.1011 B( 40-C , 41-C ) :   1.3805 B( 40-C , 47-C ) :   1.1469
B( 41-C , 42-C ) :   1.3027 B( 41-C , 79-H ) :   1.0200 B( 42-C , 43-C ) :   0.9387
B( 43-C , 44-F ) :   1.1698 B( 43-C , 45-F ) :   1.1792 B( 43-C , 46-F ) :   1.1767
B( 47-C , 48-C ) :   1.6188 B( 47-C , 80-H ) :   0.9454 B( 48-C , 49-C ) :   0.9347
B( 48-C , 56-C ) :   1.0450 B( 49-C , 50-O ) :   2.2804 B( 49-C , 51-C ) :   0.9266
B( 51-C , 52-C ) :   1.4878 B( 51-C , 55-C ) :   1.2203 B( 52-C , 53-S ) :   1.1519
B( 52-C , 62-Cl) :   1.1309 B( 53-S , 54-C ) :   1.1558 B( 54-C , 55-C ) :   1.5541
B( 54-C , 81-H ) :   0.9568 B( 55-C , 56-C ) :   1.0155 B( 56-C , 57-C ) :   1.6654
B( 57-C , 58-C ) :   1.1448 B( 57-C , 60-C ) :   1.1526 B( 58-C , 59-N ) :   2.9000
B( 60-C , 61-N ) :   3.0134

-----------------------------------------------------------------------------
         ABSORPTION SPECTRUM VIA TRANSITION ELECTRIC DIPOLE MOMENTS
-----------------------------------------------------------------------------
State   Energy  Wavelength   fosc         T2         TX        TY        TZ
        (cm-1)    (nm)                  (au**2)     (au)      (au)      (au)
-----------------------------------------------------------------------------
   0   12422.4    805.0   0.741321384  19.64607   1.98100  -3.33176  -2.14967
   1   17204.4    581.2   0.113442757   2.17077   0.96859  -1.10293   0.12710
   2   21580.2    463.4   0.011025081   0.16819   0.24090   0.25204   0.21595
   3   22301.2    448.4   0.189876440   2.80297  -0.25908   1.13129   1.20666
   4   24070.4    415.4   0.024267245   0.33190  -0.34690   0.45510   0.06668
   5   24202.0    413.2   0.006807149   0.09260  -0.22554   0.20428   0.00018
   6   26449.4    378.1   0.062668587   0.78003   0.50426  -0.70679  -0.16185
   7   26500.4    377.4   0.012321093   0.15306  -0.21341   0.06610   0.32117
   8   26681.5    374.8   0.044633298   0.55071  -0.20299   0.41602  -0.58003
   9   27246.1    367.0   0.097158336   1.17395   0.88422  -0.57132  -0.25633
  10   28572.7    350.0   0.033026423   0.38053   0.31935  -0.33070  -0.41132
  11   28678.5    348.7   0.013020547   0.14947  -0.16417   0.18387  -0.29784
  12   29118.2    343.4   0.045524673   0.51471  -0.61584   0.18646  -0.31729
  13   29477.7    339.2   0.025585729   0.28575  -0.42561   0.05891  -0.31801
  14   29508.0    338.9   0.259462033   2.89474   1.18963  -1.18709   0.26525
  15   31058.0    322.0   0.113982734   1.20821   0.71495  -0.54515  -0.63235
  16   31762.7    314.8   0.045890058   0.47564  -0.43983   0.46968  -0.24818
  17   31942.3    313.1   0.161486406   1.66435   0.98818  -0.82850   0.03799
  18   32037.0    312.1   0.013313569   0.13681  -0.08668  -0.18390   0.30900
  19   32205.0    310.5   0.019475951   0.19909   0.29572  -0.32869  -0.06003
  20   32317.3    309.4   0.133631503   1.36129   0.79148  -0.85014   0.11003
  21   33508.2    298.4   0.139870485   1.37420   0.53042  -1.01967  -0.23050
  22   33998.6    294.1   0.138160495   1.33782   0.77148  -0.81440  -0.28177
  23   34575.8    289.2   0.098095736   0.93401   0.11951  -0.87580  -0.39079
  24   34699.7    288.2   0.023801085   0.22581   0.44787  -0.12997  -0.09126
  25   34833.6    287.1   0.039168147   0.37018  -0.22046  -0.56621  -0.03134
  26   35055.5    285.3   0.017540605   0.16473  -0.09499   0.35939   0.16291
  27   35661.9    280.4   0.015091703   0.13932   0.04926  -0.25756  -0.26563
  28   35901.8    278.5   0.051058840   0.46820  -0.40273   0.53920  -0.12356
  29   36811.4    271.7   0.356773284   3.19070   1.14344  -0.31049  -1.33673
  30   37125.2    269.4   0.310070844   2.74959   0.87591   1.16932   0.78426
  31   37501.3    266.7   0.120878272   1.06115   0.25974   0.83803   0.53981
  32   37694.0    265.3   0.676473433   5.90819   1.15541  -0.15749   2.13270
  33   37960.0    263.4   0.037068084   0.32148   0.28878  -0.25606  -0.41535
  34   38447.2    260.1   0.138391057   1.18500  -0.52601  -0.17975   0.93595
  35   38463.0    260.0   0.112842764   0.96584   0.45635   0.12139  -0.86189
  36   38610.8    259.0   0.025564569   0.21797   0.45376  -0.02147   0.10779
  37   38846.9    257.4   0.026686654   0.22616  -0.27902  -0.31382  -0.22322
  38   39228.6    254.9   0.013747393   0.11537   0.17413  -0.00076   0.29163
  39   39993.6    250.0   0.010389754   0.08552   0.27747  -0.07228   0.05754

FINAL SINGLE POINT ENERGY     -4476.481706651850

DIPOLE MOMENT
-------------
                                X             Y             Z
Electronic contribution:     21.87872      -8.26830       3.99158
Nuclear contribution   :    -20.11865       9.48856      -4.00862
                        -----------------------------------------
Total Dipole Moment    :      1.76007       1.22026      -0.01704
                        -----------------------------------------
Magnitude (a.u.)       :      2.14177
Magnitude (Debye)      :      5.44394

Rotational constants in cm-1:     0.002349     0.000333     0.000306
Rotational constants in MHz :    70.410928     9.986518     9.161079

                             ****ORCA TERMINATED NORMALLY****
TOTAL RUN TIME: 0 days 0 hours 12 minutes 4 seconds 822 msec
