                         Program Version 4.2.0 -  RELEASE  -
|  1> # ORCA input file
|  2> # SCF done       -175.547397920525          0.000514492504
|  3> ! CAM-B3LYP def2-SVP def2/J RIJCOSX Grid4 TightSCF
|  4> %maxcore 5000
|  5> %tddft
|  6>     Mode sTDDFT
|  7>     Ethresh 5.0
|  8>     maxcore 5000
|  9> end
| 10>
| 11> %pal
| 12>   nprocs 6
| 13>   end
| 14> * xyz 0 1
| 15>    C        0.14249         0.61065         0.00151
| 16>    C       -1.16399         0.98762         0.03962
| 17>    S       -2.20883        -0.38490         0.08773
| 18>    C       -0.85726        -1.49455         0.05474
| 19>   Cl       -1.09406        -3.17188         0.07955
| 20>    C        0.32053        -0.81188         0.01037
| 21>    C        1.75277        -1.13270        -0.03171
| 22>    O        2.28495        -2.21829        -0.04052
| 23>    C        2.43257         0.19636        -0.06574
| 24>    C        1.44116         1.25492        -0.04678
| 25>    C        1.64403         2.60988        -0.06794
| 26>    C        0.56332         3.51597        -0.04290
| 27>    N       -0.30513         4.26537        -0.02320
| 28>    C        2.90203         3.24156        -0.11569
| 29>    N        3.90434         3.79991        -0.15519
| 30>    C        3.79141         0.31672        -0.10841
| 31>    C        4.62910        -0.77692        -0.11516
| 32>    C        5.40536        -1.72173        -0.11766
| 33>    C        6.17178        -2.81431        -0.11879
| 34>    C        6.84315        -3.83471        -0.12391
| 35>    C        7.54772        -5.02206        -0.13203
| 36>    N        6.93186        -6.24167         0.01315
| 37>    C        5.51115        -6.44701         0.15750
| 38>    C        4.77996        -6.30255        -1.17393
| 39>    C        7.85496        -7.30411        -0.05190
| 40>    O        7.54601        -8.47177         0.01753
| 41>    C        9.13310        -6.63945        -0.21992
| 42>    C        8.91353        -5.24284        -0.27818
| 43>    C       10.19447        -4.60109        -0.47762
| 44>    O       10.52172        -3.44110        -0.58134
| 45>    N       11.11633        -5.67764        -0.55035
| 46>    C       12.52925        -5.39184        -0.62860
| 47>    C       13.26113        -5.73805         0.66446
| 48>    C       10.49102        -6.89212        -0.38748
| 49>    C       11.02431        -8.21015        -0.39193
| 50>    C       12.21794        -8.64173        -0.86401
| 51>    C       12.63100       -10.00451        -0.85638
| 52>    C       12.16674       -11.07533        -0.10184
| 53>    C       11.26162       -10.93710         0.96465
| 54>    N       10.57341       -10.81841         1.87379
| 55>    C       12.80951       -12.29677        -0.44188
| 56>    C       13.76423       -12.11002        -1.43640
| 57>    S       13.90202       -10.48304        -1.96519
| 58>    S       14.60661       -13.54364        -1.93375
| 59>    C       13.65893       -14.42791        -0.78934
| 60>    C       12.74393       -13.66981        -0.05870
| 61>    C       11.99982       -14.48791         0.82532
| 62>    C       10.96963       -14.07222         1.68869
| 63>    N       10.10510       -13.79768         2.38821
| 64>    C       12.38889       -15.82275         0.78041
| 65>    S       13.64641       -16.10006        -0.40746
| 66>    C       11.77437       -16.87879         1.50549
| 67>    C       12.26084       -18.10819         1.80579
| 68>    C       11.29513       -19.20605         2.15087
| 69>    O       10.12945       -19.07475         2.42492
| 70>    C       12.08501       -20.43403         2.00572
| 71>    C       11.86269       -21.77816         2.06125
| 72>    S       13.34747       -22.65534         1.77470
| 73>    C       14.25271       -21.19671         1.59610
| 74>    C       13.45570       -20.10491         1.73930
| 75>    C       13.60328       -18.66250         1.75617
| 76>    C       14.78499       -18.00161         1.95857
| 77>    C       16.01838       -18.68558         1.96561
| 78>    N       17.02643       -19.23223         1.94994
| 79>    C       14.88078       -16.62685         2.25241
| 80>    N       14.98575       -15.51762         2.52785
| 81>   Cl       10.40416       -22.58398         2.35988
| 82>    H       -1.58888         1.97176         0.04343
| 83>    H        4.26423         1.29081        -0.13869
| 84>    H        5.11866        -5.72766         0.88220
| 85>    H        5.38671        -7.46143         0.54564
| 86>    H        4.90448        -5.29806        -1.57250
| 87>    H        3.71965        -6.48681        -1.02902
| 88>    H        5.16473        -7.02101        -1.89407
| 89>    H       12.59448        -4.31425        -0.81017
| 90>    H       12.97175        -5.90727        -1.48548
| 91>    H       12.84161        -5.16969         1.49083
| 92>    H       14.31304        -5.48373         0.56833
| 93>    H       13.17587        -6.79721         0.89612
| 94>    H       10.31859        -8.93964        -0.01556
| 95>    H       12.90411        -7.96523        -1.35154
| 96>    H       10.74283       -16.69990         1.79896
| 97>    H       15.30312       -21.24847         1.38836
| 98> *
| 99>
|100>                          ****END OF INPUT****

CARTESIAN COORDINATES (ANGSTROEM)
---------------------------------
  C      0.142490    0.610650    0.001510
  C     -1.163990    0.987620    0.039620
  S     -2.208830   -0.384900    0.087730
  C     -0.857260   -1.494550    0.054740
  Cl    -1.094060   -3.171880    0.079550
  C      0.320530   -0.811880    0.010370
  C      1.752770   -1.132700   -0.031710
  O      2.284950   -2.218290   -0.040520
  C      2.432570    0.196360   -0.065740
  C      1.441160    1.254920   -0.046780
  C      1.644030    2.609880   -0.067940
  C      0.563320    3.515970   -0.042900
  N     -0.305130    4.265370   -0.023200
  C      2.902030    3.241560   -0.115690
  N      3.904340    3.799910   -0.155190
  C      3.791410    0.316720   -0.108410
  C      4.629100   -0.776920   -0.115160
  C      5.405360   -1.721730   -0.117660
  C      6.171780   -2.814310   -0.118790
  C      6.843150   -3.834710   -0.123910
  C      7.547720   -5.022060   -0.132030
  N      6.931860   -6.241670    0.013150
  C      5.511150   -6.447010    0.157500
  C      4.779960   -6.302550   -1.173930
  C      7.854960   -7.304110   -0.051900
  O      7.546010   -8.471770    0.017530
  C      9.133100   -6.639450   -0.219920
  C      8.913530   -5.242840   -0.278180
  C     10.194470   -4.601090   -0.477620
  O     10.521720   -3.441100   -0.581340
  N     11.116330   -5.677640   -0.550350
  C     12.529250   -5.391840   -0.628600
  C     13.261130   -5.738050    0.664460
  C     10.491020   -6.892120   -0.387480
  C     11.024310   -8.210150   -0.391930
  C     12.217940   -8.641730   -0.864010
  C     12.631000  -10.004510   -0.856380
  C     12.166740  -11.075330   -0.101840
  C     11.261620  -10.937100    0.964650
  N     10.573410  -10.818410    1.873790
  C     12.809510  -12.296770   -0.441880
  C     13.764230  -12.110020   -1.436400
  S     13.902020  -10.483040   -1.965190
  S     14.606610  -13.543640   -1.933750
  C     13.658930  -14.427910   -0.789340
  C     12.743930  -13.669810   -0.058700
  C     11.999820  -14.487910    0.825320
  C     10.969630  -14.072220    1.688690
  N     10.105100  -13.797680    2.388210
  C     12.388890  -15.822750    0.780410
  S     13.646410  -16.100060   -0.407460
  C     11.774370  -16.878790    1.505490
  C     12.260840  -18.108190    1.805790
  C     11.295130  -19.206050    2.150870
  O     10.129450  -19.074750    2.424920
  C     12.085010  -20.434030    2.005720
  C     11.862690  -21.778160    2.061250
  S     13.347470  -22.655340    1.774700
  C     14.252710  -21.196710    1.596100
  C     13.455700  -20.104910    1.739300
  C     13.603280  -18.662500    1.756170
  C     14.784990  -18.001610    1.958570
  C     16.018380  -18.685580    1.965610
  N     17.026430  -19.232230    1.949940
  C     14.880780  -16.626850    2.252410
  N     14.985750  -15.517620    2.527850
  Cl    10.404160  -22.583980    2.359880
  H     -1.588880    1.971760    0.043430
  H      4.264230    1.290810   -0.138690
  H      5.118660   -5.727660    0.882200
  H      5.386710   -7.461430    0.545640
  H      4.904480   -5.298060   -1.572500
  H      3.719650   -6.486810   -1.029020
  H      5.164730   -7.021010   -1.894070
  H     12.594480   -4.314250   -0.810170
  H     12.971750   -5.907270   -1.485480
  H     12.841610   -5.169690    1.490830
  H     14.313040   -5.483730    0.568330
  H     13.175870   -6.797210    0.896120
  H     10.318590   -8.939640   -0.015560
  H     12.904110   -7.965230   -1.351540
  H     10.742830  -16.699900    1.798960
  H     15.303120  -21.248470    1.388360

 Total Charge           Charge          ....    0
 Multiplicity           Mult            ....    1
 Number of Electrons    NEL             ....  506
 Basis Dimension        Dim             .... 1046

ORBITAL ENERGIES
----------------

  NO   OCC          E(Eh)            E(eV)
   0   2.0000    -101.622870     -2765.2989
   1   2.0000    -101.620472     -2765.2336
   2   2.0000     -89.004844     -2421.9449
   3   2.0000     -89.003805     -2421.9167
   4   2.0000     -89.000296     -2421.8212
   5   2.0000     -89.000293     -2421.8211
   6   2.0000     -88.997602     -2421.7479
   7   2.0000     -19.227214      -523.1991
   8   2.0000     -19.225347      -523.1483
   9   2.0000     -19.200219      -522.4645
  10   2.0000     -19.192155      -522.2451
  11   2.0000     -14.461869      -393.5275
  12   2.0000     -14.457642      -393.4124
  13   2.0000     -14.429986      -392.6599
  14   2.0000     -14.427930      -392.6039
  15   2.0000     -14.427428      -392.5903
  16   2.0000     -14.425676      -392.5426
  17   2.0000     -14.418292      -392.3417
  18   2.0000     -14.413216      -392.2035
  19   2.0000     -10.384331      -282.5720
  20   2.0000     -10.384067      -282.5648
  21   2.0000     -10.383012      -282.5361
  22   2.0000     -10.381144      -282.4853
  23   2.0000     -10.379866      -282.4505
  24   2.0000     -10.377891      -282.3968
  25   2.0000     -10.360128      -281.9134
  26   2.0000     -10.359538      -281.8974
  27   2.0000     -10.359347      -281.8922
  28   2.0000     -10.358856      -281.8788
  29   2.0000     -10.355738      -281.7939
  30   2.0000     -10.355081      -281.7761
  31   2.0000     -10.354344      -281.7560
  32   2.0000     -10.352191      -281.6974
  33   2.0000     -10.350614      -281.6545
  34   2.0000     -10.348358      -281.5931
  35   2.0000     -10.347336      -281.5653
  36   2.0000     -10.340012      -281.3660
  37   2.0000     -10.337249      -281.2908
  38   2.0000     -10.336949      -281.2827
  39   2.0000     -10.336715      -281.2763
  40   2.0000     -10.333878      -281.1991
  41   2.0000     -10.331425      -281.1324
  42   2.0000     -10.329389      -281.0770
  43   2.0000     -10.328800      -281.0609
  44   2.0000     -10.327649      -281.0296
  45   2.0000     -10.327320      -281.0207
  46   2.0000     -10.326118      -280.9880
  47   2.0000     -10.321336      -280.8578
  48   2.0000     -10.319554      -280.8094
  49   2.0000     -10.319497      -280.8078
  50   2.0000     -10.318513      -280.7810
  51   2.0000     -10.317567      -280.7553
  52   2.0000     -10.316696      -280.7316
  53   2.0000     -10.315588      -280.7014
  54   2.0000     -10.315399      -280.6963
  55   2.0000     -10.314224      -280.6643
  56   2.0000     -10.311808      -280.5986
  57   2.0000     -10.311432      -280.5883
  58   2.0000     -10.310782      -280.5707
  59   2.0000     -10.308593      -280.5111
  60   2.0000     -10.307825      -280.4902
  61   2.0000     -10.304405      -280.3971
  62   2.0000     -10.304232      -280.3924
  63   2.0000     -10.279667      -279.7240
  64   2.0000     -10.272679      -279.5338
  65   2.0000     -10.268334      -279.4156
  66   2.0000     -10.257000      -279.1072
  67   2.0000      -9.577644      -260.6209
  68   2.0000      -9.575228      -260.5552
  69   2.0000      -8.100007      -220.4124
  70   2.0000      -8.098427      -220.3694
  71   2.0000      -8.095982      -220.3029
  72   2.0000      -8.095796      -220.2978
  73   2.0000      -8.093201      -220.2272
  74   2.0000      -7.348312      -199.9577
  75   2.0000      -7.345880      -199.8916
  76   2.0000      -7.337671      -199.6682
  77   2.0000      -7.337109      -199.6529
  78   2.0000      -7.335262      -199.6026
  79   2.0000      -7.334721      -199.5879
  80   2.0000      -6.069985      -165.1727
  81   2.0000      -6.068039      -165.1197
  82   2.0000      -6.065675      -165.0554
  83   2.0000      -6.065365      -165.0470
  84   2.0000      -6.065302      -165.0453
  85   2.0000      -6.063753      -165.0031
  86   2.0000      -6.062577      -164.9711
  87   2.0000      -6.061145      -164.9321
  88   2.0000      -6.060847      -164.9240
  89   2.0000      -6.060745      -164.9213
  90   2.0000      -6.060058      -164.9026
  91   2.0000      -6.058231      -164.8528
  92   2.0000      -6.057966      -164.8456
  93   2.0000      -6.057414      -164.8306
  94   2.0000      -6.055501      -164.7786
  95   2.0000      -1.145075       -31.1591
  96   2.0000      -1.141519       -31.0623
  97   2.0000      -1.140823       -31.0434
  98   2.0000      -1.131834       -30.7988
  99   2.0000      -1.071286       -29.1512
 100   2.0000      -1.062148       -28.9025
 101   2.0000      -1.058973       -28.8161
 102   2.0000      -1.045977       -28.4625
 103   2.0000      -1.042517       -28.3683
 104   2.0000      -1.028556       -27.9884
 105   2.0000      -1.023101       -27.8400
 106   2.0000      -1.022848       -27.8331
 107   2.0000      -1.007113       -27.4049
 108   2.0000      -1.004777       -27.3414
 109   2.0000      -1.002947       -27.2916
 110   2.0000      -0.996580       -27.1183
 111   2.0000      -0.993691       -27.0397
 112   2.0000      -0.991907       -26.9912
 113   2.0000      -0.970551       -26.4100
 114   2.0000      -0.960562       -26.1382
 115   2.0000      -0.959569       -26.1112
 116   2.0000      -0.936043       -25.4710
 117   2.0000      -0.928286       -25.2600
 118   2.0000      -0.923294       -25.1241
 119   2.0000      -0.918394       -24.9908
 120   2.0000      -0.911894       -24.8139
 121   2.0000      -0.911176       -24.7944
 122   2.0000      -0.900229       -24.4965
 123   2.0000      -0.895903       -24.3788
 124   2.0000      -0.882712       -24.0198
 125   2.0000      -0.878376       -23.9018
 126   2.0000      -0.858672       -23.3656
 127   2.0000      -0.846195       -23.0261
 128   2.0000      -0.840778       -22.8787
 129   2.0000      -0.837457       -22.7884
 130   2.0000      -0.837163       -22.7804
 131   2.0000      -0.823682       -22.4135
 132   2.0000      -0.819186       -22.2912
 133   2.0000      -0.804961       -21.9041
 134   2.0000      -0.790222       -21.5030
 135   2.0000      -0.779631       -21.2148
 136   2.0000      -0.763652       -20.7800
 137   2.0000      -0.761785       -20.7292
 138   2.0000      -0.759770       -20.6744
 139   2.0000      -0.737168       -20.0594
 140   2.0000      -0.725310       -19.7367
 141   2.0000      -0.723076       -19.6759
 142   2.0000      -0.714433       -19.4407
 143   2.0000      -0.709355       -19.3025
 144   2.0000      -0.701321       -19.0839
 145   2.0000      -0.698978       -19.0202
 146   2.0000      -0.692090       -18.8327
 147   2.0000      -0.689660       -18.7666
 148   2.0000      -0.683795       -18.6070
 149   2.0000      -0.680961       -18.5299
 150   2.0000      -0.676062       -18.3966
 151   2.0000      -0.664612       -18.0850
 152   2.0000      -0.658290       -17.9130
 153   2.0000      -0.655918       -17.8484
 154   2.0000      -0.642932       -17.4951
 155   2.0000      -0.635806       -17.3012
 156   2.0000      -0.628871       -17.1125
 157   2.0000      -0.624814       -17.0021
 158   2.0000      -0.619932       -16.8692
 159   2.0000      -0.619272       -16.8512
 160   2.0000      -0.600674       -16.3452
 161   2.0000      -0.598713       -16.2918
 162   2.0000      -0.593176       -16.1412
 163   2.0000      -0.589828       -16.0500
 164   2.0000      -0.579471       -15.7682
 165   2.0000      -0.572637       -15.5822
 166   2.0000      -0.566430       -15.4133
 167   2.0000      -0.559903       -15.2357
 168   2.0000      -0.558226       -15.1901
 169   2.0000      -0.555943       -15.1280
 170   2.0000      -0.555457       -15.1148
 171   2.0000      -0.552002       -15.0208
 172   2.0000      -0.541709       -14.7407
 173   2.0000      -0.539586       -14.6829
 174   2.0000      -0.537551       -14.6275
 175   2.0000      -0.537050       -14.6139
 176   2.0000      -0.536505       -14.5990
 177   2.0000      -0.533027       -14.5044
 178   2.0000      -0.532239       -14.4830
 179   2.0000      -0.529930       -14.4201
 180   2.0000      -0.526460       -14.3257
 181   2.0000      -0.525884       -14.3100
 182   2.0000      -0.522712       -14.2237
 183   2.0000      -0.520194       -14.1552
 184   2.0000      -0.515671       -14.0321
 185   2.0000      -0.514631       -14.0038
 186   2.0000      -0.511160       -13.9094
 187   2.0000      -0.508305       -13.8317
 188   2.0000      -0.505144       -13.7457
 189   2.0000      -0.503425       -13.6989
 190   2.0000      -0.499708       -13.5978
 191   2.0000      -0.495880       -13.4936
 192   2.0000      -0.494439       -13.4544
 193   2.0000      -0.491224       -13.3669
 194   2.0000      -0.485912       -13.2223
 195   2.0000      -0.483399       -13.1539
 196   2.0000      -0.477805       -13.0017
 197   2.0000      -0.475638       -12.9428
 198   2.0000      -0.472837       -12.8665
 199   2.0000      -0.471988       -12.8434
 200   2.0000      -0.469836       -12.7849
 201   2.0000      -0.466304       -12.6888
 202   2.0000      -0.464593       -12.6422
 203   2.0000      -0.461287       -12.5523
 204   2.0000      -0.460821       -12.5396
 205   2.0000      -0.460653       -12.5350
 206   2.0000      -0.458506       -12.4766
 207   2.0000      -0.458192       -12.4680
 208   2.0000      -0.455030       -12.3820
 209   2.0000      -0.454296       -12.3620
 210   2.0000      -0.453474       -12.3397
 211   2.0000      -0.452129       -12.3030
 212   2.0000      -0.449004       -12.2180
 213   2.0000      -0.447438       -12.1754
 214   2.0000      -0.446014       -12.1367
 215   2.0000      -0.445509       -12.1229
 216   2.0000      -0.443306       -12.0630
 217   2.0000      -0.442452       -12.0397
 218   2.0000      -0.439240       -11.9523
 219   2.0000      -0.438220       -11.9246
 220   2.0000      -0.437907       -11.9161
 221   2.0000      -0.436134       -11.8678
 222   2.0000      -0.434756       -11.8303
 223   2.0000      -0.434708       -11.8290
 224   2.0000      -0.429804       -11.6956
 225   2.0000      -0.425050       -11.5662
 226   2.0000      -0.423586       -11.5264
 227   2.0000      -0.422461       -11.4958
 228   2.0000      -0.420848       -11.4519
 229   2.0000      -0.411267       -11.1911
 230   2.0000      -0.410269       -11.1640
 231   2.0000      -0.407654       -11.0928
 232   2.0000      -0.406613       -11.0645
 233   2.0000      -0.398314       -10.8387
 234   2.0000      -0.390094       -10.6150
 235   2.0000      -0.386103       -10.5064
 236   2.0000      -0.379211       -10.3189
 237   2.0000      -0.364542        -9.9197
 238   2.0000      -0.359022        -9.7695
 239   2.0000      -0.353419        -9.6170
 240   2.0000      -0.351797        -9.5729
 241   2.0000      -0.341559        -9.2943
 242   2.0000      -0.341276        -9.2866
 243   2.0000      -0.337648        -9.1879
 244   2.0000      -0.335246        -9.1225
 245   2.0000      -0.325881        -8.8677
 246   2.0000      -0.323725        -8.8090
 247   2.0000      -0.321822        -8.7572
 248   2.0000      -0.319938        -8.7060
 249   2.0000      -0.308545        -8.3959
 250   2.0000      -0.303343        -8.2544
 251   2.0000      -0.297526        -8.0961
 252   2.0000      -0.249028        -6.7764
 253   0.0000      -0.122462        -3.3324
 254   0.0000      -0.110976        -3.0198
 255   0.0000      -0.087020        -2.3679
 256   0.0000      -0.059110        -1.6085
 257   0.0000      -0.055965        -1.5229

MULLIKEN ATOMIC CHARGES
-----------------------
   0 C :    0.028806
   1 C :   -0.128037
   2 S :    0.189562
   3 C :   -0.170862
   4 Cl:    0.000583
   5 C :    0.073521
   6 C :    0.149114
   7 O :   -0.111798
   8 C :   -0.112860
   9 C :    0.302127
  10 C :   -0.319271
  11 C :   -0.195084
  12 N :    0.163882
  13 C :   -0.189062
  14 N :    0.169247
  15 C :   -0.125671
  16 C :    0.059481
  17 C :    0.029531
  18 C :   -0.089297
  19 C :    0.142000
  20 C :    0.015333
  21 N :   -0.269142
  22 C :    0.113709
  23 C :    0.000443
  24 C :    0.163571
  25 O :   -0.176701
  26 C :   -0.061974
  27 C :    0.030899
  28 C :    0.125605
  29 O :   -0.164044
  30 N :   -0.277730
  31 C :    0.096287
  32 C :   -0.006351
  33 C :    0.114524
  34 C :   -0.034290
  35 C :    0.053729
  36 C :   -0.119132
  37 C :    0.001738
  38 C :   -0.315363
  39 N :    0.217950
  40 C :    0.135225
  41 C :   -0.233544
  42 S :    0.181354
  43 S :    0.210149
  44 C :   -0.219040
  45 C :    0.161999
  46 C :    0.034057
  47 C :   -0.310995
  48 N :    0.240256
  49 C :   -0.129938
  50 S :    0.196781
  51 C :    0.010088
  52 C :   -0.134724
  53 C :    0.136079
  54 O :   -0.115016
  55 C :    0.087248
  56 C :   -0.169117
  57 S :    0.189852
  58 C :   -0.124675
  59 C :    0.016474
  60 C :    0.240330
  61 C :   -0.305907
  62 C :   -0.182483
  63 N :    0.160225
  64 C :   -0.201640
  65 N :    0.184838
  66 Cl:    0.006415
  67 H :    0.054597
  68 H :    0.061372
  69 H :    0.032488
  70 H :    0.044291
  71 H :    0.025148
  72 H :    0.026252
  73 H :    0.023991
  74 H :    0.050711
  75 H :    0.023759
  76 H :    0.030525
  77 H :    0.025205
  78 H :    0.028347
  79 H :    0.041127
  80 H :   -0.017338
  81 H :    0.055617
  82 H :    0.054638
Sum of atomic charges:   -0.0000000

LOEWDIN ATOMIC CHARGES
----------------------
   0 C :   -0.059066
   1 C :   -0.147833
   2 S :    0.478575
   3 C :   -0.271955
   4 Cl:    0.192546
   5 C :   -0.116623
   6 C :    0.077817
   7 O :   -0.117077
   8 C :   -0.060673
   9 C :    0.069620
  10 C :   -0.128320
  11 C :   -0.015854
  12 N :   -0.045238
  13 C :   -0.022140
  14 N :   -0.038244
  15 C :    0.044977
  16 C :    0.016230
  17 C :    0.001509
  18 C :   -0.008383
  19 C :    0.009769
  20 C :    0.049077
  21 N :    0.005675
  22 C :    0.040134
  23 C :   -0.059682
  24 C :    0.077410
  25 O :   -0.181091
  26 C :   -0.107357
  27 C :   -0.090347
  28 C :    0.086985
  29 O :   -0.168301
  30 N :   -0.011007
  31 C :    0.034193
  32 C :   -0.062501
  33 C :    0.079978
  34 C :   -0.005461
  35 C :   -0.030535
  36 C :   -0.130993
  37 C :   -0.088449
  38 C :   -0.043614
  39 N :   -0.015524
  40 C :   -0.056563
  41 C :   -0.330233
  42 S :    0.459625
  43 S :    0.441030
  44 C :   -0.312572
  45 C :   -0.059857
  46 C :   -0.055183
  47 C :   -0.040844
  48 N :   -0.006182
  49 C :   -0.148702
  50 S :    0.486957
  51 C :    0.051493
  52 C :   -0.080558
  53 C :    0.081209
  54 O :   -0.120990
  55 C :   -0.118494
  56 C :   -0.270772
  57 S :    0.479253
  58 C :   -0.151444
  59 C :   -0.057825
  60 C :    0.058532
  61 C :   -0.135200
  62 C :   -0.017597
  63 N :   -0.043810
  64 C :   -0.038890
  65 N :   -0.038110
  66 Cl:    0.197296
  67 H :    0.038210
  68 H :    0.063190
  69 H :    0.030673
  70 H :    0.038036
  71 H :    0.026389
  72 H :    0.032758
  73 H :    0.028896
  74 H :    0.039609
  75 H :    0.017681
  76 H :    0.033499
  77 H :    0.032059
  78 H :    0.023195
  79 H :    0.055599
  80 H :    0.030037
  81 H :    0.062065
  82 H :    0.038305

  Mayer bond orders larger than 0.100000
B(  0-C ,  1-C ) :   1.5428 B(  0-C ,  5-C ) :   1.2268 B(  0-C ,  9-C ) :   1.0026
B(  1-C ,  2-S ) :   1.1636 B(  1-C , 67-H ) :   0.9548 B(  2-S ,  3-C ) :   1.1491
B(  3-C ,  4-Cl) :   1.1281 B(  3-C ,  5-C ) :   1.4828 B(  5-C ,  6-C ) :   0.9428
B(  6-C ,  7-O ) :   2.2747 B(  6-C ,  8-C ) :   0.9226 B(  8-C ,  9-C ) :   1.0510
B(  8-C , 15-C ) :   1.6490 B(  9-C , 10-C ) :   1.6634 B( 10-C , 11-C ) :   1.1423
B( 10-C , 13-C ) :   1.1452 B( 11-C , 12-N ) :   2.9915 B( 13-C , 14-N ) :   2.9731
B( 15-C , 16-C ) :   1.0321 B( 15-C , 68-H ) :   0.9368 B( 16-C , 17-C ) :   2.0520
B( 16-C , 19-C ) :   0.1729 B( 17-C , 18-C ) :   0.9318 B( 18-C , 19-C ) :   2.0566
B( 19-C , 20-C ) :   0.8277 B( 20-C , 21-N ) :   1.2118 B( 20-C , 27-C ) :   1.3944
B( 21-N , 22-C ) :   0.9393 B( 21-N , 24-C ) :   1.0309 B( 22-C , 23-C ) :   1.1217
B( 22-C , 69-H ) :   0.9474 B( 22-C , 70-H ) :   0.9331 B( 23-C , 71-H ) :   0.9692
B( 23-C , 72-H ) :   0.9672 B( 23-C , 73-H ) :   0.9656 B( 24-C , 25-O ) :   2.1440
B( 24-C , 26-C ) :   0.9701 B( 26-C , 27-C ) :   1.2296 B( 26-C , 33-C ) :   1.3624
B( 27-C , 28-C ) :   0.9392 B( 28-C , 29-O ) :   2.1830 B( 28-C , 30-N ) :   1.0223
B( 30-N , 31-C ) :   0.9420 B( 30-N , 33-C ) :   1.1744 B( 31-C , 32-C ) :   1.1161
B( 31-C , 74-H ) :   0.9220 B( 31-C , 75-H ) :   0.9501 B( 32-C , 76-H ) :   0.9625
B( 32-C , 77-H ) :   0.9672 B( 32-C , 78-H ) :   0.9670 B( 33-C , 34-C ) :   1.1923
B( 34-C , 35-C ) :   1.6154 B( 34-C , 79-H ) :   0.9329 B( 35-C , 36-C ) :   1.1412
B( 35-C , 80-H ) :   0.9470 B( 36-C , 37-C ) :   1.4824 B( 36-C , 42-S ) :   1.1296
B( 37-C , 38-C ) :   1.1710 B( 37-C , 40-C ) :   1.2694 B( 38-C , 39-N ) :   2.9647
B( 40-C , 41-C ) :   1.4076 B( 40-C , 45-C ) :   1.0637 B( 41-C , 42-S ) :   1.1001
B( 41-C , 43-S ) :   1.0777 B( 43-S , 44-C ) :   1.0999 B( 44-C , 45-C ) :   1.3805
B( 44-C , 50-S ) :   1.1196 B( 45-C , 46-C ) :   1.2770 B( 46-C , 47-C ) :   1.1785
B( 46-C , 49-C ) :   1.4625 B( 47-C , 48-N ) :   2.9906 B( 49-C , 50-S ) :   1.1242
B( 49-C , 51-C ) :   1.1242 B( 51-C , 52-C ) :   1.6990 B( 51-C , 81-H ) :   0.9364
B( 52-C , 53-C ) :   0.9257 B( 52-C , 60-C ) :   1.0232 B( 53-C , 54-O ) :   2.2887
B( 53-C , 55-C ) :   0.9272 B( 55-C , 56-C ) :   1.4824 B( 55-C , 59-C ) :   1.2206
B( 56-C , 57-S ) :   1.1533 B( 56-C , 66-Cl) :   1.1354 B( 57-S , 58-C ) :   1.1605
B( 58-C , 59-C ) :   1.5511 B( 58-C , 82-H ) :   0.9568 B( 59-C , 60-C ) :   1.0170
B( 60-C , 61-C ) :   1.6773 B( 61-C , 62-C ) :   1.1334 B( 61-C , 64-C ) :   1.1508
B( 62-C , 63-N ) :   3.0033 B( 64-C , 65-N ) :   3.0170

-----------------------------------------------------------------------------
         ABSORPTION SPECTRUM VIA TRANSITION ELECTRIC DIPOLE MOMENTS
-----------------------------------------------------------------------------
State   Energy  Wavelength   fosc         T2         TX        TY        TZ
        (cm-1)    (nm)                  (au**2)     (au)      (au)      (au)
-----------------------------------------------------------------------------
   0   13550.8    738.0   1.219600242  29.62977   4.17415  -3.48909  -0.18020
   1   19824.1    504.4   0.008579115   0.14247  -0.10192   0.36341   0.00436
   2   20946.5    477.4   0.010601476   0.16662   0.31693  -0.24995   0.06082
   3   21214.3    471.4   0.017197811   0.26688  -0.32635   0.38113  -0.12297
   4   22533.1    443.8   0.542972485   7.93289   0.47206  -2.51215   1.18287
   5   24932.3    401.1   0.132603686   1.75093  -0.72264   1.10743   0.04812
   6   25062.9    399.0   0.191352219   2.51349  -0.83153   1.34970  -0.01913
   7   26164.0    382.2   0.095566172   1.20247  -0.27958   1.05570   0.09902
   8   26518.7    377.1   0.213367699   2.64882  -0.48797   1.55168   0.05477
   9   27102.3    369.0   0.003298617   0.04007   0.16239   0.10798   0.04516
  10   27230.6    367.2   0.054179308   0.65502  -0.17808  -0.78949  -0.00056
  11   27302.1    366.3   0.212196036   2.55869   1.32769  -0.89122  -0.04058
  12   28195.9    354.7   0.021135334   0.24677   0.25440  -0.41012  -0.11771
  13   28314.5    353.2   0.025309089   0.29427   0.40891  -0.22901  -0.27316
  14   28671.6    348.8   0.002093216   0.02403  -0.03805  -0.13608   0.06380
  15   29105.4    343.6   0.103258201   1.16796   0.32039   1.03214   0.00213
  16   29974.8    333.6   0.000053719   0.00059  -0.01831  -0.01348  -0.00855
  17   30957.6    323.0   0.202527751   2.15374   0.91940   1.14256  -0.05478
  18   31013.2    322.4   0.060214346   0.63919  -0.63083   0.49101  -0.01186
  19   31673.9    315.7   0.039647392   0.41209   0.48821   0.41056   0.07196
  20   31942.3    313.1   0.026216126   0.27020   0.48909  -0.10356  -0.14234
  21   32566.7    307.1   0.002887582   0.02919   0.06606  -0.14829   0.05325
  22   32735.8    305.5   0.040464099   0.40693  -0.59210  -0.04927   0.23222
  23   32776.7    305.1   0.002165743   0.02175  -0.05236   0.13759   0.00888
  24   34121.7    293.1   0.042997754   0.41485  -0.06416   0.64088  -0.00284
  25   34287.9    291.6   0.066440432   0.63792  -0.04732   0.79120  -0.09839
  26   34372.1    290.9   0.260065356   2.49088  -0.54051  -1.46268   0.24350
  27   34562.2    289.3   0.004731034   0.04506   0.05750  -0.02920  -0.20225
  28   34805.1    287.3   0.331019391   3.13102   0.77742   1.57072  -0.24388
  29   34939.9    286.2   0.026481191   0.24951  -0.48529  -0.09311  -0.07303
  30   35593.6    280.9   0.002151495   0.01990  -0.02144  -0.06225  -0.12476
  31   35928.8    278.3   0.018953800   0.17367  -0.27544   0.30373   0.07452
  32   36977.8    270.4   0.048947040   0.43577  -0.43662  -0.49497   0.01193
  33   37078.7    269.7   0.006918365   0.06143   0.16935  -0.17793  -0.03300
  34   37190.6    268.9   0.429592073   3.80275   1.15398   1.57104  -0.05399
  35   37448.3    267.0   0.033424111   0.29383   0.26719   0.46917  -0.04819
  36   37567.7    266.2   0.261683388   2.29317  -0.77961  -1.29819  -0.00962
  37   37586.9    266.1   0.115614110   1.01263   0.61427   0.79677   0.02145
  38   37817.6    264.4   0.025668391   0.22345  -0.17660  -0.34361  -0.27239
  39   38259.2    261.4   0.036317245   0.31250  -0.51901   0.20292  -0.04420
  40   38511.4    259.7   0.000280455   0.00240   0.04452   0.00901   0.01829
  41   38755.5    258.0   0.192423502   1.63456  -0.27039  -1.24677  -0.08370
  42   39318.4    254.3   0.078224155   0.65497   0.04389  -0.80194   0.09970
  43   39613.9    252.4   0.136566574   1.13494   0.74724   0.65955  -0.37625
  44   40230.8    248.6   0.037929531   0.31038   0.08454  -0.42197   0.35380

FINAL SINGLE POINT ENERGY     -5484.612454068585

DIPOLE MOMENT
-------------
                                X             Y             Z
Electronic contribution:    -11.81735     -49.96781       5.57237
Nuclear contribution   :     12.57814      47.28462      -8.07368
                        -----------------------------------------
Total Dipole Moment    :      0.76079      -2.68319      -2.50131
                        -----------------------------------------
Magnitude (a.u.)       :      3.74631
Magnitude (Debye)      :      9.52237

Rotational constants in cm-1:     0.001858     0.000201     0.000184
Rotational constants in MHz :    55.706047     6.024331     5.520632

                             ****ORCA TERMINATED NORMALLY****
TOTAL RUN TIME: 0 days 0 hours 7 minutes 5 seconds 10 msec
