                         Program Version 4.2.0 -  RELEASE  -
|  1> # ORCA input file
|  2> # SCF done       -165.936138148838          0.000908593094
|  3> ! CAM-B3LYP def2-SVP def2/J RIJCOSX Grid4 TightSCF
|  4> %maxcore 5000
|  5> %tddft
|  6>     Mode sTDDFT
|  7>     Ethresh 5.0
|  8>     maxcore 5000
|  9> end
| 10>
| 11> %pal
| 12>   nprocs 6
| 13>   end
| 14> * xyz 0 1
| 15>    C        4.37523         2.65442        -0.17074
| 16>    C        3.71765         3.66511         0.46043
| 17>    S        2.55409         3.05095         1.57593
| 18>    C        2.95781         1.39564         1.18734
| 19>   Cl        2.17183         0.09571         1.93585
| 20>    C        3.94053         1.35383         0.24283
| 21>    C        4.68576         0.31700        -0.47748
| 22>    O        4.58270        -0.88135        -0.36159
| 23>    C        5.65576         1.07773        -1.33444
| 24>    C        5.41136         2.50946        -1.17061
| 25>    C        5.98504         3.54134        -1.85942
| 26>    C        5.62603         4.88268        -1.60270
| 27>    N        5.34541         5.97626        -1.40139
| 28>    C        6.94256         3.41154        -2.88662
| 29>    N        7.71021         3.37125        -3.73844
| 30>    C        6.70696         0.53352        -1.99036
| 31>    C        6.94915        -0.87520        -2.21149
| 32>    C        8.25210        -1.35732        -2.14720
| 33>    C        8.53573        -2.70963        -2.29061
| 34>    N        9.93813        -3.05205        -2.27604
| 35>    O       10.71623        -2.15647        -2.53404
| 36>    O       10.27379        -4.19007        -2.02779
| 37>    C        7.50932        -3.63616        -2.55702
| 38>    C        6.22312        -3.10539        -2.75051
| 39>    C        5.93406        -1.77687        -2.55923
| 40>    C        7.63634        -5.07119        -2.71367
| 41>    C        8.26180        -5.92866        -1.88553
| 42>    C        8.28971        -7.33500        -2.08036
| 43>    S        7.54688        -8.13722        -3.43581
| 44>    C        8.05312        -9.72007        -2.90915
| 45>    C        8.78808        -9.62432        -1.73418
| 46>    C        8.90695        -8.27859        -1.28558
| 47>    S        9.84104        -8.14789         0.16556
| 48>    C       10.09434        -9.86648         0.14854
| 49>    C        9.50427       -10.51331        -0.87951
| 50>    C        7.68299       -10.87523        -3.67827
| 51>    C        7.33786       -10.74681        -5.02519
| 52>    C        6.97121       -11.84398        -5.78128
| 53>    N        6.60233       -11.57508        -7.15108
| 54>    O        7.05689       -10.57063        -7.65501
| 55>    O        5.85784       -12.34865        -7.71374
| 56>    C        6.92878       -13.14231        -5.23168
| 57>    C        7.26688       -13.24840        -3.87327
| 58>    C        7.62596       -12.16029        -3.11668
| 59>    C        6.60183       -14.31125        -6.00644
| 60>    C        6.08253       -15.45002        -5.49148
| 61>    C        5.75563       -16.55729        -6.31324
| 62>    C        5.05441       -17.67537        -5.98111
| 63>    C        5.12365       -18.85583        -6.90103
| 64>    O        5.57647       -18.86501        -8.01982
| 65>    C        4.57940       -19.96814        -6.11477
| 66>    C        4.40635       -21.31100        -6.26576
| 67>    S        3.67136       -21.99754        -4.83570
| 68>    C        3.60063       -20.45898        -4.05639
| 69>    C        4.11619       -19.48113        -4.84850
| 70>    C        4.29829       -18.04006        -4.79645
| 71>    C        3.69170       -17.23281        -3.86989
| 72>    C        2.96747       -17.78156        -2.78917
| 73>    N        2.39477       -18.20362        -1.88905
| 74>    C        3.62151       -15.82540        -3.88810
| 75>    N        3.48798       -14.68612        -3.84058
| 76>   Cl        4.80608       -22.27381        -7.60066
| 77>    H        3.83669         4.72507         0.35382
| 78>    H        7.48095         1.19405        -2.36303
| 79>    H        9.07321        -0.68113        -1.95670
| 80>    H        5.42994        -3.78483        -3.02363
| 81>    H        4.92783        -1.42183        -2.70848
| 82>    H        7.06322        -5.48491        -3.53640
| 83>    H        8.77859        -5.58408        -1.00187
| 84>    H       10.69036       -10.29735         0.92972
| 85>    H        9.59782       -11.57150        -1.03686
| 86>    H        7.35186        -9.77612        -5.50002
| 87>    H        7.26034       -14.22332        -3.41278
| 88>    H        7.83928       -12.29154        -2.06884
| 89>    H        6.72196       -14.25129        -7.07950
| 90>    H        5.88158       -15.52627        -4.43424
| 91>    H        6.15060       -16.55165        -7.32434
| 92>    H        3.19050       -20.39124        -3.06847
| 93> *
| 94>
| 95>                          ****END OF INPUT****

CARTESIAN COORDINATES (ANGSTROEM)
---------------------------------
  C      4.375230    2.654420   -0.170740
  C      3.717650    3.665110    0.460430
  S      2.554090    3.050950    1.575930
  C      2.957810    1.395640    1.187340
  Cl     2.171830    0.095710    1.935850
  C      3.940530    1.353830    0.242830
  C      4.685760    0.317000   -0.477480
  O      4.582700   -0.881350   -0.361590
  C      5.655760    1.077730   -1.334440
  C      5.411360    2.509460   -1.170610
  C      5.985040    3.541340   -1.859420
  C      5.626030    4.882680   -1.602700
  N      5.345410    5.976260   -1.401390
  C      6.942560    3.411540   -2.886620
  N      7.710210    3.371250   -3.738440
  C      6.706960    0.533520   -1.990360
  C      6.949150   -0.875200   -2.211490
  C      8.252100   -1.357320   -2.147200
  C      8.535730   -2.709630   -2.290610
  N      9.938130   -3.052050   -2.276040
  O     10.716230   -2.156470   -2.534040
  O     10.273790   -4.190070   -2.027790
  C      7.509320   -3.636160   -2.557020
  C      6.223120   -3.105390   -2.750510
  C      5.934060   -1.776870   -2.559230
  C      7.636340   -5.071190   -2.713670
  C      8.261800   -5.928660   -1.885530
  C      8.289710   -7.335000   -2.080360
  S      7.546880   -8.137220   -3.435810
  C      8.053120   -9.720070   -2.909150
  C      8.788080   -9.624320   -1.734180
  C      8.906950   -8.278590   -1.285580
  S      9.841040   -8.147890    0.165560
  C     10.094340   -9.866480    0.148540
  C      9.504270  -10.513310   -0.879510
  C      7.682990  -10.875230   -3.678270
  C      7.337860  -10.746810   -5.025190
  C      6.971210  -11.843980   -5.781280
  N      6.602330  -11.575080   -7.151080
  O      7.056890  -10.570630   -7.655010
  O      5.857840  -12.348650   -7.713740
  C      6.928780  -13.142310   -5.231680
  C      7.266880  -13.248400   -3.873270
  C      7.625960  -12.160290   -3.116680
  C      6.601830  -14.311250   -6.006440
  C      6.082530  -15.450020   -5.491480
  C      5.755630  -16.557290   -6.313240
  C      5.054410  -17.675370   -5.981110
  C      5.123650  -18.855830   -6.901030
  O      5.576470  -18.865010   -8.019820
  C      4.579400  -19.968140   -6.114770
  C      4.406350  -21.311000   -6.265760
  S      3.671360  -21.997540   -4.835700
  C      3.600630  -20.458980   -4.056390
  C      4.116190  -19.481130   -4.848500
  C      4.298290  -18.040060   -4.796450
  C      3.691700  -17.232810   -3.869890
  C      2.967470  -17.781560   -2.789170
  N      2.394770  -18.203620   -1.889050
  C      3.621510  -15.825400   -3.888100
  N      3.487980  -14.686120   -3.840580
  Cl     4.806080  -22.273810   -7.600660
  H      3.836690    4.725070    0.353820
  H      7.480950    1.194050   -2.363030
  H      9.073210   -0.681130   -1.956700
  H      5.429940   -3.784830   -3.023630
  H      4.927830   -1.421830   -2.708480
  H      7.063220   -5.484910   -3.536400
  H      8.778590   -5.584080   -1.001870
  H     10.690360  -10.297350    0.929720
  H      9.597820  -11.571500   -1.036860
  H      7.351860   -9.776120   -5.500020
  H      7.260340  -14.223320   -3.412780
  H      7.839280  -12.291540   -2.068840
  H      6.721960  -14.251290   -7.079500
  H      5.881580  -15.526270   -4.434240
  H      6.150600  -16.551650   -7.324340
  H      3.190500  -20.391240   -3.068470

 Total Charge           Charge          ....    0
 Multiplicity           Mult            ....    1
 Number of Electrons    NEL             ....  468
 Basis Dimension        Dim             ....  972

ORBITAL ENERGIES
----------------

  NO   OCC          E(Eh)            E(eV)
   0   2.0000    -101.624173     -2765.3343
   1   2.0000    -101.616901     -2765.1365
   2   2.0000     -89.001256     -2421.8473
   3   2.0000     -88.992946     -2421.6212
   4   2.0000     -88.974213     -2421.1114
   5   2.0000     -88.962499     -2420.7927
   6   2.0000     -19.253321      -523.9095
   7   2.0000     -19.251193      -523.8516
   8   2.0000     -19.245393      -523.6938
   9   2.0000     -19.243165      -523.6331
  10   2.0000     -19.230400      -523.2858
  11   2.0000     -19.218025      -522.9490
  12   2.0000     -14.658119      -398.8677
  13   2.0000     -14.651582      -398.6898
  14   2.0000     -14.426997      -392.5786
  15   2.0000     -14.426731      -392.5713
  16   2.0000     -14.422137      -392.4463
  17   2.0000     -14.420499      -392.4017
  18   2.0000     -10.387997      -282.6718
  19   2.0000     -10.383803      -282.5577
  20   2.0000     -10.375703      -282.3372
  21   2.0000     -10.374238      -282.2974
  22   2.0000     -10.356543      -281.8159
  23   2.0000     -10.355926      -281.7991
  24   2.0000     -10.351652      -281.6828
  25   2.0000     -10.350762      -281.6586
  26   2.0000     -10.344893      -281.4989
  27   2.0000     -10.338932      -281.3366
  28   2.0000     -10.336841      -281.2797
  29   2.0000     -10.331370      -281.1309
  30   2.0000     -10.329190      -281.0715
  31   2.0000     -10.328688      -281.0579
  32   2.0000     -10.328407      -281.0503
  33   2.0000     -10.324390      -280.9409
  34   2.0000     -10.324192      -280.9355
  35   2.0000     -10.323047      -280.9044
  36   2.0000     -10.322767      -280.8968
  37   2.0000     -10.321214      -280.8545
  38   2.0000     -10.320119      -280.8247
  39   2.0000     -10.319857      -280.8176
  40   2.0000     -10.319274      -280.8017
  41   2.0000     -10.318435      -280.7789
  42   2.0000     -10.317102      -280.7426
  43   2.0000     -10.313992      -280.6580
  44   2.0000     -10.313487      -280.6443
  45   2.0000     -10.313278      -280.6386
  46   2.0000     -10.311923      -280.6017
  47   2.0000     -10.309550      -280.5371
  48   2.0000     -10.309106      -280.5250
  49   2.0000     -10.307510      -280.4816
  50   2.0000     -10.307299      -280.4759
  51   2.0000     -10.305782      -280.4346
  52   2.0000     -10.305095      -280.4159
  53   2.0000     -10.304256      -280.3930
  54   2.0000     -10.304097      -280.3887
  55   2.0000     -10.300410      -280.2884
  56   2.0000     -10.299999      -280.2772
  57   2.0000     -10.299677      -280.2685
  58   2.0000     -10.298652      -280.2406
  59   2.0000     -10.295512      -280.1551
  60   2.0000     -10.291527      -280.0467
  61   2.0000     -10.291332      -280.0414
  62   2.0000      -9.578955      -260.6566
  63   2.0000      -9.571677      -260.4586
  64   2.0000      -8.096941      -220.3290
  65   2.0000      -8.088733      -220.1056
  66   2.0000      -8.069066      -219.5704
  67   2.0000      -8.058631      -219.2865
  68   2.0000      -7.349606      -199.9929
  69   2.0000      -7.342331      -199.7950
  70   2.0000      -7.338993      -199.7042
  71   2.0000      -7.338421      -199.6886
  72   2.0000      -7.331704      -199.5058
  73   2.0000      -7.331166      -199.4912
  74   2.0000      -6.066289      -165.0721
  75   2.0000      -6.061688      -164.9469
  76   2.0000      -6.059252      -164.8806
  77   2.0000      -6.058126      -164.8500
  78   2.0000      -6.053512      -164.7244
  79   2.0000      -6.050947      -164.6546
  80   2.0000      -6.038312      -164.3108
  81   2.0000      -6.034275      -164.2010
  82   2.0000      -6.031287      -164.1197
  83   2.0000      -6.028400      -164.0411
  84   2.0000      -6.024118      -163.9246
  85   2.0000      -6.019763      -163.8061
  86   2.0000      -1.334168       -36.3045
  87   2.0000      -1.326598       -36.0986
  88   2.0000      -1.152509       -31.3614
  89   2.0000      -1.148150       -31.2428
  90   2.0000      -1.144150       -31.1339
  91   2.0000      -1.135291       -30.8928
  92   2.0000      -1.045754       -28.4564
  93   2.0000      -1.038013       -28.2458
  94   2.0000      -1.024396       -27.8752
  95   2.0000      -1.021887       -27.8070
  96   2.0000      -1.018710       -27.7205
  97   2.0000      -1.005449       -27.3597
  98   2.0000      -1.001050       -27.2400
  99   2.0000      -1.000098       -27.2140
 100   2.0000      -0.999548       -27.1991
 101   2.0000      -0.993982       -27.0476
 102   2.0000      -0.988225       -26.8910
 103   2.0000      -0.962630       -26.1945
 104   2.0000      -0.958973       -26.0950
 105   2.0000      -0.955168       -25.9915
 106   2.0000      -0.937128       -25.5005
 107   2.0000      -0.930464       -25.3192
 108   2.0000      -0.921480       -25.0747
 109   2.0000      -0.912165       -24.8213
 110   2.0000      -0.907605       -24.6972
 111   2.0000      -0.905918       -24.6513
 112   2.0000      -0.894268       -24.3343
 113   2.0000      -0.883868       -24.0513
 114   2.0000      -0.867220       -23.5982
 115   2.0000      -0.847101       -23.0508
 116   2.0000      -0.843623       -22.9562
 117   2.0000      -0.839916       -22.8553
 118   2.0000      -0.832820       -22.6622
 119   2.0000      -0.823793       -22.4166
 120   2.0000      -0.808364       -21.9967
 121   2.0000      -0.802361       -21.8334
 122   2.0000      -0.795381       -21.6434
 123   2.0000      -0.790080       -21.4992
 124   2.0000      -0.771436       -20.9918
 125   2.0000      -0.762301       -20.7433
 126   2.0000      -0.756281       -20.5795
 127   2.0000      -0.743904       -20.2427
 128   2.0000      -0.725267       -19.7355
 129   2.0000      -0.713348       -19.4112
 130   2.0000      -0.704726       -19.1766
 131   2.0000      -0.695444       -18.9240
 132   2.0000      -0.694721       -18.9043
 133   2.0000      -0.691079       -18.8052
 134   2.0000      -0.684445       -18.6247
 135   2.0000      -0.681313       -18.5395
 136   2.0000      -0.676928       -18.4202
 137   2.0000      -0.676811       -18.4170
 138   2.0000      -0.657465       -17.8905
 139   2.0000      -0.653124       -17.7724
 140   2.0000      -0.647356       -17.6155
 141   2.0000      -0.637829       -17.3562
 142   2.0000      -0.636190       -17.3116
 143   2.0000      -0.634134       -17.2557
 144   2.0000      -0.630897       -17.1676
 145   2.0000      -0.625346       -17.0165
 146   2.0000      -0.620290       -16.8790
 147   2.0000      -0.620101       -16.8738
 148   2.0000      -0.610782       -16.6202
 149   2.0000      -0.609300       -16.5799
 150   2.0000      -0.603383       -16.4189
 151   2.0000      -0.601345       -16.3634
 152   2.0000      -0.597659       -16.2631
 153   2.0000      -0.593450       -16.1486
 154   2.0000      -0.588333       -16.0094
 155   2.0000      -0.578549       -15.7431
 156   2.0000      -0.570313       -15.5190
 157   2.0000      -0.568020       -15.4566
 158   2.0000      -0.558679       -15.2024
 159   2.0000      -0.557578       -15.1725
 160   2.0000      -0.550907       -14.9909
 161   2.0000      -0.548109       -14.9148
 162   2.0000      -0.545734       -14.8502
 163   2.0000      -0.542412       -14.7598
 164   2.0000      -0.538063       -14.6414
 165   2.0000      -0.536665       -14.6034
 166   2.0000      -0.532639       -14.4938
 167   2.0000      -0.531071       -14.4512
 168   2.0000      -0.527721       -14.3600
 169   2.0000      -0.525748       -14.3063
 170   2.0000      -0.523021       -14.2321
 171   2.0000      -0.521417       -14.1885
 172   2.0000      -0.520128       -14.1534
 173   2.0000      -0.514856       -14.0100
 174   2.0000      -0.513206       -13.9650
 175   2.0000      -0.506542       -13.7837
 176   2.0000      -0.504882       -13.7385
 177   2.0000      -0.499240       -13.5850
 178   2.0000      -0.497057       -13.5256
 179   2.0000      -0.495897       -13.4941
 180   2.0000      -0.492462       -13.4006
 181   2.0000      -0.490382       -13.3440
 182   2.0000      -0.486765       -13.2455
 183   2.0000      -0.485221       -13.2035
 184   2.0000      -0.481369       -13.0987
 185   2.0000      -0.472680       -12.8623
 186   2.0000      -0.466749       -12.7009
 187   2.0000      -0.464380       -12.6364
 188   2.0000      -0.460332       -12.5263
 189   2.0000      -0.459186       -12.4951
 190   2.0000      -0.457991       -12.4626
 191   2.0000      -0.457211       -12.4413
 192   2.0000      -0.453898       -12.3512
 193   2.0000      -0.453107       -12.3297
 194   2.0000      -0.452309       -12.3080
 195   2.0000      -0.451277       -12.2799
 196   2.0000      -0.447397       -12.1743
 197   2.0000      -0.446666       -12.1544
 198   2.0000      -0.442252       -12.0343
 199   2.0000      -0.440068       -11.9749
 200   2.0000      -0.439179       -11.9507
 201   2.0000      -0.437784       -11.9127
 202   2.0000      -0.437009       -11.8916
 203   2.0000      -0.432269       -11.7626
 204   2.0000      -0.430387       -11.7114
 205   2.0000      -0.424379       -11.5479
 206   2.0000      -0.421233       -11.4623
 207   2.0000      -0.417626       -11.3642
 208   2.0000      -0.416020       -11.3205
 209   2.0000      -0.412863       -11.2346
 210   2.0000      -0.410227       -11.1628
 211   2.0000      -0.403218       -10.9721
 212   2.0000      -0.400352       -10.8941
 213   2.0000      -0.392834       -10.6896
 214   2.0000      -0.390053       -10.6139
 215   2.0000      -0.389420       -10.5967
 216   2.0000      -0.385862       -10.4998
 217   2.0000      -0.384075       -10.4512
 218   2.0000      -0.381366       -10.3775
 219   2.0000      -0.375524       -10.2185
 220   2.0000      -0.362215        -9.8564
 221   2.0000      -0.357270        -9.7218
 222   2.0000      -0.353873        -9.6294
 223   2.0000      -0.348271        -9.4769
 224   2.0000      -0.343465        -9.3462
 225   2.0000      -0.343276        -9.3410
 226   2.0000      -0.337989        -9.1972
 227   2.0000      -0.335025        -9.1165
 228   2.0000      -0.324514        -8.8305
 229   2.0000      -0.319167        -8.6850
 230   2.0000      -0.317619        -8.6429
 231   2.0000      -0.309319        -8.4170
 232   2.0000      -0.298695        -8.1279
 233   2.0000      -0.253542        -6.8992
 234   0.0000      -0.105751        -2.8776
 235   0.0000      -0.099836        -2.7167
 236   0.0000      -0.068074        -1.8524
 237   0.0000      -0.059503        -1.6191
 238   0.0000      -0.055416        -1.5079

MULLIKEN ATOMIC CHARGES
-----------------------
   0 C :    0.034123
   1 C :   -0.128198
   2 S :    0.192296
   3 C :   -0.169992
   4 Cl:    0.003855
   5 C :    0.072863
   6 C :    0.143420
   7 O :   -0.125932
   8 C :   -0.089259
   9 C :    0.279841
  10 C :   -0.318386
  11 C :   -0.194546
  12 N :    0.161410
  13 C :   -0.199136
  14 N :    0.173156
  15 C :   -0.030192
  16 C :    0.058919
  17 C :   -0.051129
  18 C :    0.131264
  19 N :    0.248151
  20 O :   -0.234964
  21 O :   -0.233510
  22 C :    0.075593
  23 C :   -0.041538
  24 C :    0.110622
  25 C :   -0.094118
  26 C :    0.101015
  27 C :   -0.139583
  28 S :    0.133144
  29 C :   -0.121705
  30 C :    0.124114
  31 C :   -0.046330
  32 S :    0.125987
  33 C :   -0.051061
  34 C :    0.002702
  35 C :    0.123263
  36 C :   -0.089071
  37 C :    0.158907
  38 N :    0.241967
  39 O :   -0.225804
  40 O :   -0.228960
  41 C :    0.064439
  42 C :   -0.016373
  43 C :    0.002268
  44 C :    0.014343
  45 C :    0.003480
  46 C :    0.026230
  47 C :   -0.122728
  48 C :    0.136218
  49 O :   -0.127908
  50 C :    0.088330
  51 C :   -0.173625
  52 S :    0.184530
  53 C :   -0.126905
  54 C :    0.014752
  55 C :    0.291478
  56 C :   -0.327450
  57 C :   -0.189799
  58 N :    0.150606
  59 C :   -0.216556
  60 N :    0.179108
  61 Cl:   -0.000548
  62 H :    0.056953
  63 H :    0.041254
  64 H :    0.010503
  65 H :   -0.006608
  66 H :   -0.004330
  67 H :    0.014933
  68 H :    0.005336
  69 H :    0.035729
  70 H :   -0.007836
  71 H :    0.014709
  72 H :   -0.009285
  73 H :   -0.010876
  74 H :    0.024754
  75 H :    0.021448
  76 H :    0.023743
  77 H :    0.052486
Sum of atomic charges:   -0.0000000

LOEWDIN ATOMIC CHARGES
----------------------
   0 C :   -0.060030
   1 C :   -0.147817
   2 S :    0.482057
   3 C :   -0.271473
   4 Cl:    0.194778
   5 C :   -0.118232
   6 C :    0.080803
   7 O :   -0.123517
   8 C :   -0.082792
   9 C :    0.073061
  10 C :   -0.129911
  11 C :   -0.015357
  12 N :   -0.045995
  13 C :   -0.026542
  14 N :   -0.037605
  15 C :    0.081272
  16 C :   -0.043670
  17 C :    0.026508
  18 C :   -0.036583
  19 N :    0.284523
  20 O :   -0.202212
  21 O :   -0.189488
  22 C :    0.015355
  23 C :   -0.011754
  24 C :    0.044078
  25 C :   -0.049595
  26 C :    0.004965
  27 C :   -0.190749
  28 S :    0.463726
  29 C :   -0.169081
  30 C :   -0.065907
  31 C :   -0.179339
  32 S :    0.404894
  33 C :   -0.142413
  34 C :   -0.068023
  35 C :   -0.023277
  36 C :   -0.001112
  37 C :   -0.013058
  38 N :    0.284485
  39 O :   -0.193644
  40 O :   -0.188818
  41 C :   -0.016397
  42 C :    0.011352
  43 C :    0.005408
  44 C :    0.040595
  45 C :   -0.028582
  46 C :    0.076179
  47 C :   -0.090689
  48 C :    0.079322
  49 O :   -0.132991
  50 C :   -0.117884
  51 C :   -0.272739
  52 S :    0.473279
  53 C :   -0.152145
  54 C :   -0.057952
  55 C :    0.070757
  56 C :   -0.137300
  57 C :   -0.015250
  58 N :   -0.051713
  59 C :   -0.028080
  60 N :   -0.043937
  61 Cl:    0.191690
  62 H :    0.038841
  63 H :    0.049624
  64 H :    0.043108
  65 H :    0.037422
  66 H :    0.036585
  67 H :    0.027941
  68 H :    0.033876
  69 H :    0.028702
  70 H :    0.030631
  71 H :    0.033934
  72 H :    0.036483
  73 H :    0.035550
  74 H :    0.036349
  75 H :    0.030252
  76 H :    0.048396
  77 H :    0.036868

  Mayer bond orders larger than 0.100000
B(  0-C ,  1-C ) :   1.5379 B(  0-C ,  5-C ) :   1.2198 B(  0-C ,  9-C ) :   1.0090
B(  1-C ,  2-S ) :   1.1650 B(  1-C , 62-H ) :   0.9552 B(  2-S ,  3-C ) :   1.1551
B(  3-C ,  4-Cl) :   1.1312 B(  3-C ,  5-C ) :   1.4725 B(  5-C ,  6-C ) :   0.9554
B(  6-C ,  7-O ) :   2.2419 B(  6-C ,  8-C ) :   0.9204 B(  8-C ,  9-C ) :   1.0423
B(  8-C , 15-C ) :   1.7014 B(  9-C , 10-C ) :   1.6764 B( 10-C , 11-C ) :   1.1428
B( 10-C , 13-C ) :   1.1345 B( 11-C , 12-N ) :   2.9949 B( 13-C , 14-N ) :   2.9919
B( 15-C , 16-C ) :   1.0457 B( 15-C , 63-H ) :   0.9517 B( 16-C , 17-C ) :   1.3046
B( 16-C , 24-C ) :   1.3154 B( 17-C , 18-C ) :   1.3551 B( 17-C , 64-H ) :   0.9950
B( 18-C , 19-N ) :   0.8852 B( 18-C , 22-C ) :   1.3665 B( 19-N , 20-O ) :   1.5591
B( 19-N , 21-O ) :   1.5334 B( 20-O , 21-O ) :   0.2627 B( 22-C , 23-C ) :   1.3298
B( 22-C , 25-C ) :   1.0429 B( 23-C , 24-C ) :   1.4312 B( 23-C , 65-H ) :   0.9933
B( 24-C , 66-H ) :   0.9844 B( 25-C , 26-C ) :   1.7371 B( 25-C , 67-H ) :   0.9543
B( 26-C , 27-C ) :   1.1742 B( 26-C , 68-H ) :   0.9575 B( 27-C , 28-S ) :   1.1158
B( 27-C , 29-C ) :   0.1094 B( 27-C , 31-C ) :   1.4973 B( 28-S , 29-C ) :   1.1354
B( 29-C , 30-C ) :   1.4303 B( 29-C , 35-C ) :   1.0795 B( 30-C , 31-C ) :   1.2338
B( 30-C , 34-C ) :   1.1376 B( 31-C , 32-S ) :   1.0553 B( 32-S , 33-C ) :   1.1053
B( 33-C , 34-C ) :   1.6686 B( 33-C , 69-H ) :   0.9648 B( 34-C , 70-H ) :   0.9934
B( 35-C , 36-C ) :   1.2715 B( 35-C , 43-C ) :   1.3250 B( 36-C , 37-C ) :   1.4019
B( 36-C , 71-H ) :   0.9838 B( 37-C , 38-N ) :   0.8740 B( 37-C , 41-C ) :   1.3434
B( 38-N , 39-O ) :   1.5597 B( 38-N , 40-O ) :   1.5201 B( 39-O , 40-O ) :   0.2673
B( 41-C , 42-C ) :   1.3301 B( 41-C , 44-C ) :   1.0569 B( 42-C , 43-C ) :   1.4167
B( 42-C , 72-H ) :   0.9862 B( 43-C , 73-H ) :   0.9914 B( 44-C , 45-C ) :   1.6814
B( 44-C , 74-H ) :   0.9636 B( 45-C , 46-C ) :   1.1225 B( 45-C , 75-H ) :   0.9580
B( 46-C , 47-C ) :   1.6353 B( 46-C , 76-H ) :   0.9519 B( 47-C , 48-C ) :   0.9356
B( 47-C , 55-C ) :   1.0371 B( 48-C , 49-O ) :   2.2743 B( 48-C , 50-C ) :   0.9287
B( 50-C , 51-C ) :   1.4849 B( 50-C , 54-C ) :   1.2213 B( 51-C , 52-S ) :   1.1501
B( 51-C , 61-Cl) :   1.1288 B( 52-S , 53-C ) :   1.1603 B( 53-C , 54-C ) :   1.5512
B( 53-C , 77-H ) :   0.9533 B( 54-C , 55-C ) :   1.0091 B( 55-C , 56-C ) :   1.6494
B( 56-C , 57-C ) :   1.1342 B( 56-C , 59-C ) :   1.1539 B( 57-C , 58-N ) :   2.9945
B( 59-C , 60-N ) :   3.0133

-----------------------------------------------------------------------------
         ABSORPTION SPECTRUM VIA TRANSITION ELECTRIC DIPOLE MOMENTS
-----------------------------------------------------------------------------
State   Energy  Wavelength   fosc         T2         TX        TY        TZ
        (cm-1)    (nm)                  (au**2)     (au)      (au)      (au)
-----------------------------------------------------------------------------
   0   18328.8    545.6   1.465269632  26.31845  -0.82317  -4.97658  -0.93516
   1   21207.8    471.5   0.191527918   2.97311   1.40030  -1.00609  -0.00579
   2   25138.0    397.8   0.037986772   0.49748   0.22075   0.60938   0.27823
   3   26523.8    377.0   0.117056492   1.45290   1.04359   0.28024  -0.53411
   4   26893.6    371.8   0.039236665   0.48031  -0.35135   0.47767   0.35874
   5   27071.1    369.4   0.149147759   1.81379   0.49097   1.16808  -0.45644
   6   28705.7    348.4   0.075391763   0.86463  -0.33660  -0.07152   0.86384
   7   29184.1    342.7   0.132316857   1.49260   0.13250   1.02925   0.64474
   8   29500.4    339.0   0.192590881   2.14923  -0.30574  -1.41518  -0.23026
   9   29913.1    334.3   0.031003910   0.34122   0.05106   0.39718  -0.42527
  10   30514.7    327.7   0.171062143   1.84553  -0.31517  -1.31988  -0.06404
  11   31817.4    314.3   0.247109856   2.55683  -0.84192   1.35846   0.05082
  12   32503.4    307.7   0.006512826   0.06597  -0.12439  -0.04991  -0.21909
  13   33031.6    302.7   0.013146866   0.13103  -0.13713  -0.12588  -0.31045
  14   33588.8    297.7   0.199503181   1.95538  -0.27866  -1.25104  -0.55913
  15   33949.3    294.6   0.018173313   0.17623   0.29197  -0.21856  -0.20787
  16   34227.7    292.2   0.047050618   0.45255  -0.25227  -0.55175   0.29066
  17   34652.5    288.6   0.244111165   2.31915  -0.14880   1.30321   0.77372
  18   34917.2    286.4   0.075988905   0.71645  -0.61887   0.37308   0.44076
  19   35313.6    283.2   0.007674521   0.07155   0.17626  -0.01624  -0.20054
  20   35733.5    279.8   0.118414633   1.09095   0.46622  -0.86671  -0.34985
  21   36066.3    277.3   0.034837334   0.31799   0.38891  -0.40615   0.04223
  22   36292.7    275.5   0.069208876   0.62780   0.11305  -0.65023  -0.43842
  23   36769.9    272.0   0.019621408   0.17568  -0.15492  -0.05361   0.38575
  24   36943.9    270.7   0.147982147   1.31869  -0.63145   0.74524  -0.60380
  25   37270.6    268.3   0.064545027   0.57013  -0.11300   0.05186  -0.74476
  26   37859.9    264.1   0.263453636   2.29087  -0.03475   0.75376   1.31206
  27   37939.1    263.6   0.707787148   6.14174   1.82535   1.05846  -1.29981
  28   38584.1    259.2   0.293128360   2.50106   0.26922  -1.43821  -0.60011
  29   38810.2    257.7   0.127466034   1.08125  -0.50948   0.74887   0.51075
  30   39014.9    256.3   0.039461978   0.33298   0.11973  -0.43502   0.35973
  31   39468.0    253.4   0.132895785   1.10852  -0.55813  -0.58158   0.67733
  32   39720.9    251.8   0.038964395   0.32294  -0.52905   0.13471  -0.15780
  33   40111.9    249.3   0.121103288   0.99394   0.64985  -0.73069   0.19421
  34   40284.2    248.2   0.069736398   0.56990   0.02831   0.32843   0.67914

FINAL SINGLE POINT ENERGY     -4975.156636912285

DIPOLE MOMENT
-------------
                                X             Y             Z
Electronic contribution:    -20.85388      -6.44605       2.55996
Nuclear contribution   :     20.52269       4.97828      -0.01314
                        -----------------------------------------
Total Dipole Moment    :     -0.33119      -1.46776       2.54682
                        -----------------------------------------
Magnitude (a.u.)       :      2.95810
Magnitude (Debye)      :      7.51888

Rotational constants in cm-1:     0.002205     0.000234     0.000226
Rotational constants in MHz :    66.090017     7.004036     6.779216

                             ****ORCA TERMINATED NORMALLY****
TOTAL RUN TIME: 0 days 0 hours 6 minutes 33 seconds 121 msec
