                         Program Version 4.2.0 -  RELEASE  -
|  1> # ORCA input file
|  2> # SCF done       -176.480388988625          0.000753101448
|  3> ! CAM-B3LYP def2-SVP def2/J RIJCOSX Grid4 TightSCF
|  4> %maxcore 5000
|  5> %tddft
|  6>     Mode sTDDFT
|  7>     Ethresh 5.0
|  8>     maxcore 5000
|  9> end
| 10>
| 11> %pal
| 12>   nprocs 6
| 13>   end
| 14> * xyz 0 1
| 15>    C        2.24865         1.39788        -3.11215
| 16>    C        1.60604         2.10856        -4.07842
| 17>    S        0.50357         3.24261        -3.38857
| 18>    C        0.92257         2.76035        -1.76087
| 19>   Cl        0.19469         3.47282        -0.41141
| 20>    C        1.85714         1.76934        -1.78484
| 21>    C        2.59812         0.97474        -0.80322
| 22>    O        2.66456         1.14018         0.39074
| 23>    C        3.40431         0.01346        -1.63044
| 24>    C        3.23399         0.33836        -3.03658
| 25>    C        3.83000        -0.25425        -4.11922
| 26>    C        3.53548         0.15633        -5.43650
| 27>    N        3.31406         0.48016        -6.51464
| 28>    C        4.77821        -1.29402        -4.06486
| 29>    N        5.55592        -2.13889        -4.08214
| 30>    C        4.23721        -0.92836        -1.11083
| 31>    C        4.17426        -1.38273         0.23225
| 32>    O        5.27775        -1.92465         0.81364
| 33>    C        3.12090        -1.48950         1.12181
| 34>    C        1.66356        -1.31648         1.26229
| 35>    O        0.83318        -0.94956         0.47438
| 36>    N        1.41246        -1.75850         2.55276
| 37>    C        2.51977        -2.25180         3.25018
| 38>    O        2.48596        -2.69918         4.36196
| 39>    C        3.62449        -2.09031         2.29287
| 40>    C        4.97320        -2.33939         2.07410
| 41>    C        5.96527        -2.90209         2.91171
| 42>    C        7.23278        -3.13900         2.47562
| 43>    C        8.25160        -3.67130         3.29898
| 44>    N        9.52633        -3.95409         2.85897
| 45>    C       10.04908        -3.73762         1.53175
| 46>    C       10.41743        -2.27462         1.29619
| 47>    C       10.34416        -4.45396         3.89051
| 48>    O       11.50520        -4.77370         3.73926
| 49>    C        9.47380        -4.47661         5.04380
| 50>    C        8.20395        -3.99980         4.65394
| 51>    C        7.35740        -4.01535         5.82664
| 52>    O        6.19849        -3.70201         5.99504
| 53>    N        8.18875        -4.49530         6.86302
| 54>    C        7.62903        -4.69620         8.17805
| 55>    C        7.36712        -6.17180         8.46882
| 56>    C        9.45671        -4.77604         6.40760
| 57>    C       10.60662        -5.23856         7.09193
| 58>    C       10.79102        -5.48756         8.41471
| 59>    C       12.02097        -5.91649         8.97549
| 60>    C       13.22625        -6.19899         8.35755
| 61>    C       14.20025        -6.58043         9.27677
| 62>    C       13.76153        -6.59381        10.61143
| 63>    S       12.10604        -6.13312        10.72032
| 64>    C       14.74116        -6.96318        11.53158
| 65>    C       15.93576        -7.23775        10.89790
| 66>    S       15.86063        -7.04374         9.15891
| 67>    C       17.14070        -7.63309        11.53292
| 68>    O       18.25254        -7.90227        10.80332
| 69>    C       17.43725        -7.80840        12.86834
| 70>    C       16.89954        -7.74504        14.22640
| 71>    O       15.80011        -7.46005        14.62971
| 72>    N       17.98161        -8.10475        15.02459
| 73>    C       19.16232        -8.39691        14.34049
| 74>    O       20.19737        -8.72406        14.85667
| 75>    C       18.80042        -8.20238        12.93189
| 76>    C       19.26832        -8.25024        11.63912
| 77>    C       20.56443        -8.59043        11.12444
| 78>    C       20.86788        -8.59413         9.82779
| 79>    H        1.70056         2.04900        -5.14457
| 80>    H        4.99446        -1.39527        -1.72703
| 81>    H        0.48576        -1.75167         2.95523
| 82>    H        5.66391        -3.13075         3.92484
| 83>    H        7.47854        -2.91129         1.44789
| 84>    H        9.32268        -4.08163         0.79048
| 85>    H       10.94812        -4.35616         1.45798
| 86>    H        9.54839        -1.62915         1.40302
| 87>    H       10.82203        -2.15440         0.29509
| 88>    H       11.17057        -1.96238         2.01555
| 89>    H        6.67817        -4.15415         8.17697
| 90>    H        8.28051        -4.24608         8.93136
| 91>    H        6.64078        -6.56248         7.76053
| 92>    H        6.96614        -6.28278         9.47248
| 93>    H        8.27862        -6.75958         8.38694
| 94>    H       11.44447        -5.37636         6.42122
| 95>    H        9.99311        -5.35454         9.12805
| 96>    H       13.38760        -6.13131         7.29817
| 97>    H       14.61076        -7.03000        12.59664
| 98>    H       17.91755        -8.15092        16.03178
| 99>    H       21.28736        -8.84991        11.88431
|100>    H       20.13596        -8.33586         9.08102
|101>    H       21.85101        -8.85846         9.48189
|102> *
|103>
|104>                          ****END OF INPUT****

CARTESIAN COORDINATES (ANGSTROEM)
---------------------------------
  C      2.248650    1.397880   -3.112150
  C      1.606040    2.108560   -4.078420
  S      0.503570    3.242610   -3.388570
  C      0.922570    2.760350   -1.760870
  Cl     0.194690    3.472820   -0.411410
  C      1.857140    1.769340   -1.784840
  C      2.598120    0.974740   -0.803220
  O      2.664560    1.140180    0.390740
  C      3.404310    0.013460   -1.630440
  C      3.233990    0.338360   -3.036580
  C      3.830000   -0.254250   -4.119220
  C      3.535480    0.156330   -5.436500
  N      3.314060    0.480160   -6.514640
  C      4.778210   -1.294020   -4.064860
  N      5.555920   -2.138890   -4.082140
  C      4.237210   -0.928360   -1.110830
  C      4.174260   -1.382730    0.232250
  O      5.277750   -1.924650    0.813640
  C      3.120900   -1.489500    1.121810
  C      1.663560   -1.316480    1.262290
  O      0.833180   -0.949560    0.474380
  N      1.412460   -1.758500    2.552760
  C      2.519770   -2.251800    3.250180
  O      2.485960   -2.699180    4.361960
  C      3.624490   -2.090310    2.292870
  C      4.973200   -2.339390    2.074100
  C      5.965270   -2.902090    2.911710
  C      7.232780   -3.139000    2.475620
  C      8.251600   -3.671300    3.298980
  N      9.526330   -3.954090    2.858970
  C     10.049080   -3.737620    1.531750
  C     10.417430   -2.274620    1.296190
  C     10.344160   -4.453960    3.890510
  O     11.505200   -4.773700    3.739260
  C      9.473800   -4.476610    5.043800
  C      8.203950   -3.999800    4.653940
  C      7.357400   -4.015350    5.826640
  O      6.198490   -3.702010    5.995040
  N      8.188750   -4.495300    6.863020
  C      7.629030   -4.696200    8.178050
  C      7.367120   -6.171800    8.468820
  C      9.456710   -4.776040    6.407600
  C     10.606620   -5.238560    7.091930
  C     10.791020   -5.487560    8.414710
  C     12.020970   -5.916490    8.975490
  C     13.226250   -6.198990    8.357550
  C     14.200250   -6.580430    9.276770
  C     13.761530   -6.593810   10.611430
  S     12.106040   -6.133120   10.720320
  C     14.741160   -6.963180   11.531580
  C     15.935760   -7.237750   10.897900
  S     15.860630   -7.043740    9.158910
  C     17.140700   -7.633090   11.532920
  O     18.252540   -7.902270   10.803320
  C     17.437250   -7.808400   12.868340
  C     16.899540   -7.745040   14.226400
  O     15.800110   -7.460050   14.629710
  N     17.981610   -8.104750   15.024590
  C     19.162320   -8.396910   14.340490
  O     20.197370   -8.724060   14.856670
  C     18.800420   -8.202380   12.931890
  C     19.268320   -8.250240   11.639120
  C     20.564430   -8.590430   11.124440
  C     20.867880   -8.594130    9.827790
  H      1.700560    2.049000   -5.144570
  H      4.994460   -1.395270   -1.727030
  H      0.485760   -1.751670    2.955230
  H      5.663910   -3.130750    3.924840
  H      7.478540   -2.911290    1.447890
  H      9.322680   -4.081630    0.790480
  H     10.948120   -4.356160    1.457980
  H      9.548390   -1.629150    1.403020
  H     10.822030   -2.154400    0.295090
  H     11.170570   -1.962380    2.015550
  H      6.678170   -4.154150    8.176970
  H      8.280510   -4.246080    8.931360
  H      6.640780   -6.562480    7.760530
  H      6.966140   -6.282780    9.472480
  H      8.278620   -6.759580    8.386940
  H     11.444470   -5.376360    6.421220
  H      9.993110   -5.354540    9.128050
  H     13.387600   -6.131310    7.298170
  H     14.610760   -7.030000   12.596640
  H     17.917550   -8.150920   16.031780
  H     21.287360   -8.849910   11.884310
  H     20.135960   -8.335860    9.081020
  H     21.851010   -8.858460    9.481890

 Total Charge           Charge          ....    0
 Multiplicity           Mult            ....    1
 Number of Electrons    NEL             ....  472
 Basis Dimension        Dim             .... 1027

ORBITAL ENERGIES
----------------

  NO   OCC          E(Eh)            E(eV)
   0   2.0000    -101.615986     -2765.1116
   1   2.0000     -88.993742     -2421.6428
   2   2.0000     -88.971753     -2421.0445
   3   2.0000     -88.969034     -2420.9705
   4   2.0000     -19.322028      -525.7791
   5   2.0000     -19.317259      -525.6493
   6   2.0000     -19.220475      -523.0157
   7   2.0000     -19.216730      -522.9138
   8   2.0000     -19.214774      -522.8606
   9   2.0000     -19.214431      -522.8512
  10   2.0000     -19.211510      -522.7718
  11   2.0000     -19.198621      -522.4210
  12   2.0000     -19.189100      -522.1620
  13   2.0000     -14.458147      -393.4262
  14   2.0000     -14.458051      -393.4236
  15   2.0000     -14.456499      -393.3813
  16   2.0000     -14.454769      -393.3343
  17   2.0000     -14.424949      -392.5228
  18   2.0000     -14.422041      -392.4437
  19   2.0000     -10.405131      -283.1380
  20   2.0000     -10.404173      -283.1120
  21   2.0000     -10.403027      -283.0808
  22   2.0000     -10.401322      -283.0344
  23   2.0000     -10.379715      -282.4464
  24   2.0000     -10.378965      -282.4260
  25   2.0000     -10.375332      -282.3271
  26   2.0000     -10.373875      -282.2875
  27   2.0000     -10.373858      -282.2870
  28   2.0000     -10.371522      -282.2235
  29   2.0000     -10.370281      -282.1897
  30   2.0000     -10.362304      -281.9726
  31   2.0000     -10.351942      -281.6907
  32   2.0000     -10.350935      -281.6633
  33   2.0000     -10.344071      -281.4765
  34   2.0000     -10.342539      -281.4348
  35   2.0000     -10.330655      -281.1114
  36   2.0000     -10.329959      -281.0925
  37   2.0000     -10.326995      -281.0118
  38   2.0000     -10.324465      -280.9430
  39   2.0000     -10.324020      -280.9309
  40   2.0000     -10.319632      -280.8115
  41   2.0000     -10.315725      -280.7052
  42   2.0000     -10.313815      -280.6532
  43   2.0000     -10.313370      -280.6411
  44   2.0000     -10.312640      -280.6212
  45   2.0000     -10.310427      -280.5610
  46   2.0000     -10.309961      -280.5483
  47   2.0000     -10.308109      -280.4979
  48   2.0000     -10.307159      -280.4721
  49   2.0000     -10.305959      -280.4394
  50   2.0000     -10.302678      -280.3501
  51   2.0000     -10.301673      -280.3228
  52   2.0000     -10.299060      -280.2517
  53   2.0000     -10.296677      -280.1868
  54   2.0000     -10.295852      -280.1644
  55   2.0000     -10.295577      -280.1569
  56   2.0000     -10.294427      -280.1256
  57   2.0000     -10.291821      -280.0547
  58   2.0000     -10.291074      -280.0344
  59   2.0000     -10.284741      -279.8620
  60   2.0000     -10.267755      -279.3998
  61   2.0000     -10.266085      -279.3544
  62   2.0000     -10.265418      -279.3362
  63   2.0000     -10.263933      -279.2958
  64   2.0000      -9.570827      -260.4354
  65   2.0000      -8.089385      -220.1234
  66   2.0000      -8.066813      -219.5091
  67   2.0000      -8.064517      -219.4467
  68   2.0000      -7.341462      -199.7713
  69   2.0000      -7.330862      -199.4829
  70   2.0000      -7.330305      -199.4677
  71   2.0000      -6.058753      -164.8671
  72   2.0000      -6.054153      -164.7419
  73   2.0000      -6.051683      -164.6747
  74   2.0000      -6.036326      -164.2568
  75   2.0000      -6.033931      -164.1916
  76   2.0000      -6.032375      -164.1493
  77   2.0000      -6.030061      -164.0863
  78   2.0000      -6.028313      -164.0387
  79   2.0000      -6.026115      -163.9789
  80   2.0000      -1.237725       -33.6802
  81   2.0000      -1.233680       -33.5701
  82   2.0000      -1.161128       -31.5959
  83   2.0000      -1.157552       -31.4986
  84   2.0000      -1.142708       -31.0947
  85   2.0000      -1.138350       -30.9761
  86   2.0000      -1.137169       -30.9439
  87   2.0000      -1.136287       -30.9200
  88   2.0000      -1.128294       -30.7024
  89   2.0000      -1.066420       -29.0188
  90   2.0000      -1.057399       -28.7733
  91   2.0000      -1.047850       -28.5135
  92   2.0000      -1.044511       -28.4226
  93   2.0000      -1.038629       -28.2625
  94   2.0000      -1.020135       -27.7593
  95   2.0000      -1.019936       -27.7539
  96   2.0000      -1.001855       -27.2618
  97   2.0000      -0.990062       -26.9410
  98   2.0000      -0.965979       -26.2856
  99   2.0000      -0.957897       -26.0657
 100   2.0000      -0.940679       -25.5972
 101   2.0000      -0.933393       -25.3989
 102   2.0000      -0.931129       -25.3373
 103   2.0000      -0.926057       -25.1993
 104   2.0000      -0.920284       -25.0422
 105   2.0000      -0.912204       -24.8223
 106   2.0000      -0.904628       -24.6162
 107   2.0000      -0.899227       -24.4692
 108   2.0000      -0.876893       -23.8615
 109   2.0000      -0.872502       -23.7420
 110   2.0000      -0.856945       -23.3186
 111   2.0000      -0.854747       -23.2588
 112   2.0000      -0.833195       -22.6724
 113   2.0000      -0.826416       -22.4879
 114   2.0000      -0.823245       -22.4016
 115   2.0000      -0.813040       -22.1239
 116   2.0000      -0.809121       -22.0173
 117   2.0000      -0.787365       -21.4253
 118   2.0000      -0.781263       -21.2593
 119   2.0000      -0.771418       -20.9913
 120   2.0000      -0.768232       -20.9046
 121   2.0000      -0.763908       -20.7870
 122   2.0000      -0.763445       -20.7744
 123   2.0000      -0.759473       -20.6663
 124   2.0000      -0.754046       -20.5186
 125   2.0000      -0.729922       -19.8622
 126   2.0000      -0.718177       -19.5426
 127   2.0000      -0.712829       -19.3971
 128   2.0000      -0.705198       -19.1894
 129   2.0000      -0.701935       -19.1006
 130   2.0000      -0.697434       -18.9781
 131   2.0000      -0.695158       -18.9162
 132   2.0000      -0.681482       -18.5441
 133   2.0000      -0.677447       -18.4343
 134   2.0000      -0.669937       -18.2299
 135   2.0000      -0.661914       -18.0116
 136   2.0000      -0.654792       -17.8178
 137   2.0000      -0.652435       -17.7537
 138   2.0000      -0.633825       -17.2472
 139   2.0000      -0.628757       -17.1094
 140   2.0000      -0.617279       -16.7970
 141   2.0000      -0.610908       -16.6237
 142   2.0000      -0.603712       -16.4278
 143   2.0000      -0.601487       -16.3673
 144   2.0000      -0.600450       -16.3391
 145   2.0000      -0.599161       -16.3040
 146   2.0000      -0.595566       -16.2062
 147   2.0000      -0.592607       -16.1256
 148   2.0000      -0.589671       -16.0458
 149   2.0000      -0.589170       -16.0321
 150   2.0000      -0.587267       -15.9804
 151   2.0000      -0.582219       -15.8430
 152   2.0000      -0.581022       -15.8104
 153   2.0000      -0.573831       -15.6147
 154   2.0000      -0.568363       -15.4659
 155   2.0000      -0.564578       -15.3630
 156   2.0000      -0.562204       -15.2984
 157   2.0000      -0.558889       -15.2081
 158   2.0000      -0.555851       -15.1255
 159   2.0000      -0.550557       -14.9814
 160   2.0000      -0.547779       -14.9058
 161   2.0000      -0.546896       -14.8818
 162   2.0000      -0.540408       -14.7052
 163   2.0000      -0.535831       -14.5807
 164   2.0000      -0.533680       -14.5222
 165   2.0000      -0.533300       -14.5118
 166   2.0000      -0.531433       -14.4610
 167   2.0000      -0.528308       -14.3760
 168   2.0000      -0.527215       -14.3462
 169   2.0000      -0.521019       -14.1776
 170   2.0000      -0.519772       -14.1437
 171   2.0000      -0.518746       -14.1158
 172   2.0000      -0.516665       -14.0592
 173   2.0000      -0.515004       -14.0140
 174   2.0000      -0.514135       -13.9903
 175   2.0000      -0.511773       -13.9261
 176   2.0000      -0.509743       -13.8708
 177   2.0000      -0.506435       -13.7808
 178   2.0000      -0.504353       -13.7242
 179   2.0000      -0.500543       -13.6205
 180   2.0000      -0.497063       -13.5258
 181   2.0000      -0.495331       -13.4786
 182   2.0000      -0.492110       -13.3910
 183   2.0000      -0.485068       -13.1994
 184   2.0000      -0.483083       -13.1454
 185   2.0000      -0.479674       -13.0526
 186   2.0000      -0.476274       -12.9601
 187   2.0000      -0.475674       -12.9437
 188   2.0000      -0.474334       -12.9073
 189   2.0000      -0.471169       -12.8212
 190   2.0000      -0.469142       -12.7660
 191   2.0000      -0.462610       -12.5883
 192   2.0000      -0.459257       -12.4970
 193   2.0000      -0.458068       -12.4647
 194   2.0000      -0.456791       -12.4299
 195   2.0000      -0.456371       -12.4185
 196   2.0000      -0.456087       -12.4107
 197   2.0000      -0.455242       -12.3878
 198   2.0000      -0.450899       -12.2696
 199   2.0000      -0.449715       -12.2374
 200   2.0000      -0.444556       -12.0970
 201   2.0000      -0.443918       -12.0796
 202   2.0000      -0.443392       -12.0653
 203   2.0000      -0.436553       -11.8792
 204   2.0000      -0.434846       -11.8328
 205   2.0000      -0.434549       -11.8247
 206   2.0000      -0.428319       -11.6551
 207   2.0000      -0.423565       -11.5258
 208   2.0000      -0.420969       -11.4551
 209   2.0000      -0.420741       -11.4490
 210   2.0000      -0.417377       -11.3574
 211   2.0000      -0.403766       -10.9870
 212   2.0000      -0.402463       -10.9516
 213   2.0000      -0.394995       -10.7484
 214   2.0000      -0.389115       -10.5884
 215   2.0000      -0.383637       -10.4393
 216   2.0000      -0.378112       -10.2889
 217   2.0000      -0.375407       -10.2153
 218   2.0000      -0.371434       -10.1072
 219   2.0000      -0.366953        -9.9853
 220   2.0000      -0.365868        -9.9558
 221   2.0000      -0.358935        -9.7671
 222   2.0000      -0.356602        -9.7036
 223   2.0000      -0.352258        -9.5854
 224   2.0000      -0.349038        -9.4978
 225   2.0000      -0.348169        -9.4741
 226   2.0000      -0.342660        -9.3243
 227   2.0000      -0.335162        -9.1202
 228   2.0000      -0.334219        -9.0946
 229   2.0000      -0.320036        -8.7086
 230   2.0000      -0.315918        -8.5966
 231   2.0000      -0.315049        -8.5729
 232   2.0000      -0.306077        -8.3288
 233   2.0000      -0.294409        -8.0113
 234   2.0000      -0.268191        -7.2979
 235   2.0000      -0.233534        -6.3548
 236   0.0000      -0.114465        -3.1147
 237   0.0000      -0.091152        -2.4804
 238   0.0000      -0.058057        -1.5798
 239   0.0000      -0.054093        -1.4720
 240   0.0000      -0.039581        -1.0770

MULLIKEN ATOMIC CHARGES
-----------------------
   0 C :    0.035412
   1 C :   -0.130831
   2 S :    0.186358
   3 C :   -0.167090
   4 Cl:    0.002334
   5 C :    0.083191
   6 C :    0.160971
   7 O :   -0.133581
   8 C :   -0.088581
   9 C :    0.289523
  10 C :   -0.331893
  11 C :   -0.195745
  12 N :    0.160563
  13 C :   -0.185582
  14 N :    0.161016
  15 C :   -0.039968
  16 C :    0.123355
  17 O :   -0.202426
  18 C :   -0.022900
  19 C :    0.188911
  20 O :   -0.144543
  21 N :   -0.162832
  22 C :    0.169540
  23 O :   -0.116868
  24 C :   -0.032709
  25 C :    0.093244
  26 C :   -0.021087
  27 C :   -0.020382
  28 C :    0.145365
  29 N :   -0.263426
  30 C :    0.096563
  31 C :    0.004226
  32 C :    0.145871
  33 O :   -0.200065
  34 C :   -0.046471
  35 C :   -0.048372
  36 C :    0.157305
  37 O :   -0.189671
  38 N :   -0.269159
  39 C :    0.097081
  40 C :   -0.000323
  41 C :    0.125609
  42 C :   -0.047904
  43 C :    0.080276
  44 C :   -0.103453
  45 C :   -0.019008
  46 C :   -0.014222
  47 C :   -0.012100
  48 S :    0.149274
  49 C :   -0.048814
  50 C :   -0.124850
  51 S :    0.175194
  52 C :    0.167635
  53 O :   -0.208694
  54 C :   -0.100056
  55 C :    0.183294
  56 O :   -0.154693
  57 N :   -0.165785
  58 C :    0.165676
  59 O :   -0.138299
  60 C :   -0.029117
  61 C :    0.059108
  62 C :   -0.022026
  63 C :    0.018799
  64 H :    0.055283
  65 H :    0.033503
  66 H :    0.141516
  67 H :    0.038078
  68 H :   -0.005890
  69 H :    0.025850
  70 H :    0.043851
  71 H :    0.014482
  72 H :    0.025860
  73 H :    0.030300
  74 H :    0.048862
  75 H :    0.026229
  76 H :    0.030029
  77 H :    0.023276
  78 H :    0.022049
  79 H :    0.006573
  80 H :   -0.020015
  81 H :    0.006319
  82 H :    0.008053
  83 H :    0.138966
  84 H :    0.017440
  85 H :    0.033930
  86 H :    0.033286
Sum of atomic charges:   -0.0000000

LOEWDIN ATOMIC CHARGES
----------------------
   0 C :   -0.058082
   1 C :   -0.149213
   2 S :    0.477977
   3 C :   -0.270398
   4 Cl:    0.195787
   5 C :   -0.110888
   6 C :    0.086112
   7 O :   -0.125180
   8 C :   -0.064257
   9 C :    0.073458
  10 C :   -0.133531
  11 C :   -0.015706
  12 N :   -0.048755
  13 C :   -0.021446
  14 N :   -0.046435
  15 C :    0.044468
  16 C :    0.048952
  17 O :    0.019918
  18 C :   -0.052038
  19 C :    0.088372
  20 O :   -0.149484
  21 N :   -0.000252
  22 C :    0.087350
  23 O :   -0.137449
  24 C :   -0.086406
  25 C :    0.078728
  26 C :   -0.001485
  27 C :   -0.015575
  28 C :    0.066366
  29 N :   -0.003263
  30 C :    0.036215
  31 C :   -0.060969
  32 C :    0.075488
  33 O :   -0.204352
  34 C :   -0.115511
  35 C :   -0.111423
  36 C :    0.084067
  37 O :   -0.180835
  38 N :   -0.004724
  39 C :    0.034722
  40 C :   -0.062853
  41 C :    0.076873
  42 C :   -0.032894
  43 C :   -0.017371
  44 C :   -0.160890
  45 C :   -0.050887
  46 C :   -0.192124
  47 C :   -0.197388
  48 S :    0.431121
  49 C :   -0.038752
  50 C :   -0.183627
  51 S :    0.437491
  52 C :    0.055971
  53 O :    0.014397
  54 C :   -0.105747
  55 C :    0.087814
  56 O :   -0.165012
  57 N :   -0.004212
  58 C :    0.085942
  59 O :   -0.156324
  60 C :   -0.096446
  61 C :    0.068664
  62 C :   -0.039259
  63 C :   -0.009821
  64 H :    0.037923
  65 H :    0.052090
  66 H :    0.097049
  67 H :    0.051078
  68 H :    0.033895
  69 H :    0.024038
  70 H :    0.038329
  71 H :    0.021490
  72 H :    0.031814
  73 H :    0.032496
  74 H :    0.039412
  75 H :    0.020531
  76 H :    0.033409
  77 H :    0.031459
  78 H :    0.022085
  79 H :    0.045307
  80 H :    0.028543
  81 H :    0.039825
  82 H :    0.040102
  83 H :    0.095111
  84 H :    0.047668
  85 H :    0.029343
  86 H :    0.032014

  Mayer bond orders larger than 0.100000
B(  0-C ,  1-C ) :   1.5383 B(  0-C ,  5-C ) :   1.2260 B(  0-C ,  9-C ) :   1.0062
B(  1-C ,  2-S ) :   1.1642 B(  1-C , 64-H ) :   0.9540 B(  2-S ,  3-C ) :   1.1491
B(  3-C ,  4-Cl) :   1.1309 B(  3-C ,  5-C ) :   1.4786 B(  5-C ,  6-C ) :   0.9479
B(  6-C ,  7-O ) :   2.2362 B(  6-C ,  8-C ) :   0.9185 B(  8-C ,  9-C ) :   1.0854
B(  8-C , 15-C ) :   1.6292 B(  9-C , 10-C ) :   1.6489 B( 10-C , 11-C ) :   1.1491
B( 10-C , 13-C ) :   1.1410 B( 11-C , 12-N ) :   2.9916 B( 13-C , 14-N ) :   2.9744
B( 15-C , 16-C ) :   1.1504 B( 15-C , 65-H ) :   0.9345 B( 16-C , 17-O ) :   1.1300
B( 16-C , 18-C ) :   1.4294 B( 17-O , 25-C ) :   1.1606 B( 18-C , 19-C ) :   0.8614
B( 18-C , 24-C ) :   1.3289 B( 19-C , 20-O ) :   2.2325 B( 19-C , 21-N ) :   1.0991
B( 21-N , 22-C ) :   1.0657 B( 21-N , 66-H ) :   0.9145 B( 22-C , 23-O ) :   2.2897
B( 22-C , 24-C ) :   0.8705 B( 24-C , 25-C ) :   1.3436 B( 25-C , 26-C ) :   1.1903
B( 26-C , 27-C ) :   1.5628 B( 26-C , 67-H ) :   0.9383 B( 27-C , 28-C ) :   1.1355
B( 27-C , 68-H ) :   0.9739 B( 28-C , 29-N ) :   1.1589 B( 28-C , 35-C ) :   1.3410
B( 29-N , 30-C ) :   0.9460 B( 29-N , 32-C ) :   1.0413 B( 30-C , 31-C ) :   1.1185
B( 30-C , 69-H ) :   0.9506 B( 30-C , 70-H ) :   0.9283 B( 31-C , 71-H ) :   0.9691
B( 31-C , 72-H ) :   0.9683 B( 31-C , 73-H ) :   0.9637 B( 32-C , 33-O ) :   2.1196
B( 32-C , 34-C ) :   0.9846 B( 34-C , 35-C ) :   1.2541 B( 34-C , 41-C ) :   1.3217
B( 35-C , 36-C ) :   0.9768 B( 36-C , 37-O ) :   2.0533 B( 36-C , 38-N ) :   1.0505
B( 38-N , 39-C ) :   0.9436 B( 38-N , 41-C ) :   1.1654 B( 39-C , 40-C ) :   1.1140
B( 39-C , 74-H ) :   0.9234 B( 39-C , 75-H ) :   0.9509 B( 40-C , 76-H ) :   0.9618
B( 40-C , 77-H ) :   0.9685 B( 40-C , 78-H ) :   0.9688 B( 41-C , 42-C ) :   1.2068
B( 42-C , 43-C ) :   1.5815 B( 42-C , 79-H ) :   0.9449 B( 43-C , 44-C ) :   1.1398
B( 43-C , 80-H ) :   0.9640 B( 44-C , 45-C ) :   1.4917 B( 44-C , 48-S ) :   1.0965
B( 45-C , 46-C ) :   1.2755 B( 45-C , 81-H ) :   0.9973 B( 46-C , 47-C ) :   1.4011
B( 46-C , 51-S ) :   1.0673 B( 47-C , 48-S ) :   1.0779 B( 47-C , 49-C ) :   1.2487
B( 49-C , 50-C ) :   1.5327 B( 49-C , 82-H ) :   0.9851 B( 50-C , 51-S ) :   1.0707
B( 50-C , 52-C ) :   1.1456 B( 52-C , 53-O ) :   1.1894 B( 52-C , 54-C ) :   1.4654
B( 53-O , 61-C ) :   1.1301 B( 54-C , 55-C ) :   0.8878 B( 54-C , 60-C ) :   1.2563
B( 55-C , 56-O ) :   2.1924 B( 55-C , 57-N ) :   1.0948 B( 57-N , 58-C ) :   1.0733
B( 57-N , 83-H ) :   0.9149 B( 58-C , 59-O ) :   2.2721 B( 58-C , 60-C ) :   0.8739
B( 60-C , 61-C ) :   1.4523 B( 61-C , 62-C ) :   1.1451 B( 62-C , 63-C ) :   1.8996
B( 62-C , 84-H ) :   0.9505 B( 63-C , 85-H ) :   0.9592 B( 63-C , 86-H ) :   0.9446

-----------------------------------------------------------------------------
         ABSORPTION SPECTRUM VIA TRANSITION ELECTRIC DIPOLE MOMENTS
-----------------------------------------------------------------------------
State   Energy  Wavelength   fosc         T2         TX        TY        TZ
        (cm-1)    (nm)                  (au**2)     (au)      (au)      (au)
-----------------------------------------------------------------------------
   0   12465.3    802.2   1.387392160  36.64139   3.39427  -2.23778   4.48472
   1   17896.5    558.8   0.181974582   3.34748   1.57712  -0.27303   0.88635
   2   22002.1    454.5   0.100975814   1.51087   0.50450   0.37935  -1.05473
   3   22613.9    442.2   0.651222716   9.48045   2.33847  -1.03748   1.71337
   4   23963.5    417.3   0.060050018   0.82497   0.71368  -0.20853   0.52168
   5   26159.3    382.3   0.043766837   0.55080  -0.23467   0.24771  -0.65907
   6   26201.4    381.7   0.039106080   0.49135  -0.51597   0.20059  -0.42999
   7   26726.1    374.2   0.107705247   1.32671   0.64694  -0.46989   0.82909
   8   27769.4    360.1   0.058006636   0.68768   0.53293  -0.60476   0.19478
   9   27864.8    358.9   0.100138169   1.18309   0.72704  -0.52842   0.61260
  10   28011.8    357.0   0.009685668   0.11383   0.15003   0.19889   0.22752
  11   29581.1    338.1   0.244687855   2.72317  -1.61798   0.28303   0.15875
  12   29887.8    334.6   0.066028012   0.72729   0.65251  -0.17207   0.52146
  13   29996.8    333.4   0.061434970   0.67424  -0.01394  -0.09103   0.81594
  14   30396.6    329.0   0.206204945   2.23331  -1.30385   0.18125   0.70742
  15   30575.3    327.1   0.200180677   2.15540   1.33173  -0.55255  -0.27674
  16   30866.1    324.0   0.168520582   1.79741   1.01454  -0.87143  -0.09344
  17   31505.0    317.4   0.003296068   0.03444  -0.15696   0.09489   0.02833
  18   32353.0    309.1   0.028770361   0.29276  -0.22325   0.08474   0.48553
  19   33271.1    300.6   0.070460012   0.69719   0.56567  -0.55148  -0.27033
  20   33770.8    296.1   0.013167195   0.12836   0.09461   0.01987  -0.34498
  21   34878.4    286.7   0.008945529   0.08444  -0.28379  -0.02457  -0.05742
  22   34933.5    286.3   0.006667650   0.06284  -0.21113  -0.12794   0.04350
  23   35278.5    283.5   0.014846443   0.13854  -0.01150  -0.04476   0.36934
  24   36117.5    276.9   0.172820901   1.57527   0.80732  -0.62683  -0.72841
  25   36482.3    274.1   0.020476618   0.18478  -0.14594   0.00386   0.40431
  26   36707.7    272.4   0.180999170   1.62328  -0.66492   1.08643   0.02910
  27   36861.2    271.3   0.124657367   1.11333   0.88034  -0.18696  -0.55080
  28   36977.8    270.4   0.032315509   0.28770  -0.19759  -0.30602   0.39371
  29   37342.8    267.8   0.192986646   1.70136   1.19802  -0.37434   0.35492
  30   37749.3    264.9   0.015714210   0.13704   0.28286  -0.23597  -0.03673
  31   37961.3    263.4   0.006057965   0.05254  -0.13442  -0.07719   0.16885
  32   38115.3    262.4   0.055593454   0.48018   0.18881   0.66523  -0.04465
  33   38341.2    260.8   0.200513729   1.72169   0.93335  -0.62328  -0.67976
  34   38529.4    259.5   0.021646418   0.18496   0.23661  -0.15284   0.32498
  35   39285.5    254.5   0.017539452   0.14698  -0.24375   0.26854   0.12430
  36   39393.7    253.8   0.065166712   0.54460  -0.62881   0.23568  -0.30603
  37   40052.2    249.7   0.023772277   0.19540   0.36727   0.06429  -0.23744
  38   40123.4    249.2   0.037189679   0.30514  -0.29741   0.01505   0.46526
  39   40320.8    248.0   0.001035917   0.00846  -0.07007   0.00834  -0.05898

FINAL SINGLE POINT ENERGY     -4385.067963146801

DIPOLE MOMENT
-------------
                                X             Y             Z
Electronic contribution:    -47.58791      35.94405     -30.29131
Nuclear contribution   :     47.96666     -35.66311      31.09492
                        -----------------------------------------
Total Dipole Moment    :      0.37875       0.28094       0.80361
                        -----------------------------------------
Magnitude (a.u.)       :      0.93175
Magnitude (Debye)      :      2.36833

Rotational constants in cm-1:     0.003275     0.000223     0.000213
Rotational constants in MHz :    98.187777     6.677479     6.394696

                             ****ORCA TERMINATED NORMALLY****
TOTAL RUN TIME: 0 days 0 hours 6 minutes 54 seconds 34 msec
