                         Program Version 4.2.0 -  RELEASE  -
|  1> # ORCA input file
|  2> # SCF done       -211.112187291349          0.000904661033
|  3> ! CAM-B3LYP def2-SVP def2/J RIJCOSX Grid4 TightSCF
|  4> %maxcore 5000
|  5> %tddft
|  6>     Mode sTDDFT
|  7>     Ethresh 5.0
|  8>     maxcore 5000
|  9> end
| 10>
| 11> %pal
| 12>   nprocs 6
| 13>   end
| 14> * xyz 0 1
| 15>    C       13.18811        -1.39810         2.28496
| 16>    C       14.37220        -2.06950         2.27531
| 17>    S       14.12263        -3.77482         2.21579
| 18>    C       12.38704        -3.58996         2.20221
| 19>   Cl       11.35377        -4.92817         2.14199
| 20>    C       12.04756        -2.26803         2.24418
| 21>    C       10.81823        -1.48257         2.26020
| 22>    O        9.66919        -1.86157         2.26241
| 23>    C       11.28156        -0.05389         2.30217
| 24>    C       12.74309        -0.02138         2.31093
| 25>    C       13.55268         1.07649         2.30918
| 26>    C       14.96020         0.95251         2.31056
| 27>    N       16.10301         0.86241         2.31668
| 28>    C       13.10721         2.41526         2.28599
| 29>    N       12.80420         3.52110         2.25706
| 30>    C       10.43082         0.98306         2.34973
| 31>    C        8.98134         0.82840         2.32648
| 32>    C        8.24445         0.34261         1.24021
| 33>    C        8.87612        -0.08914        -0.02648
| 34>    O       10.03129        -0.03299        -0.32562
| 35>    S        7.60979        -0.71641        -1.11763
| 36>    C        6.28286        -0.33070         0.03135
| 37>    O        5.13248        -0.51497        -0.23668
| 38>    C        6.85738         0.22223         1.27285
| 39>    C        6.07625         0.60985         2.38802
| 40>    C        6.83014         1.05186         3.49070
| 41>    C        8.21540         1.15528         3.44232
| 42>    C        8.69478         1.54903         4.78717
| 43>    O        9.80926         1.73915         5.16350
| 44>    O        7.59169         1.63823         5.58990
| 45>    C        6.43751         1.32818         4.89776
| 46>    O        5.37844         1.26783         5.43702
| 47>    C        4.64092         0.54589         2.37765
| 48>    C        3.87440         1.48121         2.98189
| 49>    C        2.45829         1.58971         3.03134
| 50>    N        1.48330         0.66810         2.73725
| 51>    C        1.63722        -0.70560         2.31862
| 52>    C        1.69402        -0.83978         0.79861
| 53>    C        0.19218         1.19469         2.94179
| 54>    O       -0.82656         0.55918         2.75886
| 55>    C        0.41558         2.55016         3.39586
| 56>    C        1.81412         2.75205         3.44335
| 57>    C        2.06592         4.10321         3.89500
| 58>    O        3.08723         4.73065         4.06549
| 59>    N        0.77456         4.63380         4.10780
| 60>    C        0.59886         5.96508         4.63516
| 61>    C        0.30726         5.94580         6.13389
| 62>    C       -0.21153         3.72262         3.81595
| 63>    C       -1.60089         4.00432         3.92653
| 64>    C       -2.55050         3.09764         3.60096
| 65>    C       -3.97388         3.31152         3.66582
| 66>    C       -4.82332         2.36684         3.08626
| 67>    C       -6.19861         2.52746         3.10489
| 68>    N       -6.97446         1.48390         2.48524
| 69>    O       -6.42756         0.81526         1.63799
| 70>    O       -8.12870         1.32862         2.83793
| 71>    C       -6.80252         3.64244         3.71981
| 72>    C       -5.93601         4.57830         4.30056
| 73>    C       -4.57092         4.42320         4.28028
| 74>    C       -8.23305         3.84572         3.73336
| 75>    C       -8.89657         4.53819         4.67708
| 76>    C      -10.31608         4.73060         4.66077
| 77>    C      -11.28195         3.86654         4.27503
| 78>    C      -12.65627         4.40246         3.99180
| 79>    O      -13.06209         5.50425         4.27127
| 80>    C      -13.32754         3.31825         3.27165
| 81>    C      -14.51787         3.12476         2.63458
| 82>    S      -14.60440         1.50904         1.97734
| 83>    C      -13.03730         1.10855         2.58171
| 84>    C      -12.48246         2.15937         3.24127
| 85>    C      -11.26185         2.43860         3.97645
| 86>    C      -10.42020         1.47999         4.46357
| 87>    C      -10.61757         0.11334         4.16684
| 88>    N      -10.78337        -0.99924         3.94598
| 89>    C       -9.34769         1.71299         5.34615
| 90>    N       -8.49020         1.84415         6.09738
| 91>   Cl      -15.79277         4.22448         2.44762
| 92>    H       15.37204        -1.68329         2.29994
| 93>    H       10.79054         1.99746         2.46442
| 94>    H        4.20765        -0.23238         1.77118
| 95>    H        4.35655         2.32873         3.45167
| 96>    H        0.75291        -1.23552         2.68654
| 97>    H        2.52398        -1.12718         2.79610
| 98>    H        0.76908        -0.46811         0.36491
| 99>    H        1.80586        -1.88627         0.52935
|100>    H        2.52461        -0.28224         0.37310
|101>    H       -0.19646         6.47730         4.08619
|102>    H        1.54228         6.48760         4.45362
|103>    H       -0.59702         5.38095         6.35039
|104>    H        0.18342         6.96174         6.49849
|105>    H        1.13600         5.48498         6.66533
|106>    H       -1.87415         4.99221         4.26687
|107>    H       -2.23849         2.12607         3.24015
|108>    H       -4.41005         1.48806         2.61226
|109>    H       -6.35827         5.45988         4.75635
|110>    H       -3.95545         5.17106         4.75495
|111>    H       -8.80544         3.39513         2.93405
|112>    H       -8.36194         5.02433         5.48202
|113>    H      -10.67035         5.71459         4.95611
|114>    H      -12.63414         0.13267         2.39784
|115> *
|116>
|117>                          ****END OF INPUT****

CARTESIAN COORDINATES (ANGSTROEM)
---------------------------------
  C     13.188110   -1.398100    2.284960
  C     14.372200   -2.069500    2.275310
  S     14.122630   -3.774820    2.215790
  C     12.387040   -3.589960    2.202210
  Cl    11.353770   -4.928170    2.141990
  C     12.047560   -2.268030    2.244180
  C     10.818230   -1.482570    2.260200
  O      9.669190   -1.861570    2.262410
  C     11.281560   -0.053890    2.302170
  C     12.743090   -0.021380    2.310930
  C     13.552680    1.076490    2.309180
  C     14.960200    0.952510    2.310560
  N     16.103010    0.862410    2.316680
  C     13.107210    2.415260    2.285990
  N     12.804200    3.521100    2.257060
  C     10.430820    0.983060    2.349730
  C      8.981340    0.828400    2.326480
  C      8.244450    0.342610    1.240210
  C      8.876120   -0.089140   -0.026480
  O     10.031290   -0.032990   -0.325620
  S      7.609790   -0.716410   -1.117630
  C      6.282860   -0.330700    0.031350
  O      5.132480   -0.514970   -0.236680
  C      6.857380    0.222230    1.272850
  C      6.076250    0.609850    2.388020
  C      6.830140    1.051860    3.490700
  C      8.215400    1.155280    3.442320
  C      8.694780    1.549030    4.787170
  O      9.809260    1.739150    5.163500
  O      7.591690    1.638230    5.589900
  C      6.437510    1.328180    4.897760
  O      5.378440    1.267830    5.437020
  C      4.640920    0.545890    2.377650
  C      3.874400    1.481210    2.981890
  C      2.458290    1.589710    3.031340
  N      1.483300    0.668100    2.737250
  C      1.637220   -0.705600    2.318620
  C      1.694020   -0.839780    0.798610
  C      0.192180    1.194690    2.941790
  O     -0.826560    0.559180    2.758860
  C      0.415580    2.550160    3.395860
  C      1.814120    2.752050    3.443350
  C      2.065920    4.103210    3.895000
  O      3.087230    4.730650    4.065490
  N      0.774560    4.633800    4.107800
  C      0.598860    5.965080    4.635160
  C      0.307260    5.945800    6.133890
  C     -0.211530    3.722620    3.815950
  C     -1.600890    4.004320    3.926530
  C     -2.550500    3.097640    3.600960
  C     -3.973880    3.311520    3.665820
  C     -4.823320    2.366840    3.086260
  C     -6.198610    2.527460    3.104890
  N     -6.974460    1.483900    2.485240
  O     -6.427560    0.815260    1.637990
  O     -8.128700    1.328620    2.837930
  C     -6.802520    3.642440    3.719810
  C     -5.936010    4.578300    4.300560
  C     -4.570920    4.423200    4.280280
  C     -8.233050    3.845720    3.733360
  C     -8.896570    4.538190    4.677080
  C    -10.316080    4.730600    4.660770
  C    -11.281950    3.866540    4.275030
  C    -12.656270    4.402460    3.991800
  O    -13.062090    5.504250    4.271270
  C    -13.327540    3.318250    3.271650
  C    -14.517870    3.124760    2.634580
  S    -14.604400    1.509040    1.977340
  C    -13.037300    1.108550    2.581710
  C    -12.482460    2.159370    3.241270
  C    -11.261850    2.438600    3.976450
  C    -10.420200    1.479990    4.463570
  C    -10.617570    0.113340    4.166840
  N    -10.783370   -0.999240    3.945980
  C     -9.347690    1.712990    5.346150
  N     -8.490200    1.844150    6.097380
  Cl   -15.792770    4.224480    2.447620
  H     15.372040   -1.683290    2.299940
  H     10.790540    1.997460    2.464420
  H      4.207650   -0.232380    1.771180
  H      4.356550    2.328730    3.451670
  H      0.752910   -1.235520    2.686540
  H      2.523980   -1.127180    2.796100
  H      0.769080   -0.468110    0.364910
  H      1.805860   -1.886270    0.529350
  H      2.524610   -0.282240    0.373100
  H     -0.196460    6.477300    4.086190
  H      1.542280    6.487600    4.453620
  H     -0.597020    5.380950    6.350390
  H      0.183420    6.961740    6.498490
  H      1.136000    5.484980    6.665330
  H     -1.874150    4.992210    4.266870
  H     -2.238490    2.126070    3.240150
  H     -4.410050    1.488060    2.612260
  H     -6.358270    5.459880    4.756350
  H     -3.955450    5.171060    4.754950
  H     -8.805440    3.395130    2.934050
  H     -8.361940    5.024330    5.482020
  H    -10.670350    5.714590    4.956110
  H    -12.634140    0.132670    2.397840

 Total Charge           Charge          ....    0
 Multiplicity           Mult            ....    1
 Number of Electrons    NEL             ....  566
 Basis Dimension        Dim             .... 1213

ORBITAL ENERGIES
----------------

  NO   OCC          E(Eh)            E(eV)
   0   2.0000    -101.627387     -2765.4218
   1   2.0000    -101.616535     -2765.1265
   2   2.0000     -89.004246     -2421.9287
   3   2.0000     -88.991399     -2421.5791
   4   2.0000     -88.963139     -2420.8101
   5   2.0000     -19.300568      -525.1951
   6   2.0000     -19.257365      -524.0195
   7   2.0000     -19.257112      -524.0127
   8   2.0000     -19.256198      -523.9878
   9   2.0000     -19.254770      -523.9489
  10   2.0000     -19.249318      -523.8006
  11   2.0000     -19.246309      -523.7187
  12   2.0000     -19.236937      -523.4637
  13   2.0000     -19.219880      -522.9995
  14   2.0000     -19.201565      -522.5011
  15   2.0000     -19.195500      -522.3361
  16   2.0000     -14.662019      -398.9738
  17   2.0000     -14.462475      -393.5440
  18   2.0000     -14.458495      -393.4357
  19   2.0000     -14.429655      -392.6509
  20   2.0000     -14.429429      -392.6447
  21   2.0000     -14.414852      -392.2481
  22   2.0000     -14.414743      -392.2451
  23   2.0000     -10.441953      -284.1400
  24   2.0000     -10.441543      -284.1288
  25   2.0000     -10.419064      -283.5172
  26   2.0000     -10.417681      -283.4795
  27   2.0000     -10.392266      -282.7879
  28   2.0000     -10.387560      -282.6599
  29   2.0000     -10.383911      -282.5606
  30   2.0000     -10.378571      -282.4153
  31   2.0000     -10.375790      -282.3396
  32   2.0000     -10.374998      -282.3181
  33   2.0000     -10.360546      -281.9248
  34   2.0000     -10.358215      -281.8614
  35   2.0000     -10.353357      -281.7292
  36   2.0000     -10.348124      -281.5868
  37   2.0000     -10.347709      -281.5755
  38   2.0000     -10.346231      -281.5353
  39   2.0000     -10.345031      -281.5026
  40   2.0000     -10.344912      -281.4994
  41   2.0000     -10.342111      -281.4231
  42   2.0000     -10.341905      -281.4176
  43   2.0000     -10.339063      -281.3402
  44   2.0000     -10.337967      -281.3104
  45   2.0000     -10.337383      -281.2945
  46   2.0000     -10.336719      -281.2764
  47   2.0000     -10.336592      -281.2730
  48   2.0000     -10.330755      -281.1141
  49   2.0000     -10.330611      -281.1102
  50   2.0000     -10.326912      -281.0096
  51   2.0000     -10.325937      -280.9830
  52   2.0000     -10.323384      -280.9135
  53   2.0000     -10.321673      -280.8670
  54   2.0000     -10.319784      -280.8156
  55   2.0000     -10.317520      -280.7540
  56   2.0000     -10.317453      -280.7522
  57   2.0000     -10.316334      -280.7217
  58   2.0000     -10.311935      -280.6020
  59   2.0000     -10.311111      -280.5796
  60   2.0000     -10.310850      -280.5725
  61   2.0000     -10.309695      -280.5411
  62   2.0000     -10.309629      -280.5393
  63   2.0000     -10.308679      -280.5134
  64   2.0000     -10.308072      -280.4969
  65   2.0000     -10.307297      -280.4758
  66   2.0000     -10.307238      -280.4742
  67   2.0000     -10.306433      -280.4523
  68   2.0000     -10.305243      -280.4199
  69   2.0000     -10.303604      -280.3753
  70   2.0000     -10.303262      -280.3660
  71   2.0000     -10.301179      -280.3093
  72   2.0000     -10.298969      -280.2492
  73   2.0000     -10.272111      -279.5184
  74   2.0000     -10.271629      -279.5052
  75   2.0000     -10.267314      -279.3878
  76   2.0000     -10.258264      -279.1415
  77   2.0000      -9.582164      -260.7439
  78   2.0000      -9.571303      -260.4484
  79   2.0000      -8.099985      -220.4118
  80   2.0000      -8.087110      -220.0615
  81   2.0000      -8.062449      -219.3904
  82   2.0000      -7.352790      -200.0796
  83   2.0000      -7.342225      -199.7921
  84   2.0000      -7.341914      -199.7836
  85   2.0000      -7.341640      -199.7762
  86   2.0000      -7.331360      -199.4965
  87   2.0000      -7.330816      -199.4816
  88   2.0000      -6.069319      -165.1546
  89   2.0000      -6.064691      -165.0286
  90   2.0000      -6.062324      -164.9642
  91   2.0000      -6.056508      -164.8060
  92   2.0000      -6.051875      -164.6799
  93   2.0000      -6.049370      -164.6117
  94   2.0000      -6.031334      -164.1209
  95   2.0000      -6.028010      -164.0305
  96   2.0000      -6.023480      -163.9072
  97   2.0000      -1.337505       -36.3954
  98   2.0000      -1.249844       -34.0100
  99   2.0000      -1.181767       -32.1575
 100   2.0000      -1.177519       -32.0419
 101   2.0000      -1.175840       -31.9962
 102   2.0000      -1.155727       -31.4489
 103   2.0000      -1.153769       -31.3957
 104   2.0000      -1.141871       -31.0719
 105   2.0000      -1.138319       -30.9752
 106   2.0000      -1.136779       -30.9333
 107   2.0000      -1.133481       -30.8436
 108   2.0000      -1.072181       -29.1755
 109   2.0000      -1.061085       -28.8736
 110   2.0000      -1.048846       -28.5406
 111   2.0000      -1.036289       -28.1989
 112   2.0000      -1.030150       -28.0318
 113   2.0000      -1.026374       -27.9291
 114   2.0000      -1.013199       -27.5705
 115   2.0000      -1.007818       -27.4241
 116   2.0000      -1.004229       -27.3265
 117   2.0000      -0.998719       -27.1765
 118   2.0000      -0.993412       -27.0321
 119   2.0000      -0.986017       -26.8309
 120   2.0000      -0.967908       -26.3381
 121   2.0000      -0.963818       -26.2268
 122   2.0000      -0.954933       -25.9851
 123   2.0000      -0.948895       -25.8207
 124   2.0000      -0.942754       -25.6536
 125   2.0000      -0.934464       -25.4281
 126   2.0000      -0.924645       -25.1609
 127   2.0000      -0.919240       -25.0138
 128   2.0000      -0.908766       -24.7288
 129   2.0000      -0.906120       -24.6568
 130   2.0000      -0.901374       -24.5276
 131   2.0000      -0.889859       -24.2143
 132   2.0000      -0.883505       -24.0414
 133   2.0000      -0.875998       -23.8371
 134   2.0000      -0.868526       -23.6338
 135   2.0000      -0.846294       -23.0288
 136   2.0000      -0.843311       -22.9476
 137   2.0000      -0.830408       -22.5965
 138   2.0000      -0.825095       -22.4520
 139   2.0000      -0.822268       -22.3750
 140   2.0000      -0.809896       -22.0384
 141   2.0000      -0.807229       -21.9658
 142   2.0000      -0.804429       -21.8896
 143   2.0000      -0.792339       -21.5606
 144   2.0000      -0.777253       -21.1501
 145   2.0000      -0.772734       -21.0271
 146   2.0000      -0.767805       -20.8930
 147   2.0000      -0.764923       -20.8146
 148   2.0000      -0.763875       -20.7861
 149   2.0000      -0.751059       -20.4374
 150   2.0000      -0.736165       -20.0321
 151   2.0000      -0.726152       -19.7596
 152   2.0000      -0.716814       -19.5055
 153   2.0000      -0.712793       -19.3961
 154   2.0000      -0.711128       -19.3508
 155   2.0000      -0.702038       -19.1034
 156   2.0000      -0.694312       -18.8932
 157   2.0000      -0.691971       -18.8295
 158   2.0000      -0.687811       -18.7163
 159   2.0000      -0.684655       -18.6304
 160   2.0000      -0.681460       -18.5435
 161   2.0000      -0.673631       -18.3304
 162   2.0000      -0.663134       -18.0448
 163   2.0000      -0.657784       -17.8992
 164   2.0000      -0.652197       -17.7472
 165   2.0000      -0.648133       -17.6366
 166   2.0000      -0.646671       -17.5968
 167   2.0000      -0.640052       -17.4167
 168   2.0000      -0.632724       -17.2173
 169   2.0000      -0.632217       -17.2035
 170   2.0000      -0.630233       -17.1495
 171   2.0000      -0.624866       -17.0035
 172   2.0000      -0.621035       -16.8992
 173   2.0000      -0.618129       -16.8201
 174   2.0000      -0.616129       -16.7657
 175   2.0000      -0.611113       -16.6292
 176   2.0000      -0.609104       -16.5746
 177   2.0000      -0.608382       -16.5549
 178   2.0000      -0.599833       -16.3223
 179   2.0000      -0.595235       -16.1972
 180   2.0000      -0.588104       -16.0031
 181   2.0000      -0.583840       -15.8871
 182   2.0000      -0.581470       -15.8226
 183   2.0000      -0.575511       -15.6605
 184   2.0000      -0.572969       -15.5913
 185   2.0000      -0.570719       -15.5300
 186   2.0000      -0.569916       -15.5082
 187   2.0000      -0.567164       -15.4333
 188   2.0000      -0.566155       -15.4059
 189   2.0000      -0.561227       -15.2718
 190   2.0000      -0.555984       -15.1291
 191   2.0000      -0.552926       -15.0459
 192   2.0000      -0.550163       -14.9707
 193   2.0000      -0.549514       -14.9530
 194   2.0000      -0.546776       -14.8785
 195   2.0000      -0.545202       -14.8357
 196   2.0000      -0.543627       -14.7928
 197   2.0000      -0.542697       -14.7675
 198   2.0000      -0.541269       -14.7287
 199   2.0000      -0.538318       -14.6484
 200   2.0000      -0.536098       -14.5880
 201   2.0000      -0.532071       -14.4784
 202   2.0000      -0.531160       -14.4536
 203   2.0000      -0.530677       -14.4405
 204   2.0000      -0.526538       -14.3278
 205   2.0000      -0.523218       -14.2375
 206   2.0000      -0.521886       -14.2013
 207   2.0000      -0.519890       -14.1469
 208   2.0000      -0.516613       -14.0578
 209   2.0000      -0.514444       -13.9987
 210   2.0000      -0.513969       -13.9858
 211   2.0000      -0.510388       -13.8884
 212   2.0000      -0.509215       -13.8564
 213   2.0000      -0.505546       -13.7566
 214   2.0000      -0.503368       -13.6973
 215   2.0000      -0.502495       -13.6736
 216   2.0000      -0.500183       -13.6107
 217   2.0000      -0.497171       -13.5287
 218   2.0000      -0.497023       -13.5247
 219   2.0000      -0.492518       -13.4021
 220   2.0000      -0.492208       -13.3936
 221   2.0000      -0.487857       -13.2753
 222   2.0000      -0.485400       -13.2084
 223   2.0000      -0.484586       -13.1862
 224   2.0000      -0.482294       -13.1239
 225   2.0000      -0.476500       -12.9662
 226   2.0000      -0.470574       -12.8050
 227   2.0000      -0.468555       -12.7500
 228   2.0000      -0.466525       -12.6948
 229   2.0000      -0.465211       -12.6590
 230   2.0000      -0.462695       -12.5906
 231   2.0000      -0.461160       -12.5488
 232   2.0000      -0.460468       -12.5300
 233   2.0000      -0.456795       -12.4300
 234   2.0000      -0.455756       -12.4018
 235   2.0000      -0.454470       -12.3667
 236   2.0000      -0.452690       -12.3183
 237   2.0000      -0.451516       -12.2864
 238   2.0000      -0.449062       -12.2196
 239   2.0000      -0.447516       -12.1775
 240   2.0000      -0.443479       -12.0677
 241   2.0000      -0.442586       -12.0434
 242   2.0000      -0.442416       -12.0387
 243   2.0000      -0.441512       -12.0141
 244   2.0000      -0.439921       -11.9709
 245   2.0000      -0.437700       -11.9104
 246   2.0000      -0.432845       -11.7783
 247   2.0000      -0.429351       -11.6832
 248   2.0000      -0.426755       -11.6126
 249   2.0000      -0.425649       -11.5825
 250   2.0000      -0.422974       -11.5097
 251   2.0000      -0.422048       -11.4845
 252   2.0000      -0.421310       -11.4644
 253   2.0000      -0.413395       -11.2490
 254   2.0000      -0.409619       -11.1463
 255   2.0000      -0.405837       -11.0434
 256   2.0000      -0.404639       -11.0108
 257   2.0000      -0.402762       -10.9597
 258   2.0000      -0.401472       -10.9246
 259   2.0000      -0.398165       -10.8346
 260   2.0000      -0.392337       -10.6760
 261   2.0000      -0.386290       -10.5115
 262   2.0000      -0.385413       -10.4876
 263   2.0000      -0.382554       -10.4098
 264   2.0000      -0.382318       -10.4034
 265   2.0000      -0.375982       -10.2310
 266   2.0000      -0.367970       -10.0130
 267   2.0000      -0.362212        -9.8563
 268   2.0000      -0.358557        -9.7568
 269   2.0000      -0.355956        -9.6861
 270   2.0000      -0.353760        -9.6263
 271   2.0000      -0.350401        -9.5349
 272   2.0000      -0.344376        -9.3709
 273   2.0000      -0.343819        -9.3558
 274   2.0000      -0.342779        -9.3275
 275   2.0000      -0.338631        -9.2146
 276   2.0000      -0.331297        -9.0150
 277   2.0000      -0.329635        -8.9698
 278   2.0000      -0.322563        -8.7774
 279   2.0000      -0.316835        -8.6215
 280   2.0000      -0.313006        -8.5173
 281   2.0000      -0.298011        -8.1093
 282   2.0000      -0.248073        -6.7504
 283   0.0000      -0.110073        -2.9952
 284   0.0000      -0.103842        -2.8257
 285   0.0000      -0.099158        -2.6982
 286   0.0000      -0.087588        -2.3834
 287   0.0000      -0.066346        -1.8054

MULLIKEN ATOMIC CHARGES
-----------------------
   0 C :    0.031685
   1 C :   -0.124769
   2 S :    0.198526
   3 C :   -0.164544
   4 Cl:    0.007224
   5 C :    0.074566
   6 C :    0.153233
   7 O :   -0.141197
   8 C :   -0.029801
   9 C :    0.304914
  10 C :   -0.307068
  11 C :   -0.199375
  12 N :    0.164754
  13 C :   -0.186159
  14 N :    0.172448
  15 C :   -0.079368
  16 C :   -0.016831
  17 C :    0.080689
  18 C :    0.044975
  19 O :   -0.128385
  20 S :    0.034923
  21 C :    0.034170
  22 O :   -0.125594
  23 C :    0.043423
  24 C :    0.050539
  25 C :   -0.071975
  26 C :   -0.050018
  27 C :    0.241978
  28 O :   -0.103550
  29 O :   -0.227717
  30 C :    0.230733
  31 O :   -0.088712
  32 C :   -0.056983
  33 C :    0.036299
  34 C :    0.087181
  35 N :   -0.262363
  36 C :    0.103500
  37 C :    0.004144
  38 C :    0.168047
  39 O :   -0.214492
  40 C :   -0.069054
  41 C :   -0.033873
  42 C :    0.158899
  43 O :   -0.183519
  44 N :   -0.270585
  45 C :    0.097695
  46 C :    0.003155
  47 C :    0.143408
  48 C :    0.001649
  49 C :    0.014939
  50 C :    0.106996
  51 C :   -0.065387
  52 C :    0.156971
  53 N :    0.261108
  54 O :   -0.214616
  55 O :   -0.246696
  56 C :    0.065453
  57 C :   -0.025636
  58 C :    0.023462
  59 C :    0.019882
  60 C :   -0.000821
  61 C :    0.027565
  62 C :   -0.124070
  63 C :    0.127585
  64 O :   -0.127833
  65 C :    0.091042
  66 C :   -0.173722
  67 S :    0.184961
  68 C :   -0.126100
  69 C :    0.011864
  70 C :    0.257927
  71 C :   -0.295026
  72 C :   -0.181420
  73 N :    0.159690
  74 C :   -0.185770
  75 N :    0.166815
  76 Cl:   -0.001204
  77 H :    0.056774
  78 H :    0.056245
  79 H :    0.023056
  80 H :    0.013697
  81 H :    0.038015
  82 H :    0.025158
  83 H :    0.025719
  84 H :    0.021869
  85 H :    0.029616
  86 H :    0.023749
  87 H :    0.046302
  88 H :    0.012650
  89 H :    0.025056
  90 H :    0.035787
  91 H :   -0.032414
  92 H :    0.017268
  93 H :    0.023458
  94 H :   -0.014258
  95 H :   -0.012733
  96 H :    0.030740
  97 H :    0.020531
  98 H :    0.033365
  99 H :    0.055561
Sum of atomic charges:   -0.0000000

LOEWDIN ATOMIC CHARGES
----------------------
   0 C :   -0.055269
   1 C :   -0.146343
   2 S :    0.488684
   3 C :   -0.269180
   4 Cl:    0.198907
   5 C :   -0.117544
   6 C :    0.087606
   7 O :   -0.135828
   8 C :   -0.051929
   9 C :    0.075275
  10 C :   -0.116507
  11 C :   -0.014431
  12 N :   -0.040609
  13 C :   -0.019075
  14 N :   -0.032830
  15 C :    0.075267
  16 C :    0.020023
  17 C :   -0.030382
  18 C :   -0.043201
  19 O :   -0.113451
  20 S :    0.320656
  21 C :   -0.036436
  22 O :   -0.110599
  23 C :   -0.051705
  24 C :    0.039262
  25 C :   -0.048445
  26 C :   -0.034680
  27 C :    0.104036
  28 O :   -0.096046
  29 O :   -0.052243
  30 C :    0.110525
  31 O :   -0.086953
  32 C :   -0.034178
  33 C :    0.020702
  34 C :    0.061756
  35 N :    0.003408
  36 C :    0.036669
  37 C :   -0.062413
  38 C :    0.081217
  39 O :   -0.202253
  40 C :   -0.129009
  41 C :   -0.098768
  42 C :    0.084458
  43 O :   -0.183413
  44 N :   -0.004549
  45 C :    0.035829
  46 C :   -0.060647
  47 C :    0.091663
  48 C :   -0.047823
  49 C :    0.045446
  50 C :   -0.027351
  51 C :    0.026259
  52 C :   -0.021894
  53 N :    0.291216
  54 O :   -0.180862
  55 O :   -0.193348
  56 C :    0.005150
  57 C :   -0.000360
  58 C :    0.018058
  59 C :    0.015140
  60 C :   -0.016216
  61 C :    0.061431
  62 C :   -0.074833
  63 C :    0.080805
  64 O :   -0.132456
  65 C :   -0.120852
  66 C :   -0.272775
  67 S :    0.474559
  68 C :   -0.151469
  69 C :   -0.055511
  70 C :    0.058115
  71 C :   -0.116090
  72 C :   -0.012073
  73 N :   -0.046100
  74 C :   -0.015629
  75 N :   -0.050527
  76 Cl:    0.190864
  77 H :    0.039484
  78 H :    0.055142
  79 H :    0.034889
  80 H :    0.044976
  81 H :    0.036383
  82 H :    0.024524
  83 H :    0.031692
  84 H :    0.031572
  85 H :    0.023231
  86 H :    0.022429
  87 H :    0.039245
  88 H :    0.020881
  89 H :    0.031296
  90 H :    0.034908
  91 H :    0.026093
  92 H :    0.040836
  93 H :    0.049421
  94 H :    0.034901
  95 H :    0.033000
  96 H :    0.032945
  97 H :    0.037282
  98 H :    0.048382
  99 H :    0.038590

  Mayer bond orders larger than 0.100000
B(  0-C ,  1-C ) :   1.5382 B(  0-C ,  5-C ) :   1.2233 B(  0-C ,  9-C ) :   1.0088
B(  1-C ,  2-S ) :   1.1654 B(  1-C , 77-H ) :   0.9551 B(  2-S ,  3-C ) :   1.1591
B(  3-C ,  4-Cl) :   1.1356 B(  3-C ,  5-C ) :   1.4609 B(  5-C ,  6-C ) :   0.9668
B(  6-C ,  7-O ) :   2.2202 B(  6-C ,  8-C ) :   0.9150 B(  8-C ,  9-C ) :   1.0298
B(  8-C , 15-C ) :   1.7919 B(  9-C , 10-C ) :   1.6954 B( 10-C , 11-C ) :   1.1398
B( 10-C , 13-C ) :   1.1389 B( 11-C , 12-N ) :   2.9947 B( 13-C , 14-N ) :   2.9757
B( 15-C , 16-C ) :   0.9916 B( 15-C , 78-H ) :   0.9197 B( 16-C , 17-C ) :   1.3933
B( 16-C , 26-C ) :   1.4068 B( 17-C , 18-C ) :   0.8330 B( 17-C , 23-C ) :   1.3312
B( 18-C , 19-O ) :   2.1792 B( 18-C , 20-S ) :   1.0353 B( 19-O , 20-S ) :   0.1092
B( 20-S , 21-C ) :   1.0341 B( 20-S , 22-O ) :   0.1027 B( 21-C , 22-O ) :   2.1481
B( 21-C , 23-C ) :   0.8546 B( 23-C , 24-C ) :   1.3392 B( 24-C , 25-C ) :   1.3184
B( 24-C , 32-C ) :   1.1103 B( 25-C , 26-C ) :   1.3489 B( 25-C , 30-C ) :   0.9030
B( 26-C , 27-C ) :   0.8988 B( 27-C , 28-O ) :   2.2427 B( 27-C , 29-O ) :   1.0711
B( 29-O , 30-C ) :   1.0372 B( 30-C , 31-O ) :   2.2664 B( 32-C , 33-C ) :   1.6131
B( 32-C , 79-H ) :   0.9495 B( 33-C , 34-C ) :   1.2015 B( 33-C , 80-H ) :   0.9344
B( 34-C , 35-N ) :   1.1669 B( 34-C , 41-C ) :   1.3608 B( 35-N , 36-C ) :   0.9366
B( 35-N , 38-C ) :   1.0677 B( 36-C , 37-C ) :   1.1206 B( 36-C , 81-H ) :   0.9274
B( 36-C , 82-H ) :   0.9494 B( 37-C , 83-H ) :   0.9593 B( 37-C , 84-H ) :   0.9679
B( 37-C , 85-H ) :   0.9634 B( 38-C , 39-O ) :   2.0137 B( 38-C , 40-C ) :   0.9893
B( 39-O , 92-H ) :   0.1163 B( 40-C , 41-C ) :   1.2476 B( 40-C , 47-C ) :   1.3347
B( 41-C , 42-C ) :   0.9680 B( 42-C , 43-O ) :   2.1357 B( 42-C , 44-N ) :   1.0274
B( 44-N , 45-C ) :   0.9429 B( 44-N , 47-C ) :   1.1710 B( 45-C , 46-C ) :   1.1205
B( 45-C , 86-H ) :   0.9498 B( 45-C , 87-H ) :   0.9274 B( 46-C , 88-H ) :   0.9685
B( 46-C , 89-H ) :   0.9680 B( 46-C , 90-H ) :   0.9638 B( 47-C , 48-C ) :   1.1503
B( 48-C , 49-C ) :   1.6164 B( 48-C , 91-H ) :   0.9564 B( 49-C , 50-C ) :   1.0707
B( 49-C , 92-H ) :   0.9627 B( 50-C , 51-C ) :   1.2924 B( 50-C , 58-C ) :   1.3031
B( 51-C , 52-C ) :   1.3587 B( 51-C , 93-H ) :   1.0041 B( 52-C , 53-N ) :   0.8823
B( 52-C , 56-C ) :   1.3495 B( 53-N , 54-O ) :   1.5758 B( 53-N , 55-O ) :   1.4847
B( 54-O , 55-O ) :   0.2604 B( 56-C , 57-C ) :   1.3382 B( 56-C , 59-C ) :   1.0826
B( 57-C , 58-C ) :   1.4239 B( 57-C , 94-H ) :   0.9868 B( 58-C , 95-H ) :   0.9900
B( 59-C , 60-C ) :   1.7613 B( 59-C , 96-H ) :   0.9461 B( 60-C , 61-C ) :   1.0758
B( 60-C , 97-H ) :   0.9462 B( 61-C , 62-C ) :   1.7695 B( 61-C , 98-H ) :   0.9229
B( 62-C , 63-C ) :   0.9297 B( 62-C , 70-C ) :   1.0105 B( 63-C , 64-O ) :   2.2813
B( 63-C , 65-C ) :   0.9277 B( 65-C , 66-C ) :   1.4757 B( 65-C , 69-C ) :   1.2206
B( 66-C , 67-S ) :   1.1567 B( 66-C , 76-Cl) :   1.1289 B( 67-S , 68-C ) :   1.1561
B( 68-C , 69-C ) :   1.5582 B( 68-C , 99-H ) :   0.9550 B( 69-C , 70-C ) :   1.0070
B( 70-C , 71-C ) :   1.7113 B( 71-C , 72-C ) :   1.1283 B( 71-C , 74-C ) :   1.1562
B( 72-C , 73-N ) :   3.0050 B( 74-C , 75-N ) :   2.9908

-----------------------------------------------------------------------------
         ABSORPTION SPECTRUM VIA TRANSITION ELECTRIC DIPOLE MOMENTS
-----------------------------------------------------------------------------
State   Energy  Wavelength   fosc         T2         TX        TY        TZ
        (cm-1)    (nm)                  (au**2)     (au)      (au)      (au)
-----------------------------------------------------------------------------
   0   15404.6    649.2   0.808684843  17.28246   3.83314  -1.53358  -0.48746
   1   16121.7    620.3   0.229291421   4.68224  -1.80444   0.90074   0.78415
   2   20575.9    486.0   0.010210065   0.16336  -0.37587   0.10558   0.10458
   3   22555.2    443.4   0.062328627   0.90974   0.66166   0.68333   0.07071
   4   25542.0    391.5   0.236682356   3.05061  -1.63270  -0.54092   0.30381
   5   26135.5    382.6   0.038528153   0.48531  -0.61947  -0.10962  -0.29926
   6   26607.9    375.8   0.131578260   1.62798   1.20952   0.32520  -0.24347
   7   27036.7    369.9   0.066836174   0.81383  -0.83563   0.17978   0.28849
   8   27192.3    367.8   0.034713420   0.42027  -0.59332  -0.25102  -0.07228
   9   27493.2    363.7   0.033940484   0.40641  -0.63504   0.01322  -0.05448
  10   28374.0    352.4   0.017701392   0.20538  -0.44269   0.07562   0.06073
  11   28916.8    345.8   0.107146501   1.21984  -1.03878  -0.24176   0.28693
  12   29008.9    344.7   0.174704963   1.98267  -1.37648   0.12878  -0.26717
  13   29391.3    340.2   0.001677126   0.01879  -0.10347   0.08852  -0.01562
  14   29535.3    338.6   0.056765113   0.63273   0.34524  -0.41728  -0.58259
  15   30576.9    327.0   0.305809873   3.29256  -1.77783   0.27165  -0.24101
  16   30733.9    325.4   0.020206998   0.21645  -0.34284   0.31380   0.02099
  17   31304.3    319.4   0.169468839   1.78222  -1.32975   0.11638   0.02079
  18   31551.1    316.9   0.019594110   0.20445  -0.24709   0.34411   0.15807
  19   32065.6    311.9   0.005803769   0.05959  -0.22240   0.08967   0.04567
  20   32120.1    311.3   0.043760486   0.44852   0.62837  -0.21626  -0.08311
  21   32562.1    307.1   0.022691562   0.22942   0.11143   0.45524   0.09878
  22   32970.7    303.3   0.104567726   1.04411  -1.01113  -0.13863  -0.05006
  23   32991.4    303.1   0.199184374   1.98761  -1.34749  -0.40185  -0.10203
  24   33246.5    300.8   0.051503652   0.51000   0.61558  -0.32978  -0.14933
  25   33343.0    299.9   0.052485121   0.51821   0.09724  -0.69289  -0.16931
  26   33663.8    297.1   0.067441696   0.65954  -0.68625   0.42951   0.06419
  27   33986.6    294.2   0.086091972   0.83393  -0.88278   0.04747  -0.22888
  28   34254.9    291.9   0.037544643   0.36083  -0.57050  -0.07893  -0.17066
  29   34363.1    291.0   0.042299120   0.40524  -0.14790   0.61911   0.00859
  30   34686.5    288.3   0.029832540   0.28314   0.01169  -0.46964  -0.24989
  31   34770.5    287.6   0.004139662   0.03919  -0.00353  -0.12458  -0.15383
  32   34846.8    287.0   0.066576188   0.62897   0.54615   0.56985  -0.07722
  33   36029.8    277.5   0.007009256   0.06405  -0.08887  -0.19973   0.12750
  34   36156.0    276.6   0.062323676   0.56748   0.74244  -0.02796  -0.12443
  35   36272.5    275.7   0.020603409   0.18700  -0.30065  -0.24712   0.18851
  36   36416.6    274.6   0.105748800   0.95599   0.02906   0.97721   0.01429
  37   36470.4    274.2   0.011667485   0.10532  -0.11274   0.17556  -0.24857
  38   36565.8    273.5   0.055881062   0.50311   0.58112   0.29394   0.28110
  39   36925.1    270.8   0.060489610   0.53931   0.23957   0.66345   0.20432
  40   37031.8    270.0   0.002755275   0.02449  -0.08151   0.13209  -0.02007
  41   37207.3    268.8   0.134114668   1.18665  -0.87009   0.44615  -0.48015
  42   37321.5    267.9   0.188396382   1.66184  -0.14784  -1.24504  -0.29977
  43   37577.3    266.1   0.054252619   0.47530  -0.17212  -0.61811   0.25222
  44   37716.1    265.1   0.192819836   1.68307   1.23882   0.26193   0.28244
  45   37795.9    264.6   0.256212562   2.23168   1.10925  -0.20574   0.97924
  46   38044.6    262.8   0.364266238   3.15211   0.17773  -1.76121   0.13667
  47   38346.7    260.8   0.379448209   3.25762   1.65144  -0.29347   0.66652
  48   38692.0    258.5   0.057758996   0.49144  -0.12193  -0.68970  -0.02979
  49   39054.3    256.1   0.019410118   0.16362  -0.27586  -0.15684  -0.25084
  50   39119.0    255.6   0.018776898   0.15802   0.39567  -0.03206   0.02099
  51   39331.6    254.2   0.018654338   0.15614  -0.20943  -0.30979  -0.12771
  52   39433.1    253.6   0.018947433   0.15819   0.10071   0.38364   0.02942
  53   39554.7    252.8   0.071765331   0.59730  -0.74551   0.15344   0.13407
  54   39576.3    252.7   0.011830739   0.09841  -0.20274  -0.10101  -0.21704
  55   39892.9    250.7   0.033672947   0.27788   0.31299   0.24617   0.34542
  56   40019.3    249.9   0.047480986   0.39059  -0.02392  -0.62421   0.01960
  57   40115.9    249.3   0.038465795   0.31567   0.28205  -0.35449  -0.33235

FINAL SINGLE POINT ENERGY     -5392.444256342777

DIPOLE MOMENT
-------------
                                X             Y             Z
Electronic contribution:     25.32872     -33.54374     -14.95877
Nuclear contribution   :    -25.85062      33.84366      14.13116
                        -----------------------------------------
Total Dipole Moment    :     -0.52189       0.29992      -0.82761
                        -----------------------------------------
Magnitude (a.u.)       :      1.02336
Magnitude (Debye)      :      2.60117

Rotational constants in cm-1:     0.002500     0.000161     0.000156
Rotational constants in MHz :    74.938071     4.833207     4.675529

                             ****ORCA TERMINATED NORMALLY****
TOTAL RUN TIME: 0 days 0 hours 10 minutes 6 seconds 836 msec
