                         Program Version 4.2.0 -  RELEASE  -
|  1> # ORCA input file
|  2> # SCF done       -193.300065601099          0.000963696753
|  3> ! CAM-B3LYP def2-SVP def2/J RIJCOSX Grid4 TightSCF
|  4> %maxcore 5000
|  5> %tddft
|  6>     Mode sTDDFT
|  7>     Ethresh 5.0
|  8>     maxcore 5000
|  9> end
| 10>
| 11> %pal
| 12>   nprocs 6
| 13>   end
| 14> * xyz 0 1
| 15>    C        4.85690         3.55739         0.71306
| 16>    C        4.70057         4.90069         0.87089
| 17>    S        6.22110         5.68594         1.08687
| 18>    C        7.09520         4.17827         0.95865
| 19>   Cl        8.78193         4.11583         1.08214
| 20>    C        6.22813         3.14334         0.76374
| 21>    C        6.31555         1.69816         0.58198
| 22>    O        7.30780         1.00782         0.51120
| 23>    C        4.90198         1.23261         0.45615
| 24>    C        4.01538         2.39779         0.50697
| 25>    C        2.65407         2.42837         0.39812
| 26>    C        1.94015         3.64493         0.47578
| 27>    N        1.34734         4.62470         0.53684
| 28>    C        1.81274         1.31422         0.19963
| 29>    N        1.07029         0.45421         0.03837
| 30>    C        4.51885        -0.05169         0.33400
| 31>    C        5.39879        -1.25465         0.36736
| 32>    C        4.51860        -2.51189         0.51129
| 33>    N        6.07537        -1.42978        -0.95048
| 34>    N        7.20428        -1.80901        -1.11209
| 35>    C        8.24455        -2.01971        -0.11592
| 36>    C        7.74115        -1.69815         1.24932
| 37>    C        6.40261        -1.25048         1.45760
| 38>    N        6.25786        -0.98322         2.72194
| 39>    O        7.44726        -1.24589         3.29290
| 40>    N        8.34228        -1.68125         2.40092
| 41>    C        9.36585        -1.03230        -0.51142
| 42>    C        8.83590        -3.40537        -0.12977
| 43>    N        8.39144        -4.50863        -0.80860
| 44>    C        7.35841        -4.61527        -1.81659
| 45>    C        6.20294        -5.49523        -1.34923
| 46>    C        9.17909        -5.64509        -0.50412
| 47>    O        9.00381        -6.73486        -1.01956
| 48>    C       10.14690        -5.17193         0.44321
| 49>    C        9.92667        -3.76978         0.62380
| 50>    C       10.96556        -3.27462         1.50419
| 51>    O       11.25982        -2.16339         1.88149
| 52>    N       11.70402        -4.42881         1.84765
| 53>    C       12.86571        -4.33577         2.69943
| 54>    C       14.15851        -4.27343         1.89042
| 55>    C       11.23034        -5.54873         1.21901
| 56>    C       11.78274        -6.85900         1.39979
| 57>    C       11.23611        -7.93933         0.82729
| 58>    C       11.79784        -9.32832         1.00310
| 59>    C       11.36904        -9.92007         2.34802
| 60>    N       13.26563        -9.17819         1.01955
| 61>    N       13.96668        -9.20463         0.04059
| 62>    C       13.50372        -9.41807        -1.33585
| 63>    C       12.27692       -10.25522        -1.28801
| 64>    C       11.42912       -10.19466        -0.14127
| 65>    N       10.46661       -11.05269        -0.31704
| 66>    O       10.68166       -11.61924        -1.51154
| 67>    N       11.78733       -11.14443        -2.10243
| 68>    C       13.14155        -8.06581        -1.98957
| 69>    C       14.58280       -10.08308        -2.12888
| 70>    C       15.87008       -10.30597        -1.83559
| 71>    C       16.61277       -11.28205        -2.71935
| 72>    O       16.28467       -11.63004        -3.82409
| 73>    C       17.74844       -11.71440        -1.90527
| 74>    C       18.75064       -12.63557        -1.99764
| 75>    S       19.75624       -12.58708        -0.57111
| 76>    C       18.82205       -11.31458         0.12533
| 77>    C       17.79274       -10.95600        -0.68902
| 78>    C       16.73128        -9.96586        -0.69959
| 79>    C       16.71877        -8.86150         0.09907
| 80>    C       17.67092        -8.69391         1.12968
| 81>    N       18.42411        -8.54579         1.98162
| 82>    C       15.88139        -7.73350        -0.03612
| 83>    N       15.35954        -6.71421        -0.13282
| 84>   Cl       19.05943       -13.71788        -3.26227
| 85>    H        3.80152         5.48446         0.87735
| 86>    H        3.46964        -0.27165         0.20027
| 87>    H        3.90464        -2.63164        -0.37782
| 88>    H        3.88273        -2.40681         1.38677
| 89>    H        5.13900        -3.39701         0.63657
| 90>    H        8.97082        -0.02064        -0.51682
| 91>    H        9.73841        -1.28456        -1.50032
| 92>    H       10.16236        -1.09678         0.22509
| 93>    H        7.81290        -5.07274        -2.70190
| 94>    H        7.01845        -3.61104        -2.07393
| 95>    H        6.55177        -6.51380        -1.20220
| 96>    H        5.41821        -5.49669        -2.10006
| 97>    H        5.78906        -5.13386        -0.41095
| 98>    H       12.87828        -5.18009         3.39359
| 99>    H       12.74571        -3.41081         3.27059
|100>    H       14.28853        -5.16183         1.27674
|101>    H       15.00724        -4.18927         2.56345
|102>    H       14.14457        -3.40217         1.24038
|103>    H       12.66792        -6.95668         2.01109
|104>    H       10.35618        -7.85726         0.20312
|105>    H       11.71754        -9.28119         3.15384
|106>    H       11.79534       -10.91275         2.47087
|107>    H       10.28592        -9.99529         2.37906
|108>    H       12.29878        -7.61120        -1.47093
|109>    H       12.86788        -8.24234        -3.02690
|110>    H       13.98957        -7.38909        -1.94330
|111>    H       14.22653       -10.51259        -3.05979
|112>    H       19.09328       -10.93092         1.08860
|113> *
|114>
|115>                          ****END OF INPUT****

CARTESIAN COORDINATES (ANGSTROEM)
---------------------------------
  C      4.856900    3.557390    0.713060
  C      4.700570    4.900690    0.870890
  S      6.221100    5.685940    1.086870
  C      7.095200    4.178270    0.958650
  Cl     8.781930    4.115830    1.082140
  C      6.228130    3.143340    0.763740
  C      6.315550    1.698160    0.581980
  O      7.307800    1.007820    0.511200
  C      4.901980    1.232610    0.456150
  C      4.015380    2.397790    0.506970
  C      2.654070    2.428370    0.398120
  C      1.940150    3.644930    0.475780
  N      1.347340    4.624700    0.536840
  C      1.812740    1.314220    0.199630
  N      1.070290    0.454210    0.038370
  C      4.518850   -0.051690    0.334000
  C      5.398790   -1.254650    0.367360
  C      4.518600   -2.511890    0.511290
  N      6.075370   -1.429780   -0.950480
  N      7.204280   -1.809010   -1.112090
  C      8.244550   -2.019710   -0.115920
  C      7.741150   -1.698150    1.249320
  C      6.402610   -1.250480    1.457600
  N      6.257860   -0.983220    2.721940
  O      7.447260   -1.245890    3.292900
  N      8.342280   -1.681250    2.400920
  C      9.365850   -1.032300   -0.511420
  C      8.835900   -3.405370   -0.129770
  N      8.391440   -4.508630   -0.808600
  C      7.358410   -4.615270   -1.816590
  C      6.202940   -5.495230   -1.349230
  C      9.179090   -5.645090   -0.504120
  O      9.003810   -6.734860   -1.019560
  C     10.146900   -5.171930    0.443210
  C      9.926670   -3.769780    0.623800
  C     10.965560   -3.274620    1.504190
  O     11.259820   -2.163390    1.881490
  N     11.704020   -4.428810    1.847650
  C     12.865710   -4.335770    2.699430
  C     14.158510   -4.273430    1.890420
  C     11.230340   -5.548730    1.219010
  C     11.782740   -6.859000    1.399790
  C     11.236110   -7.939330    0.827290
  C     11.797840   -9.328320    1.003100
  C     11.369040   -9.920070    2.348020
  N     13.265630   -9.178190    1.019550
  N     13.966680   -9.204630    0.040590
  C     13.503720   -9.418070   -1.335850
  C     12.276920  -10.255220   -1.288010
  C     11.429120  -10.194660   -0.141270
  N     10.466610  -11.052690   -0.317040
  O     10.681660  -11.619240   -1.511540
  N     11.787330  -11.144430   -2.102430
  C     13.141550   -8.065810   -1.989570
  C     14.582800  -10.083080   -2.128880
  C     15.870080  -10.305970   -1.835590
  C     16.612770  -11.282050   -2.719350
  O     16.284670  -11.630040   -3.824090
  C     17.748440  -11.714400   -1.905270
  C     18.750640  -12.635570   -1.997640
  S     19.756240  -12.587080   -0.571110
  C     18.822050  -11.314580    0.125330
  C     17.792740  -10.956000   -0.689020
  C     16.731280   -9.965860   -0.699590
  C     16.718770   -8.861500    0.099070
  C     17.670920   -8.693910    1.129680
  N     18.424110   -8.545790    1.981620
  C     15.881390   -7.733500   -0.036120
  N     15.359540   -6.714210   -0.132820
  Cl    19.059430  -13.717880   -3.262270
  H      3.801520    5.484460    0.877350
  H      3.469640   -0.271650    0.200270
  H      3.904640   -2.631640   -0.377820
  H      3.882730   -2.406810    1.386770
  H      5.139000   -3.397010    0.636570
  H      8.970820   -0.020640   -0.516820
  H      9.738410   -1.284560   -1.500320
  H     10.162360   -1.096780    0.225090
  H      7.812900   -5.072740   -2.701900
  H      7.018450   -3.611040   -2.073930
  H      6.551770   -6.513800   -1.202200
  H      5.418210   -5.496690   -2.100060
  H      5.789060   -5.133860   -0.410950
  H     12.878280   -5.180090    3.393590
  H     12.745710   -3.410810    3.270590
  H     14.288530   -5.161830    1.276740
  H     15.007240   -4.189270    2.563450
  H     14.144570   -3.402170    1.240380
  H     12.667920   -6.956680    2.011090
  H     10.356180   -7.857260    0.203120
  H     11.717540   -9.281190    3.153840
  H     11.795340  -10.912750    2.470870
  H     10.285920   -9.995290    2.379060
  H     12.298780   -7.611200   -1.470930
  H     12.867880   -8.242340   -3.026900
  H     13.989570   -7.389090   -1.943300
  H     14.226530  -10.512590   -3.059790
  H     19.093280  -10.930920    1.088600

 Total Charge           Charge          ....    0
 Multiplicity           Mult            ....    1
 Number of Electrons    NEL             ....  516
 Basis Dimension        Dim             .... 1136

ORBITAL ENERGIES
----------------

  NO   OCC          E(Eh)            E(eV)
   0   2.0000    -101.628262     -2765.4456
   1   2.0000    -101.621024     -2765.2487
   2   2.0000     -89.006666     -2421.9945
   3   2.0000     -88.997589     -2421.7475
   4   2.0000     -19.349562      -526.5284
   5   2.0000     -19.335012      -526.1324
   6   2.0000     -19.242678      -523.6199
   7   2.0000     -19.226380      -523.1764
   8   2.0000     -19.194835      -522.3180
   9   2.0000     -19.187449      -522.1170
  10   2.0000     -14.489709      -394.2850
  11   2.0000     -14.488680      -394.2570
  12   2.0000     -14.486056      -394.1856
  13   2.0000     -14.485651      -394.1746
  14   2.0000     -14.483048      -394.1038
  15   2.0000     -14.481380      -394.0584
  16   2.0000     -14.474523      -393.8718
  17   2.0000     -14.473511      -393.8443
  18   2.0000     -14.460634      -393.4939
  19   2.0000     -14.452208      -393.2646
  20   2.0000     -14.435286      -392.8041
  21   2.0000     -14.433422      -392.7534
  22   2.0000     -14.425502      -392.5379
  23   2.0000     -14.419950      -392.3868
  24   2.0000     -10.396558      -282.9047
  25   2.0000     -10.389645      -282.7166
  26   2.0000     -10.382087      -282.5109
  27   2.0000     -10.380613      -282.4708
  28   2.0000     -10.375078      -282.3202
  29   2.0000     -10.372282      -282.2441
  30   2.0000     -10.365024      -282.0466
  31   2.0000     -10.363580      -282.0073
  32   2.0000     -10.358550      -281.8705
  33   2.0000     -10.353825      -281.7419
  34   2.0000     -10.353064      -281.7212
  35   2.0000     -10.352739      -281.7124
  36   2.0000     -10.350223      -281.6439
  37   2.0000     -10.347368      -281.5662
  38   2.0000     -10.346865      -281.5525
  39   2.0000     -10.343502      -281.4610
  40   2.0000     -10.342073      -281.4221
  41   2.0000     -10.337220      -281.2900
  42   2.0000     -10.336508      -281.2707
  43   2.0000     -10.335644      -281.2472
  44   2.0000     -10.334572      -281.2180
  45   2.0000     -10.333788      -281.1967
  46   2.0000     -10.332197      -281.1534
  47   2.0000     -10.329934      -281.0918
  48   2.0000     -10.327667      -281.0301
  49   2.0000     -10.326849      -281.0078
  50   2.0000     -10.326752      -281.0052
  51   2.0000     -10.326613      -281.0014
  52   2.0000     -10.326237      -280.9912
  53   2.0000     -10.322927      -280.9011
  54   2.0000     -10.317636      -280.7571
  55   2.0000     -10.316315      -280.7212
  56   2.0000     -10.313525      -280.6453
  57   2.0000     -10.304844      -280.4091
  58   2.0000     -10.302700      -280.3507
  59   2.0000     -10.302537      -280.3463
  60   2.0000     -10.301310      -280.3129
  61   2.0000     -10.297966      -280.2219
  62   2.0000     -10.292593      -280.0757
  63   2.0000     -10.289127      -279.9814
  64   2.0000     -10.280914      -279.7579
  65   2.0000     -10.262516      -279.2573
  66   2.0000     -10.259517      -279.1756
  67   2.0000     -10.259064      -279.1633
  68   2.0000     -10.257018      -279.1077
  69   2.0000     -10.246922      -278.8329
  70   2.0000      -9.582902      -260.7640
  71   2.0000      -9.575788      -260.5704
  72   2.0000      -8.102339      -220.4759
  73   2.0000      -8.093304      -220.2300
  74   2.0000      -7.353573      -200.1009
  75   2.0000      -7.346439      -199.9068
  76   2.0000      -7.342947      -199.8118
  77   2.0000      -7.342375      -199.7962
  78   2.0000      -7.335825      -199.6179
  79   2.0000      -7.335270      -199.6028
  80   2.0000      -6.071685      -165.2189
  81   2.0000      -6.067033      -165.0924
  82   2.0000      -6.064686      -165.0285
  83   2.0000      -6.062649      -164.9731
  84   2.0000      -6.058056      -164.8481
  85   2.0000      -6.055609      -164.7815
  86   2.0000      -1.307186       -35.5703
  87   2.0000      -1.292916       -35.1820
  88   2.0000      -1.173092       -31.9215
  89   2.0000      -1.167164       -31.7601
  90   2.0000      -1.158457       -31.5232
  91   2.0000      -1.144427       -31.1414
  92   2.0000      -1.134701       -30.8768
  93   2.0000      -1.126775       -30.6611
  94   2.0000      -1.065432       -28.9919
  95   2.0000      -1.056557       -28.7504
  96   2.0000      -1.051697       -28.6181
  97   2.0000      -1.042492       -28.3676
  98   2.0000      -1.031291       -28.0628
  99   2.0000      -1.023092       -27.8398
 100   2.0000      -1.020618       -27.7724
 101   2.0000      -1.012493       -27.5513
 102   2.0000      -1.010671       -27.5018
 103   2.0000      -1.002821       -27.2881
 104   2.0000      -1.001446       -27.2507
 105   2.0000      -0.997580       -27.1455
 106   2.0000      -0.991544       -26.9813
 107   2.0000      -0.985979       -26.8299
 108   2.0000      -0.969125       -26.3712
 109   2.0000      -0.968838       -26.3634
 110   2.0000      -0.955628       -26.0040
 111   2.0000      -0.954071       -25.9616
 112   2.0000      -0.928308       -25.2606
 113   2.0000      -0.923279       -25.1237
 114   2.0000      -0.921530       -25.0761
 115   2.0000      -0.909737       -24.7552
 116   2.0000      -0.905864       -24.6498
 117   2.0000      -0.884082       -24.0571
 118   2.0000      -0.871704       -23.7203
 119   2.0000      -0.866383       -23.5755
 120   2.0000      -0.863145       -23.4874
 121   2.0000      -0.846191       -23.0260
 122   2.0000      -0.836780       -22.7700
 123   2.0000      -0.815690       -22.1960
 124   2.0000      -0.804811       -21.9000
 125   2.0000      -0.799050       -21.7433
 126   2.0000      -0.795707       -21.6523
 127   2.0000      -0.787392       -21.4260
 128   2.0000      -0.786125       -21.3916
 129   2.0000      -0.780865       -21.2484
 130   2.0000      -0.773941       -21.0600
 131   2.0000      -0.770781       -20.9740
 132   2.0000      -0.769254       -20.9325
 133   2.0000      -0.765356       -20.8264
 134   2.0000      -0.756337       -20.5810
 135   2.0000      -0.755101       -20.5473
 136   2.0000      -0.752161       -20.4673
 137   2.0000      -0.714890       -19.4531
 138   2.0000      -0.706804       -19.2331
 139   2.0000      -0.704948       -19.1826
 140   2.0000      -0.703054       -19.1311
 141   2.0000      -0.698481       -19.0066
 142   2.0000      -0.693825       -18.8799
 143   2.0000      -0.690947       -18.8016
 144   2.0000      -0.680985       -18.5305
 145   2.0000      -0.678054       -18.4508
 146   2.0000      -0.673836       -18.3360
 147   2.0000      -0.669480       -18.2175
 148   2.0000      -0.658561       -17.9204
 149   2.0000      -0.649810       -17.6822
 150   2.0000      -0.647284       -17.6135
 151   2.0000      -0.639142       -17.3919
 152   2.0000      -0.632796       -17.2193
 153   2.0000      -0.630837       -17.1660
 154   2.0000      -0.622803       -16.9473
 155   2.0000      -0.618332       -16.8257
 156   2.0000      -0.617347       -16.7989
 157   2.0000      -0.612116       -16.6565
 158   2.0000      -0.609253       -16.5786
 159   2.0000      -0.604295       -16.4437
 160   2.0000      -0.593106       -16.1392
 161   2.0000      -0.587807       -15.9950
 162   2.0000      -0.582591       -15.8531
 163   2.0000      -0.576799       -15.6955
 164   2.0000      -0.572405       -15.5759
 165   2.0000      -0.570607       -15.5270
 166   2.0000      -0.568858       -15.4794
 167   2.0000      -0.564312       -15.3557
 168   2.0000      -0.563200       -15.3255
 169   2.0000      -0.559134       -15.2148
 170   2.0000      -0.556326       -15.1384
 171   2.0000      -0.554883       -15.0991
 172   2.0000      -0.548354       -14.9215
 173   2.0000      -0.545464       -14.8428
 174   2.0000      -0.538573       -14.6553
 175   2.0000      -0.537533       -14.6270
 176   2.0000      -0.535889       -14.5823
 177   2.0000      -0.530906       -14.4467
 178   2.0000      -0.529546       -14.4097
 179   2.0000      -0.528271       -14.3750
 180   2.0000      -0.526951       -14.3391
 181   2.0000      -0.526349       -14.3227
 182   2.0000      -0.524510       -14.2727
 183   2.0000      -0.521452       -14.1894
 184   2.0000      -0.519261       -14.1298
 185   2.0000      -0.517277       -14.0758
 186   2.0000      -0.514730       -14.0065
 187   2.0000      -0.512296       -13.9403
 188   2.0000      -0.507899       -13.8206
 189   2.0000      -0.504697       -13.7335
 190   2.0000      -0.504014       -13.7149
 191   2.0000      -0.502300       -13.6683
 192   2.0000      -0.499895       -13.6028
 193   2.0000      -0.498576       -13.5669
 194   2.0000      -0.495722       -13.4893
 195   2.0000      -0.494744       -13.4627
 196   2.0000      -0.490115       -13.3367
 197   2.0000      -0.489323       -13.3152
 198   2.0000      -0.486737       -13.2448
 199   2.0000      -0.482660       -13.1338
 200   2.0000      -0.477029       -12.9806
 201   2.0000      -0.474019       -12.8987
 202   2.0000      -0.472079       -12.8459
 203   2.0000      -0.468490       -12.7483
 204   2.0000      -0.467369       -12.7177
 205   2.0000      -0.465846       -12.6763
 206   2.0000      -0.464131       -12.6296
 207   2.0000      -0.463100       -12.6016
 208   2.0000      -0.461248       -12.5512
 209   2.0000      -0.460231       -12.5235
 210   2.0000      -0.459541       -12.5047
 211   2.0000      -0.457698       -12.4546
 212   2.0000      -0.455695       -12.4001
 213   2.0000      -0.455469       -12.3939
 214   2.0000      -0.452175       -12.3043
 215   2.0000      -0.448715       -12.2102
 216   2.0000      -0.446967       -12.1626
 217   2.0000      -0.446020       -12.1368
 218   2.0000      -0.445084       -12.1113
 219   2.0000      -0.444363       -12.0917
 220   2.0000      -0.441024       -12.0009
 221   2.0000      -0.438657       -11.9365
 222   2.0000      -0.438383       -11.9290
 223   2.0000      -0.436812       -11.8863
 224   2.0000      -0.429775       -11.6948
 225   2.0000      -0.428878       -11.6704
 226   2.0000      -0.425708       -11.5841
 227   2.0000      -0.424637       -11.5550
 228   2.0000      -0.419229       -11.4078
 229   2.0000      -0.416724       -11.3396
 230   2.0000      -0.414335       -11.2746
 231   2.0000      -0.413277       -11.2458
 232   2.0000      -0.409635       -11.1467
 233   2.0000      -0.409130       -11.1330
 234   2.0000      -0.408464       -11.1149
 235   2.0000      -0.406094       -11.0504
 236   2.0000      -0.402235       -10.9454
 237   2.0000      -0.397222       -10.8090
 238   2.0000      -0.394943       -10.7470
 239   2.0000      -0.387460       -10.5433
 240   2.0000      -0.386779       -10.5248
 241   2.0000      -0.385727       -10.4962
 242   2.0000      -0.378865       -10.3094
 243   2.0000      -0.368027       -10.0145
 244   2.0000      -0.358775        -9.7628
 245   2.0000      -0.352472        -9.5912
 246   2.0000      -0.350273        -9.5314
 247   2.0000      -0.349073        -9.4988
 248   2.0000      -0.347801        -9.4641
 249   2.0000      -0.344996        -9.3878
 250   2.0000      -0.336294        -9.1510
 251   2.0000      -0.329573        -8.9681
 252   2.0000      -0.322978        -8.7887
 253   2.0000      -0.317070        -8.6279
 254   2.0000      -0.313633        -8.5344
 255   2.0000      -0.302437        -8.2297
 256   2.0000      -0.300721        -8.1830
 257   2.0000      -0.251670        -6.8483
 258   0.0000      -0.103541        -2.8175
 259   0.0000      -0.088770        -2.4156
 260   0.0000      -0.067000        -1.8232
 261   0.0000      -0.065285        -1.7765
 262   0.0000      -0.050146        -1.3646

MULLIKEN ATOMIC CHARGES
-----------------------
   0 C :    0.026967
   1 C :   -0.126674
   2 S :    0.201752
   3 C :   -0.165673
   4 Cl:    0.013832
   5 C :    0.086535
   6 C :    0.170555
   7 O :   -0.138907
   8 C :   -0.029328
   9 C :    0.306629
  10 C :   -0.319841
  11 C :   -0.195733
  12 N :    0.166477
  13 C :   -0.180946
  14 N :    0.167268
  15 C :   -0.000887
  16 C :   -0.118096
  17 C :    0.139413
  18 N :   -0.086155
  19 N :   -0.101882
  20 C :   -0.083726
  21 C :   -0.036874
  22 C :   -0.090330
  23 N :    0.037301
  24 O :   -0.127727
  25 N :    0.081112
  26 C :    0.134732
  27 C :    0.078821
  28 N :   -0.257447
  29 C :    0.108692
  30 C :   -0.008498
  31 C :    0.164042
  32 O :   -0.222859
  33 C :   -0.069360
  34 C :   -0.062808
  35 C :    0.178103
  36 O :   -0.184286
  37 N :   -0.255059
  38 C :    0.090107
  39 C :    0.009808
  40 C :    0.135427
  41 C :    0.031041
  42 C :   -0.060625
  43 C :   -0.085696
  44 C :    0.163444
  45 N :   -0.089336
  46 N :   -0.115108
  47 C :   -0.056445
  48 C :   -0.097435
  49 C :   -0.067909
  50 N :    0.058358
  51 O :   -0.121370
  52 N :    0.051990
  53 C :    0.153958
  54 C :   -0.004977
  55 C :   -0.103106
  56 C :    0.130261
  57 O :   -0.116999
  58 C :    0.088840
  59 C :   -0.168565
  60 S :    0.190325
  61 C :   -0.126659
  62 C :    0.014177
  63 C :    0.286904
  64 C :   -0.272052
  65 C :   -0.204178
  66 N :    0.157093
  67 C :   -0.114455
  68 N :    0.133194
  69 Cl:    0.004046
  70 H :    0.057966
  71 H :    0.012724
  72 H :    0.045635
  73 H :    0.040313
  74 H :    0.019971
  75 H :    0.026935
  76 H :    0.019289
  77 H :    0.055988
  78 H :    0.023887
  79 H :    0.054717
  80 H :    0.046420
  81 H :    0.021915
  82 H :   -0.006038
  83 H :    0.019919
  84 H :    0.043148
  85 H :    0.017265
  86 H :    0.018667
  87 H :    0.022634
  88 H :    0.006820
  89 H :    0.054911
  90 H :    0.021002
  91 H :    0.022223
  92 H :    0.037625
  93 H :    0.038900
  94 H :    0.031795
  95 H :    0.052469
  96 H :    0.045505
  97 H :    0.054206
Sum of atomic charges:   -0.0000000

LOEWDIN ATOMIC CHARGES
----------------------
   0 C :   -0.058288
   1 C :   -0.145148
   2 S :    0.490585
   3 C :   -0.266832
   4 Cl:    0.204172
   5 C :   -0.117785
   6 C :    0.095170
   7 O :   -0.120416
   8 C :   -0.057486
   9 C :    0.075708
  10 C :   -0.120500
  11 C :   -0.014291
  12 N :   -0.039493
  13 C :   -0.021722
  14 N :   -0.034206
  15 C :    0.089411
  16 C :   -0.042038
  17 C :   -0.022535
  18 N :   -0.009185
  19 N :    0.002836
  20 C :   -0.034037
  21 C :   -0.060560
  22 C :   -0.067161
  23 N :   -0.030201
  24 O :    0.044220
  25 N :    0.010561
  26 C :   -0.018164
  27 C :    0.084123
  28 N :    0.004783
  29 C :    0.033743
  30 C :   -0.064098
  31 C :    0.081243
  32 O :   -0.206517
  33 C :   -0.130976
  34 C :   -0.129039
  35 C :    0.087037
  36 O :   -0.176067
  37 N :    0.005035
  38 C :    0.034850
  39 C :   -0.064746
  40 C :    0.086726
  41 C :   -0.032948
  42 C :    0.026283
  43 C :   -0.040979
  44 C :   -0.021787
  45 N :    0.003864
  46 N :    0.016560
  47 C :   -0.040381
  48 C :   -0.063244
  49 C :   -0.064385
  50 N :   -0.003907
  51 O :    0.051699
  52 N :   -0.011228
  53 C :   -0.014431
  54 C :    0.075394
  55 C :   -0.070522
  56 C :    0.084456
  57 O :   -0.121260
  58 C :   -0.121175
  59 C :   -0.271654
  60 S :    0.480544
  61 C :   -0.153645
  62 C :   -0.055792
  63 C :    0.067038
  64 C :   -0.111239
  65 C :   -0.014040
  66 N :   -0.046554
  67 C :   -0.001042
  68 N :   -0.063067
  69 Cl:    0.195666
  70 H :    0.039471
  71 H :    0.045407
  72 H :    0.037253
  73 H :    0.041570
  74 H :    0.028807
  75 H :    0.027350
  76 H :    0.028608
  77 H :    0.039370
  78 H :    0.031896
  79 H :    0.027064
  80 H :    0.032124
  81 H :    0.030144
  82 H :    0.015298
  83 H :    0.022084
  84 H :    0.037171
  85 H :    0.019720
  86 H :    0.029835
  87 H :    0.030267
  88 H :    0.034720
  89 H :    0.036896
  90 H :    0.033006
  91 H :    0.032349
  92 H :    0.039929
  93 H :    0.037237
  94 H :    0.039953
  95 H :    0.036405
  96 H :    0.051628
  97 H :    0.037501

  Mayer bond orders larger than 0.100000
B(  0-C ,  1-C ) :   1.5346 B(  0-C ,  5-C ) :   1.2252 B(  0-C ,  9-C ) :   1.0049
B(  1-C ,  2-S ) :   1.1687 B(  1-C , 70-H ) :   0.9549 B(  2-S ,  3-C ) :   1.1591
B(  3-C ,  4-Cl) :   1.1405 B(  3-C ,  5-C ) :   1.4576 B(  5-C ,  6-C ) :   0.9628
B(  6-C ,  7-O ) :   2.1511 B(  6-C ,  8-C ) :   0.9326 B(  8-C ,  9-C ) :   1.0323
B(  8-C , 15-C ) :   1.7700 B(  9-C , 10-C ) :   1.6853 B( 10-C , 11-C ) :   1.1420
B( 10-C , 13-C ) :   1.1405 B( 11-C , 12-N ) :   2.9935 B( 13-C , 14-N ) :   2.9634
B( 15-C , 16-C ) :   0.9570 B( 15-C , 71-H ) :   0.9508 B( 16-C , 17-C ) :   1.0758
B( 16-C , 18-N ) :   0.9200 B( 16-C , 22-C ) :   0.9069 B( 17-C , 72-H ) :   0.9508
B( 17-C , 73-H ) :   0.9517 B( 17-C , 74-H ) :   0.9450 B( 18-N , 19-N ) :   1.8366
B( 19-N , 20-C ) :   0.9204 B( 20-C , 21-C ) :   0.9209 B( 20-C , 26-C ) :   1.0719
B( 20-C , 27-C ) :   0.9277 B( 21-C , 22-C ) :   1.2196 B( 21-C , 25-N ) :   1.7427
B( 22-C , 23-N ) :   1.7458 B( 23-N , 24-O ) :   1.0323 B( 23-N , 25-N ) :   0.1432
B( 24-O , 25-N ) :   1.0398 B( 26-C , 75-H ) :   0.9360 B( 26-C , 76-H ) :   0.9517
B( 26-C , 77-H ) :   0.9293 B( 27-C , 28-N ) :   1.2365 B( 27-C , 34-C ) :   1.4687
B( 28-N , 29-C ) :   0.9317 B( 28-N , 31-C ) :   1.0457 B( 29-C , 30-C ) :   1.1027
B( 29-C , 78-H ) :   0.9349 B( 29-C , 79-H ) :   0.9374 B( 30-C , 80-H ) :   0.9592
B( 30-C , 81-H ) :   0.9650 B( 30-C , 82-H ) :   0.9657 B( 31-C , 32-O ) :   1.9872
B( 31-C , 33-C ) :   1.0075 B( 32-O , 89-H ) :   0.1120 B( 33-C , 34-C ) :   1.2108
B( 33-C , 40-C ) :   1.3710 B( 34-C , 35-C ) :   0.9619 B( 35-C , 36-O ) :   2.0761
B( 35-C , 37-N ) :   1.0398 B( 37-N , 38-C ) :   0.9406 B( 37-N , 40-C ) :   1.1879
B( 38-C , 39-C ) :   1.1195 B( 38-C , 83-H ) :   0.9482 B( 38-C , 84-H ) :   0.9286
B( 39-C , 85-H ) :   0.9559 B( 39-C , 86-H ) :   0.9636 B( 39-C , 87-H ) :   0.9590
B( 40-C , 41-C ) :   1.1033 B( 41-C , 42-C ) :   1.7253 B( 41-C , 88-H ) :   0.9596
B( 42-C , 43-C ) :   0.9587 B( 42-C , 89-H ) :   0.9471 B( 43-C , 44-C ) :   1.0620
B( 43-C , 45-N ) :   0.9416 B( 43-C , 49-C ) :   0.9532 B( 44-C , 90-H ) :   0.9546
B( 44-C , 91-H ) :   0.9528 B( 44-C , 92-H ) :   0.9523 B( 45-N , 46-N ) :   1.8807
B( 46-N , 47-C ) :   0.9226 B( 47-C , 48-C ) :   0.9340 B( 47-C , 53-C ) :   1.0520
B( 47-C , 54-C ) :   0.9529 B( 48-C , 49-C ) :   1.2119 B( 48-C , 52-N ) :   1.7338
B( 49-C , 50-N ) :   1.7364 B( 50-N , 51-O ) :   1.0417 B( 50-N , 52-N ) :   0.1500
B( 51-O , 52-N ) :   1.0392 B( 53-C , 93-H ) :   0.9356 B( 53-C , 94-H ) :   0.9470
B( 53-C , 95-H ) :   0.9425 B( 54-C , 55-C ) :   1.8666 B( 54-C , 96-H ) :   0.9304
B( 55-C , 56-C ) :   0.9189 B( 55-C , 63-C ) :   0.9710 B( 56-C , 57-O ) :   2.2887
B( 56-C , 58-C ) :   0.9265 B( 58-C , 59-C ) :   1.4740 B( 58-C , 62-C ) :   1.2223
B( 59-C , 60-S ) :   1.1589 B( 59-C , 69-Cl) :   1.1329 B( 60-S , 61-C ) :   1.1607
B( 61-C , 62-C ) :   1.5485 B( 61-C , 97-H ) :   0.9546 B( 62-C , 63-C ) :   1.0102
B( 63-C , 64-C ) :   1.7212 B( 64-C , 65-C ) :   1.1323 B( 64-C , 67-C ) :   1.1471
B( 65-C , 66-N ) :   2.9987 B( 67-C , 68-N ) :   2.8600

-----------------------------------------------------------------------------
         ABSORPTION SPECTRUM VIA TRANSITION ELECTRIC DIPOLE MOMENTS
-----------------------------------------------------------------------------
State   Energy  Wavelength   fosc         T2         TX        TY        TZ
        (cm-1)    (nm)                  (au**2)     (au)      (au)      (au)
-----------------------------------------------------------------------------
   0   19792.1    505.3   0.014138913   0.23518  -0.32871   0.35538   0.02890
   1   22349.6    447.4   0.078536003   1.15684  -0.77813   0.73902   0.07211
   2   22707.0    440.4   0.001461601   0.02119   0.11247  -0.05751  -0.07233
   3   23278.5    429.6   0.241285811   3.41234  -1.44188   0.48800  -1.04651
   4   24736.5    404.3   0.003854440   0.05130   0.05412  -0.11674  -0.18639
   5   26792.4    373.2   0.004911813   0.06035   0.03714  -0.09969   0.22144
   6   26865.5    372.2   0.004713846   0.05776  -0.13468   0.17904  -0.08700
   7   28164.7    355.1   0.032117776   0.37542   0.15061  -0.58899  -0.07635
   8   29423.8    339.9   0.027723224   0.31018   0.50854   0.14771   0.17250
   9   29445.7    339.6   0.013889438   0.15529  -0.31694  -0.13371  -0.19225
  10   29937.6    334.0   0.022361554   0.24590   0.36691   0.32305  -0.08318
  11   30664.8    326.1   0.045602044   0.48958   0.03870  -0.62562  -0.31093
  12   30837.5    324.3   0.016357895   0.17463   0.41071   0.05611   0.05293
  13   31248.4    320.0   0.001339319   0.01411   0.03112   0.01105   0.11410
  14   31467.6    317.8   0.030368328   0.31771  -0.28163   0.48629  -0.04375
  15   31587.2    316.6   0.003467534   0.03614   0.04366   0.15223   0.10516
  16   32253.9    310.0   0.005556469   0.05671  -0.16544   0.16880  -0.02919
  17   32744.9    305.4   0.007820553   0.07863  -0.10782   0.24782   0.07474
  18   32817.5    304.7   0.024470352   0.24548   0.29128  -0.38437  -0.11353
  19   33383.9    299.5   0.004878929   0.04811   0.02709  -0.20717  -0.06678
  20   33466.0    298.8   0.001875662   0.01845  -0.13579   0.00172  -0.00310
  21   33546.3    298.1   0.037719244   0.37016  -0.58996  -0.12124  -0.08607
  22   34293.7    291.6   0.000695889   0.00668  -0.03040  -0.05746  -0.04955
  23   34689.0    288.3   0.025491855   0.24193   0.07265  -0.46649  -0.13797
  24   35477.0    281.9   0.008909792   0.08268   0.00710  -0.26574  -0.10959
  25   35651.4    280.5   0.196356061   1.81319   0.32025  -1.06129  -0.76438
  26   35770.3    279.6   0.069295535   0.63776  -0.16711  -0.59689  -0.50355
  27   35997.1    277.8   0.000189848   0.00174   0.00572   0.03613   0.01995
  28   36622.8    273.1   0.024148340   0.21708  -0.31575   0.30474   0.15656
  29   36661.7    272.8   0.086747498   0.77897   0.78602  -0.35416  -0.18899
  30   36676.3    272.7   0.190499484   1.70995   1.18783   0.49689   0.22831
  31   36736.8    272.2   0.165940822   1.48706  -1.09821  -0.52346  -0.08353
  32   36852.1    271.4   0.322387462   2.87999  -1.61850  -0.43407  -0.26840
  33   37918.5    263.7   0.000085254   0.00074  -0.02513   0.00379  -0.00972
  34   38652.2    258.7   0.355373640   3.02682   0.39454  -1.45733  -0.86449
  35   39710.6    251.8   0.133836811   1.10955  -0.02401   1.05251  -0.03440
  36   39805.4    251.2   0.089098917   0.73689   0.38589  -0.75509   0.13350
  37   39849.1    250.9   0.251039410   2.07396   1.30930  -0.59514   0.07415
  38   39944.5    250.3   0.052906903   0.43604   0.45788   0.32331   0.34908

FINAL SINGLE POINT ENERGY     -4699.758421041008

DIPOLE MOMENT
-------------
                                X             Y             Z
Electronic contribution:     25.85544      11.30961      -7.14373
Nuclear contribution   :    -24.70250     -11.10030       7.27034
                        -----------------------------------------
Total Dipole Moment    :      1.15294       0.20930       0.12661
                        -----------------------------------------
Magnitude (a.u.)       :      1.17860
Magnitude (Debye)      :      2.99577

Rotational constants in cm-1:     0.002661     0.000305     0.000288
Rotational constants in MHz :    79.759861     9.155044     8.643649

                             ****ORCA TERMINATED NORMALLY****
TOTAL RUN TIME: 0 days 0 hours 10 minutes 24 seconds 486 msec
