                         Program Version 4.2.0 -  RELEASE  -
|  1> # ORCA input file
|  2> # SCF done       -197.395633954700          0.000930935214
|  3> ! CAM-B3LYP def2-SVP def2/J RIJCOSX Grid4 TightSCF
|  4> %maxcore 5000
|  5> %tddft
|  6>     Mode sTDDFT
|  7>     Ethresh 5.0
|  8>     maxcore 5000
|  9> end
| 10>
| 11> %pal
| 12>   nprocs 6
| 13>   end
| 14> * xyz 0 1
| 15>    C       -0.05185        -2.01969        -2.48844
| 16>    C       -0.99012        -1.95047        -3.47196
| 17>    S       -0.66697        -3.09330        -4.72296
| 18>    C        0.75739        -3.68884        -3.90505
| 19>   Cl        1.70950        -4.91960        -4.56496
| 20>    C        0.95025        -3.01393        -2.73561
| 21>    C        1.91576        -3.03694        -1.63973
| 22>    O        2.78958        -3.84403        -1.42921
| 23>    C        1.48322        -1.91657        -0.73215
| 24>    C        0.24021        -1.35035        -1.23812
| 25>    C       -0.50639        -0.33927        -0.69652
| 26>    C       -1.68230         0.12383        -1.32572
| 27>    N       -2.64170         0.51123        -1.82006
| 28>    C       -0.21862         0.33792         0.50534
| 29>    N       -0.03281         0.92118         1.47639
| 30>    C        2.12193        -1.57906         0.41597
| 31>    C        3.44574        -1.99937         0.73537
| 32>    S        3.94772        -2.32386         2.37549
| 33>    C        5.58461        -2.72859         1.90822
| 34>    C        5.71473        -2.56202         0.53377
| 35>    C        4.52669        -2.16085        -0.10454
| 36>    C        4.83016        -1.94457        -1.52561
| 37>    O        4.15370        -1.53429        -2.41878
| 38>    O        6.15820        -2.27172        -1.68834
| 39>    C        6.74460        -2.66018        -0.50269
| 40>    O        7.89329        -2.99144        -0.44309
| 41>    C        6.49156        -3.18331         2.89169
| 42>    C        7.76557        -3.57432         2.61165
| 43>    C        8.62336        -4.12395         3.59200
| 44>    N        9.88948        -4.58404         3.31987
| 45>    C       10.55280        -4.57503         2.03611
| 46>    C       10.09089        -5.72736         1.14881
| 47>    C       10.48924        -5.16812         4.44571
| 48>    O       11.60287        -5.65379         4.44440
| 49>    C        9.49999        -5.02388         5.49533
| 50>    C        8.37739        -4.36587         4.94633
| 51>    C        7.38804        -4.22136         5.99628
| 52>    O        6.28265        -3.71824         6.00219
| 53>    N        7.98577        -4.81080         7.12092
| 54>    C        7.28024        -4.91259         8.37805
| 55>    C        6.60410        -6.27062         8.54251
| 56>    C        9.23049        -5.31729         6.83537
| 57>    C       10.00465        -6.05397         7.76167
| 58>    C       11.20282        -6.60848         7.42934
| 59>    C       11.93484        -7.46417         8.28348
| 60>    S       13.41673        -8.18391         7.70027
| 61>    C       13.65615        -9.14442         9.13967
| 62>    C       12.62971        -8.87782        10.03246
| 63>    C       11.67786        -7.94883         9.55942
| 64>    C       10.65532        -7.80604        10.59523
| 65>    O        9.66346        -7.13695        10.64078
| 66>    O       11.02439        -8.63325        11.63366
| 67>    C       12.19099        -9.30732        11.36328
| 68>    O       12.67319       -10.07460        12.14573
| 69>    C       14.72566       -10.07465         9.18772
| 70>    C       14.88580       -10.96803        10.19392
| 71>    C       15.86104       -11.99833        10.18646
| 72>    C       15.79892       -13.12627        10.94112
| 73>    C       17.01400       -13.98055        11.13319
| 74>    O       18.03562       -13.92749        10.49340
| 75>    C       16.67935       -14.82520        12.28518
| 76>    C       17.30701       -15.75429        13.06095
| 77>    S       16.22836       -16.34429        14.30307
| 78>    C       14.93879       -15.33749        13.75335
| 79>    C       15.32070       -14.59019        12.68389
| 80>    C       14.71937       -13.63373        11.77292
| 81>    C       13.37253       -13.43825        11.62688
| 82>    C       12.44923       -14.04960        12.50350
| 83>    N       11.69339       -14.53861        13.21371
| 84>    C       12.74997       -12.74508        10.56856
| 85>    N       12.18363       -12.25872         9.69657
| 86>   Cl       18.89491       -16.32690        12.92651
| 87>    H       -1.84691        -1.31107        -3.55168
| 88>    H        1.63212        -0.94948         1.14787
| 89>    H        6.11660        -3.24221         3.90568
| 90>    H        8.13718        -3.49676         1.60083
| 91>    H       11.62064        -4.67973         2.24695
| 92>    H       10.37842        -3.61705         1.54145
| 93>    H       10.27731        -6.67830         1.64231
| 94>    H       10.64019        -5.70580         0.21240
| 95>    H        9.02968        -5.64722         0.92732
| 96>    H        6.52226        -4.12458         8.36459
| 97>    H        7.97349        -4.72762         9.20133
| 98>    H        5.90510        -6.44228         7.72738
| 99>    H        6.05864        -6.29209         9.48112
|100>    H        7.33804        -7.07242         8.55300
|101>    H        9.59860        -6.21047         8.74965
|102>    H       11.62375        -6.43669         6.44655
|103>    H       15.37045       -10.10951         8.31937
|104>    H       14.22799       -10.91555        11.04927
|105>    H       16.74313       -11.87812         9.56710
|106>    H       13.99632       -15.36186        14.26343
|107> *
|108>
|109>                          ****END OF INPUT****

CARTESIAN COORDINATES (ANGSTROEM)
---------------------------------
  C     -0.051850   -2.019690   -2.488440
  C     -0.990120   -1.950470   -3.471960
  S     -0.666970   -3.093300   -4.722960
  C      0.757390   -3.688840   -3.905050
  Cl     1.709500   -4.919600   -4.564960
  C      0.950250   -3.013930   -2.735610
  C      1.915760   -3.036940   -1.639730
  O      2.789580   -3.844030   -1.429210
  C      1.483220   -1.916570   -0.732150
  C      0.240210   -1.350350   -1.238120
  C     -0.506390   -0.339270   -0.696520
  C     -1.682300    0.123830   -1.325720
  N     -2.641700    0.511230   -1.820060
  C     -0.218620    0.337920    0.505340
  N     -0.032810    0.921180    1.476390
  C      2.121930   -1.579060    0.415970
  C      3.445740   -1.999370    0.735370
  S      3.947720   -2.323860    2.375490
  C      5.584610   -2.728590    1.908220
  C      5.714730   -2.562020    0.533770
  C      4.526690   -2.160850   -0.104540
  C      4.830160   -1.944570   -1.525610
  O      4.153700   -1.534290   -2.418780
  O      6.158200   -2.271720   -1.688340
  C      6.744600   -2.660180   -0.502690
  O      7.893290   -2.991440   -0.443090
  C      6.491560   -3.183310    2.891690
  C      7.765570   -3.574320    2.611650
  C      8.623360   -4.123950    3.592000
  N      9.889480   -4.584040    3.319870
  C     10.552800   -4.575030    2.036110
  C     10.090890   -5.727360    1.148810
  C     10.489240   -5.168120    4.445710
  O     11.602870   -5.653790    4.444400
  C      9.499990   -5.023880    5.495330
  C      8.377390   -4.365870    4.946330
  C      7.388040   -4.221360    5.996280
  O      6.282650   -3.718240    6.002190
  N      7.985770   -4.810800    7.120920
  C      7.280240   -4.912590    8.378050
  C      6.604100   -6.270620    8.542510
  C      9.230490   -5.317290    6.835370
  C     10.004650   -6.053970    7.761670
  C     11.202820   -6.608480    7.429340
  C     11.934840   -7.464170    8.283480
  S     13.416730   -8.183910    7.700270
  C     13.656150   -9.144420    9.139670
  C     12.629710   -8.877820   10.032460
  C     11.677860   -7.948830    9.559420
  C     10.655320   -7.806040   10.595230
  O      9.663460   -7.136950   10.640780
  O     11.024390   -8.633250   11.633660
  C     12.190990   -9.307320   11.363280
  O     12.673190  -10.074600   12.145730
  C     14.725660  -10.074650    9.187720
  C     14.885800  -10.968030   10.193920
  C     15.861040  -11.998330   10.186460
  C     15.798920  -13.126270   10.941120
  C     17.014000  -13.980550   11.133190
  O     18.035620  -13.927490   10.493400
  C     16.679350  -14.825200   12.285180
  C     17.307010  -15.754290   13.060950
  S     16.228360  -16.344290   14.303070
  C     14.938790  -15.337490   13.753350
  C     15.320700  -14.590190   12.683890
  C     14.719370  -13.633730   11.772920
  C     13.372530  -13.438250   11.626880
  C     12.449230  -14.049600   12.503500
  N     11.693390  -14.538610   13.213710
  C     12.749970  -12.745080   10.568560
  N     12.183630  -12.258720    9.696570
  Cl    18.894910  -16.326900   12.926510
  H     -1.846910   -1.311070   -3.551680
  H      1.632120   -0.949480    1.147870
  H      6.116600   -3.242210    3.905680
  H      8.137180   -3.496760    1.600830
  H     11.620640   -4.679730    2.246950
  H     10.378420   -3.617050    1.541450
  H     10.277310   -6.678300    1.642310
  H     10.640190   -5.705800    0.212400
  H      9.029680   -5.647220    0.927320
  H      6.522260   -4.124580    8.364590
  H      7.973490   -4.727620    9.201330
  H      5.905100   -6.442280    7.727380
  H      6.058640   -6.292090    9.481120
  H      7.338040   -7.072420    8.553000
  H      9.598600   -6.210470    8.749650
  H     11.623750   -6.436690    6.446550
  H     15.370450  -10.109510    8.319370
  H     14.227990  -10.915550   11.049270
  H     16.743130  -11.878120    9.567100
  H     13.996320  -15.361860   14.263430

 Total Charge           Charge          ....    0
 Multiplicity           Mult            ....    1
 Number of Electrons    NEL             ....  540
 Basis Dimension        Dim             .... 1132

ORBITAL ENERGIES
----------------

  NO   OCC          E(Eh)            E(eV)
   0   2.0000    -101.620448     -2765.2330
   1   2.0000    -101.619432     -2765.2053
   2   2.0000     -88.999435     -2421.7978
   3   2.0000     -88.998369     -2421.7687
   4   2.0000     -88.997488     -2421.7448
   5   2.0000     -88.995202     -2421.6826
   6   2.0000     -19.295187      -525.0487
   7   2.0000     -19.293426      -525.0008
   8   2.0000     -19.243740      -523.6488
   9   2.0000     -19.243221      -523.6347
  10   2.0000     -19.242211      -523.6072
  11   2.0000     -19.239181      -523.5247
  12   2.0000     -19.226451      -523.1783
  13   2.0000     -19.223326      -523.0933
  14   2.0000     -19.204514      -522.5814
  15   2.0000     -19.202978      -522.5396
  16   2.0000     -14.463849      -393.5813
  17   2.0000     -14.463275      -393.5657
  18   2.0000     -14.429158      -392.6373
  19   2.0000     -14.426399      -392.5623
  20   2.0000     -14.422679      -392.4610
  21   2.0000     -14.422436      -392.4544
  22   2.0000     -10.439244      -284.0663
  23   2.0000     -10.439193      -284.0649
  24   2.0000     -10.438491      -284.0458
  25   2.0000     -10.434904      -283.9482
  26   2.0000     -10.386260      -282.6245
  27   2.0000     -10.385476      -282.6032
  28   2.0000     -10.385209      -282.5959
  29   2.0000     -10.380488      -282.4674
  30   2.0000     -10.379535      -282.4415
  31   2.0000     -10.378424      -282.4113
  32   2.0000     -10.356856      -281.8244
  33   2.0000     -10.356174      -281.8058
  34   2.0000     -10.355168      -281.7784
  35   2.0000     -10.353893      -281.7438
  36   2.0000     -10.352377      -281.7025
  37   2.0000     -10.351981      -281.6917
  38   2.0000     -10.351748      -281.6854
  39   2.0000     -10.350368      -281.6478
  40   2.0000     -10.349240      -281.6171
  41   2.0000     -10.348906      -281.6081
  42   2.0000     -10.336946      -281.2826
  43   2.0000     -10.334205      -281.2080
  44   2.0000     -10.331021      -281.1214
  45   2.0000     -10.330790      -281.1151
  46   2.0000     -10.327996      -281.0391
  47   2.0000     -10.326148      -280.9888
  48   2.0000     -10.323844      -280.9261
  49   2.0000     -10.323669      -280.9213
  50   2.0000     -10.321408      -280.8598
  51   2.0000     -10.321193      -280.8539
  52   2.0000     -10.320891      -280.8457
  53   2.0000     -10.319198      -280.7997
  54   2.0000     -10.318281      -280.7747
  55   2.0000     -10.318046      -280.7683
  56   2.0000     -10.317479      -280.7529
  57   2.0000     -10.315683      -280.7040
  58   2.0000     -10.311683      -280.5952
  59   2.0000     -10.311615      -280.5933
  60   2.0000     -10.311054      -280.5780
  61   2.0000     -10.310340      -280.5586
  62   2.0000     -10.309914      -280.5470
  63   2.0000     -10.306194      -280.4458
  64   2.0000     -10.305339      -280.4225
  65   2.0000     -10.304318      -280.3948
  66   2.0000     -10.304169      -280.3907
  67   2.0000     -10.302988      -280.3586
  68   2.0000     -10.275813      -279.6191
  69   2.0000     -10.274809      -279.5918
  70   2.0000     -10.263804      -279.2923
  71   2.0000     -10.263034      -279.2714
  72   2.0000      -9.575271      -260.5564
  73   2.0000      -9.574229      -260.5280
  74   2.0000      -8.094576      -220.2646
  75   2.0000      -8.094088      -220.2513
  76   2.0000      -8.092931      -220.2198
  77   2.0000      -8.091020      -220.1678
  78   2.0000      -7.345915      -199.8925
  79   2.0000      -7.344880      -199.8643
  80   2.0000      -7.335303      -199.6037
  81   2.0000      -7.334740      -199.5884
  82   2.0000      -7.334262      -199.5754
  83   2.0000      -7.333710      -199.5604
  84   2.0000      -6.063802      -165.0044
  85   2.0000      -6.063437      -164.9945
  86   2.0000      -6.062092      -164.9579
  87   2.0000      -6.060390      -164.9116
  88   2.0000      -6.059436      -164.8856
  89   2.0000      -6.058820      -164.8689
  90   2.0000      -6.057812      -164.8415
  91   2.0000      -6.056979      -164.8188
  92   2.0000      -6.056397      -164.8029
  93   2.0000      -6.055795      -164.7866
  94   2.0000      -6.055308      -164.7733
  95   2.0000      -6.053241      -164.7171
  96   2.0000      -1.243658       -33.8416
  97   2.0000      -1.241065       -33.7711
  98   2.0000      -1.169291       -31.8180
  99   2.0000      -1.168279       -31.7905
 100   2.0000      -1.145618       -31.1738
 101   2.0000      -1.145396       -31.1678
 102   2.0000      -1.140143       -31.0249
 103   2.0000      -1.138986       -30.9934
 104   2.0000      -1.131252       -30.7829
 105   2.0000      -1.129358       -30.7314
 106   2.0000      -1.075617       -29.2690
 107   2.0000      -1.066782       -29.0286
 108   2.0000      -1.043466       -28.3942
 109   2.0000      -1.040634       -28.3171
 110   2.0000      -1.028837       -27.9961
 111   2.0000      -1.027447       -27.9583
 112   2.0000      -1.024156       -27.8687
 113   2.0000      -1.020099       -27.7583
 114   2.0000      -1.006192       -27.3799
 115   2.0000      -1.001256       -27.2455
 116   2.0000      -0.994172       -27.0528
 117   2.0000      -0.991342       -26.9758
 118   2.0000      -0.961157       -26.1544
 119   2.0000      -0.959530       -26.1101
 120   2.0000      -0.944068       -25.6894
 121   2.0000      -0.939785       -25.5728
 122   2.0000      -0.934208       -25.4211
 123   2.0000      -0.923323       -25.1249
 124   2.0000      -0.916894       -24.9499
 125   2.0000      -0.909558       -24.7503
 126   2.0000      -0.906289       -24.6614
 127   2.0000      -0.900663       -24.5083
 128   2.0000      -0.895208       -24.3598
 129   2.0000      -0.884153       -24.0590
 130   2.0000      -0.874888       -23.8069
 131   2.0000      -0.854926       -23.2637
 132   2.0000      -0.845574       -23.0092
 133   2.0000      -0.837897       -22.8003
 134   2.0000      -0.835040       -22.7226
 135   2.0000      -0.825363       -22.4593
 136   2.0000      -0.813516       -22.1369
 137   2.0000      -0.803236       -21.8572
 138   2.0000      -0.797165       -21.6919
 139   2.0000      -0.796533       -21.6748
 140   2.0000      -0.771054       -20.9814
 141   2.0000      -0.765135       -20.8204
 142   2.0000      -0.764766       -20.8104
 143   2.0000      -0.760636       -20.6979
 144   2.0000      -0.756898       -20.5962
 145   2.0000      -0.739850       -20.1323
 146   2.0000      -0.738919       -20.1070
 147   2.0000      -0.737117       -20.0580
 148   2.0000      -0.728813       -19.8320
 149   2.0000      -0.718808       -19.5597
 150   2.0000      -0.714660       -19.4469
 151   2.0000      -0.710060       -19.3217
 152   2.0000      -0.699239       -19.0273
 153   2.0000      -0.697564       -18.9817
 154   2.0000      -0.686308       -18.6754
 155   2.0000      -0.682708       -18.5774
 156   2.0000      -0.678930       -18.4746
 157   2.0000      -0.659485       -17.9455
 158   2.0000      -0.656125       -17.8541
 159   2.0000      -0.651066       -17.7164
 160   2.0000      -0.649191       -17.6654
 161   2.0000      -0.640618       -17.4321
 162   2.0000      -0.629380       -17.1263
 163   2.0000      -0.624325       -16.9887
 164   2.0000      -0.622031       -16.9263
 165   2.0000      -0.616661       -16.7802
 166   2.0000      -0.615518       -16.7491
 167   2.0000      -0.608839       -16.5674
 168   2.0000      -0.603546       -16.4233
 169   2.0000      -0.603268       -16.4157
 170   2.0000      -0.602556       -16.3964
 171   2.0000      -0.599652       -16.3174
 172   2.0000      -0.593700       -16.1554
 173   2.0000      -0.586664       -15.9639
 174   2.0000      -0.583791       -15.8858
 175   2.0000      -0.580527       -15.7970
 176   2.0000      -0.578769       -15.7491
 177   2.0000      -0.568504       -15.4698
 178   2.0000      -0.560180       -15.2433
 179   2.0000      -0.559385       -15.2216
 180   2.0000      -0.557125       -15.1601
 181   2.0000      -0.554669       -15.0933
 182   2.0000      -0.553308       -15.0563
 183   2.0000      -0.550741       -14.9864
 184   2.0000      -0.548199       -14.9172
 185   2.0000      -0.546481       -14.8705
 186   2.0000      -0.541193       -14.7266
 187   2.0000      -0.539419       -14.6783
 188   2.0000      -0.536635       -14.6026
 189   2.0000      -0.535634       -14.5754
 190   2.0000      -0.533369       -14.5137
 191   2.0000      -0.530127       -14.4255
 192   2.0000      -0.526919       -14.3382
 193   2.0000      -0.524107       -14.2617
 194   2.0000      -0.522304       -14.2126
 195   2.0000      -0.521052       -14.1785
 196   2.0000      -0.519720       -14.1423
 197   2.0000      -0.517896       -14.0927
 198   2.0000      -0.516438       -14.0530
 199   2.0000      -0.514753       -14.0071
 200   2.0000      -0.512938       -13.9577
 201   2.0000      -0.512652       -13.9500
 202   2.0000      -0.510764       -13.8986
 203   2.0000      -0.508376       -13.8336
 204   2.0000      -0.507646       -13.8138
 205   2.0000      -0.507014       -13.7966
 206   2.0000      -0.503957       -13.7134
 207   2.0000      -0.500792       -13.6272
 208   2.0000      -0.499680       -13.5970
 209   2.0000      -0.497595       -13.5402
 210   2.0000      -0.493446       -13.4274
 211   2.0000      -0.489638       -13.3237
 212   2.0000      -0.486223       -13.2308
 213   2.0000      -0.484056       -13.1718
 214   2.0000      -0.482016       -13.1163
 215   2.0000      -0.479425       -13.0458
 216   2.0000      -0.473085       -12.8733
 217   2.0000      -0.471814       -12.8387
 218   2.0000      -0.466040       -12.6816
 219   2.0000      -0.461043       -12.5456
 220   2.0000      -0.460610       -12.5338
 221   2.0000      -0.460110       -12.5202
 222   2.0000      -0.457705       -12.4548
 223   2.0000      -0.457062       -12.4373
 224   2.0000      -0.455906       -12.4058
 225   2.0000      -0.455688       -12.3999
 226   2.0000      -0.453735       -12.3467
 227   2.0000      -0.451525       -12.2866
 228   2.0000      -0.449538       -12.2326
 229   2.0000      -0.448720       -12.2103
 230   2.0000      -0.447896       -12.1879
 231   2.0000      -0.446674       -12.1546
 232   2.0000      -0.445439       -12.1210
 233   2.0000      -0.441790       -12.0217
 234   2.0000      -0.440503       -11.9867
 235   2.0000      -0.438676       -11.9370
 236   2.0000      -0.434556       -11.8249
 237   2.0000      -0.431822       -11.7505
 238   2.0000      -0.430253       -11.7078
 239   2.0000      -0.427919       -11.6443
 240   2.0000      -0.424700       -11.5567
 241   2.0000      -0.421953       -11.4819
 242   2.0000      -0.417422       -11.3586
 243   2.0000      -0.414924       -11.2907
 244   2.0000      -0.413690       -11.2571
 245   2.0000      -0.409630       -11.1466
 246   2.0000      -0.406752       -11.0683
 247   2.0000      -0.405387       -11.0311
 248   2.0000      -0.400694       -10.9034
 249   2.0000      -0.393789       -10.7155
 250   2.0000      -0.393293       -10.7021
 251   2.0000      -0.384236       -10.4556
 252   2.0000      -0.377996       -10.2858
 253   2.0000      -0.377789       -10.2802
 254   2.0000      -0.369048       -10.0423
 255   2.0000      -0.365105        -9.9350
 256   2.0000      -0.360428        -9.8077
 257   2.0000      -0.358778        -9.7628
 258   2.0000      -0.349228        -9.5030
 259   2.0000      -0.347657        -9.4602
 260   2.0000      -0.346329        -9.4241
 261   2.0000      -0.344032        -9.3616
 262   2.0000      -0.340070        -9.2538
 263   2.0000      -0.335696        -9.1347
 264   2.0000      -0.325890        -8.8679
 265   2.0000      -0.320013        -8.7080
 266   2.0000      -0.316549        -8.6137
 267   2.0000      -0.304539        -8.2869
 268   2.0000      -0.293176        -7.9777
 269   2.0000      -0.246271        -6.7014
 270   0.0000      -0.123941        -3.3726
 271   0.0000      -0.110750        -3.0136
 272   0.0000      -0.098234        -2.6731
 273   0.0000      -0.067275        -1.8307
 274   0.0000      -0.062571        -1.7027

MULLIKEN ATOMIC CHARGES
-----------------------
   0 C :    0.038195
   1 C :   -0.129930
   2 S :    0.193225
   3 C :   -0.163413
   4 Cl:    0.005796
   5 C :    0.079764
   6 C :    0.154808
   7 O :   -0.136482
   8 C :   -0.068173
   9 C :    0.285249
  10 C :   -0.322837
  11 C :   -0.191791
  12 N :    0.164508
  13 C :   -0.187845
  14 N :    0.162908
  15 C :   -0.006685
  16 C :   -0.157470
  17 S :    0.227536
  18 C :   -0.133821
  19 C :   -0.057199
  20 C :    0.041353
  21 C :    0.243376
  22 O :   -0.119683
  23 O :   -0.235393
  24 C :    0.263323
  25 O :   -0.129650
  26 C :    0.068009
  27 C :   -0.020806
  28 C :    0.127185
  29 N :   -0.253610
  30 C :    0.096599
  31 C :    0.012008
  32 C :    0.167709
  33 O :   -0.207826
  34 C :   -0.063907
  35 C :   -0.059983
  36 C :    0.168871
  37 O :   -0.204060
  38 N :   -0.252738
  39 C :    0.093389
  40 C :    0.010309
  41 C :    0.129543
  42 C :   -0.023497
  43 C :    0.075784
  44 C :   -0.141394
  45 S :    0.212877
  46 C :   -0.134901
  47 C :   -0.013685
  48 C :   -0.042050
  49 C :    0.261793
  50 O :   -0.129953
  51 O :   -0.232099
  52 C :    0.266287
  53 O :   -0.131613
  54 C :    0.067770
  55 C :    0.002937
  56 C :    0.027866
  57 C :   -0.119743
  58 C :    0.140698
  59 O :   -0.123559
  60 C :    0.077496
  61 C :   -0.168997
  62 S :    0.187829
  63 C :   -0.125949
  64 C :    0.021512
  65 C :    0.272659
  66 C :   -0.298801
  67 C :   -0.188354
  68 N :    0.157706
  69 C :   -0.200968
  70 N :    0.161738
  71 Cl:    0.001095
  72 H :    0.056666
  73 H :    0.033915
  74 H :    0.001500
  75 H :   -0.006996
  76 H :    0.040850
  77 H :    0.038588
  78 H :    0.023713
  79 H :    0.028639
  80 H :    0.017937
  81 H :    0.041995
  82 H :    0.038951
  83 H :    0.025031
  84 H :    0.029736
  85 H :    0.019530
  86 H :   -0.007183
  87 H :    0.000542
  88 H :   -0.002343
  89 H :    0.050593
  90 H :    0.022273
  91 H :    0.055213
Sum of atomic charges:   -0.0000000

LOEWDIN ATOMIC CHARGES
----------------------
   0 C :   -0.056803
   1 C :   -0.148293
   2 S :    0.484176
   3 C :   -0.268832
   4 Cl:    0.199448
   5 C :   -0.112116
   6 C :    0.086893
   7 O :   -0.130829
   8 C :   -0.057239
   9 C :    0.073521
  10 C :   -0.127695
  11 C :   -0.015618
  12 N :   -0.044131
  13 C :   -0.021771
  14 N :   -0.040735
  15 C :    0.036903
  16 C :   -0.151704
  17 S :    0.510180
  18 C :   -0.119018
  19 C :   -0.107362
  20 C :   -0.070013
  21 C :    0.112615
  22 O :   -0.106736
  23 O :   -0.055756
  24 C :    0.116076
  25 O :   -0.119165
  26 C :   -0.012242
  27 C :   -0.010027
  28 C :    0.070357
  29 N :    0.005628
  30 C :    0.038293
  31 C :   -0.057818
  32 C :    0.080577
  33 O :   -0.198104
  34 C :   -0.113480
  35 C :   -0.109571
  36 C :    0.081873
  37 O :   -0.193905
  38 N :    0.005927
  39 C :    0.038099
  40 C :   -0.058115
  41 C :    0.075268
  42 C :   -0.015812
  43 C :   -0.007098
  44 C :   -0.127753
  45 S :    0.504990
  46 C :   -0.130366
  47 C :   -0.092032
  48 C :   -0.102350
  49 C :    0.115611
  50 O :   -0.118051
  51 O :   -0.052525
  52 C :    0.118464
  53 O :   -0.114939
  54 C :   -0.010957
  55 C :   -0.000643
  56 C :    0.062756
  57 C :   -0.072099
  58 C :    0.079165
  59 O :   -0.130218
  60 C :   -0.118943
  61 C :   -0.272108
  62 S :    0.476951
  63 C :   -0.150039
  64 C :   -0.056352
  65 C :    0.069096
  66 C :   -0.121573
  67 C :   -0.013010
  68 N :   -0.044013
  69 C :   -0.016342
  70 N :   -0.053795
  71 Cl:    0.193043
  72 H :    0.038549
  73 H :    0.048182
  74 H :    0.036722
  75 H :    0.033126
  76 H :    0.037341
  77 H :    0.029825
  78 H :    0.029384
  79 H :    0.034175
  80 H :    0.023525
  81 H :    0.037635
  82 H :    0.029916
  83 H :    0.029595
  84 H :    0.034557
  85 H :    0.023910
  86 H :    0.032622
  87 H :    0.036436
  88 H :    0.035986
  89 H :    0.034912
  90 H :    0.047227
  91 H :    0.038564

  Mayer bond orders larger than 0.100000
B(  0-C ,  1-C ) :   1.5379 B(  0-C ,  5-C ) :   1.2264 B(  0-C ,  9-C ) :   1.0064
B(  1-C ,  2-S ) :   1.1660 B(  1-C , 72-H ) :   0.9534 B(  2-S ,  3-C ) :   1.1536
B(  3-C ,  4-Cl) :   1.1344 B(  3-C ,  5-C ) :   1.4709 B(  5-C ,  6-C ) :   0.9562
B(  6-C ,  7-O ) :   2.2340 B(  6-C ,  8-C ) :   0.9102 B(  8-C ,  9-C ) :   1.0724
B(  8-C , 15-C ) :   1.7015 B(  9-C , 10-C ) :   1.6640 B( 10-C , 11-C ) :   1.1440
B( 10-C , 13-C ) :   1.1376 B( 11-C , 12-N ) :   2.9925 B( 13-C , 14-N ) :   2.9721
B( 15-C , 16-C ) :   1.0897 B( 15-C , 73-H ) :   0.9320 B( 16-C , 17-S ) :   1.1328
B( 16-C , 20-C ) :   1.4979 B( 17-S , 18-C ) :   1.1719 B( 18-C , 19-C ) :   1.4098
B( 18-C , 26-C ) :   1.1593 B( 19-C , 20-C ) :   1.3068 B( 19-C , 24-C ) :   0.9328
B( 20-C , 21-C ) :   0.9030 B( 21-C , 22-O ) :   2.2376 B( 21-C , 23-O ) :   1.0504
B( 23-O , 24-C ) :   1.0610 B( 24-C , 25-O ) :   2.1557 B( 26-C , 27-C ) :   1.5884
B( 26-C , 74-H ) :   0.9340 B( 27-C , 28-C ) :   1.1777 B( 27-C , 75-H ) :   0.9409
B( 28-C , 29-N ) :   1.1658 B( 28-C , 35-C ) :   1.3181 B( 29-N , 30-C ) :   0.9355
B( 29-N , 32-C ) :   1.0701 B( 30-C , 31-C ) :   1.1259 B( 30-C , 76-H ) :   0.9284
B( 30-C , 77-H ) :   0.9483 B( 31-C , 78-H ) :   0.9636 B( 31-C , 79-H ) :   0.9669
B( 31-C , 80-H ) :   0.9671 B( 32-C , 33-O ) :   2.0241 B( 32-C , 34-C ) :   0.9801
B( 33-O , 87-H ) :   0.1162 B( 34-C , 35-C ) :   1.2754 B( 34-C , 41-C ) :   1.3135
B( 35-C , 36-C ) :   0.9761 B( 36-C , 37-O ) :   2.0292 B( 36-C , 38-N ) :   1.0682
B( 37-O , 74-H ) :   0.1142 B( 38-N , 39-C ) :   0.9359 B( 38-N , 41-C ) :   1.1692
B( 39-C , 40-C ) :   1.1240 B( 39-C , 81-H ) :   0.9290 B( 39-C , 82-H ) :   0.9486
B( 40-C , 83-H ) :   0.9635 B( 40-C , 84-H ) :   0.9674 B( 40-C , 85-H ) :   0.9670
B( 41-C , 42-C ) :   1.1765 B( 42-C , 43-C ) :   1.5919 B( 42-C , 86-H ) :   0.9416
B( 43-C , 44-C ) :   1.1561 B( 43-C , 87-H ) :   0.9318 B( 44-C , 45-S ) :   1.1589
B( 44-C , 48-C ) :   1.4306 B( 45-S , 46-C ) :   1.1365 B( 46-C , 47-C ) :   1.4631
B( 46-C , 54-C ) :   1.1326 B( 47-C , 48-C ) :   1.2870 B( 47-C , 52-C ) :   0.9249
B( 48-C , 49-C ) :   0.9349 B( 49-C , 50-O ) :   2.1534 B( 49-C , 51-O ) :   1.0562
B( 51-O , 52-C ) :   1.0644 B( 52-C , 53-O ) :   2.1450 B( 53-O , 89-H ) :   0.1012
B( 54-C , 55-C ) :   1.6824 B( 54-C , 88-H ) :   0.9670 B( 55-C , 56-C ) :   1.1104
B( 55-C , 89-H ) :   0.9190 B( 56-C , 57-C ) :   1.6668 B( 56-C , 90-H ) :   0.9607
B( 57-C , 58-C ) :   0.9302 B( 57-C , 65-C ) :   1.0304 B( 58-C , 59-O ) :   2.2896
B( 58-C , 60-C ) :   0.9268 B( 60-C , 61-C ) :   1.4837 B( 60-C , 64-C ) :   1.2201
B( 61-C , 62-S ) :   1.1541 B( 61-C , 71-Cl) :   1.1300 B( 62-S , 63-C ) :   1.1598
B( 63-C , 64-C ) :   1.5523 B( 63-C , 91-H ) :   0.9555 B( 64-C , 65-C ) :   1.0126
B( 65-C , 66-C ) :   1.6698 B( 66-C , 67-C ) :   1.1386 B( 66-C , 69-C ) :   1.1571
B( 67-C , 68-N ) :   2.9990 B( 69-C , 70-N ) :   2.9863

-----------------------------------------------------------------------------
         ABSORPTION SPECTRUM VIA TRANSITION ELECTRIC DIPOLE MOMENTS
-----------------------------------------------------------------------------
State   Energy  Wavelength   fosc         T2         TX        TY        TZ
        (cm-1)    (nm)                  (au**2)     (au)      (au)      (au)
-----------------------------------------------------------------------------
   0   12175.3    821.3   1.229279202  33.23901  -3.16799   2.73266  -3.96679
   1   17176.9    582.2   0.087405120   1.67520   0.44635   1.19031  -0.24315
   2   18889.5    529.4   0.126127587   2.19819   1.13895  -0.76220  -0.56572
   3   22282.9    448.8   0.068510171   1.01218  -0.31389  -0.88911   0.35092
   4   23083.7    433.2   0.579493384   8.26455  -1.72506   1.96578  -1.19350
   5   23626.1    423.3   0.048626091   0.67757  -0.59873  -0.56475   0.01179
   6   24948.8    400.8   0.001291579   0.01704  -0.07890  -0.09852  -0.03332
   7   25880.8    386.4   0.219292032   2.78947   1.43251  -0.48745   0.70695
   8   26025.6    384.2   0.035196266   0.44522  -0.58503   0.30322  -0.10496
   9   26689.4    374.7   0.066629965   0.82188   0.35845  -0.62689   0.54809
  10   26894.6    371.8   0.226262965   2.76965   1.32942  -0.35666   0.93545
  11   27098.6    369.0   0.013209961   0.16048  -0.30795   0.15945  -0.20056
  12   28083.9    356.1   0.005632579   0.06603   0.18178   0.05663  -0.17255
  13   28282.5    353.6   0.023216829   0.27025   0.15323   0.29555   0.39927
  14   29012.7    344.7   0.062398153   0.70804  -0.82834   0.13638   0.05742
  15   29368.9    340.5   0.105966042   1.18783   0.89228  -0.62529  -0.02592
  16   30388.4    329.1   0.000483640   0.00524   0.04842   0.01313   0.05217
  17   30782.3    324.9   0.118649030   1.26893   0.50377   0.42438   0.91381
  18   31321.0    319.3   0.036870377   0.38754   0.49966  -0.36221   0.08178
  19   31829.5    314.2   0.371528655   3.84272  -1.52294   0.98217  -0.74748
  20   32281.2    309.8   0.039242959   0.40021   0.57444  -0.02680   0.26366
  21   33194.6    301.3   0.009137032   0.09062   0.26317  -0.10109  -0.10555
  22   33559.3    298.0   0.028682339   0.28137  -0.20522   0.40706   0.27121
  23   34092.6    293.3   0.005601105   0.05409  -0.09689   0.00156   0.21142
  24   34332.7    291.3   0.011598014   0.11121   0.07002  -0.17951  -0.27219
  25   34624.2    288.8   0.004687188   0.04457  -0.05925   0.19792   0.04339
  26   34770.8    287.6   0.016349243   0.15480   0.08876  -0.34563  -0.16569
  27   35073.2    285.1   0.013899804   0.13047   0.12940  -0.16793  -0.29245
  28   35140.0    284.6   0.398830245   3.73647  -1.79762   0.63054  -0.32779
  29   35286.2    283.4   0.087003205   0.81172  -0.38362   0.67980  -0.44992
  30   35633.7    280.6   0.005698371   0.05265  -0.15955   0.00283  -0.16487
  31   35870.4    278.8   0.015778626   0.14481  -0.08664   0.27093  -0.25279
  32   36056.3    277.3   0.341882664   3.12156   0.24270  -1.32259  -1.14604
  33   36559.7    273.5   0.113101170   1.01845  -0.30763   0.13738   0.95128
  34   36739.5    272.2   0.062069865   0.55619  -0.13712   0.42301  -0.59871
  35   36766.8    272.0   0.051849870   0.46427   0.20394  -0.64831  -0.04862
  36   37222.0    268.7   0.142222250   1.25789   0.33677  -1.06465   0.10488
  37   37409.2    267.3   0.157945408   1.38997   0.85135  -0.23051   0.78233
  38   37775.5    264.7   0.000251400   0.00219  -0.02721  -0.01706  -0.03405
  39   37953.2    263.5   0.025798969   0.22378  -0.18364   0.12211  -0.41851
  40   38020.8    263.0   0.100121331   0.86692   0.25394  -0.65650  -0.60946
  41   38121.5    262.3   0.173114094   1.49499  -0.43847   0.48226  -1.03448
  42   38220.6    261.6   0.077688454   0.66917   0.37198  -0.55336   0.47391
  43   38510.1    259.7   0.094641569   0.80906   0.62594  -0.02961  -0.64528
  44   38718.3    258.3   0.043825567   0.37264  -0.60828  -0.01750  -0.04823
  45   39058.1    256.0   0.005286987   0.04456   0.09900   0.01155   0.18608
  46   39155.8    255.4   0.045459965   0.38222   0.55935  -0.15936   0.20962
  47   39340.1    254.2   0.014895996   0.12465  -0.18808  -0.08078   0.28767
  48   39489.7    253.2   0.045012166   0.37525   0.54537  -0.26394   0.09036
  49   39655.8    252.2   0.032946246   0.27351   0.01188  -0.29949  -0.42857
  50   39956.0    250.3   0.112040102   0.92314   0.79745  -0.42035   0.33245
  51   40036.7    249.8   0.029773828   0.24482  -0.40003   0.24954  -0.15011
  52   40166.9    249.0   0.038197812   0.31307  -0.52920  -0.10715  -0.14674
  53   40264.4    248.4   0.011013305   0.09005   0.29940   0.01747  -0.00995

FINAL SINGLE POINT ENERGY     -5506.765357265226

DIPOLE MOMENT
-------------
                                X             Y             Z
Electronic contribution:     -3.51065     -21.51172     -10.76082
Nuclear contribution   :      5.13946      20.48695      10.61164
                        -----------------------------------------
Total Dipole Moment    :      1.62881      -1.02478      -0.14917
                        -----------------------------------------
Magnitude (a.u.)       :      1.93014
Magnitude (Debye)      :      4.90602

Rotational constants in cm-1:     0.002215     0.000177     0.000175
Rotational constants in MHz :    66.407614     5.310741     5.251523

                             ****ORCA TERMINATED NORMALLY****
TOTAL RUN TIME: 0 days 0 hours 8 minutes 21 seconds 816 msec
