                         Program Version 4.2.0 -  RELEASE  -
|  1> # ORCA input file
|  2> # SCF done       -174.618314716905          0.000767157504
|  3> ! CAM-B3LYP def2-SVP def2/J RIJCOSX Grid4 TightSCF
|  4> %maxcore 5000
|  5> %tddft
|  6>     Mode sTDDFT
|  7>     Ethresh 5.0
|  8>     maxcore 5000
|  9> end
| 10>
| 11> %pal
| 12>   nprocs 6
| 13>   end
| 14> * xyz 0 1
| 15>    C        5.62628         4.13011        -1.47662
| 16>    C        5.31590         5.34886        -0.95712
| 17>    S        5.39492         5.33120         0.76628
| 18>    C        5.85584         3.64550         0.79280
| 19>   Cl        6.13650         2.82946         2.24982
| 20>    C        5.93511         3.15304        -0.47585
| 21>    C        6.25724         1.86758        -1.10541
| 22>    O        6.59173         0.84339        -0.55803
| 23>    C        6.16349         2.13732        -2.57731
| 24>    C        5.72571         3.51310        -2.78256
| 25>    C        5.37561         4.11569        -3.95835
| 26>    C        4.93013         5.45559        -3.98752
| 27>    N        4.57295         6.54486        -4.02910
| 28>    C        5.36534         3.52433        -5.23628
| 29>    N        5.31087         3.13915        -6.31691
| 30>    C        6.57761         1.29529        -3.55315
| 31>    C        6.89988        -0.10548        -3.40065
| 32>    C        7.94973        -0.65276        -4.13056
| 33>    C        8.30184        -1.98945        -4.00629
| 34>    N        9.45017        -2.38538        -4.77586
| 35>    O        9.71996        -1.71379        -5.75215
| 36>    O       10.10573        -3.34818        -4.42592
| 37>    C        7.54863        -2.87214        -3.19328
| 38>    C        6.46481        -2.30228        -2.50492
| 39>    C        6.15552        -0.96713        -2.58244
| 40>    C        7.82521        -4.28230        -3.13864
| 41>    C        7.09509        -5.22499        -2.50038
| 42>    C        7.40816        -6.61548        -2.50054
| 43>    S        6.69240        -7.60233        -1.25149
| 44>    C        7.62130        -8.96955        -1.71192
| 45>    C        8.44401        -8.70718        -2.77420
| 46>    C        8.27623        -7.37465        -3.27845
| 47>    N        8.93544        -6.97370        -4.42717
| 48>    C       10.11823        -7.74762        -4.74622
| 49>    C        9.73932        -9.22978        -4.72942
| 50>    N        9.34209        -9.58864        -3.37807
| 51>    C       10.05068       -10.60309        -2.75330
| 52>    O       10.75813       -11.34429        -3.37604
| 53>    O        9.91653       -10.69737        -1.42797
| 54>    C        8.37314        -6.16998        -5.37585
| 55>    C        7.05221        -5.92914        -5.51461
| 56>    C        6.51612        -4.92396        -6.36721
| 57>    S        7.47273        -3.57287        -6.87556
| 58>    C        6.10015        -2.79845        -7.60344
| 59>    C        6.30722        -1.52762        -8.23753
| 60>    O        5.44669        -0.79872        -8.68866
| 61>    C        4.96445        -3.60482        -7.50007
| 62>    C        5.21805        -4.80217        -6.81599
| 63>    C        3.67890        -3.27532        -8.07963
| 64>    C        3.04211        -2.09521        -7.99542
| 65>    C        1.94698        -1.73726        -8.96096
| 66>    O        1.31233        -2.50422        -9.64000
| 67>    C        1.90570        -0.27217        -8.91111
| 68>    C        1.31777         0.74046        -9.61007
| 69>    S        1.84622         2.29256        -9.00159
| 70>    C        2.84387         1.56339        -7.80177
| 71>    C        2.77312         0.20755        -7.87193
| 72>    C        3.35589        -0.92112        -7.18855
| 73>    C        3.87051        -0.91185        -5.92182
| 74>    C        3.91976         0.25433        -5.13570
| 75>    N        3.94963         1.16150        -4.43242
| 76>    C        4.28945        -2.05503        -5.21682
| 77>    N        4.62180        -2.94365        -4.56869
| 78>   Cl        0.22715         0.62375       -10.90009
| 79>    H        5.05124         6.25670        -1.46189
| 80>    H        6.71693         1.69450        -4.55139
| 81>    H        8.54343        -0.02546        -4.78055
| 82>    H        5.85074        -2.93623        -1.88859
| 83>    H        5.30363        -0.58463        -2.04530
| 84>    H        8.72019        -4.60111        -3.64490
| 85>    H        6.23562        -4.95830        -1.90230
| 86>    H        7.45291        -9.89904        -1.20435
| 87>    H       10.48779        -7.45633        -5.72819
| 88>    H       10.89754        -7.55708        -4.00053
| 89>    H       10.58089        -9.86723        -5.00325
| 90>    H        8.90961        -9.41092        -5.42072
| 91>    H        9.47240        -9.93246        -1.03290
| 92>    H        9.08456        -5.69495        -6.04049
| 93>    H        6.33149        -6.48972        -4.93716
| 94>    H        7.37288        -1.23286        -8.26694
| 95>    H        4.45974        -5.53745        -6.61548
| 96>    H        3.21741        -4.04311        -8.69167
| 97>    H        3.45445         2.17862        -7.16697
| 98> *
| 99>
|100>                          ****END OF INPUT****

CARTESIAN COORDINATES (ANGSTROEM)
---------------------------------
  C      5.626280    4.130110   -1.476620
  C      5.315900    5.348860   -0.957120
  S      5.394920    5.331200    0.766280
  C      5.855840    3.645500    0.792800
  Cl     6.136500    2.829460    2.249820
  C      5.935110    3.153040   -0.475850
  C      6.257240    1.867580   -1.105410
  O      6.591730    0.843390   -0.558030
  C      6.163490    2.137320   -2.577310
  C      5.725710    3.513100   -2.782560
  C      5.375610    4.115690   -3.958350
  C      4.930130    5.455590   -3.987520
  N      4.572950    6.544860   -4.029100
  C      5.365340    3.524330   -5.236280
  N      5.310870    3.139150   -6.316910
  C      6.577610    1.295290   -3.553150
  C      6.899880   -0.105480   -3.400650
  C      7.949730   -0.652760   -4.130560
  C      8.301840   -1.989450   -4.006290
  N      9.450170   -2.385380   -4.775860
  O      9.719960   -1.713790   -5.752150
  O     10.105730   -3.348180   -4.425920
  C      7.548630   -2.872140   -3.193280
  C      6.464810   -2.302280   -2.504920
  C      6.155520   -0.967130   -2.582440
  C      7.825210   -4.282300   -3.138640
  C      7.095090   -5.224990   -2.500380
  C      7.408160   -6.615480   -2.500540
  S      6.692400   -7.602330   -1.251490
  C      7.621300   -8.969550   -1.711920
  C      8.444010   -8.707180   -2.774200
  C      8.276230   -7.374650   -3.278450
  N      8.935440   -6.973700   -4.427170
  C     10.118230   -7.747620   -4.746220
  C      9.739320   -9.229780   -4.729420
  N      9.342090   -9.588640   -3.378070
  C     10.050680  -10.603090   -2.753300
  O     10.758130  -11.344290   -3.376040
  O      9.916530  -10.697370   -1.427970
  C      8.373140   -6.169980   -5.375850
  C      7.052210   -5.929140   -5.514610
  C      6.516120   -4.923960   -6.367210
  S      7.472730   -3.572870   -6.875560
  C      6.100150   -2.798450   -7.603440
  C      6.307220   -1.527620   -8.237530
  O      5.446690   -0.798720   -8.688660
  C      4.964450   -3.604820   -7.500070
  C      5.218050   -4.802170   -6.815990
  C      3.678900   -3.275320   -8.079630
  C      3.042110   -2.095210   -7.995420
  C      1.946980   -1.737260   -8.960960
  O      1.312330   -2.504220   -9.640000
  C      1.905700   -0.272170   -8.911110
  C      1.317770    0.740460   -9.610070
  S      1.846220    2.292560   -9.001590
  C      2.843870    1.563390   -7.801770
  C      2.773120    0.207550   -7.871930
  C      3.355890   -0.921120   -7.188550
  C      3.870510   -0.911850   -5.921820
  C      3.919760    0.254330   -5.135700
  N      3.949630    1.161500   -4.432420
  C      4.289450   -2.055030   -5.216820
  N      4.621800   -2.943650   -4.568690
  Cl     0.227150    0.623750  -10.900090
  H      5.051240    6.256700   -1.461890
  H      6.716930    1.694500   -4.551390
  H      8.543430   -0.025460   -4.780550
  H      5.850740   -2.936230   -1.888590
  H      5.303630   -0.584630   -2.045300
  H      8.720190   -4.601110   -3.644900
  H      6.235620   -4.958300   -1.902300
  H      7.452910   -9.899040   -1.204350
  H     10.487790   -7.456330   -5.728190
  H     10.897540   -7.557080   -4.000530
  H     10.580890   -9.867230   -5.003250
  H      8.909610   -9.410920   -5.420720
  H      9.472400   -9.932460   -1.032900
  H      9.084560   -5.694950   -6.040490
  H      6.331490   -6.489720   -4.937160
  H      7.372880   -1.232860   -8.266940
  H      4.459740   -5.537450   -6.615480
  H      3.217410   -4.043110   -8.691670
  H      3.454450    2.178620   -7.166970

 Total Charge           Charge          ....    0
 Multiplicity           Mult            ....    1
 Number of Electrons    NEL             ....  486
 Basis Dimension        Dim             .... 1015

ORBITAL ENERGIES
----------------

  NO   OCC          E(Eh)            E(eV)
   0   2.0000    -101.618416     -2765.1777
   1   2.0000    -101.609320     -2764.9302
   2   2.0000     -88.994581     -2421.6657
   3   2.0000     -88.984011     -2421.3780
   4   2.0000     -88.972198     -2421.0566
   5   2.0000     -88.970973     -2421.0233
   6   2.0000     -19.265777      -524.2484
   7   2.0000     -19.252708      -523.8928
   8   2.0000     -19.250381      -523.8295
   9   2.0000     -19.221662      -523.0480
  10   2.0000     -19.215497      -522.8803
  11   2.0000     -19.212795      -522.8067
  12   2.0000     -19.191388      -522.2242
  13   2.0000     -14.656658      -398.8279
  14   2.0000     -14.471281      -393.7836
  15   2.0000     -14.466075      -393.6419
  16   2.0000     -14.423212      -392.4755
  17   2.0000     -14.422215      -392.4484
  18   2.0000     -14.420590      -392.4042
  19   2.0000     -14.419173      -392.3656
  20   2.0000     -10.430076      -283.8168
  21   2.0000     -10.379414      -282.4382
  22   2.0000     -10.377001      -282.3726
  23   2.0000     -10.372121      -282.2398
  24   2.0000     -10.366776      -282.0943
  25   2.0000     -10.362527      -281.9787
  26   2.0000     -10.348366      -281.5933
  27   2.0000     -10.347430      -281.5679
  28   2.0000     -10.347305      -281.5645
  29   2.0000     -10.343944      -281.4730
  30   2.0000     -10.342885      -281.4442
  31   2.0000     -10.337356      -281.2938
  32   2.0000     -10.335750      -281.2500
  33   2.0000     -10.330356      -281.1033
  34   2.0000     -10.330217      -281.0995
  35   2.0000     -10.329581      -281.0822
  36   2.0000     -10.328572      -281.0547
  37   2.0000     -10.327329      -281.0209
  38   2.0000     -10.324762      -280.9511
  39   2.0000     -10.323677      -280.9215
  40   2.0000     -10.322798      -280.8976
  41   2.0000     -10.322773      -280.8969
  42   2.0000     -10.321651      -280.8664
  43   2.0000     -10.319172      -280.7989
  44   2.0000     -10.317634      -280.7571
  45   2.0000     -10.316039      -280.7137
  46   2.0000     -10.314464      -280.6708
  47   2.0000     -10.314009      -280.6585
  48   2.0000     -10.313085      -280.6333
  49   2.0000     -10.309084      -280.5244
  50   2.0000     -10.306366      -280.4505
  51   2.0000     -10.305134      -280.4169
  52   2.0000     -10.304807      -280.4081
  53   2.0000     -10.303581      -280.3747
  54   2.0000     -10.302959      -280.3578
  55   2.0000     -10.301560      -280.3197
  56   2.0000     -10.300536      -280.2918
  57   2.0000     -10.298701      -280.2419
  58   2.0000     -10.295842      -280.1641
  59   2.0000     -10.292372      -280.0697
  60   2.0000     -10.289844      -280.0009
  61   2.0000     -10.284357      -279.8516
  62   2.0000     -10.284289      -279.8497
  63   2.0000     -10.283880      -279.8386
  64   2.0000      -9.573206      -260.5002
  65   2.0000      -9.564115      -260.2528
  66   2.0000      -8.090269      -220.1474
  67   2.0000      -8.079662      -219.8588
  68   2.0000      -8.068048      -219.5427
  69   2.0000      -8.066206      -219.4926
  70   2.0000      -7.343839      -199.8360
  71   2.0000      -7.334699      -199.5873
  72   2.0000      -7.333236      -199.5475
  73   2.0000      -7.332713      -199.5333
  74   2.0000      -7.324173      -199.3009
  75   2.0000      -7.323661      -199.2869
  76   2.0000      -6.059649      -164.8914
  77   2.0000      -6.055038      -164.7660
  78   2.0000      -6.052545      -164.6981
  79   2.0000      -6.048982      -164.6012
  80   2.0000      -6.044401      -164.4765
  81   2.0000      -6.042032      -164.4121
  82   2.0000      -6.037449      -164.2873
  83   2.0000      -6.035289      -164.2286
  84   2.0000      -6.033352      -164.1759
  85   2.0000      -6.031294      -164.1199
  86   2.0000      -6.029832      -164.0801
  87   2.0000      -6.028569      -164.0457
  88   2.0000      -1.331448       -36.2306
  89   2.0000      -1.200899       -32.6781
  90   2.0000      -1.148347       -31.2481
  91   2.0000      -1.139462       -31.0063
  92   2.0000      -1.132645       -30.8208
  93   2.0000      -1.125132       -30.6164
  94   2.0000      -1.108373       -30.1604
  95   2.0000      -1.099518       -29.9194
  96   2.0000      -1.048836       -28.5403
  97   2.0000      -1.038916       -28.2704
  98   2.0000      -1.030855       -28.0510
  99   2.0000      -1.020407       -27.7667
 100   2.0000      -1.017434       -27.6858
 101   2.0000      -1.004961       -27.3464
 102   2.0000      -1.000460       -27.2239
 103   2.0000      -0.996986       -27.1294
 104   2.0000      -0.995739       -27.0954
 105   2.0000      -0.992616       -27.0105
 106   2.0000      -0.987648       -26.8753
 107   2.0000      -0.982679       -26.7400
 108   2.0000      -0.955797       -26.0085
 109   2.0000      -0.947510       -25.7830
 110   2.0000      -0.927963       -25.2511
 111   2.0000      -0.914855       -24.8945
 112   2.0000      -0.910004       -24.7625
 113   2.0000      -0.905406       -24.6373
 114   2.0000      -0.902560       -24.5599
 115   2.0000      -0.885806       -24.1040
 116   2.0000      -0.883289       -24.0355
 117   2.0000      -0.871936       -23.7266
 118   2.0000      -0.857017       -23.3206
 119   2.0000      -0.855135       -23.2694
 120   2.0000      -0.837380       -22.7863
 121   2.0000      -0.833618       -22.6839
 122   2.0000      -0.824734       -22.4422
 123   2.0000      -0.823195       -22.4003
 124   2.0000      -0.806710       -21.9517
 125   2.0000      -0.792657       -21.5693
 126   2.0000      -0.785376       -21.3712
 127   2.0000      -0.773921       -21.0595
 128   2.0000      -0.756532       -20.5863
 129   2.0000      -0.755249       -20.5514
 130   2.0000      -0.749811       -20.4034
 131   2.0000      -0.743728       -20.2379
 132   2.0000      -0.734090       -19.9756
 133   2.0000      -0.725518       -19.7423
 134   2.0000      -0.713262       -19.4089
 135   2.0000      -0.705885       -19.2081
 136   2.0000      -0.700113       -19.0510
 137   2.0000      -0.693366       -18.8674
 138   2.0000      -0.689840       -18.7715
 139   2.0000      -0.681294       -18.5390
 140   2.0000      -0.677928       -18.4474
 141   2.0000      -0.669270       -18.2118
 142   2.0000      -0.667939       -18.1756
 143   2.0000      -0.657972       -17.9043
 144   2.0000      -0.651522       -17.7288
 145   2.0000      -0.640996       -17.4424
 146   2.0000      -0.638069       -17.3627
 147   2.0000      -0.634343       -17.2614
 148   2.0000      -0.627326       -17.0704
 149   2.0000      -0.615423       -16.7465
 150   2.0000      -0.614213       -16.7136
 151   2.0000      -0.608245       -16.5512
 152   2.0000      -0.607829       -16.5399
 153   2.0000      -0.604636       -16.4530
 154   2.0000      -0.602091       -16.3837
 155   2.0000      -0.598470       -16.2852
 156   2.0000      -0.595496       -16.2043
 157   2.0000      -0.593578       -16.1521
 158   2.0000      -0.586398       -15.9567
 159   2.0000      -0.577088       -15.7034
 160   2.0000      -0.567347       -15.4383
 161   2.0000      -0.566249       -15.4084
 162   2.0000      -0.563808       -15.3420
 163   2.0000      -0.561585       -15.2815
 164   2.0000      -0.553813       -15.0700
 165   2.0000      -0.552016       -15.0211
 166   2.0000      -0.543750       -14.7962
 167   2.0000      -0.539992       -14.6939
 168   2.0000      -0.535765       -14.5789
 169   2.0000      -0.534495       -14.5444
 170   2.0000      -0.529982       -14.4215
 171   2.0000      -0.528473       -14.3805
 172   2.0000      -0.526929       -14.3385
 173   2.0000      -0.524944       -14.2844
 174   2.0000      -0.522191       -14.2095
 175   2.0000      -0.520577       -14.1656
 176   2.0000      -0.519403       -14.1337
 177   2.0000      -0.517000       -14.0683
 178   2.0000      -0.513996       -13.9866
 179   2.0000      -0.510757       -13.8984
 180   2.0000      -0.508972       -13.8498
 181   2.0000      -0.505032       -13.7426
 182   2.0000      -0.500472       -13.6185
 183   2.0000      -0.498676       -13.5697
 184   2.0000      -0.498200       -13.5567
 185   2.0000      -0.495436       -13.4815
 186   2.0000      -0.492845       -13.4110
 187   2.0000      -0.491992       -13.3878
 188   2.0000      -0.490674       -13.3519
 189   2.0000      -0.488811       -13.3012
 190   2.0000      -0.484771       -13.1913
 191   2.0000      -0.482313       -13.1244
 192   2.0000      -0.477268       -12.9871
 193   2.0000      -0.475280       -12.9330
 194   2.0000      -0.468729       -12.7548
 195   2.0000      -0.467352       -12.7173
 196   2.0000      -0.462668       -12.5898
 197   2.0000      -0.460410       -12.5284
 198   2.0000      -0.456950       -12.4342
 199   2.0000      -0.456194       -12.4137
 200   2.0000      -0.454206       -12.3596
 201   2.0000      -0.452917       -12.3245
 202   2.0000      -0.450880       -12.2691
 203   2.0000      -0.449117       -12.2211
 204   2.0000      -0.447661       -12.1815
 205   2.0000      -0.443078       -12.0568
 206   2.0000      -0.442247       -12.0342
 207   2.0000      -0.438472       -11.9314
 208   2.0000      -0.437827       -11.9139
 209   2.0000      -0.434718       -11.8293
 210   2.0000      -0.433905       -11.8072
 211   2.0000      -0.431790       -11.7496
 212   2.0000      -0.429851       -11.6968
 213   2.0000      -0.426641       -11.6095
 214   2.0000      -0.420637       -11.4461
 215   2.0000      -0.414496       -11.2790
 216   2.0000      -0.412074       -11.2131
 217   2.0000      -0.406345       -11.0572
 218   2.0000      -0.404374       -11.0036
 219   2.0000      -0.403409       -10.9773
 220   2.0000      -0.401147       -10.9158
 221   2.0000      -0.395424       -10.7600
 222   2.0000      -0.394291       -10.7292
 223   2.0000      -0.389063       -10.5869
 224   2.0000      -0.385553       -10.4914
 225   2.0000      -0.378449       -10.2981
 226   2.0000      -0.371366       -10.1054
 227   2.0000      -0.362907        -9.8752
 228   2.0000      -0.361804        -9.8452
 229   2.0000      -0.351559        -9.5664
 230   2.0000      -0.347699        -9.4614
 231   2.0000      -0.340656        -9.2697
 232   2.0000      -0.337768        -9.1911
 233   2.0000      -0.337087        -9.1726
 234   2.0000      -0.331980        -9.0336
 235   2.0000      -0.326600        -8.8872
 236   2.0000      -0.323763        -8.8100
 237   2.0000      -0.315110        -8.5746
 238   2.0000      -0.311298        -8.4708
 239   2.0000      -0.303896        -8.2694
 240   2.0000      -0.300986        -8.1903
 241   2.0000      -0.275306        -7.4915
 242   2.0000      -0.259558        -7.0629
 243   0.0000      -0.098363        -2.6766
 244   0.0000      -0.086566        -2.3556
 245   0.0000      -0.067986        -1.8500
 246   0.0000      -0.051090        -1.3902
 247   0.0000      -0.047655        -1.2968

MULLIKEN ATOMIC CHARGES
-----------------------
   0 C :    0.028176
   1 C :   -0.127331
   2 S :    0.186652
   3 C :   -0.172642
   4 Cl:   -0.001594
   5 C :    0.073319
   6 C :    0.144978
   7 O :   -0.127721
   8 C :   -0.072383
   9 C :    0.305303
  10 C :   -0.328019
  11 C :   -0.207695
  12 N :    0.158105
  13 C :   -0.140706
  14 N :    0.134980
  15 C :   -0.024716
  16 C :    0.064603
  17 C :   -0.075770
  18 C :    0.131379
  19 N :    0.247218
  20 O :   -0.236554
  21 O :   -0.237229
  22 C :    0.096363
  23 C :   -0.014527
  24 C :    0.105775
  25 C :   -0.038423
  26 C :    0.075186
  27 C :   -0.225754
  28 S :    0.140732
  29 C :   -0.234803
  30 C :    0.151578
  31 C :    0.154061
  32 N :   -0.201523
  33 C :    0.140463
  34 C :    0.143259
  35 N :   -0.281642
  36 C :    0.217216
  37 O :   -0.214537
  38 O :   -0.168883
  39 C :    0.009556
  40 C :    0.044972
  41 C :   -0.027607
  42 S :    0.124515
  43 C :   -0.185561
  44 C :    0.196267
  45 O :   -0.209940
  46 C :    0.066621
  47 C :    0.011950
  48 C :    0.005723
  49 C :   -0.109667
  50 C :    0.134535
  51 O :   -0.122704
  52 C :    0.094053
  53 C :   -0.177991
  54 S :    0.187292
  55 C :   -0.093621
  56 C :    0.026049
  57 C :    0.301336
  58 C :   -0.337136
  59 C :   -0.159500
  60 N :    0.130212
  61 C :   -0.169561
  62 N :    0.157554
  63 Cl:   -0.005731
  64 H :    0.053877
  65 H :    0.035321
  66 H :    0.004496
  67 H :   -0.014226
  68 H :   -0.006716
  69 H :    0.026451
  70 H :   -0.016646
  71 H :    0.035756
  72 H :    0.033546
  73 H :    0.035556
  74 H :    0.060856
  75 H :    0.031526
  76 H :    0.185443
  77 H :    0.021361
  78 H :    0.016673
  79 H :   -0.004066
  80 H :   -0.017779
  81 H :    0.032300
  82 H :    0.027761
Sum of atomic charges:   -0.0000000

LOEWDIN ATOMIC CHARGES
----------------------
   0 C :   -0.058151
   1 C :   -0.148745
   2 S :    0.476251
   3 C :   -0.273087
   4 Cl:    0.191217
   5 C :   -0.116005
   6 C :    0.080947
   7 O :   -0.127680
   8 C :   -0.079444
   9 C :    0.083471
  10 C :   -0.131552
  11 C :   -0.014641
  12 N :   -0.052778
  13 C :   -0.003370
  14 N :   -0.061370
  15 C :    0.090399
  16 C :   -0.043287
  17 C :    0.016766
  18 C :   -0.042442
  19 N :    0.287312
  20 O :   -0.206465
  21 O :   -0.202716
  22 C :    0.016788
  23 C :    0.008956
  24 C :    0.045425
  25 C :   -0.018318
  26 C :   -0.022695
  27 C :   -0.188891
  28 S :    0.450064
  29 C :   -0.238916
  30 C :   -0.028218
  31 C :   -0.024822
  32 N :   -0.002252
  33 C :    0.047789
  34 C :    0.047175
  35 N :   -0.059648
  36 C :    0.082596
  37 O :   -0.188541
  38 O :   -0.028735
  39 C :    0.028692
  40 C :   -0.090818
  41 C :   -0.126456
  42 S :    0.471533
  43 C :   -0.242454
  44 C :    0.082062
  45 O :   -0.151551
  46 C :   -0.030762
  47 C :   -0.050227
  48 C :    0.060865
  49 C :   -0.055347
  50 C :    0.085738
  51 O :   -0.128693
  52 C :   -0.113681
  53 C :   -0.275431
  54 S :    0.481983
  55 C :   -0.134509
  56 C :   -0.053670
  57 C :    0.093233
  58 C :   -0.143775
  59 C :    0.003701
  60 N :   -0.063360
  61 C :   -0.010449
  62 N :   -0.057186
  63 Cl:    0.187584
  64 H :    0.037792
  65 H :    0.045851
  66 H :    0.039734
  67 H :    0.033984
  68 H :    0.036849
  69 H :    0.023924
  70 H :    0.027207
  71 H :    0.028004
  72 H :    0.036994
  73 H :    0.030641
  74 H :    0.042583
  75 H :    0.027431
  76 H :    0.082692
  77 H :    0.022506
  78 H :    0.039663
  79 H :    0.001359
  80 H :    0.032711
  81 H :    0.050379
  82 H :    0.030286

  Mayer bond orders larger than 0.100000
B(  0-C ,  1-C ) :   1.5419 B(  0-C ,  5-C ) :   1.2228 B(  0-C ,  9-C ) :   1.0009
B(  1-C ,  2-S ) :   1.1624 B(  1-C , 64-H ) :   0.9537 B(  2-S ,  3-C ) :   1.1515
B(  3-C ,  4-Cl) :   1.1270 B(  3-C ,  5-C ) :   1.4766 B(  5-C ,  6-C ) :   0.9490
B(  6-C ,  7-O ) :   2.2423 B(  6-C ,  8-C ) :   0.9283 B(  8-C ,  9-C ) :   1.0575
B(  8-C , 15-C ) :   1.6871 B(  9-C , 10-C ) :   1.6633 B( 10-C , 11-C ) :   1.1394
B( 10-C , 13-C ) :   1.1605 B( 11-C , 12-N ) :   2.9961 B( 13-C , 14-N ) :   2.8650
B( 15-C , 16-C ) :   1.0518 B( 15-C , 65-H ) :   0.9488 B( 16-C , 17-C ) :   1.2962
B( 16-C , 24-C ) :   1.3076 B( 17-C , 18-C ) :   1.3524 B( 17-C , 66-H ) :   1.0009
B( 18-C , 19-N ) :   0.8865 B( 18-C , 22-C ) :   1.3274 B( 19-N , 20-O ) :   1.5497
B( 19-N , 21-O ) :   1.5094 B( 20-O , 21-O ) :   0.2512 B( 22-C , 23-C ) :   1.3215
B( 22-C , 25-C ) :   1.1204 B( 23-C , 24-C ) :   1.4328 B( 23-C , 67-H ) :   0.9838
B( 24-C , 68-H ) :   0.9821 B( 25-C , 26-C ) :   1.6601 B( 25-C , 69-H ) :   0.9528
B( 26-C , 27-C ) :   1.1465 B( 26-C , 70-H ) :   0.9444 B( 27-C , 28-S ) :   1.1346
B( 27-C , 31-C ) :   1.4453 B( 28-S , 29-C ) :   1.1280 B( 29-C , 30-C ) :   1.4992
B( 29-C , 71-H ) :   0.9773 B( 30-C , 31-C ) :   1.2521 B( 30-C , 35-N ) :   1.0213
B( 31-C , 32-N ) :   1.0857 B( 32-N , 33-C ) :   0.9543 B( 32-N , 39-C ) :   1.1161
B( 33-C , 34-C ) :   1.0783 B( 33-C , 72-H ) :   0.9444 B( 33-C , 73-H ) :   0.9442
B( 34-C , 35-N ) :   0.9529 B( 34-C , 74-H ) :   0.9308 B( 34-C , 75-H ) :   0.9488
B( 35-N , 36-C ) :   1.0364 B( 36-C , 37-O ) :   2.0950 B( 36-C , 38-O ) :   1.2210
B( 38-O , 76-H ) :   0.9372 B( 39-C , 40-C ) :   1.6705 B( 39-C , 77-H ) :   0.9695
B( 40-C , 41-C ) :   1.1501 B( 40-C , 78-H ) :   0.9595 B( 41-C , 42-S ) :   1.1508
B( 41-C , 47-C ) :   1.4378 B( 42-S , 43-C ) :   1.0904 B( 43-C , 44-C ) :   1.0586
B( 43-C , 46-C ) :   1.4367 B( 44-C , 45-O ) :   2.0562 B( 44-C , 79-H ) :   0.9545
B( 46-C , 47-C ) :   1.2919 B( 46-C , 48-C ) :   0.9963 B( 47-C , 80-H ) :   1.0114
B( 48-C , 49-C ) :   1.8107 B( 48-C , 81-H ) :   0.9493 B( 49-C , 50-C ) :   0.9236
B( 49-C , 57-C ) :   0.9924 B( 50-C , 51-O ) :   2.2961 B( 50-C , 52-C ) :   0.9237
B( 52-C , 53-C ) :   1.4801 B( 52-C , 56-C ) :   1.2171 B( 53-C , 54-S ) :   1.1536
B( 53-C , 63-Cl) :   1.1228 B( 54-S , 55-C ) :   1.1687 B( 55-C , 56-C ) :   1.5483
B( 55-C , 82-H ) :   0.9441 B( 56-C , 57-C ) :   1.0127 B( 57-C , 58-C ) :   1.6606
B( 58-C , 59-C ) :   1.1632 B( 58-C , 61-C ) :   1.1791 B( 59-C , 60-N ) :   2.9007
B( 61-C , 62-N ) :   2.9352

-----------------------------------------------------------------------------
         ABSORPTION SPECTRUM VIA TRANSITION ELECTRIC DIPOLE MOMENTS
-----------------------------------------------------------------------------
State   Energy  Wavelength   fosc         T2         TX        TY        TZ
        (cm-1)    (nm)                  (au**2)     (au)      (au)      (au)
-----------------------------------------------------------------------------
   0   19176.3    521.5   0.123870592   2.12656  -0.04393  -1.05030  -1.01070
   1   20847.3    479.7   0.088439185   1.39659   0.00505   1.17359  -0.13879
   2   23042.8    434.0   0.588563253   8.40879  -0.33893   2.87703  -0.12895
   3   24932.8    401.1   0.021477171   0.28358  -0.40416  -0.34568   0.02736
   4   25712.4    388.9   0.209240566   2.67904   0.46587  -1.42316   0.66077
   5   26206.6    381.6   0.025893178   0.32527  -0.36606   0.40426   0.16686
   6   26676.8    374.9   0.028258538   0.34873  -0.57822   0.11906  -0.01485
   7   27218.3    367.4   0.066884429   0.80898  -0.19146   0.86996  -0.12448
   8   28129.8    355.5   0.354140610   4.14462   0.73874  -1.47680   1.19077
   9   28416.0    351.9   0.111775506   1.29497   0.09791   0.43951  -1.04509
  10   29155.2    343.0   0.013012854   0.14694  -0.21442   0.31493   0.04222
  11   29513.1    338.8   0.012275489   0.13693  -0.34960   0.02945  -0.11764
  12   29876.2    334.7   0.021840990   0.24067   0.21948   0.05292   0.43555
  13   30520.8    327.6   0.133538874   1.44041  -0.67444   0.75906   0.63983
  14   31260.3    319.9   0.008832788   0.09302   0.16046  -0.09356  -0.24191
  15   31670.0    315.8   0.007510246   0.07807   0.00582  -0.18191  -0.21200
  16   32226.9    310.3   0.040154513   0.41020   0.16175  -0.46146  -0.41362
  17   32378.3    308.8   0.101626698   1.03331   0.18648   0.80327  -0.59438
  18   32614.6    306.6   0.021230112   0.21430   0.16923  -0.07237   0.42476
  19   32867.0    304.3   0.050592965   0.50676   0.00187  -0.69645  -0.14736
  20   33327.8    300.1   0.263352663   2.60140  -1.00521   0.97213  -0.80369
  21   33475.6    298.7   0.009148492   0.08997   0.05858  -0.27865  -0.09429
  22   33727.1    296.5   0.138020842   1.34723   0.28477  -0.91414   0.65611
  23   33986.2    294.2   0.178746590   1.73145   0.55994  -1.02404  -0.60768
  24   34292.2    291.6   0.010834277   0.10401   0.10998  -0.28525   0.10270
  25   34853.5    286.9   0.371265148   3.50682   0.85750  -1.54012   0.63208
  26   34974.0    285.9   0.020947502   0.19718  -0.17189   0.39936  -0.09027
  27   35262.7    283.6   0.013153663   0.12280   0.26867  -0.15828  -0.15989
  28   35457.1    282.0   0.129538783   1.20274   0.36944   0.66121   0.79313
  29   35730.4    279.9   0.038765453   0.35718  -0.12028  -0.15283  -0.56511
  30   35873.8    278.8   0.023152508   0.21247  -0.16542   0.39645  -0.16714
  31   36048.8    277.4   0.028642366   0.26157  -0.04802  -0.39973  -0.31541
  32   36353.5    275.1   0.017942742   0.16249   0.13324   0.15309   0.34828
  33   36471.7    274.2   0.044289666   0.39978  -0.50311   0.05286   0.37930
  34   36803.6    271.7   0.058726468   0.52531   0.53918   0.23799   0.42185
  35   37184.6    268.9   0.418928482   3.70896   0.85874  -1.30088   1.13104
  36   37389.3    267.5   0.337854608   2.97480  -0.70826   0.44323  -1.50888
  37   37663.0    265.5   0.006161386   0.05386   0.15124  -0.10499  -0.14128
  38   37773.9    264.7   0.146109734   1.27339  -0.57344   0.46928  -0.85108
  39   37856.9    264.2   0.039017531   0.33930   0.39840  -0.00476   0.42492
  40   38044.9    262.8   0.328348159   2.84128  -0.06618  -0.17002  -1.67571
  41   38380.0    260.6   0.044338225   0.38032   0.17251  -0.36480   0.46635
  42   38625.6    258.9   0.300541567   2.56156   0.75350  -1.11142  -0.87094
  43   38755.1    258.0   0.211518765   1.79678  -0.45800   0.00572  -1.25976
  44   38948.7    256.7   0.081679108   0.69039   0.21005   0.18645  -0.78199
  45   39555.9    252.8   0.030690017   0.25542  -0.34217   0.23188  -0.29081
  46   39939.9    250.4   0.014480673   0.11936  -0.28734  -0.12214   0.14790
  47   40225.0    248.6   0.011597389   0.09492   0.12369  -0.27886  -0.04306

FINAL SINGLE POINT ENERGY     -5106.896578351307

DIPOLE MOMENT
-------------
                                X             Y             Z
Electronic contribution:    -31.58146      54.15197       0.36920
Nuclear contribution   :     31.32091     -54.28462       1.16615
                        -----------------------------------------
Total Dipole Moment    :     -0.26055      -0.13265       1.53534
                        -----------------------------------------
Magnitude (a.u.)       :      1.56293
Magnitude (Debye)      :      3.97266

Rotational constants in cm-1:     0.001233     0.000705     0.000495
Rotational constants in MHz :    36.966188    21.148485    14.828476

                             ****ORCA TERMINATED NORMALLY****
TOTAL RUN TIME: 0 days 0 hours 17 minutes 6 seconds 157 msec
