                         Program Version 4.2.0 -  RELEASE  -
|  1> # ORCA input file
|  2> # SCF done       -196.442059577412          0.000470736990
|  3> ! CAM-B3LYP def2-SVP def2/J RIJCOSX Grid4 TightSCF
|  4> %maxcore 5000
|  5> %tddft
|  6>     Mode sTDDFT
|  7>     Ethresh 5.0
|  8>     maxcore 5000
|  9> end
| 10>
| 11> %pal
| 12>   nprocs 6
| 13>   end
| 14> * xyz 0 1
| 15>    C        3.54838         1.55196        -5.98278
| 16>    C        3.32590         2.56414        -6.86493
| 17>    S        4.42443         2.48692        -8.19355
| 18>    C        5.20153         1.05895        -7.55128
| 19>   Cl        6.49319         0.31882        -8.35931
| 20>    C        4.62283         0.68996        -6.37362
| 21>    C        4.80557        -0.37293        -5.38005
| 22>    O        5.60030        -1.28339        -5.41776
| 23>    C        3.74267        -0.11922        -4.35369
| 24>    C        3.00061         1.08168        -4.72845
| 25>    C        2.00242         1.70937        -4.03240
| 26>    C        1.39320         2.88290        -4.52618
| 27>    N        0.88533         3.83535        -4.91463
| 28>    C        1.47859         1.30653        -2.78788
| 29>    N        1.01078         1.03934        -1.77376
| 30>    C        3.39675        -0.95334        -3.34111
| 31>    C        4.09639        -2.12255        -2.86999
| 32>    C        3.34974        -3.18404        -2.36000
| 33>    C        3.95899        -4.35714        -1.94608
| 34>    N        3.07469        -5.39635        -1.49798
| 35>    O        2.03676        -5.04143        -0.96989
| 36>    O        3.38347        -6.55546        -1.67466
| 37>    C        5.36260        -4.50843        -1.96335
| 38>    C        6.09516        -3.38676        -2.38595
| 39>    C        5.49438        -2.23858        -2.83983
| 40>    C        6.01746        -5.69782        -1.47703
| 41>    C        7.29834        -6.02246        -1.72614
| 42>    C        7.98325        -7.20500        -1.23612
| 43>    C        8.95330        -7.76281        -2.07673
| 44>    C        9.64621        -8.91061        -1.74102
| 45>    C       10.65295        -9.51582        -2.68296
| 46>    N       11.74241       -10.13416        -1.94323
| 47>    C        9.39292        -9.50419        -0.51003
| 48>    C        8.47317        -8.93972         0.35208
| 49>    C        7.75679        -7.79763         0.01661
| 50>    C        6.79120        -7.24443         1.03281
| 51>    N        5.45658        -7.74893         0.77117
| 52>    C        4.36206        -7.20907         1.40350
| 53>    C        3.20424        -7.84449         1.58303
| 54>    C        2.01664        -7.21905         2.23570
| 55>    C        2.01424        -7.47979         3.74735
| 56>    O        2.95289        -7.41834         4.48550
| 57>    O        0.77790        -7.79320         4.15719
| 58>    C       -0.16885        -7.70023         3.09562
| 59>    C        0.66510        -7.79462         1.80936
| 60>    C        0.00710        -7.14458         0.60289
| 61>    C       -0.41922        -5.71248         0.88375
| 62>    C       -1.40009        -5.59950         2.04420
| 63>    C       -0.99433        -6.40684         3.29795
| 64>    O       -2.21838        -6.76594         3.93287
| 65>    C       -3.25880        -6.70336         3.10612
| 66>    O       -4.35510        -7.08353         3.40090
| 67>    C       -2.85292        -6.05575         1.78012
| 68>    C       -3.10778        -6.91270         0.58415
| 69>    C       -3.74052        -8.09448         0.58490
| 70>    C       -4.07241        -8.77975        -0.62268
| 71>    C       -4.57603       -10.03395        -0.73444
| 72>    C       -5.28173       -10.44909        -1.98785
| 73>    O       -5.24056        -9.89035        -3.05654
| 74>    C       -6.05718       -11.63132        -1.58825
| 75>    C       -6.97995       -12.46137        -2.15058
| 76>    S       -7.47731       -13.68931        -1.00928
| 77>    C       -6.42339       -13.07367         0.21099
| 78>    C       -5.74085       -11.98577        -0.23417
| 79>    C       -4.71964       -11.08315         0.25940
| 80>    C       -3.91266       -11.31980         1.33969
| 81>    C       -4.13841       -12.41557         2.19940
| 82>    N       -4.32383       -13.30243         2.90249
| 83>    C       -2.73415       -10.59880         1.60689
| 84>    N       -1.72952       -10.07859         1.80257
| 85>   Cl       -7.62072       -12.40464        -3.71755
| 86>    H        2.59456         3.34704        -6.83311
| 87>    H        2.45864        -0.76191        -2.83360
| 88>    H        2.27149        -3.12197        -2.32163
| 89>    H        7.17163        -3.42591        -2.34303
| 90>    H        6.10613        -1.40623        -3.14425
| 91>    H        5.41271        -6.40025        -0.92328
| 92>    H        7.88342        -5.42126        -2.41145
| 93>    H        9.14163        -7.29122        -3.03178
| 94>    H       10.98572        -8.74599        -3.40081
| 95>    H       10.15921       -10.30865        -3.25796
| 96>    H       12.25002        -9.43224        -1.41421
| 97>    H       12.39388       -10.57973        -2.57914
| 98>    H        9.93643       -10.39459        -0.23732
| 99>    H        8.30637        -9.39528         1.31801
|100>    H        6.76029        -6.15180         0.98261
|101>    H        7.13338        -7.52904         2.04003
|102>    H        5.41324        -8.75023         0.63927
|103>    H        4.48229        -6.17511         1.70082
|104>    H        3.10729        -8.88221         1.29982
|105>    H        2.05339        -6.13224         2.10737
|106>    H       -0.85127        -8.55033         3.19076
|107>    H        0.80143        -8.85881         1.59191
|108>    H       -0.85703        -7.74942         0.32252
|109>    H        0.71316        -7.14858        -0.22718
|110>    H       -0.86156        -5.27399        -0.01084
|111>    H        0.46341        -5.11355         1.10978
|112>    H       -1.44289        -4.54688         2.34470
|113>    H       -0.44594        -5.78013         4.01002
|114>    H       -3.49323        -5.17364         1.64458
|115>    H       -2.79554        -6.48125        -0.35883
|116>    H       -4.07038        -8.52980         1.51660
|117>    H       -4.01118        -8.21333        -1.54594
|118>    H       -6.39090       -13.54983         1.17090
|119> *
|120>
|121>                          ****END OF INPUT****

CARTESIAN COORDINATES (ANGSTROEM)
---------------------------------
  C      3.548380    1.551960   -5.982780
  C      3.325900    2.564140   -6.864930
  S      4.424430    2.486920   -8.193550
  C      5.201530    1.058950   -7.551280
  Cl     6.493190    0.318820   -8.359310
  C      4.622830    0.689960   -6.373620
  C      4.805570   -0.372930   -5.380050
  O      5.600300   -1.283390   -5.417760
  C      3.742670   -0.119220   -4.353690
  C      3.000610    1.081680   -4.728450
  C      2.002420    1.709370   -4.032400
  C      1.393200    2.882900   -4.526180
  N      0.885330    3.835350   -4.914630
  C      1.478590    1.306530   -2.787880
  N      1.010780    1.039340   -1.773760
  C      3.396750   -0.953340   -3.341110
  C      4.096390   -2.122550   -2.869990
  C      3.349740   -3.184040   -2.360000
  C      3.958990   -4.357140   -1.946080
  N      3.074690   -5.396350   -1.497980
  O      2.036760   -5.041430   -0.969890
  O      3.383470   -6.555460   -1.674660
  C      5.362600   -4.508430   -1.963350
  C      6.095160   -3.386760   -2.385950
  C      5.494380   -2.238580   -2.839830
  C      6.017460   -5.697820   -1.477030
  C      7.298340   -6.022460   -1.726140
  C      7.983250   -7.205000   -1.236120
  C      8.953300   -7.762810   -2.076730
  C      9.646210   -8.910610   -1.741020
  C     10.652950   -9.515820   -2.682960
  N     11.742410  -10.134160   -1.943230
  C      9.392920   -9.504190   -0.510030
  C      8.473170   -8.939720    0.352080
  C      7.756790   -7.797630    0.016610
  C      6.791200   -7.244430    1.032810
  N      5.456580   -7.748930    0.771170
  C      4.362060   -7.209070    1.403500
  C      3.204240   -7.844490    1.583030
  C      2.016640   -7.219050    2.235700
  C      2.014240   -7.479790    3.747350
  O      2.952890   -7.418340    4.485500
  O      0.777900   -7.793200    4.157190
  C     -0.168850   -7.700230    3.095620
  C      0.665100   -7.794620    1.809360
  C      0.007100   -7.144580    0.602890
  C     -0.419220   -5.712480    0.883750
  C     -1.400090   -5.599500    2.044200
  C     -0.994330   -6.406840    3.297950
  O     -2.218380   -6.765940    3.932870
  C     -3.258800   -6.703360    3.106120
  O     -4.355100   -7.083530    3.400900
  C     -2.852920   -6.055750    1.780120
  C     -3.107780   -6.912700    0.584150
  C     -3.740520   -8.094480    0.584900
  C     -4.072410   -8.779750   -0.622680
  C     -4.576030  -10.033950   -0.734440
  C     -5.281730  -10.449090   -1.987850
  O     -5.240560   -9.890350   -3.056540
  C     -6.057180  -11.631320   -1.588250
  C     -6.979950  -12.461370   -2.150580
  S     -7.477310  -13.689310   -1.009280
  C     -6.423390  -13.073670    0.210990
  C     -5.740850  -11.985770   -0.234170
  C     -4.719640  -11.083150    0.259400
  C     -3.912660  -11.319800    1.339690
  C     -4.138410  -12.415570    2.199400
  N     -4.323830  -13.302430    2.902490
  C     -2.734150  -10.598800    1.606890
  N     -1.729520  -10.078590    1.802570
  Cl    -7.620720  -12.404640   -3.717550
  H      2.594560    3.347040   -6.833110
  H      2.458640   -0.761910   -2.833600
  H      2.271490   -3.121970   -2.321630
  H      7.171630   -3.425910   -2.343030
  H      6.106130   -1.406230   -3.144250
  H      5.412710   -6.400250   -0.923280
  H      7.883420   -5.421260   -2.411450
  H      9.141630   -7.291220   -3.031780
  H     10.985720   -8.745990   -3.400810
  H     10.159210  -10.308650   -3.257960
  H     12.250020   -9.432240   -1.414210
  H     12.393880  -10.579730   -2.579140
  H      9.936430  -10.394590   -0.237320
  H      8.306370   -9.395280    1.318010
  H      6.760290   -6.151800    0.982610
  H      7.133380   -7.529040    2.040030
  H      5.413240   -8.750230    0.639270
  H      4.482290   -6.175110    1.700820
  H      3.107290   -8.882210    1.299820
  H      2.053390   -6.132240    2.107370
  H     -0.851270   -8.550330    3.190760
  H      0.801430   -8.858810    1.591910
  H     -0.857030   -7.749420    0.322520
  H      0.713160   -7.148580   -0.227180
  H     -0.861560   -5.273990   -0.010840
  H      0.463410   -5.113550    1.109780
  H     -1.442890   -4.546880    2.344700
  H     -0.445940   -5.780130    4.010020
  H     -3.493230   -5.173640    1.644580
  H     -2.795540   -6.481250   -0.358830
  H     -4.070380   -8.529800    1.516600
  H     -4.011180   -8.213330   -1.545940
  H     -6.390900  -13.549830    1.170900

 Total Charge           Charge          ....    0
 Multiplicity           Mult            ....    1
 Number of Electrons    NEL             ....  524
 Basis Dimension        Dim             .... 1175

ORBITAL ENERGIES
----------------

  NO   OCC          E(Eh)            E(eV)
   0   2.0000    -101.625746     -2765.3771
   1   2.0000    -101.615698     -2765.1037
   2   2.0000     -89.002621     -2421.8845
   3   2.0000     -88.991493     -2421.5816
   4   2.0000     -19.257496      -524.0231
   5   2.0000     -19.255791      -523.9767
   6   2.0000     -19.254274      -523.9354
   7   2.0000     -19.237371      -523.4755
   8   2.0000     -19.232053      -523.3308
   9   2.0000     -19.217490      -522.9345
  10   2.0000     -19.195868      -522.3461
  11   2.0000     -19.175330      -521.7872
  12   2.0000     -14.659344      -398.9010
  13   2.0000     -14.430005      -392.6604
  14   2.0000     -14.428108      -392.6088
  15   2.0000     -14.424222      -392.5030
  16   2.0000     -14.419158      -392.3652
  17   2.0000     -14.409565      -392.1042
  18   2.0000     -14.389379      -391.5549
  19   2.0000     -10.394196      -282.8405
  20   2.0000     -10.389785      -282.7204
  21   2.0000     -10.385225      -282.5963
  22   2.0000     -10.374381      -282.3013
  23   2.0000     -10.374178      -282.2957
  24   2.0000     -10.369727      -282.1746
  25   2.0000     -10.358258      -281.8625
  26   2.0000     -10.357393      -281.8390
  27   2.0000     -10.349324      -281.6194
  28   2.0000     -10.348732      -281.6033
  29   2.0000     -10.341020      -281.3935
  30   2.0000     -10.338485      -281.3245
  31   2.0000     -10.333771      -281.1962
  32   2.0000     -10.331969      -281.1472
  33   2.0000     -10.329944      -281.0921
  34   2.0000     -10.329393      -281.0771
  35   2.0000     -10.328575      -281.0548
  36   2.0000     -10.328055      -281.0407
  37   2.0000     -10.323928      -280.9284
  38   2.0000     -10.321462      -280.8613
  39   2.0000     -10.320916      -280.8464
  40   2.0000     -10.318736      -280.7871
  41   2.0000     -10.318022      -280.7677
  42   2.0000     -10.314438      -280.6701
  43   2.0000     -10.312208      -280.6094
  44   2.0000     -10.312197      -280.6091
  45   2.0000     -10.311686      -280.5952
  46   2.0000     -10.309127      -280.5256
  47   2.0000     -10.308922      -280.5200
  48   2.0000     -10.306020      -280.4411
  49   2.0000     -10.301011      -280.3048
  50   2.0000     -10.300970      -280.3036
  51   2.0000     -10.299147      -280.2540
  52   2.0000     -10.298836      -280.2456
  53   2.0000     -10.297086      -280.1979
  54   2.0000     -10.296131      -280.1720
  55   2.0000     -10.290284      -280.0129
  56   2.0000     -10.289097      -279.9806
  57   2.0000     -10.288930      -279.9760
  58   2.0000     -10.287517      -279.9376
  59   2.0000     -10.282842      -279.8104
  60   2.0000     -10.279108      -279.7088
  61   2.0000     -10.277364      -279.6613
  62   2.0000     -10.274194      -279.5750
  63   2.0000     -10.272366      -279.5253
  64   2.0000     -10.270174      -279.4657
  65   2.0000     -10.269514      -279.4477
  66   2.0000     -10.265777      -279.3460
  67   2.0000     -10.265419      -279.3363
  68   2.0000     -10.264891      -279.3219
  69   2.0000     -10.253447      -279.0105
  70   2.0000     -10.239165      -278.6218
  71   2.0000      -9.580542      -260.6998
  72   2.0000      -9.570497      -260.4265
  73   2.0000      -8.098298      -220.3659
  74   2.0000      -8.087299      -220.0666
  75   2.0000      -7.351189      -200.0360
  76   2.0000      -7.341150      -199.7629
  77   2.0000      -7.340566      -199.7470
  78   2.0000      -7.340028      -199.7323
  79   2.0000      -7.330524      -199.4737
  80   2.0000      -7.329987      -199.4591
  81   2.0000      -6.067677      -165.1099
  82   2.0000      -6.063035      -164.9836
  83   2.0000      -6.060591      -164.9171
  84   2.0000      -6.056678      -164.8106
  85   2.0000      -6.052089      -164.6857
  86   2.0000      -6.049506      -164.6154
  87   2.0000      -1.334807       -36.3220
  88   2.0000      -1.194598       -32.5067
  89   2.0000      -1.172103       -31.8945
  90   2.0000      -1.152447       -31.3597
  91   2.0000      -1.149525       -31.2802
  92   2.0000      -1.134462       -30.8703
  93   2.0000      -1.103323       -30.0229
  94   2.0000      -1.081801       -29.4373
  95   2.0000      -1.047250       -28.4971
  96   2.0000      -1.036800       -28.2128
  97   2.0000      -1.026460       -27.9314
  98   2.0000      -1.018748       -27.7216
  99   2.0000      -1.014244       -27.5990
 100   2.0000      -1.007469       -27.4146
 101   2.0000      -1.002945       -27.2915
 102   2.0000      -1.000411       -27.2226
 103   2.0000      -0.995998       -27.1025
 104   2.0000      -0.987330       -26.8666
 105   2.0000      -0.976633       -26.5755
 106   2.0000      -0.964115       -26.2349
 107   2.0000      -0.955022       -25.9875
 108   2.0000      -0.951927       -25.9032
 109   2.0000      -0.943939       -25.6859
 110   2.0000      -0.933605       -25.4047
 111   2.0000      -0.919960       -25.0334
 112   2.0000      -0.914133       -24.8748
 113   2.0000      -0.909392       -24.7458
 114   2.0000      -0.906493       -24.6669
 115   2.0000      -0.894196       -24.3323
 116   2.0000      -0.886349       -24.1188
 117   2.0000      -0.872153       -23.7325
 118   2.0000      -0.862672       -23.4745
 119   2.0000      -0.857819       -23.3424
 120   2.0000      -0.841727       -22.9046
 121   2.0000      -0.838756       -22.8237
 122   2.0000      -0.831624       -22.6296
 123   2.0000      -0.831311       -22.6211
 124   2.0000      -0.826135       -22.4803
 125   2.0000      -0.812041       -22.0968
 126   2.0000      -0.799302       -21.7501
 127   2.0000      -0.792815       -21.5736
 128   2.0000      -0.783757       -21.3271
 129   2.0000      -0.773231       -21.0407
 130   2.0000      -0.764201       -20.7950
 131   2.0000      -0.757319       -20.6077
 132   2.0000      -0.750340       -20.4178
 133   2.0000      -0.739792       -20.1308
 134   2.0000      -0.723821       -19.6962
 135   2.0000      -0.719968       -19.5913
 136   2.0000      -0.710213       -19.3259
 137   2.0000      -0.707801       -19.2602
 138   2.0000      -0.699339       -19.0300
 139   2.0000      -0.697337       -18.9755
 140   2.0000      -0.690775       -18.7969
 141   2.0000      -0.686106       -18.6699
 142   2.0000      -0.684888       -18.6367
 143   2.0000      -0.678956       -18.4753
 144   2.0000      -0.674837       -18.3633
 145   2.0000      -0.671645       -18.2764
 146   2.0000      -0.659847       -17.9554
 147   2.0000      -0.650810       -17.7094
 148   2.0000      -0.643935       -17.5224
 149   2.0000      -0.643066       -17.4987
 150   2.0000      -0.640295       -17.4233
 151   2.0000      -0.634729       -17.2719
 152   2.0000      -0.628007       -17.0889
 153   2.0000      -0.622970       -16.9519
 154   2.0000      -0.619537       -16.8585
 155   2.0000      -0.616619       -16.7791
 156   2.0000      -0.613682       -16.6991
 157   2.0000      -0.609360       -16.5815
 158   2.0000      -0.605960       -16.4890
 159   2.0000      -0.603663       -16.4265
 160   2.0000      -0.598726       -16.2922
 161   2.0000      -0.592899       -16.1336
 162   2.0000      -0.589606       -16.0440
 163   2.0000      -0.582005       -15.8372
 164   2.0000      -0.576533       -15.6883
 165   2.0000      -0.574285       -15.6271
 166   2.0000      -0.567714       -15.4483
 167   2.0000      -0.564687       -15.3659
 168   2.0000      -0.561575       -15.2812
 169   2.0000      -0.559574       -15.2268
 170   2.0000      -0.556801       -15.1513
 171   2.0000      -0.550221       -14.9723
 172   2.0000      -0.547338       -14.8938
 173   2.0000      -0.544707       -14.8222
 174   2.0000      -0.543669       -14.7940
 175   2.0000      -0.543070       -14.7777
 176   2.0000      -0.540463       -14.7067
 177   2.0000      -0.536336       -14.5945
 178   2.0000      -0.531764       -14.4700
 179   2.0000      -0.530424       -14.4336
 180   2.0000      -0.529154       -14.3990
 181   2.0000      -0.527561       -14.3557
 182   2.0000      -0.524371       -14.2689
 183   2.0000      -0.520334       -14.1590
 184   2.0000      -0.519603       -14.1391
 185   2.0000      -0.517941       -14.0939
 186   2.0000      -0.515024       -14.0145
 187   2.0000      -0.514116       -13.9898
 188   2.0000      -0.511610       -13.9216
 189   2.0000      -0.509735       -13.8706
 190   2.0000      -0.505907       -13.7664
 191   2.0000      -0.504463       -13.7271
 192   2.0000      -0.503819       -13.7096
 193   2.0000      -0.499303       -13.5867
 194   2.0000      -0.497871       -13.5478
 195   2.0000      -0.493878       -13.4391
 196   2.0000      -0.492252       -13.3949
 197   2.0000      -0.489909       -13.3311
 198   2.0000      -0.488537       -13.2938
 199   2.0000      -0.486854       -13.2480
 200   2.0000      -0.485024       -13.1982
 201   2.0000      -0.480361       -13.0713
 202   2.0000      -0.473979       -12.8976
 203   2.0000      -0.467777       -12.7289
 204   2.0000      -0.466720       -12.7001
 205   2.0000      -0.464407       -12.6372
 206   2.0000      -0.461811       -12.5665
 207   2.0000      -0.461234       -12.5508
 208   2.0000      -0.459389       -12.5006
 209   2.0000      -0.459106       -12.4929
 210   2.0000      -0.456297       -12.4165
 211   2.0000      -0.455296       -12.3892
 212   2.0000      -0.453939       -12.3523
 213   2.0000      -0.452419       -12.3109
 214   2.0000      -0.450307       -12.2535
 215   2.0000      -0.449161       -12.2223
 216   2.0000      -0.445476       -12.1220
 217   2.0000      -0.442717       -12.0470
 218   2.0000      -0.442195       -12.0327
 219   2.0000      -0.441244       -12.0069
 220   2.0000      -0.441014       -12.0006
 221   2.0000      -0.439366       -11.9558
 222   2.0000      -0.435716       -11.8564
 223   2.0000      -0.431722       -11.7478
 224   2.0000      -0.430354       -11.7105
 225   2.0000      -0.429368       -11.6837
 226   2.0000      -0.425627       -11.5819
 227   2.0000      -0.424969       -11.5640
 228   2.0000      -0.421874       -11.4798
 229   2.0000      -0.420320       -11.4375
 230   2.0000      -0.417964       -11.3734
 231   2.0000      -0.416575       -11.3356
 232   2.0000      -0.412801       -11.2329
 233   2.0000      -0.411738       -11.2040
 234   2.0000      -0.407990       -11.1020
 235   2.0000      -0.405506       -11.0344
 236   2.0000      -0.401984       -10.9385
 237   2.0000      -0.398031       -10.8310
 238   2.0000      -0.393048       -10.6954
 239   2.0000      -0.386953       -10.5295
 240   2.0000      -0.384878       -10.4731
 241   2.0000      -0.381905       -10.3922
 242   2.0000      -0.380478       -10.3533
 243   2.0000      -0.375914       -10.2291
 244   2.0000      -0.368707       -10.0330
 245   2.0000      -0.368013       -10.0141
 246   2.0000      -0.360588        -9.8121
 247   2.0000      -0.346366        -9.4251
 248   2.0000      -0.345329        -9.3969
 249   2.0000      -0.342587        -9.3223
 250   2.0000      -0.340911        -9.2767
 251   2.0000      -0.338347        -9.2069
 252   2.0000      -0.333711        -9.0807
 253   2.0000      -0.332520        -9.0483
 254   2.0000      -0.322611        -8.7787
 255   2.0000      -0.321877        -8.7587
 256   2.0000      -0.317442        -8.6380
 257   2.0000      -0.316900        -8.6233
 258   2.0000      -0.306812        -8.3488
 259   2.0000      -0.302488        -8.2311
 260   2.0000      -0.282285        -7.6814
 261   2.0000      -0.253083        -6.8867
 262   0.0000      -0.105069        -2.8591
 263   0.0000      -0.089977        -2.4484
 264   0.0000      -0.064690        -1.7603
 265   0.0000      -0.057302        -1.5593
 266   0.0000      -0.048222        -1.3122

MULLIKEN ATOMIC CHARGES
-----------------------
   0 C :    0.032945
   1 C :   -0.129024
   2 S :    0.192581
   3 C :   -0.168823
   4 Cl:    0.001995
   5 C :    0.074891
   6 C :    0.141168
   7 O :   -0.128535
   8 C :   -0.084142
   9 C :    0.284569
  10 C :   -0.327144
  11 C :   -0.193160
  12 N :    0.161036
  13 C :   -0.190976
  14 N :    0.165758
  15 C :   -0.035386
  16 C :    0.061930
  17 C :   -0.050007
  18 C :    0.121338
  19 N :    0.252996
  20 O :   -0.242859
  21 O :   -0.202134
  22 C :    0.113380
  23 C :   -0.068943
  24 C :    0.111205
  25 C :   -0.036434
  26 C :   -0.022416
  27 C :    0.111025
  28 C :   -0.066204
  29 C :   -0.073863
  30 C :    0.213636
  31 N :   -0.235947
  32 C :    0.013014
  33 C :   -0.009549
  34 C :   -0.087852
  35 C :    0.218082
  36 N :   -0.205950
  37 C :    0.087838
  38 C :   -0.002484
  39 C :   -0.095565
  40 C :    0.179315
  41 O :   -0.164381
  42 O :   -0.263934
  43 C :    0.170087
  44 C :   -0.067087
  45 C :    0.115847
  46 C :    0.072532
  47 C :   -0.066846
  48 C :    0.157409
  49 O :   -0.244302
  50 C :    0.172107
  51 O :   -0.178180
  52 C :    0.010604
  53 C :   -0.081223
  54 C :    0.053086
  55 C :    0.028327
  56 C :   -0.122852
  57 C :    0.143677
  58 O :   -0.128047
  59 C :    0.080290
  60 C :   -0.170520
  61 S :    0.185080
  62 C :   -0.123638
  63 C :    0.022211
  64 C :    0.265996
  65 C :   -0.305068
  66 C :   -0.186415
  67 N :    0.158085
  68 C :   -0.168008
  69 N :    0.153082
  70 Cl:   -0.001314
  71 H :    0.057421
  72 H :    0.031489
  73 H :    0.005865
  74 H :   -0.006434
  75 H :   -0.005565
  76 H :    0.018353
  77 H :   -0.006900
  78 H :   -0.041581
  79 H :   -0.013887
  80 H :    0.019414
  81 H :    0.094869
  82 H :    0.095570
  83 H :   -0.014022
  84 H :   -0.023203
  85 H :    0.014361
  86 H :    0.007996
  87 H :    0.112852
  88 H :   -0.014172
  89 H :   -0.029084
  90 H :    0.020535
  91 H :    0.026878
  92 H :    0.012715
  93 H :    0.007721
  94 H :    0.002579
  95 H :   -0.003229
  96 H :    0.010844
  97 H :    0.007969
  98 H :    0.018408
  99 H :    0.055040
 100 H :    0.018813
 101 H :    0.048233
 102 H :    0.017769
 103 H :    0.054477
Sum of atomic charges:   -0.0000000

LOEWDIN ATOMIC CHARGES
----------------------
   0 C :   -0.060142
   1 C :   -0.147321
   2 S :    0.481493
   3 C :   -0.271356
   4 Cl:    0.193520
   5 C :   -0.117928
   6 C :    0.080371
   7 O :   -0.125867
   8 C :   -0.085192
   9 C :    0.074451
  10 C :   -0.133034
  11 C :   -0.015368
  12 N :   -0.046997
  13 C :   -0.025264
  14 N :   -0.042161
  15 C :    0.080545
  16 C :   -0.046557
  17 C :    0.025974
  18 C :   -0.035947
  19 N :    0.289607
  20 O :   -0.206258
  21 O :   -0.170474
  22 C :    0.021014
  23 C :   -0.012972
  24 C :    0.044425
  25 C :   -0.036405
  26 C :    0.012498
  27 C :   -0.024370
  28 C :   -0.016908
  29 C :   -0.034097
  30 C :    0.027686
  31 N :   -0.112986
  32 C :   -0.010244
  33 C :   -0.022616
  34 C :   -0.025709
  35 C :    0.042839
  36 N :   -0.040162
  37 C :    0.020075
  38 C :   -0.093961
  39 C :   -0.060916
  40 C :    0.073029
  41 O :   -0.159721
  42 O :   -0.071865
  43 C :    0.067112
  44 C :   -0.026758
  45 C :   -0.028458
  46 C :   -0.028067
  47 C :   -0.030171
  48 C :    0.071451
  49 O :   -0.054996
  50 C :    0.079497
  51 O :   -0.158646
  52 C :   -0.060971
  53 C :    0.042607
  54 C :   -0.038013
  55 C :    0.077483
  56 C :   -0.089638
  57 C :    0.081140
  58 O :   -0.133059
  59 C :   -0.117296
  60 C :   -0.272377
  61 S :    0.474191
  62 C :   -0.148986
  63 C :   -0.057513
  64 C :    0.076301
  65 C :   -0.135176
  66 C :   -0.016830
  67 N :   -0.045122
  68 C :    0.001733
  69 N :   -0.047834
  70 Cl:    0.190992
  71 H :    0.038632
  72 H :    0.047985
  73 H :    0.041779
  74 H :    0.035211
  75 H :    0.036314
  76 H :    0.028890
  77 H :    0.026362
  78 H :    0.022618
  79 H :    0.004770
  80 H :    0.031832
  81 H :    0.055721
  82 H :    0.057007
  83 H :    0.029915
  84 H :    0.027746
  85 H :    0.025617
  86 H :    0.017156
  87 H :    0.073021
  88 H :    0.020313
  89 H :    0.017275
  90 H :    0.036922
  91 H :    0.024693
  92 H :    0.033500
  93 H :    0.021805
  94 H :    0.027531
  95 H :    0.025397
  96 H :    0.024362
  97 H :    0.034357
  98 H :    0.029980
  99 H :    0.062757
 100 H :    0.033052
 101 H :    0.036039
 102 H :    0.045532
 103 H :    0.038584

  Mayer bond orders larger than 0.100000
B(  0-C ,  1-C ) :   1.5416 B(  0-C ,  5-C ) :   1.2192 B(  0-C ,  9-C ) :   1.0033
B(  1-C ,  2-S ) :   1.1649 B(  1-C , 71-H ) :   0.9538 B(  2-S ,  3-C ) :   1.1530
B(  3-C ,  4-Cl) :   1.1286 B(  3-C ,  5-C ) :   1.4761 B(  5-C ,  6-C ) :   0.9540
B(  6-C ,  7-O ) :   2.2419 B(  6-C ,  8-C ) :   0.9222 B(  8-C ,  9-C ) :   1.0521
B(  8-C , 15-C ) :   1.6696 B(  9-C , 10-C ) :   1.6673 B( 10-C , 11-C ) :   1.1453
B( 10-C , 13-C ) :   1.1353 B( 11-C , 12-N ) :   2.9924 B( 13-C , 14-N ) :   2.9801
B( 15-C , 16-C ) :   1.0693 B( 15-C , 72-H ) :   0.9496 B( 16-C , 17-C ) :   1.2909
B( 16-C , 24-C ) :   1.3102 B( 17-C , 18-C ) :   1.3681 B( 17-C , 73-H ) :   1.0002
B( 18-C , 19-N ) :   0.8813 B( 18-C , 22-C ) :   1.3326 B( 19-N , 20-O ) :   1.5084
B( 19-N , 21-O ) :   1.5331 B( 20-O , 21-O ) :   0.2579 B( 22-C , 23-C ) :   1.3118
B( 22-C , 25-C ) :   1.0792 B( 23-C , 24-C ) :   1.4385 B( 23-C , 74-H ) :   0.9891
B( 24-C , 75-H ) :   0.9804 B( 25-C , 26-C ) :   1.7236 B( 25-C , 76-H ) :   0.9427
B( 26-C , 27-C ) :   1.0547 B( 26-C , 77-H ) :   0.9672 B( 27-C , 28-C ) :   1.3223
B( 27-C , 34-C ) :   1.3856 B( 28-C , 29-C ) :   1.3859 B( 28-C , 78-H ) :   0.9975
B( 29-C , 30-C ) :   1.0214 B( 29-C , 32-C ) :   1.3873 B( 30-C , 31-N ) :   1.0804
B( 30-C , 79-H ) :   0.9387 B( 30-C , 80-H ) :   0.9193 B( 31-N , 81-H ) :   0.9738
B( 31-N , 82-H ) :   0.9682 B( 32-C , 33-C ) :   1.3535 B( 32-C , 83-H ) :   0.9934
B( 33-C , 34-C ) :   1.3946 B( 33-C , 84-H ) :   0.9924 B( 34-C , 35-C ) :   1.0422
B( 35-C , 36-N ) :   1.0002 B( 35-C , 85-H ) :   0.9176 B( 35-C , 86-H ) :   0.9215
B( 36-N , 37-C ) :   1.0993 B( 36-N , 87-H ) :   0.9385 B( 37-C , 38-C ) :   1.8219
B( 37-C , 88-H ) :   0.9597 B( 38-C , 39-C ) :   1.0313 B( 38-C , 89-H ) :   0.9613
B( 39-C , 40-C ) :   0.8855 B( 39-C , 44-C ) :   0.9735 B( 39-C , 90-H ) :   0.8991
B( 40-C , 41-O ) :   2.2499 B( 40-C , 42-O ) :   1.1425 B( 42-O , 43-C ) :   0.9391
B( 43-C , 44-C ) :   1.0253 B( 43-C , 48-C ) :   0.9670 B( 43-C , 91-H ) :   0.9034
B( 44-C , 45-C ) :   1.0763 B( 44-C , 92-H ) :   0.9017 B( 45-C , 46-C ) :   1.0592
B( 45-C , 93-H ) :   0.9264 B( 45-C , 94-H ) :   0.9044 B( 46-C , 47-C ) :   1.0858
B( 46-C , 95-H ) :   0.9202 B( 46-C , 96-H ) :   0.9307 B( 47-C , 48-C ) :   1.0230
B( 47-C , 52-C ) :   0.9979 B( 47-C , 97-H ) :   0.8929 B( 48-C , 49-O ) :   0.9518
B( 48-C , 98-H ) :   0.9167 B( 49-O , 50-C ) :   1.1757 B( 50-C , 51-O ) :   2.1601
B( 50-C , 52-C ) :   0.9198 B( 52-C , 53-C ) :   1.0041 B( 52-C , 99-H ) :   0.8551
B( 53-C , 54-C ) :   1.7961 B( 53-C ,100-H ) :   0.9700 B( 54-C , 55-C ) :   1.0907
B( 54-C ,101-H ) :   0.9176 B( 55-C , 56-C ) :   1.6589 B( 55-C ,102-H ) :   0.9600
B( 56-C , 57-C ) :   0.9339 B( 56-C , 64-C ) :   1.0351 B( 57-C , 58-O ) :   2.2833
B( 57-C , 59-C ) :   0.9254 B( 59-C , 60-C ) :   1.4882 B( 59-C , 63-C ) :   1.2194
B( 60-C , 61-S ) :   1.1510 B( 60-C , 70-Cl) :   1.1274 B( 61-S , 62-C ) :   1.1601
B( 62-C , 63-C ) :   1.5508 B( 62-C ,103-H ) :   0.9568 B( 63-C , 64-C ) :   1.0159
B( 64-C , 65-C ) :   1.6606 B( 65-C , 66-C ) :   1.1306 B( 65-C , 68-C ) :   1.1613
B( 66-C , 67-N ) :   3.0038 B( 68-C , 69-N ) :   2.9283

-----------------------------------------------------------------------------
         ABSORPTION SPECTRUM VIA TRANSITION ELECTRIC DIPOLE MOMENTS
-----------------------------------------------------------------------------
State   Energy  Wavelength   fosc         T2         TX        TY        TZ
        (cm-1)    (nm)                  (au**2)     (au)      (au)      (au)
-----------------------------------------------------------------------------
   0   19028.9    525.5   0.012273401   0.21234   0.09829  -0.38522   0.23298
   1   22123.6    452.0   0.001338328   0.01992  -0.07799   0.11759   0.00216
   2   23167.4    431.6   0.915511116  13.00955  -1.65503   2.95145  -1.24875
   3   23714.2    421.7   0.000981679   0.01363  -0.04851  -0.10611   0.00385
   4   27646.2    361.7   0.076616958   0.91236   0.67298  -0.57051   0.36603
   5   28430.4    351.7   0.292825817   3.39080   0.08094   1.75291  -0.55817
   6   29058.4    344.1   0.061696852   0.69898   0.81137   0.17381  -0.10224
   7   29336.8    340.9   0.020211770   0.22681   0.10065   0.02725  -0.46469
   8   29897.3    334.5   0.114394377   1.25964   0.42357   1.03921   0.01624
   9   30119.4    332.0   0.001405724   0.01536   0.07776   0.07368  -0.06237
  10   30549.7    327.3   0.072857482   0.78513   0.53532   0.70583  -0.01929
  11   31844.3    314.0   0.067996553   0.70296  -0.57945   0.17960   0.57874
  12   32610.1    306.7   0.016804167   0.16964  -0.08284   0.39080  -0.10030
  13   32775.9    305.1   0.003032434   0.03046   0.01287  -0.16184   0.06403
  14   33068.8    302.4   0.019499350   0.19412  -0.27130   0.11810   0.32645
  15   33294.6    300.3   0.000004912   0.00005  -0.00261  -0.00576   0.00293
  16   33805.4    295.8   0.008001347   0.07792  -0.22138   0.05554  -0.16071
  17   33969.8    294.4   0.010650616   0.10322  -0.25865  -0.08555  -0.17029
  18   34283.2    291.7   0.007160359   0.06876   0.24045   0.05852   0.08671
  19   34555.3    289.4   0.004387123   0.04180   0.20049  -0.03925   0.00779
  20   34714.8    288.1   0.063935664   0.60632  -0.77085   0.10795   0.02149
  21   35012.3    285.6   0.043453259   0.40858   0.40993   0.15568   0.46508
  22   35485.4    281.8   0.179286469   1.66331   0.55643   0.70719  -0.92390
  23   35988.5    277.9   0.122891560   1.12418  -0.28381   0.80965  -0.62297
  24   36664.8    272.7   0.008810503   0.07911  -0.10426   0.26044  -0.02017
  25   37016.7    270.1   0.001187186   0.01056   0.03117   0.09790   0.00185
  26   37266.6    268.3   0.826172437   7.29838   2.06868   1.27880   1.17628
  27   37501.3    266.7   0.635709694   5.58070   1.16334  -0.03324  -2.05578
  28   37632.1    265.7   0.284890838   2.49228  -0.60059  -0.87604  -1.16795
  29   38346.0    260.8   0.105569196   0.90634   0.56742   0.49084   0.58605
  30   38693.0    258.4   0.490500845   4.17333  -1.02189   1.72737  -0.38116
  31   38953.4    256.7   0.128534246   1.08630   0.71141  -0.20562   0.73342
  32   39091.1    255.8   0.000404939   0.00341  -0.05530   0.01041   0.01563
  33   39286.8    254.5   0.094846464   0.79479  -0.69717  -0.23332   0.50428
  34   39650.5    252.2   0.236574154   1.96424   0.15029   1.23107  -0.65278
  35   39821.6    251.1   0.000179409   0.00148  -0.01971   0.02788  -0.01781

FINAL SINGLE POINT ENERGY     -4698.790164596316

DIPOLE MOMENT
-------------
                                X             Y             Z
Electronic contribution:    -67.71215      22.87140     -50.12499
Nuclear contribution   :     70.67241     -21.84592      45.80665
                        -----------------------------------------
Total Dipole Moment    :      2.96026       1.02548      -4.31834
                        -----------------------------------------
Magnitude (a.u.)       :      5.33505
Magnitude (Debye)      :     13.56062

Rotational constants in cm-1:     0.000849     0.000362     0.000303
Rotational constants in MHz :    25.445331    10.855872     9.085026

                             ****ORCA TERMINATED NORMALLY****
TOTAL RUN TIME: 0 days 0 hours 9 minutes 34 seconds 720 msec
