                         Program Version 4.2.0 -  RELEASE  -
|  1> # ORCA input file
|  2> # SCF done       -193.488102394655          0.000825872388
|  3> ! CAM-B3LYP def2-SVP def2/J RIJCOSX Grid4 TightSCF
|  4> %maxcore 5000
|  5> %tddft
|  6>     Mode sTDDFT
|  7>     Ethresh 5.0
|  8>     maxcore 5000
|  9> end
| 10>
| 11> %pal
| 12>   nprocs 6
| 13>   end
| 14> * xyz 0 1
| 15>    C        3.00723         2.10759         2.31372
| 16>    C        2.43674         3.05406         3.10797
| 17>    S        2.32124         2.51052         4.74097
| 18>    C        3.05732         0.97424         4.35091
| 19>   Cl        3.30675        -0.21067         5.53463
| 20>    C        3.36190         0.91481         3.02294
| 21>    C        3.96311        -0.05995         2.10769
| 22>    O        4.38125        -1.16193         2.37477
| 23>    C        4.00742         0.64526         0.78325
| 24>    C        3.36331         1.95019         0.91997
| 25>    C        3.07499         2.84927        -0.06861
| 26>    C        2.42478         4.06943         0.21826
| 27>    N        1.90067         5.06530         0.43915
| 28>    C        3.34537         2.67492        -1.44176
| 29>    N        3.52377         2.58634        -2.57189
| 30>    C        4.70688         0.23289        -0.30016
| 31>    C        5.32090        -1.06051        -0.49979
| 32>    C        6.56166        -1.12733        -1.13439
| 33>    C        7.19488        -2.34273        -1.31743
| 34>    N        8.54026        -2.31836        -1.83867
| 35>    O        8.86282        -1.35419        -2.49709
| 36>    O        9.27350        -3.23906        -1.54854
| 37>    C        6.58977        -3.55600        -0.93948
| 38>    C        5.32557        -3.47021        -0.34119
| 39>    C        4.70912        -2.26130        -0.11565
| 40>    C        7.19074        -4.83419        -1.23250
| 41>    C        7.08378        -5.91647        -0.43112
| 42>    C        7.67872        -7.16353        -0.76928
| 43>    N        7.70505        -8.25584         0.06540
| 44>    C        7.09452        -8.36306         1.36797
| 45>    C        5.58949        -8.60209         1.27182
| 46>    C        8.39340        -9.33954        -0.50868
| 47>    O        8.54510       -10.40862         0.05044
| 48>    C        8.81608        -8.85031        -1.80157
| 49>    C        8.35398        -7.51763        -1.93344
| 50>    C        8.76691        -7.02946        -3.23331
| 51>    O        8.56670        -5.97635        -3.80359
| 52>    N        9.47918        -8.10016        -3.79541
| 53>    C       10.11821        -7.97820        -5.08498
| 54>    C       11.60953        -7.68381        -4.95123
| 55>    C        9.52092        -9.18917        -2.95801
| 56>    C       10.17910       -10.39798        -3.28909
| 57>    C       10.18411       -11.47616        -2.46061
| 58>    C       10.82832       -12.70546        -2.74053
| 59>    S       10.66310       -13.99003        -1.57281
| 60>    C       11.63613       -15.10656        -2.49665
| 61>    C       12.07181       -14.48408        -3.66061
| 62>    C       11.61208       -13.14950        -3.80263
| 63>    C       12.08902       -12.57777        -5.06278
| 64>    O       11.91818       -11.46466        -5.50372
| 65>    C       12.87456       -13.67505        -5.75546
| 66>    C       12.90746       -14.85625        -4.80620
| 67>    O       13.53634       -15.87217        -4.98976
| 68>    C       11.78974       -16.42665        -2.00212
| 69>    C       12.46124       -17.41322        -2.64661
| 70>    C       12.53927       -18.74371        -2.17090
| 71>    C       12.95749       -19.81379        -2.90105
| 72>    C       13.36688       -21.07863        -2.21724
| 73>    O       13.14640       -21.38001        -1.06901
| 74>    C       14.12684       -21.81041        -3.23888
| 75>    C       14.85611       -22.95910        -3.31339
| 76>    S       15.49853       -23.17416        -4.92489
| 77>    C       14.76447       -21.71386        -5.48145
| 78>    C       14.07571       -21.09917        -4.48400
| 79>    C       13.24262       -19.92110        -4.32086
| 80>    C       12.69865       -19.20519        -5.35368
| 81>    C       13.06743       -19.46136        -6.69162
| 82>    N       13.36721       -19.65409        -7.78210
| 83>    C       11.66599       -18.25158        -5.24253
| 84>    N       10.78282       -17.51820        -5.23416
| 85>   Cl       15.15996       -24.08628        -2.08618
| 86>    H        2.08051         4.03219         2.85215
| 87>    H        4.87669         0.94314        -1.10097
| 88>    H        7.06974        -0.22669        -1.44824
| 89>    H        4.81435        -4.38309        -0.07841
| 90>    H        3.72758        -2.24059         0.32825
| 91>    H        7.75981        -4.91827        -2.15011
| 92>    H        6.58570        -5.83770         0.52511
| 93>    H        7.31089        -7.46240         1.94929
| 94>    H        7.56979        -9.21907         1.85520
| 95>    H        5.09625        -7.78706         0.74663
| 96>    H        5.16540        -8.68408         2.26872
| 97>    H        5.39450        -9.52654         0.73389
| 98>    H        9.62225        -7.14397        -5.58879
| 99>    H        9.95754        -8.89123        -5.66314
|100>    H       11.76050        -6.77480        -4.37385
|101>    H       12.04252        -7.54716        -5.93777
|102>    H       12.12473        -8.50458        -4.45849
|103>    H       10.69094       -10.45039        -4.23809
|104>    H        9.66507       -11.42289        -1.51156
|105>    H       13.88093       -13.34409        -6.02104
|106>    H       12.38482       -13.96016        -6.69017
|107>    H       11.27211       -16.64524        -1.07629
|108>    H       12.97520       -17.17955        -3.56698
|109>    H       12.30828       -18.93581        -1.12857
|110>    H       14.90251       -21.40997        -6.50003
|111> *
|112>
|113>                          ****END OF INPUT****

CARTESIAN COORDINATES (ANGSTROEM)
---------------------------------
  C      3.007230    2.107590    2.313720
  C      2.436740    3.054060    3.107970
  S      2.321240    2.510520    4.740970
  C      3.057320    0.974240    4.350910
  Cl     3.306750   -0.210670    5.534630
  C      3.361900    0.914810    3.022940
  C      3.963110   -0.059950    2.107690
  O      4.381250   -1.161930    2.374770
  C      4.007420    0.645260    0.783250
  C      3.363310    1.950190    0.919970
  C      3.074990    2.849270   -0.068610
  C      2.424780    4.069430    0.218260
  N      1.900670    5.065300    0.439150
  C      3.345370    2.674920   -1.441760
  N      3.523770    2.586340   -2.571890
  C      4.706880    0.232890   -0.300160
  C      5.320900   -1.060510   -0.499790
  C      6.561660   -1.127330   -1.134390
  C      7.194880   -2.342730   -1.317430
  N      8.540260   -2.318360   -1.838670
  O      8.862820   -1.354190   -2.497090
  O      9.273500   -3.239060   -1.548540
  C      6.589770   -3.556000   -0.939480
  C      5.325570   -3.470210   -0.341190
  C      4.709120   -2.261300   -0.115650
  C      7.190740   -4.834190   -1.232500
  C      7.083780   -5.916470   -0.431120
  C      7.678720   -7.163530   -0.769280
  N      7.705050   -8.255840    0.065400
  C      7.094520   -8.363060    1.367970
  C      5.589490   -8.602090    1.271820
  C      8.393400   -9.339540   -0.508680
  O      8.545100  -10.408620    0.050440
  C      8.816080   -8.850310   -1.801570
  C      8.353980   -7.517630   -1.933440
  C      8.766910   -7.029460   -3.233310
  O      8.566700   -5.976350   -3.803590
  N      9.479180   -8.100160   -3.795410
  C     10.118210   -7.978200   -5.084980
  C     11.609530   -7.683810   -4.951230
  C      9.520920   -9.189170   -2.958010
  C     10.179100  -10.397980   -3.289090
  C     10.184110  -11.476160   -2.460610
  C     10.828320  -12.705460   -2.740530
  S     10.663100  -13.990030   -1.572810
  C     11.636130  -15.106560   -2.496650
  C     12.071810  -14.484080   -3.660610
  C     11.612080  -13.149500   -3.802630
  C     12.089020  -12.577770   -5.062780
  O     11.918180  -11.464660   -5.503720
  C     12.874560  -13.675050   -5.755460
  C     12.907460  -14.856250   -4.806200
  O     13.536340  -15.872170   -4.989760
  C     11.789740  -16.426650   -2.002120
  C     12.461240  -17.413220   -2.646610
  C     12.539270  -18.743710   -2.170900
  C     12.957490  -19.813790   -2.901050
  C     13.366880  -21.078630   -2.217240
  O     13.146400  -21.380010   -1.069010
  C     14.126840  -21.810410   -3.238880
  C     14.856110  -22.959100   -3.313390
  S     15.498530  -23.174160   -4.924890
  C     14.764470  -21.713860   -5.481450
  C     14.075710  -21.099170   -4.484000
  C     13.242620  -19.921100   -4.320860
  C     12.698650  -19.205190   -5.353680
  C     13.067430  -19.461360   -6.691620
  N     13.367210  -19.654090   -7.782100
  C     11.665990  -18.251580   -5.242530
  N     10.782820  -17.518200   -5.234160
  Cl    15.159960  -24.086280   -2.086180
  H      2.080510    4.032190    2.852150
  H      4.876690    0.943140   -1.100970
  H      7.069740   -0.226690   -1.448240
  H      4.814350   -4.383090   -0.078410
  H      3.727580   -2.240590    0.328250
  H      7.759810   -4.918270   -2.150110
  H      6.585700   -5.837700    0.525110
  H      7.310890   -7.462400    1.949290
  H      7.569790   -9.219070    1.855200
  H      5.096250   -7.787060    0.746630
  H      5.165400   -8.684080    2.268720
  H      5.394500   -9.526540    0.733890
  H      9.622250   -7.143970   -5.588790
  H      9.957540   -8.891230   -5.663140
  H     11.760500   -6.774800   -4.373850
  H     12.042520   -7.547160   -5.937770
  H     12.124730   -8.504580   -4.458490
  H     10.690940  -10.450390   -4.238090
  H      9.665070  -11.422890   -1.511560
  H     13.880930  -13.344090   -6.021040
  H     12.384820  -13.960160   -6.690170
  H     11.272110  -16.645240   -1.076290
  H     12.975200  -17.179550   -3.566980
  H     12.308280  -18.935810   -1.128570
  H     14.902510  -21.409970   -6.500030

 Total Charge           Charge          ....    0
 Multiplicity           Mult            ....    1
 Number of Electrons    NEL             ....  526
 Basis Dimension        Dim             .... 1139

ORBITAL ENERGIES
----------------

  NO   OCC          E(Eh)            E(eV)
   0   2.0000    -101.626438     -2765.3960
   1   2.0000    -101.614920     -2765.0825
   2   2.0000     -89.002951     -2421.8934
   3   2.0000     -88.990159     -2421.5453
   4   2.0000     -88.987164     -2421.4638
   5   2.0000     -19.247061      -523.7392
   6   2.0000     -19.244938      -523.6814
   7   2.0000     -19.233066      -523.3583
   8   2.0000     -19.227223      -523.1993
   9   2.0000     -19.226853      -523.1893
  10   2.0000     -19.216743      -522.9142
  11   2.0000     -19.196328      -522.3586
  12   2.0000     -19.190786      -522.2078
  13   2.0000     -14.651663      -398.6920
  14   2.0000     -14.457492      -393.4083
  15   2.0000     -14.452626      -393.2760
  16   2.0000     -14.428835      -392.6286
  17   2.0000     -14.428588      -392.6218
  18   2.0000     -14.417485      -392.3197
  19   2.0000     -14.415116      -392.2552
  20   2.0000     -10.390710      -282.7456
  21   2.0000     -10.385848      -282.6133
  22   2.0000     -10.380187      -282.4592
  23   2.0000     -10.380017      -282.4546
  24   2.0000     -10.378110      -282.4027
  25   2.0000     -10.373713      -282.2831
  26   2.0000     -10.373258      -282.2707
  27   2.0000     -10.373070      -282.2656
  28   2.0000     -10.358619      -281.8724
  29   2.0000     -10.357891      -281.8525
  30   2.0000     -10.346669      -281.5472
  31   2.0000     -10.345682      -281.5203
  32   2.0000     -10.341922      -281.4180
  33   2.0000     -10.339414      -281.3498
  34   2.0000     -10.339143      -281.3424
  35   2.0000     -10.338861      -281.3347
  36   2.0000     -10.338734      -281.3313
  37   2.0000     -10.338013      -281.3116
  38   2.0000     -10.333781      -281.1965
  39   2.0000     -10.330446      -281.1057
  40   2.0000     -10.330181      -281.0985
  41   2.0000     -10.325866      -280.9811
  42   2.0000     -10.322494      -280.8893
  43   2.0000     -10.322065      -280.8777
  44   2.0000     -10.319984      -280.8210
  45   2.0000     -10.319277      -280.8018
  46   2.0000     -10.318546      -280.7819
  47   2.0000     -10.316185      -280.7177
  48   2.0000     -10.313870      -280.6547
  49   2.0000     -10.313362      -280.6408
  50   2.0000     -10.313209      -280.6367
  51   2.0000     -10.312694      -280.6227
  52   2.0000     -10.310168      -280.5539
  53   2.0000     -10.309743      -280.5424
  54   2.0000     -10.307341      -280.4770
  55   2.0000     -10.303839      -280.3817
  56   2.0000     -10.302644      -280.3492
  57   2.0000     -10.301873      -280.3282
  58   2.0000     -10.301808      -280.3265
  59   2.0000     -10.300763      -280.2980
  60   2.0000     -10.298929      -280.2481
  61   2.0000     -10.297597      -280.2119
  62   2.0000     -10.297517      -280.2097
  63   2.0000     -10.296915      -280.1933
  64   2.0000     -10.292844      -280.0825
  65   2.0000     -10.291506      -280.0461
  66   2.0000     -10.288936      -279.9762
  67   2.0000     -10.269625      -279.4507
  68   2.0000     -10.264533      -279.3121
  69   2.0000     -10.262778      -279.2644
  70   2.0000     -10.254855      -279.0488
  71   2.0000      -9.581169      -260.7169
  72   2.0000      -9.569687      -260.4044
  73   2.0000      -8.098727      -220.3776
  74   2.0000      -8.085900      -220.0285
  75   2.0000      -8.082574      -219.9380
  76   2.0000      -7.351802      -200.0527
  77   2.0000      -7.341218      -199.7647
  78   2.0000      -7.340672      -199.7498
  79   2.0000      -7.340315      -199.7401
  80   2.0000      -7.329724      -199.4519
  81   2.0000      -7.329203      -199.4378
  82   2.0000      -6.068071      -165.1206
  83   2.0000      -6.063473      -164.9955
  84   2.0000      -6.061007      -164.9284
  85   2.0000      -6.055289      -164.7728
  86   2.0000      -6.051596      -164.6723
  87   2.0000      -6.050702      -164.6480
  88   2.0000      -6.048120      -164.5777
  89   2.0000      -6.047396      -164.5580
  90   2.0000      -6.045213      -164.4986
  91   2.0000      -1.327642       -36.1270
  92   2.0000      -1.150654       -31.3109
  93   2.0000      -1.146912       -31.2091
  94   2.0000      -1.145335       -31.1662
  95   2.0000      -1.140510       -31.0349
  96   2.0000      -1.136560       -30.9274
  97   2.0000      -1.133341       -30.8398
  98   2.0000      -1.128693       -30.7133
  99   2.0000      -1.066551       -29.0223
 100   2.0000      -1.057245       -28.7691
 101   2.0000      -1.047773       -28.5113
 102   2.0000      -1.035164       -28.1682
 103   2.0000      -1.026221       -27.9249
 104   2.0000      -1.018193       -27.7064
 105   2.0000      -1.013910       -27.5899
 106   2.0000      -1.007178       -27.4067
 107   2.0000      -1.003159       -27.2973
 108   2.0000      -0.996371       -27.1126
 109   2.0000      -0.994795       -27.0698
 110   2.0000      -0.985490       -26.8165
 111   2.0000      -0.964707       -26.2510
 112   2.0000      -0.953461       -25.9450
 113   2.0000      -0.937612       -25.5137
 114   2.0000      -0.936747       -25.4902
 115   2.0000      -0.933017       -25.3887
 116   2.0000      -0.928170       -25.2568
 117   2.0000      -0.915642       -24.9159
 118   2.0000      -0.911914       -24.8145
 119   2.0000      -0.908956       -24.7340
 120   2.0000      -0.900466       -24.5029
 121   2.0000      -0.889945       -24.2166
 122   2.0000      -0.876911       -23.8620
 123   2.0000      -0.868474       -23.6324
 124   2.0000      -0.859316       -23.3832
 125   2.0000      -0.842090       -22.9144
 126   2.0000      -0.836407       -22.7598
 127   2.0000      -0.832196       -22.6452
 128   2.0000      -0.829356       -22.5679
 129   2.0000      -0.820463       -22.3259
 130   2.0000      -0.815052       -22.1787
 131   2.0000      -0.797921       -21.7125
 132   2.0000      -0.795429       -21.6447
 133   2.0000      -0.777169       -21.1478
 134   2.0000      -0.768155       -20.9026
 135   2.0000      -0.763995       -20.7894
 136   2.0000      -0.760620       -20.6975
 137   2.0000      -0.754170       -20.5220
 138   2.0000      -0.738177       -20.0868
 139   2.0000      -0.731381       -19.9019
 140   2.0000      -0.715349       -19.4656
 141   2.0000      -0.709568       -19.3083
 142   2.0000      -0.707728       -19.2583
 143   2.0000      -0.706672       -19.2295
 144   2.0000      -0.696832       -18.9618
 145   2.0000      -0.692956       -18.8563
 146   2.0000      -0.692183       -18.8353
 147   2.0000      -0.686343       -18.6763
 148   2.0000      -0.673687       -18.3319
 149   2.0000      -0.672840       -18.3089
 150   2.0000      -0.664831       -18.0910
 151   2.0000      -0.655768       -17.8444
 152   2.0000      -0.650736       -17.7074
 153   2.0000      -0.642374       -17.4799
 154   2.0000      -0.638434       -17.3727
 155   2.0000      -0.633448       -17.2370
 156   2.0000      -0.630998       -17.1703
 157   2.0000      -0.623097       -16.9553
 158   2.0000      -0.617524       -16.8037
 159   2.0000      -0.614649       -16.7254
 160   2.0000      -0.610661       -16.6169
 161   2.0000      -0.607272       -16.5247
 162   2.0000      -0.600735       -16.3468
 163   2.0000      -0.597925       -16.2704
 164   2.0000      -0.595492       -16.2042
 165   2.0000      -0.589694       -16.0464
 166   2.0000      -0.584669       -15.9097
 167   2.0000      -0.579261       -15.7625
 168   2.0000      -0.576035       -15.6747
 169   2.0000      -0.573097       -15.5948
 170   2.0000      -0.570743       -15.5307
 171   2.0000      -0.567971       -15.4553
 172   2.0000      -0.566242       -15.4082
 173   2.0000      -0.562013       -15.2932
 174   2.0000      -0.559700       -15.2302
 175   2.0000      -0.557511       -15.1707
 176   2.0000      -0.545251       -14.8370
 177   2.0000      -0.544726       -14.8227
 178   2.0000      -0.544534       -14.8175
 179   2.0000      -0.541514       -14.7353
 180   2.0000      -0.539127       -14.6704
 181   2.0000      -0.534057       -14.5324
 182   2.0000      -0.533717       -14.5232
 183   2.0000      -0.530303       -14.4303
 184   2.0000      -0.529327       -14.4037
 185   2.0000      -0.528186       -14.3727
 186   2.0000      -0.526714       -14.3326
 187   2.0000      -0.523439       -14.2435
 188   2.0000      -0.522633       -14.2216
 189   2.0000      -0.520826       -14.1724
 190   2.0000      -0.519472       -14.1355
 191   2.0000      -0.514660       -14.0046
 192   2.0000      -0.512404       -13.9432
 193   2.0000      -0.510235       -13.8842
 194   2.0000      -0.505647       -13.7593
 195   2.0000      -0.505275       -13.7492
 196   2.0000      -0.503547       -13.7022
 197   2.0000      -0.502026       -13.6608
 198   2.0000      -0.499005       -13.5786
 199   2.0000      -0.494552       -13.4574
 200   2.0000      -0.493957       -13.4412
 201   2.0000      -0.491186       -13.3659
 202   2.0000      -0.489428       -13.3180
 203   2.0000      -0.483902       -13.1676
 204   2.0000      -0.483358       -13.1529
 205   2.0000      -0.479987       -13.0611
 206   2.0000      -0.475946       -12.9511
 207   2.0000      -0.468603       -12.7513
 208   2.0000      -0.468448       -12.7471
 209   2.0000      -0.465380       -12.6636
 210   2.0000      -0.463928       -12.6241
 211   2.0000      -0.461733       -12.5644
 212   2.0000      -0.460958       -12.5433
 213   2.0000      -0.459357       -12.4997
 214   2.0000      -0.455538       -12.3958
 215   2.0000      -0.454580       -12.3697
 216   2.0000      -0.454433       -12.3658
 217   2.0000      -0.453462       -12.3393
 218   2.0000      -0.451862       -12.2958
 219   2.0000      -0.450005       -12.2453
 220   2.0000      -0.447630       -12.1806
 221   2.0000      -0.447212       -12.1693
 222   2.0000      -0.444174       -12.0866
 223   2.0000      -0.442798       -12.0492
 224   2.0000      -0.441449       -12.0124
 225   2.0000      -0.441351       -12.0098
 226   2.0000      -0.439818       -11.9680
 227   2.0000      -0.439045       -11.9470
 228   2.0000      -0.438053       -11.9200
 229   2.0000      -0.434369       -11.8198
 230   2.0000      -0.430088       -11.7033
 231   2.0000      -0.427039       -11.6203
 232   2.0000      -0.425936       -11.5903
 233   2.0000      -0.423366       -11.5204
 234   2.0000      -0.421614       -11.4727
 235   2.0000      -0.419370       -11.4116
 236   2.0000      -0.412326       -11.2199
 237   2.0000      -0.408746       -11.1225
 238   2.0000      -0.402958       -10.9651
 239   2.0000      -0.401130       -10.9153
 240   2.0000      -0.399359       -10.8671
 241   2.0000      -0.386790       -10.5251
 242   2.0000      -0.383233       -10.4283
 243   2.0000      -0.376210       -10.2372
 244   2.0000      -0.374206       -10.1827
 245   2.0000      -0.361770        -9.8443
 246   2.0000      -0.359207        -9.7745
 247   2.0000      -0.357542        -9.7292
 248   2.0000      -0.352965        -9.6047
 249   2.0000      -0.350351        -9.5335
 250   2.0000      -0.345994        -9.4150
 251   2.0000      -0.342872        -9.3300
 252   2.0000      -0.341327        -9.2880
 253   2.0000      -0.338222        -9.2035
 254   2.0000      -0.334539        -9.1033
 255   2.0000      -0.333145        -9.0653
 256   2.0000      -0.329233        -8.9589
 257   2.0000      -0.325495        -8.8572
 258   2.0000      -0.316986        -8.6256
 259   2.0000      -0.310377        -8.4458
 260   2.0000      -0.309507        -8.4221
 261   2.0000      -0.284030        -7.7289
 262   2.0000      -0.238921        -6.5014
 263   0.0000      -0.111914        -3.0453
 264   0.0000      -0.103207        -2.8084
 265   0.0000      -0.085114        -2.3161
 266   0.0000      -0.062541        -1.7018
 267   0.0000      -0.054186        -1.4745

MULLIKEN ATOMIC CHARGES
-----------------------
   0 C :    0.033113
   1 C :   -0.126877
   2 S :    0.194766
   3 C :   -0.170187
   4 Cl:    0.002704
   5 C :    0.073947
   6 C :    0.143512
   7 O :   -0.127842
   8 C :   -0.090031
   9 C :    0.280236
  10 C :   -0.315334
  11 C :   -0.191638
  12 N :    0.160995
  13 C :   -0.199240
  14 N :    0.172658
  15 C :   -0.030556
  16 C :    0.056912
  17 C :   -0.051260
  18 C :    0.149040
  19 N :    0.244620
  20 O :   -0.229653
  21 O :   -0.220317
  22 C :    0.068403
  23 C :   -0.050551
  24 C :    0.113586
  25 C :    0.020906
  26 C :   -0.034153
  27 C :    0.121472
  28 N :   -0.255373
  29 C :    0.100805
  30 C :    0.005822
  31 C :    0.162804
  32 O :   -0.211832
  33 C :   -0.058360
  34 C :   -0.060097
  35 C :    0.171450
  36 O :   -0.205108
  37 N :   -0.252872
  38 C :    0.100156
  39 C :    0.009562
  40 C :    0.121821
  41 C :   -0.019753
  42 C :    0.064415
  43 C :   -0.136868
  44 S :    0.201446
  45 C :   -0.140004
  46 C :    0.042249
  47 C :    0.011473
  48 C :    0.036302
  49 O :   -0.159399
  50 C :    0.077228
  51 C :    0.050240
  52 O :   -0.160694
  53 C :    0.063439
  54 C :    0.004087
  55 C :    0.027775
  56 C :   -0.120489
  57 C :    0.139719
  58 O :   -0.126755
  59 C :    0.080209
  60 C :   -0.172189
  61 S :    0.182603
  62 C :   -0.129295
  63 C :    0.021004
  64 C :    0.273570
  65 C :   -0.303005
  66 C :   -0.192724
  67 N :    0.153818
  68 C :   -0.201310
  69 N :    0.164535
  70 Cl:   -0.002479
  71 H :    0.056179
  72 H :    0.042788
  73 H :    0.009696
  74 H :   -0.009358
  75 H :   -0.005013
  76 H :    0.043568
  77 H :   -0.021226
  78 H :    0.025624
  79 H :    0.043813
  80 H :    0.010625
  81 H :    0.023921
  82 H :    0.029730
  83 H :    0.041196
  84 H :    0.034540
  85 H :    0.026960
  86 H :    0.024057
  87 H :    0.018229
  88 H :   -0.009930
  89 H :   -0.002036
  90 H :    0.066241
  91 H :    0.081605
  92 H :   -0.006494
  93 H :    0.047527
  94 H :    0.017300
  95 H :    0.053299
Sum of atomic charges:   -0.0000000

LOEWDIN ATOMIC CHARGES
----------------------
   0 C :   -0.059933
   1 C :   -0.147291
   2 S :    0.482788
   3 C :   -0.271410
   4 Cl:    0.194480
   5 C :   -0.118145
   6 C :    0.081065
   7 O :   -0.124795
   8 C :   -0.080718
   9 C :    0.072723
  10 C :   -0.128703
  11 C :   -0.015250
  12 N :   -0.044906
  13 C :   -0.027006
  14 N :   -0.036487
  15 C :    0.079811
  16 C :   -0.038981
  17 C :    0.025758
  18 C :   -0.024450
  19 N :    0.285014
  20 O :   -0.197411
  21 O :   -0.180881
  22 C :    0.008597
  23 C :   -0.009089
  24 C :    0.043321
  25 C :    0.036515
  26 C :   -0.041650
  27 C :    0.077100
  28 N :    0.000436
  29 C :    0.036879
  30 C :   -0.060706
  31 C :    0.081039
  32 O :   -0.201980
  33 C :   -0.116033
  34 C :   -0.117124
  35 C :    0.081842
  36 O :   -0.193157
  37 N :    0.005440
  38 C :    0.038125
  39 C :   -0.058372
  40 C :    0.072258
  41 C :   -0.015842
  42 C :   -0.013310
  43 C :   -0.128454
  44 S :    0.502908
  45 C :   -0.139609
  46 C :   -0.076805
  47 C :   -0.091196
  48 C :    0.086099
  49 O :   -0.137310
  50 C :   -0.062298
  51 C :    0.093141
  52 O :   -0.130052
  53 C :   -0.006602
  54 C :   -0.007636
  55 C :    0.065088
  56 C :   -0.078705
  57 C :    0.078511
  58 O :   -0.133855
  59 C :   -0.118223
  60 C :   -0.273122
  61 S :    0.471701
  62 C :   -0.152039
  63 C :   -0.055879
  64 C :    0.069201
  65 C :   -0.124848
  66 C :   -0.012690
  67 N :   -0.050741
  68 C :   -0.017291
  69 N :   -0.054797
  70 Cl:    0.190215
  71 H :    0.038815
  72 H :    0.050107
  73 H :    0.044458
  74 H :    0.035466
  75 H :    0.036591
  76 H :    0.038225
  77 H :    0.028790
  78 H :    0.024074
  79 H :    0.037926
  80 H :    0.020070
  81 H :    0.030910
  82 H :    0.032617
  83 H :    0.037029
  84 H :    0.028091
  85 H :    0.030730
  86 H :    0.032151
  87 H :    0.023564
  88 H :    0.030258
  89 H :    0.034273
  90 H :    0.062510
  91 H :    0.070644
  92 H :    0.033744
  93 H :    0.032143
  94 H :    0.044952
  95 H :    0.037584

  Mayer bond orders larger than 0.100000
B(  0-C ,  1-C ) :   1.5432 B(  0-C ,  5-C ) :   1.2186 B(  0-C ,  9-C ) :   1.0047
B(  1-C ,  2-S ) :   1.1654 B(  1-C , 71-H ) :   0.9538 B(  2-S ,  3-C ) :   1.1563
B(  3-C ,  4-Cl) :   1.1305 B(  3-C ,  5-C ) :   1.4732 B(  5-C ,  6-C ) :   0.9550
B(  6-C ,  7-O ) :   2.2406 B(  6-C ,  8-C ) :   0.9212 B(  8-C ,  9-C ) :   1.0413
B(  8-C , 15-C ) :   1.7030 B(  9-C , 10-C ) :   1.6794 B( 10-C , 11-C ) :   1.1425
B( 10-C , 13-C ) :   1.1298 B( 11-C , 12-N ) :   2.9935 B( 13-C , 14-N ) :   2.9930
B( 15-C , 16-C ) :   1.0509 B( 15-C , 72-H ) :   0.9496 B( 16-C , 17-C ) :   1.2814
B( 16-C , 24-C ) :   1.3346 B( 17-C , 18-C ) :   1.3872 B( 17-C , 73-H ) :   0.9994
B( 18-C , 19-N ) :   0.8774 B( 18-C , 22-C ) :   1.3375 B( 19-N , 20-O ) :   1.5570
B( 19-N , 21-O ) :   1.5351 B( 20-O , 21-O ) :   0.2689 B( 22-C , 23-C ) :   1.3411
B( 22-C , 25-C ) :   1.0500 B( 23-C , 24-C ) :   1.4069 B( 23-C , 74-H ) :   0.9932
B( 24-C , 75-H ) :   0.9825 B( 25-C , 26-C ) :   1.6842 B( 25-C , 76-H ) :   0.9121
B( 26-C , 27-C ) :   1.1446 B( 26-C , 77-H ) :   0.9642 B( 27-C , 28-N ) :   1.1615
B( 27-C , 34-C ) :   1.3529 B( 28-N , 29-C ) :   0.9448 B( 28-N , 31-C ) :   1.0599
B( 29-C , 30-C ) :   1.1203 B( 29-C , 78-H ) :   0.9505 B( 29-C , 79-H ) :   0.9284
B( 30-C , 80-H ) :   0.9692 B( 30-C , 81-H ) :   0.9678 B( 30-C , 82-H ) :   0.9637
B( 31-C , 32-O ) :   2.0219 B( 31-C , 33-C ) :   0.9865 B( 32-O , 89-H ) :   0.1134
B( 33-C , 34-C ) :   1.2581 B( 33-C , 40-C ) :   1.3205 B( 34-C , 35-C ) :   0.9771
B( 35-C , 36-O ) :   2.0287 B( 35-C , 37-N ) :   1.0647 B( 36-O , 76-H ) :   0.1139
B( 37-N , 38-C ) :   0.9368 B( 37-N , 40-C ) :   1.1685 B( 38-C , 39-C ) :   1.1266
B( 38-C , 83-H ) :   0.9276 B( 38-C , 84-H ) :   0.9477 B( 39-C , 85-H ) :   0.9637
B( 39-C , 86-H ) :   0.9671 B( 39-C , 87-H ) :   0.9671 B( 40-C , 41-C ) :   1.1684
B( 41-C , 42-C ) :   1.6009 B( 41-C , 88-H ) :   0.9346 B( 42-C , 43-C ) :   1.1613
B( 42-C , 89-H ) :   0.9283 B( 43-C , 44-S ) :   1.1681 B( 43-C , 47-C ) :   1.4083
B( 44-S , 45-C ) :   1.1378 B( 45-C , 46-C ) :   1.4391 B( 45-C , 53-C ) :   1.1399
B( 46-C , 47-C ) :   1.2432 B( 46-C , 51-C ) :   0.9458 B( 47-C , 48-C ) :   0.9580
B( 48-C , 49-O ) :   2.1273 B( 48-C , 50-C ) :   1.0073 B( 49-O , 88-H ) :   0.1127
B( 50-C , 51-C ) :   1.0106 B( 50-C , 90-H ) :   0.8969 B( 50-C , 91-H ) :   0.8913
B( 51-C , 52-O ) :   2.1176 B( 52-O , 93-H ) :   0.1166 B( 53-C , 54-C ) :   1.6703
B( 53-C , 92-H ) :   0.9639 B( 54-C , 55-C ) :   1.1227 B( 54-C , 93-H ) :   0.9156
B( 55-C , 56-C ) :   1.6389 B( 55-C , 94-H ) :   0.9612 B( 56-C , 57-C ) :   0.9346
B( 56-C , 64-C ) :   1.0381 B( 57-C , 58-O ) :   2.2855 B( 57-C , 59-C ) :   0.9241
B( 59-C , 60-C ) :   1.4866 B( 59-C , 63-C ) :   1.2220 B( 60-C , 61-S ) :   1.1515
B( 60-C , 70-Cl) :   1.1264 B( 61-S , 62-C ) :   1.1565 B( 62-C , 63-C ) :   1.5548
B( 62-C , 95-H ) :   0.9553 B( 63-C , 64-C ) :   1.0099 B( 64-C , 65-C ) :   1.6632
B( 65-C , 66-C ) :   1.1423 B( 65-C , 68-C ) :   1.1578 B( 66-C , 67-N ) :   2.9978
B( 68-C , 69-N ) :   2.9911

-----------------------------------------------------------------------------
         ABSORPTION SPECTRUM VIA TRANSITION ELECTRIC DIPOLE MOMENTS
-----------------------------------------------------------------------------
State   Energy  Wavelength   fosc         T2         TX        TY        TZ
        (cm-1)    (nm)                  (au**2)     (au)      (au)      (au)
-----------------------------------------------------------------------------
   0   13591.0    735.8   1.226659088  29.71305   2.31403  -4.64501  -1.66798
   1   17779.6    562.4   0.021136861   0.39138  -0.40423  -0.22654   0.42030
   2   20071.7    498.2   0.076440286   1.25376   0.05475   1.05462  -0.37221
   3   22698.8    440.6   0.396432742   5.74965   0.54114  -2.25164  -0.62204
   4   24015.7    416.4   0.067024116   0.91878  -0.63357   0.64649   0.31531
   5   26064.2    383.7   0.083360704   1.05291   0.29210  -0.98337   0.02406
   6   26318.1    380.0   0.222968875   2.78910  -0.81848   1.44409   0.18384
   7   26729.3    374.1   0.092116789   1.13456  -0.66951   0.82592  -0.06453
   8   27047.7    369.7   0.057832227   0.70391  -0.32716   0.61554  -0.46689
   9   27668.2    361.4   0.000661640   0.00787  -0.05799   0.05468   0.03899
  10   27798.8    359.7   0.086955583   1.02979  -0.18519   0.85837  -0.50862
  11   28189.3    354.7   0.002312255   0.02700  -0.02572  -0.11662   0.11288
  12   28446.1    351.5   0.007022531   0.08127  -0.11902  -0.04094   0.25580
  13   28782.6    347.4   0.025973387   0.29708   0.02745  -0.42414   0.34123
  14   29384.1    340.3   0.074713968   0.83708   0.17658  -0.74682   0.49815
  15   29638.1    337.4   0.070754501   0.78592  -0.36100   0.73413  -0.34155
  16   30204.5    331.1   0.004852444   0.05289  -0.11809   0.17670   0.08787
  17   30893.8    323.7   0.426760499   4.54767  -0.90004   1.85832   0.53315
  18   31646.5    316.0   0.089208158   0.92801   0.39846  -0.75825   0.44079
  19   31759.6    314.9   0.041029994   0.42531  -0.33811   0.53732   0.14922
  20   32321.9    309.4   0.013613001   0.13865   0.16111  -0.25667   0.21638
  21   32536.9    307.3   0.013275463   0.13432  -0.00604   0.36439  -0.03884
  22   33006.4    303.0   0.014365006   0.14328   0.25734  -0.18541   0.20659
  23   33608.4    297.5   0.015916646   0.15591   0.00244  -0.10856  -0.37963
  24   34452.9    290.3   0.110560583   1.05645  -0.06998   0.53724  -0.87346
  25   34586.9    289.1   0.052832367   0.50288   0.25879   0.43012  -0.50090
  26   34730.1    287.9   0.102701899   0.97353  -0.28993   0.75905   0.55974
  27   35067.9    285.2   0.222872061   2.09229  -0.59422   1.29518  -0.24840
  28   35198.6    284.1   0.011008190   0.10296  -0.13327   0.02143  -0.29110
  29   35499.0    281.7   0.075599561   0.70110  -0.18149   0.16907   0.79973
  30   35605.8    280.9   0.002709062   0.02505  -0.00499   0.14376  -0.06601
  31   35735.2    279.8   0.051151354   0.47123   0.40631  -0.53742   0.13163
  32   36298.8    275.5   0.017045892   0.15460  -0.00032   0.34939   0.18035
  33   36397.5    274.7   0.123894673   1.12062   0.48473  -0.27225  -0.90085
  34   36877.7    271.2   0.005322605   0.04752   0.01745  -0.20192  -0.08025
  35   37252.3    268.4   0.316892369   2.80049   0.01472   0.31548  -1.64339
  36   37545.9    266.3   0.084670988   0.74242   0.50997  -0.63723   0.27619
  37   37911.9    263.8   0.375072292   3.25698  -0.46823   1.37845  -1.06659
  38   38187.2    261.9   0.109008957   0.93977   0.47371  -0.32230  -0.78198
  39   38248.5    261.4   0.003911999   0.03367  -0.03271   0.16765  -0.06705
  40   38380.7    260.5   0.347782040   2.98312   0.84085  -1.44317   0.43971
  41   38500.1    259.7   0.087675814   0.74971  -0.47025  -0.22868   0.69013
  42   38744.9    258.1   0.145654310   1.23761   0.29681   0.56599  -0.91059
  43   38980.8    256.5   0.005086815   0.04296  -0.11609  -0.06614   0.15846
  44   39092.1    255.8   0.068831878   0.57966  -0.00958   0.03007  -0.76070
  45   39733.4    251.7   0.002114972   0.01752  -0.08699   0.05344  -0.08427
  46   39952.9    250.3   0.020995478   0.17300  -0.12389  -0.33695   0.21005
  47   40010.6    249.9   0.016574880   0.13638   0.33050   0.14421  -0.07971
  48   40286.6    248.2   0.034710624   0.28365  -0.33406   0.27495   0.31056

FINAL SINGLE POINT ENERGY     -5054.011819233697

DIPOLE MOMENT
-------------
                                X             Y             Z
Electronic contribution:      2.28160     -21.95370      21.35456
Nuclear contribution   :     -2.87527      21.56822     -18.29613
                        -----------------------------------------
Total Dipole Moment    :     -0.59366      -0.38547       3.05843
                        -----------------------------------------
Magnitude (a.u.)       :      3.13927
Magnitude (Debye)      :      7.97940

Rotational constants in cm-1:     0.002887     0.000171     0.000163
Rotational constants in MHz :    86.552246     5.118577     4.893335

                             ****ORCA TERMINATED NORMALLY****
TOTAL RUN TIME: 0 days 0 hours 8 minutes 59 seconds 702 msec
