                         Program Version 4.2.0 -  RELEASE  -
|  1> # ORCA input file
|  2> # SCF done       -197.900238862164          0.000988118151
|  3> ! CAM-B3LYP def2-SVP def2/J RIJCOSX Grid4 TightSCF
|  4> %maxcore 5000
|  5> %tddft
|  6>     Mode sTDDFT
|  7>     Ethresh 5.0
|  8>     maxcore 5000
|  9> end
| 10>
| 11> %pal
| 12>   nprocs 6
| 13>   end
| 14> * xyz 0 1
| 15>    C       -2.39067        -1.73898        -1.06256
| 16>    C       -3.06102        -0.57667        -0.83359
| 17>    S       -2.09893         0.52939         0.07505
| 18>    C       -0.76234        -0.59350         0.15294
| 19>   Cl        0.67626        -0.20128         0.95490
| 20>    C       -1.07460        -1.75120        -0.49742
| 21>    C       -0.41481        -3.02984        -0.77404
| 22>    O        0.70062        -3.36887        -0.45700
| 23>    C       -1.40886        -3.79551        -1.60075
| 24>    C       -2.63307        -3.00453        -1.72076
| 25>    C       -3.82188        -3.38265        -2.27897
| 26>    C       -4.93173        -2.50954        -2.29994
| 27>    N       -5.84098        -1.81114        -2.32196
| 28>    C       -4.09522        -4.64088        -2.85444
| 29>    N       -4.38300        -5.64976        -3.31906
| 30>    C       -1.14464        -4.93455        -2.28078
| 31>    C        0.02887        -5.77034        -2.14100
| 32>    C        0.58743        -6.35458        -3.27462
| 33>    C        1.72778        -7.13805        -3.18348
| 34>    N        2.28169        -7.62563        -4.42163
| 35>    O        1.55695        -7.62285        -5.39374
| 36>    O        3.43721        -7.99695        -4.43026
| 37>    C        2.33258        -7.41213        -1.94290
| 38>    C        1.72029        -6.86053        -0.80988
| 39>    C        0.60794        -6.05694        -0.89792
| 40>    C        3.48685        -8.27587        -1.79192
| 41>    C        4.43777        -8.06421        -0.86928
| 42>    C        5.59712        -8.89635        -0.62862
| 43>    C        6.50490        -8.51142         0.35397
| 44>    C        7.62242        -9.27980         0.64735
| 45>    N        8.50745        -8.76134         1.65330
| 46>    O        8.04261        -7.97432         2.45324
| 47>    O        9.66671        -9.12788         1.65769
| 48>    C        7.87474       -10.49229        -0.02009
| 49>    C        6.95386       -10.86283        -1.00859
| 50>    C        5.85876       -10.09026        -1.31654
| 51>    C        8.97386       -11.37077         0.33573
| 52>    C        9.56372       -12.21853        -0.50614
| 53>    C       10.65539       -13.17160        -0.15401
| 54>    C       10.19291       -14.61727        -0.41102
| 55>    O        9.53618       -15.00083        -1.33197
| 56>    O       10.63412       -15.40898         0.56644
| 57>    C       11.47055       -14.71150         1.48911
| 58>    C       11.11012       -13.22607         1.30269
| 59>    C       12.19690       -12.22481         1.67845
| 60>    C       13.57556       -12.61252         1.16231
| 61>    C       13.99267       -14.03262         1.52650
| 62>    C       12.93629       -15.10148         1.20160
| 63>    O       13.29783       -16.21796         2.00893
| 64>    C       14.08296       -15.86510         3.03133
| 65>    O       14.50053       -16.63311         3.84244
| 66>    C       14.34747       -14.34790         2.99136
| 67>    C       13.48948       -13.72108         4.03296
| 68>    C       13.96917       -12.98779         5.04752
| 69>    C       13.10877       -12.34937         5.99771
| 70>    N       13.56480       -11.65989         7.09283
| 71>    C       14.93764       -11.48742         7.49965
| 72>    C       15.61331       -10.34400         6.74528
| 73>    C       12.51362       -11.05649         7.81462
| 74>    O       12.69267       -10.40289         8.82249
| 75>    C       11.32478       -11.42082         7.08209
| 76>    C       11.72681       -12.23528         5.97932
| 77>    C       10.54138       -12.58429         5.24268
| 78>    O       10.36442       -13.27082         4.24605
| 79>    N        9.49793       -11.95208         5.93032
| 80>    C        8.15432       -11.98297         5.40721
| 81>    C        7.87156       -10.75481         4.54487
| 82>    C        9.95371       -11.24449         7.02135
| 83>    C        9.09339       -10.48612         7.88389
| 84>    C        9.54176        -9.81346         8.94545
| 85>    H       -4.04813        -0.28969        -1.13750
| 86>    H       -1.84798        -5.25892        -3.03858
| 87>    H        0.16467        -6.17322        -4.25237
| 88>    H        2.12606        -7.09660         0.16116
| 89>    H        0.15716        -5.67372         0.00252
| 90>    H        3.57024        -9.10355        -2.47991
| 91>    H        4.37646        -7.18153        -0.24535
| 92>    H        6.35961        -7.59307         0.90454
| 93>    H        7.10301       -11.79880        -1.52340
| 94>    H        5.18947       -10.41955        -2.09484
| 95>    H        9.33509       -11.29087         1.34978
| 96>    H        9.26563       -12.26745        -1.54465
| 97>    H       11.50372       -12.99722        -0.82855
| 98>    H       11.19996       -15.06644         2.48722
| 99>    H       10.24705       -13.04827         1.94941
|100>    H       12.22639       -12.12916         2.76227
|101>    H       11.92112       -11.24846         1.27519
|102>    H       14.31684       -11.91413         1.55372
|103>    H       13.59597       -12.52994         0.07265
|104>    H       14.88684       -14.27780         0.93970
|105>    H       12.99767       -15.43352         0.15925
|106>    H       15.39970       -14.15078         3.20764
|107>    H       12.42857       -13.90979         3.97266
|108>    H       15.03361       -12.83256         5.15141
|109>    H       15.48014       -12.42604         7.36001
|110>    H       14.91103       -11.25001         8.56702
|111>    H       15.61272       -10.52680         5.67283
|112>    H       16.64041       -10.23600         7.08261
|113>    H       15.08456        -9.41357         6.93650
|114>    H        7.43618       -12.06444         6.22624
|115>    H        8.08829       -12.88565         4.79228
|116>    H        7.91049        -9.84162         5.13406
|117>    H        6.88974       -10.83502         4.08549
|118>    H        8.62407       -10.68518         3.76306
|119>    H        8.04064       -10.47620         7.63743
|120>    H       10.58596        -9.80662         9.20905
|121>    H        8.87100        -9.25241         9.57291
|122> *
|123>
|124>                          ****END OF INPUT****

CARTESIAN COORDINATES (ANGSTROEM)
---------------------------------
  C     -2.390670   -1.738980   -1.062560
  C     -3.061020   -0.576670   -0.833590
  S     -2.098930    0.529390    0.075050
  C     -0.762340   -0.593500    0.152940
  Cl     0.676260   -0.201280    0.954900
  C     -1.074600   -1.751200   -0.497420
  C     -0.414810   -3.029840   -0.774040
  O      0.700620   -3.368870   -0.457000
  C     -1.408860   -3.795510   -1.600750
  C     -2.633070   -3.004530   -1.720760
  C     -3.821880   -3.382650   -2.278970
  C     -4.931730   -2.509540   -2.299940
  N     -5.840980   -1.811140   -2.321960
  C     -4.095220   -4.640880   -2.854440
  N     -4.383000   -5.649760   -3.319060
  C     -1.144640   -4.934550   -2.280780
  C      0.028870   -5.770340   -2.141000
  C      0.587430   -6.354580   -3.274620
  C      1.727780   -7.138050   -3.183480
  N      2.281690   -7.625630   -4.421630
  O      1.556950   -7.622850   -5.393740
  O      3.437210   -7.996950   -4.430260
  C      2.332580   -7.412130   -1.942900
  C      1.720290   -6.860530   -0.809880
  C      0.607940   -6.056940   -0.897920
  C      3.486850   -8.275870   -1.791920
  C      4.437770   -8.064210   -0.869280
  C      5.597120   -8.896350   -0.628620
  C      6.504900   -8.511420    0.353970
  C      7.622420   -9.279800    0.647350
  N      8.507450   -8.761340    1.653300
  O      8.042610   -7.974320    2.453240
  O      9.666710   -9.127880    1.657690
  C      7.874740  -10.492290   -0.020090
  C      6.953860  -10.862830   -1.008590
  C      5.858760  -10.090260   -1.316540
  C      8.973860  -11.370770    0.335730
  C      9.563720  -12.218530   -0.506140
  C     10.655390  -13.171600   -0.154010
  C     10.192910  -14.617270   -0.411020
  O      9.536180  -15.000830   -1.331970
  O     10.634120  -15.408980    0.566440
  C     11.470550  -14.711500    1.489110
  C     11.110120  -13.226070    1.302690
  C     12.196900  -12.224810    1.678450
  C     13.575560  -12.612520    1.162310
  C     13.992670  -14.032620    1.526500
  C     12.936290  -15.101480    1.201600
  O     13.297830  -16.217960    2.008930
  C     14.082960  -15.865100    3.031330
  O     14.500530  -16.633110    3.842440
  C     14.347470  -14.347900    2.991360
  C     13.489480  -13.721080    4.032960
  C     13.969170  -12.987790    5.047520
  C     13.108770  -12.349370    5.997710
  N     13.564800  -11.659890    7.092830
  C     14.937640  -11.487420    7.499650
  C     15.613310  -10.344000    6.745280
  C     12.513620  -11.056490    7.814620
  O     12.692670  -10.402890    8.822490
  C     11.324780  -11.420820    7.082090
  C     11.726810  -12.235280    5.979320
  C     10.541380  -12.584290    5.242680
  O     10.364420  -13.270820    4.246050
  N      9.497930  -11.952080    5.930320
  C      8.154320  -11.982970    5.407210
  C      7.871560  -10.754810    4.544870
  C      9.953710  -11.244490    7.021350
  C      9.093390  -10.486120    7.883890
  C      9.541760   -9.813460    8.945450
  H     -4.048130   -0.289690   -1.137500
  H     -1.847980   -5.258920   -3.038580
  H      0.164670   -6.173220   -4.252370
  H      2.126060   -7.096600    0.161160
  H      0.157160   -5.673720    0.002520
  H      3.570240   -9.103550   -2.479910
  H      4.376460   -7.181530   -0.245350
  H      6.359610   -7.593070    0.904540
  H      7.103010  -11.798800   -1.523400
  H      5.189470  -10.419550   -2.094840
  H      9.335090  -11.290870    1.349780
  H      9.265630  -12.267450   -1.544650
  H     11.503720  -12.997220   -0.828550
  H     11.199960  -15.066440    2.487220
  H     10.247050  -13.048270    1.949410
  H     12.226390  -12.129160    2.762270
  H     11.921120  -11.248460    1.275190
  H     14.316840  -11.914130    1.553720
  H     13.595970  -12.529940    0.072650
  H     14.886840  -14.277800    0.939700
  H     12.997670  -15.433520    0.159250
  H     15.399700  -14.150780    3.207640
  H     12.428570  -13.909790    3.972660
  H     15.033610  -12.832560    5.151410
  H     15.480140  -12.426040    7.360010
  H     14.911030  -11.250010    8.567020
  H     15.612720  -10.526800    5.672830
  H     16.640410  -10.236000    7.082610
  H     15.084560   -9.413570    6.936500
  H      7.436180  -12.064440    6.226240
  H      8.088290  -12.885650    4.792280
  H      7.910490   -9.841620    5.134060
  H      6.889740  -10.835020    4.085490
  H      8.624070  -10.685180    3.763060
  H      8.040640  -10.476200    7.637430
  H     10.585960   -9.806620    9.209050
  H      8.871000   -9.252410    9.572910

 Total Charge           Charge          ....    0
 Multiplicity           Mult            ....    1
 Number of Electrons    NEL             ....  506
 Basis Dimension        Dim             .... 1173

ORBITAL ENERGIES
----------------

  NO   OCC          E(Eh)            E(eV)
   0   2.0000    -101.627110     -2765.4143
   1   2.0000     -89.004415     -2421.9333
   2   2.0000     -19.261714      -524.1379
   3   2.0000     -19.257589      -524.0256
   4   2.0000     -19.251961      -523.8725
   5   2.0000     -19.251555      -523.8614
   6   2.0000     -19.250345      -523.8285
   7   2.0000     -19.249837      -523.8147
   8   2.0000     -19.234111      -523.3868
   9   2.0000     -19.199337      -522.4405
  10   2.0000     -19.197285      -522.3847
  11   2.0000     -19.196478      -522.3627
  12   2.0000     -19.192285      -522.2486
  13   2.0000     -14.657667      -398.8554
  14   2.0000     -14.655755      -398.8034
  15   2.0000     -14.456639      -393.3852
  16   2.0000     -14.456101      -393.3705
  17   2.0000     -14.430333      -392.6693
  18   2.0000     -14.429747      -392.6534
  19   2.0000     -10.397794      -282.9383
  20   2.0000     -10.393900      -282.8324
  21   2.0000     -10.391646      -282.7711
  22   2.0000     -10.386842      -282.6403
  23   2.0000     -10.378082      -282.4020
  24   2.0000     -10.374814      -282.3130
  25   2.0000     -10.359894      -281.9070
  26   2.0000     -10.359164      -281.8872
  27   2.0000     -10.343823      -281.4697
  28   2.0000     -10.341980      -281.4196
  29   2.0000     -10.340704      -281.3849
  30   2.0000     -10.339866      -281.3620
  31   2.0000     -10.337499      -281.2976
  32   2.0000     -10.335444      -281.2417
  33   2.0000     -10.334768      -281.2233
  34   2.0000     -10.333971      -281.2016
  35   2.0000     -10.332015      -281.1484
  36   2.0000     -10.331288      -281.1286
  37   2.0000     -10.326261      -280.9919
  38   2.0000     -10.323254      -280.9100
  39   2.0000     -10.321059      -280.8503
  40   2.0000     -10.315188      -280.6905
  41   2.0000     -10.314434      -280.6700
  42   2.0000     -10.314047      -280.6595
  43   2.0000     -10.311324      -280.5854
  44   2.0000     -10.310796      -280.5710
  45   2.0000     -10.310687      -280.5681
  46   2.0000     -10.309260      -280.5292
  47   2.0000     -10.303311      -280.3673
  48   2.0000     -10.301796      -280.3261
  49   2.0000     -10.300470      -280.2900
  50   2.0000     -10.300170      -280.2819
  51   2.0000     -10.299894      -280.2744
  52   2.0000     -10.298873      -280.2466
  53   2.0000     -10.297924      -280.2207
  54   2.0000     -10.296952      -280.1943
  55   2.0000     -10.295491      -280.1546
  56   2.0000     -10.294354      -280.1236
  57   2.0000     -10.293844      -280.1097
  58   2.0000     -10.292901      -280.0841
  59   2.0000     -10.287613      -279.9402
  60   2.0000     -10.287343      -279.9328
  61   2.0000     -10.281942      -279.7859
  62   2.0000     -10.280472      -279.7459
  63   2.0000     -10.280097      -279.7357
  64   2.0000     -10.278761      -279.6993
  65   2.0000     -10.268642      -279.4240
  66   2.0000     -10.266675      -279.3704
  67   2.0000     -10.265918      -279.3498
  68   2.0000     -10.260611      -279.2054
  69   2.0000     -10.259167      -279.1661
  70   2.0000      -9.581876      -260.7361
  71   2.0000      -8.099979      -220.4116
  72   2.0000      -7.352523      -200.0723
  73   2.0000      -7.341910      -199.7835
  74   2.0000      -7.341362      -199.7686
  75   2.0000      -6.069333      -165.1549
  76   2.0000      -6.064712      -165.0292
  77   2.0000      -6.062343      -164.9647
  78   2.0000      -1.332849       -36.2687
  79   2.0000      -1.330511       -36.2050
  80   2.0000      -1.200861       -32.6771
  81   2.0000      -1.192240       -32.4425
  82   2.0000      -1.151927       -31.3455
  83   2.0000      -1.151077       -31.3224
  84   2.0000      -1.148105       -31.2415
  85   2.0000      -1.136575       -30.9278
  86   2.0000      -1.129554       -30.7367
  87   2.0000      -1.109383       -30.1878
  88   2.0000      -1.103140       -30.0180
  89   2.0000      -1.066003       -29.0074
  90   2.0000      -1.057895       -28.7868
  91   2.0000      -1.048823       -28.5399
  92   2.0000      -1.027534       -27.9606
  93   2.0000      -1.008613       -27.4457
  94   2.0000      -1.005021       -27.3480
  95   2.0000      -0.997709       -27.1491
  96   2.0000      -0.994436       -27.0600
  97   2.0000      -0.965763       -26.2798
  98   2.0000      -0.953705       -25.9516
  99   2.0000      -0.939732       -25.5714
 100   2.0000      -0.932508       -25.3748
 101   2.0000      -0.928901       -25.2767
 102   2.0000      -0.923905       -25.1407
 103   2.0000      -0.915238       -24.9049
 104   2.0000      -0.907403       -24.6917
 105   2.0000      -0.904001       -24.5991
 106   2.0000      -0.894471       -24.3398
 107   2.0000      -0.889592       -24.2070
 108   2.0000      -0.879811       -23.9409
 109   2.0000      -0.872891       -23.7526
 110   2.0000      -0.863824       -23.5059
 111   2.0000      -0.849719       -23.1220
 112   2.0000      -0.843730       -22.9591
 113   2.0000      -0.842521       -22.9262
 114   2.0000      -0.829014       -22.5586
 115   2.0000      -0.822314       -22.3763
 116   2.0000      -0.812858       -22.1190
 117   2.0000      -0.800603       -21.7855
 118   2.0000      -0.795480       -21.6461
 119   2.0000      -0.790765       -21.5178
 120   2.0000      -0.779334       -21.2068
 121   2.0000      -0.768005       -20.8985
 122   2.0000      -0.765368       -20.8267
 123   2.0000      -0.763359       -20.7721
 124   2.0000      -0.746852       -20.3229
 125   2.0000      -0.738505       -20.0957
 126   2.0000      -0.727280       -19.7903
 127   2.0000      -0.716819       -19.5056
 128   2.0000      -0.712796       -19.3962
 129   2.0000      -0.708639       -19.2830
 130   2.0000      -0.705151       -19.1881
 131   2.0000      -0.704033       -19.1577
 132   2.0000      -0.692466       -18.8430
 133   2.0000      -0.687498       -18.7078
 134   2.0000      -0.677171       -18.4267
 135   2.0000      -0.669529       -18.2188
 136   2.0000      -0.663898       -18.0656
 137   2.0000      -0.662286       -18.0217
 138   2.0000      -0.658236       -17.9115
 139   2.0000      -0.655098       -17.8261
 140   2.0000      -0.649727       -17.6800
 141   2.0000      -0.644142       -17.5280
 142   2.0000      -0.642316       -17.4783
 143   2.0000      -0.636750       -17.3269
 144   2.0000      -0.634677       -17.2704
 145   2.0000      -0.630160       -17.1475
 146   2.0000      -0.625603       -17.0235
 147   2.0000      -0.623833       -16.9753
 148   2.0000      -0.617386       -16.7999
 149   2.0000      -0.616167       -16.7668
 150   2.0000      -0.610161       -16.6033
 151   2.0000      -0.607000       -16.5173
 152   2.0000      -0.603991       -16.4354
 153   2.0000      -0.601076       -16.3561
 154   2.0000      -0.599258       -16.3067
 155   2.0000      -0.592722       -16.1288
 156   2.0000      -0.590821       -16.0771
 157   2.0000      -0.582836       -15.8598
 158   2.0000      -0.579429       -15.7671
 159   2.0000      -0.578331       -15.7372
 160   2.0000      -0.576623       -15.6907
 161   2.0000      -0.569975       -15.5098
 162   2.0000      -0.563875       -15.3438
 163   2.0000      -0.562520       -15.3069
 164   2.0000      -0.556039       -15.1306
 165   2.0000      -0.553283       -15.0556
 166   2.0000      -0.549905       -14.9637
 167   2.0000      -0.547732       -14.9045
 168   2.0000      -0.545748       -14.8505
 169   2.0000      -0.543863       -14.7993
 170   2.0000      -0.542200       -14.7540
 171   2.0000      -0.540422       -14.7056
 172   2.0000      -0.539667       -14.6851
 173   2.0000      -0.536493       -14.5987
 174   2.0000      -0.533459       -14.5162
 175   2.0000      -0.532232       -14.4828
 176   2.0000      -0.528416       -14.3789
 177   2.0000      -0.527085       -14.3427
 178   2.0000      -0.524866       -14.2823
 179   2.0000      -0.521352       -14.1867
 180   2.0000      -0.520627       -14.1670
 181   2.0000      -0.517211       -14.0740
 182   2.0000      -0.515992       -14.0409
 183   2.0000      -0.512805       -13.9541
 184   2.0000      -0.511602       -13.9214
 185   2.0000      -0.508191       -13.8286
 186   2.0000      -0.505946       -13.7675
 187   2.0000      -0.500531       -13.6201
 188   2.0000      -0.500044       -13.6069
 189   2.0000      -0.496838       -13.5196
 190   2.0000      -0.493669       -13.4334
 191   2.0000      -0.489596       -13.3226
 192   2.0000      -0.488761       -13.2999
 193   2.0000      -0.483816       -13.1653
 194   2.0000      -0.481591       -13.1048
 195   2.0000      -0.478388       -13.0176
 196   2.0000      -0.476606       -12.9691
 197   2.0000      -0.469293       -12.7701
 198   2.0000      -0.467365       -12.7177
 199   2.0000      -0.466947       -12.7063
 200   2.0000      -0.463322       -12.6076
 201   2.0000      -0.462254       -12.5786
 202   2.0000      -0.460129       -12.5208
 203   2.0000      -0.459828       -12.5125
 204   2.0000      -0.458536       -12.4774
 205   2.0000      -0.456513       -12.4223
 206   2.0000      -0.455781       -12.4024
 207   2.0000      -0.454293       -12.3619
 208   2.0000      -0.452513       -12.3135
 209   2.0000      -0.449351       -12.2275
 210   2.0000      -0.443417       -12.0660
 211   2.0000      -0.442587       -12.0434
 212   2.0000      -0.442094       -12.0300
 213   2.0000      -0.441188       -12.0053
 214   2.0000      -0.439994       -11.9728
 215   2.0000      -0.438591       -11.9347
 216   2.0000      -0.436115       -11.8673
 217   2.0000      -0.434875       -11.8335
 218   2.0000      -0.433915       -11.8074
 219   2.0000      -0.430864       -11.7244
 220   2.0000      -0.428208       -11.6521
 221   2.0000      -0.426874       -11.6158
 222   2.0000      -0.422179       -11.4881
 223   2.0000      -0.418888       -11.3985
 224   2.0000      -0.414775       -11.2866
 225   2.0000      -0.413042       -11.2395
 226   2.0000      -0.401484       -10.9249
 227   2.0000      -0.398724       -10.8498
 228   2.0000      -0.395174       -10.7532
 229   2.0000      -0.392608       -10.6834
 230   2.0000      -0.390529       -10.6268
 231   2.0000      -0.389230       -10.5915
 232   2.0000      -0.387180       -10.5357
 233   2.0000      -0.385507       -10.4902
 234   2.0000      -0.376219       -10.2374
 235   2.0000      -0.375181       -10.2092
 236   2.0000      -0.365073        -9.9341
 237   2.0000      -0.364067        -9.9068
 238   2.0000      -0.360710        -9.8154
 239   2.0000      -0.356692        -9.7061
 240   2.0000      -0.352494        -9.5919
 241   2.0000      -0.350459        -9.5365
 242   2.0000      -0.349053        -9.4982
 243   2.0000      -0.347546        -9.4572
 244   2.0000      -0.347003        -9.4424
 245   2.0000      -0.338694        -9.2163
 246   2.0000      -0.334945        -9.1143
 247   2.0000      -0.329972        -8.9790
 248   2.0000      -0.327688        -8.9168
 249   2.0000      -0.315540        -8.5863
 250   2.0000      -0.315286        -8.5794
 251   2.0000      -0.286031        -7.7833
 252   2.0000      -0.248375        -6.7586
 253   0.0000      -0.104981        -2.8567
 254   0.0000      -0.069335        -1.8867
 255   0.0000      -0.068487        -1.8636
 256   0.0000      -0.060697        -1.6517
 257   0.0000      -0.056254        -1.5308

MULLIKEN ATOMIC CHARGES
-----------------------
   0 C :    0.032268
   1 C :   -0.125562
   2 S :    0.195233
   3 C :   -0.170257
   4 Cl:    0.004376
   5 C :    0.074338
   6 C :    0.143893
   7 O :   -0.125500
   8 C :   -0.091619
   9 C :    0.281258
  10 C :   -0.320844
  11 C :   -0.189275
  12 N :    0.160932
  13 C :   -0.200827
  14 N :    0.176212
  15 C :   -0.030348
  16 C :    0.059756
  17 C :   -0.056663
  18 C :    0.141287
  19 N :    0.246275
  20 O :   -0.229456
  21 O :   -0.232888
  22 C :    0.061227
  23 C :   -0.055251
  24 C :    0.116456
  25 C :    0.020678
  26 C :   -0.003594
  27 C :    0.109549
  28 C :   -0.077937
  29 C :    0.134671
  30 N :    0.249087
  31 O :   -0.236307
  32 O :   -0.238419
  33 C :    0.077342
  34 C :   -0.038501
  35 C :    0.022653
  36 C :    0.001284
  37 C :   -0.030172
  38 C :   -0.059196
  39 C :    0.185838
  40 O :   -0.164965
  41 O :   -0.254047
  42 C :    0.169221
  43 C :   -0.096218
  44 C :    0.089355
  45 C :    0.109967
  46 C :   -0.085989
  47 C :    0.159414
  48 O :   -0.250018
  49 C :    0.179688
  50 O :   -0.151081
  51 C :   -0.054464
  52 C :    0.003231
  53 C :   -0.002968
  54 C :    0.128392
  55 N :   -0.260757
  56 C :    0.098083
  57 C :    0.006856
  58 C :    0.162462
  59 O :   -0.202974
  60 C :   -0.062173
  61 C :   -0.061615
  62 C :    0.164479
  63 O :   -0.244855
  64 N :   -0.252568
  65 C :    0.097175
  66 C :   -0.001819
  67 C :    0.111504
  68 C :   -0.034919
  69 C :    0.013295
  70 H :    0.056421
  71 H :    0.041038
  72 H :    0.011412
  73 H :   -0.006769
  74 H :   -0.005849
  75 H :    0.016485
  76 H :   -0.006670
  77 H :   -0.000209
  78 H :    0.000918
  79 H :   -0.006847
  80 H :    0.017800
  81 H :    0.013839
  82 H :    0.035502
  83 H :    0.040613
  84 H :    0.036950
  85 H :    0.022567
  86 H :    0.015179
  87 H :    0.006212
  88 H :    0.003120
  89 H :    0.019393
  90 H :    0.016932
  91 H :    0.019576
  92 H :    0.042475
  93 H :   -0.023369
  94 H :    0.027402
  95 H :    0.043817
  96 H :    0.010786
  97 H :    0.024105
  98 H :    0.031831
  99 H :    0.026650
 100 H :    0.039637
 101 H :    0.025494
 102 H :    0.022720
 103 H :    0.019633
 104 H :   -0.019021
 105 H :    0.056071
 106 H :    0.030462
Sum of atomic charges:    0.0000000

LOEWDIN ATOMIC CHARGES
----------------------
   0 C :   -0.059888
   1 C :   -0.147336
   2 S :    0.484016
   3 C :   -0.271103
   4 Cl:    0.195783
   5 C :   -0.118518
   6 C :    0.080834
   7 O :   -0.123338
   8 C :   -0.080914
   9 C :    0.072844
  10 C :   -0.128828
  11 C :   -0.015329
  12 N :   -0.044556
  13 C :   -0.026439
  14 N :   -0.036997
  15 C :    0.079982
  16 C :   -0.041783
  17 C :    0.026344
  18 C :   -0.034410
  19 N :    0.285095
  20 O :   -0.198104
  21 O :   -0.192738
  22 C :    0.015562
  23 C :   -0.011842
  24 C :    0.046588
  25 C :   -0.012854
  26 C :   -0.005057
  27 C :   -0.027849
  28 C :    0.007987
  29 C :   -0.034204
  30 N :    0.288886
  31 O :   -0.202888
  32 O :   -0.197377
  33 C :    0.006502
  34 C :   -0.003235
  35 C :    0.019496
  36 C :   -0.034792
  37 C :    0.010029
  38 C :   -0.064624
  39 C :    0.080272
  40 O :   -0.155922
  41 O :   -0.062255
  42 C :    0.073178
  43 C :   -0.033359
  44 C :   -0.027063
  45 C :   -0.026767
  46 C :   -0.032431
  47 C :    0.068990
  48 O :   -0.064196
  49 C :    0.079890
  50 O :   -0.142527
  51 C :   -0.055284
  52 C :    0.040064
  53 C :   -0.052497
  54 C :    0.085616
  55 N :    0.001685
  56 C :    0.036437
  57 C :   -0.060956
  58 C :    0.084215
  59 O :   -0.195068
  60 C :   -0.123624
  61 C :   -0.131743
  62 C :    0.084571
  63 O :   -0.221418
  64 N :    0.005879
  65 C :    0.036375
  66 C :   -0.064099
  67 C :    0.079824
  68 C :   -0.053960
  69 C :    0.024409
  70 H :    0.038876
  71 H :    0.049565
  72 H :    0.044150
  73 H :    0.036305
  74 H :    0.036498
  75 H :    0.029264
  76 H :    0.031433
  77 H :    0.038440
  78 H :    0.039481
  79 H :    0.035998
  80 H :    0.025587
  81 H :    0.030371
  82 H :    0.045021
  83 H :    0.033629
  84 H :    0.033879
  85 H :    0.029148
  86 H :    0.034886
  87 H :    0.031737
  88 H :    0.023537
  89 H :    0.037254
  90 H :    0.030055
  91 H :    0.041671
  92 H :    0.030555
  93 H :    0.030084
  94 H :    0.025332
  95 H :    0.038442
  96 H :    0.019890
  97 H :    0.030930
  98 H :    0.033207
  99 H :    0.024297
 100 H :    0.035589
 101 H :    0.027327
 102 H :    0.029146
 103 H :    0.023016
 104 H :    0.029693
 105 H :    0.032737
 106 H :    0.029784

  Mayer bond orders larger than 0.100000
B(  0-C ,  1-C ) :   1.5403 B(  0-C ,  5-C ) :   1.2223 B(  0-C ,  9-C ) :   1.0061
B(  1-C ,  2-S ) :   1.1664 B(  1-C , 70-H ) :   0.9537 B(  2-S ,  3-C ) :   1.1562
B(  3-C ,  4-Cl) :   1.1319 B(  3-C ,  5-C ) :   1.4711 B(  5-C ,  6-C ) :   0.9546
B(  6-C ,  7-O ) :   2.2420 B(  6-C ,  8-C ) :   0.9195 B(  8-C ,  9-C ) :   1.0393
B(  8-C , 15-C ) :   1.7088 B(  9-C , 10-C ) :   1.6804 B( 10-C , 11-C ) :   1.1393
B( 10-C , 13-C ) :   1.1361 B( 11-C , 12-N ) :   2.9952 B( 13-C , 14-N ) :   2.9917
B( 15-C , 16-C ) :   1.0425 B( 15-C , 71-H ) :   0.9513 B( 16-C , 17-C ) :   1.2925
B( 16-C , 24-C ) :   1.3282 B( 17-C , 18-C ) :   1.3689 B( 17-C , 72-H ) :   0.9979
B( 18-C , 19-N ) :   0.8844 B( 18-C , 22-C ) :   1.3433 B( 19-N , 20-O ) :   1.5629
B( 19-N , 21-O ) :   1.5215 B( 20-O , 21-O ) :   0.2637 B( 22-C , 23-C ) :   1.3412
B( 22-C , 25-C ) :   1.0544 B( 23-C , 24-C ) :   1.4108 B( 23-C , 73-H ) :   0.9932
B( 24-C , 74-H ) :   0.9834 B( 25-C , 26-C ) :   1.7598 B( 25-C , 75-H ) :   0.9338
B( 26-C , 27-C ) :   1.0697 B( 26-C , 76-H ) :   0.9840 B( 27-C , 28-C ) :   1.3070
B( 27-C , 35-C ) :   1.3128 B( 28-C , 29-C ) :   1.3503 B( 28-C , 77-H ) :   1.0004
B( 29-C , 30-N ) :   0.8875 B( 29-C , 33-C ) :   1.3532 B( 30-N , 31-O ) :   1.5457
B( 30-N , 32-O ) :   1.5044 B( 31-O , 32-O ) :   0.2596 B( 33-C , 34-C ) :   1.3396
B( 33-C , 36-C ) :   1.0514 B( 34-C , 35-C ) :   1.4209 B( 34-C , 78-H ) :   0.9898
B( 35-C , 79-H ) :   0.9904 B( 36-C , 37-C ) :   1.8765 B( 36-C , 80-H ) :   0.9290
B( 37-C , 38-C ) :   1.0025 B( 37-C , 81-H ) :   0.9699 B( 38-C , 39-C ) :   0.8944
B( 38-C , 43-C ) :   0.9954 B( 38-C , 82-H ) :   0.8709 B( 39-C , 40-O ) :   2.2278
B( 39-C , 41-O ) :   1.1605 B( 41-O , 42-C ) :   0.9387 B( 42-C , 43-C ) :   1.0292
B( 42-C , 47-C ) :   0.9775 B( 42-C , 83-H ) :   0.9052 B( 43-C , 44-C ) :   1.0711
B( 43-C , 84-H ) :   0.8807 B( 44-C , 45-C ) :   1.0688 B( 44-C , 85-H ) :   0.9269
B( 44-C , 86-H ) :   0.9197 B( 45-C , 46-C ) :   1.0609 B( 45-C , 87-H ) :   0.9239
B( 45-C , 88-H ) :   0.9339 B( 46-C , 47-C ) :   1.0114 B( 46-C , 51-C ) :   0.9859
B( 46-C , 89-H ) :   0.9097 B( 47-C , 48-O ) :   0.9572 B( 47-C , 90-H ) :   0.9177
B( 48-O , 49-C ) :   1.1408 B( 49-C , 50-O ) :   2.2494 B( 49-C , 51-C ) :   0.8820
B( 51-C , 52-C ) :   0.9959 B( 51-C , 91-H ) :   0.9153 B( 52-C , 53-C ) :   1.7612
B( 52-C , 92-H ) :   0.9272 B( 53-C , 54-C ) :   1.1027 B( 53-C , 93-H ) :   0.9704
B( 54-C , 55-N ) :   1.1775 B( 54-C , 61-C ) :   1.3645 B( 55-N , 56-C ) :   0.9456
B( 55-N , 58-C ) :   1.0421 B( 56-C , 57-C ) :   1.1213 B( 56-C , 94-H ) :   0.9508
B( 56-C , 95-H ) :   0.9284 B( 57-C , 96-H ) :   0.9680 B( 57-C , 97-H ) :   0.9678
B( 57-C , 98-H ) :   0.9632 B( 58-C , 59-O ) :   2.0553 B( 58-C , 60-C ) :   0.9833
B( 60-C , 61-C ) :   1.2221 B( 60-C , 67-C ) :   1.3935 B( 61-C , 62-C ) :   1.0082
B( 62-C , 63-O ) :   1.9315 B( 62-C , 64-N ) :   1.0886 B( 64-N , 65-C ) :   0.9484
B( 64-N , 67-C ) :   1.1500 B( 65-C , 66-C ) :   1.1163 B( 65-C , 99-H ) :   0.9497
B( 65-C ,100-H ) :   0.9287 B( 66-C ,101-H ) :   0.9627 B( 66-C ,102-H ) :   0.9676
B( 66-C ,103-H ) :   0.9611 B( 67-C , 68-C ) :   1.1256 B( 68-C , 69-C ) :   1.8922
B( 68-C ,104-H ) :   0.9534 B( 69-C ,105-H ) :   0.9285 B( 69-C ,106-H ) :   0.9444

-----------------------------------------------------------------------------
         ABSORPTION SPECTRUM VIA TRANSITION ELECTRIC DIPOLE MOMENTS
-----------------------------------------------------------------------------
State   Energy  Wavelength   fosc         T2         TX        TY        TZ
        (cm-1)    (nm)                  (au**2)     (au)      (au)      (au)
-----------------------------------------------------------------------------
   0   21856.7    457.5   0.350688976   5.28218   2.20765  -0.55354  -0.31948
   1   24366.0    410.4   0.827708710  11.18325  -2.70892   1.93075  -0.34232
   2   24554.7    407.3   0.000040127   0.00054   0.01970  -0.01222   0.00062
   3   26878.4    372.0   0.000006566   0.00008   0.00480  -0.00473   0.00591
   4   28054.7    356.4   0.178711432   2.09711   1.07742  -0.91226   0.32258
   5   28853.6    346.6   0.002324887   0.02653   0.16006  -0.02807  -0.01087
   6   29701.6    336.7   0.038291729   0.42442  -0.14920  -0.61240  -0.16470
   7   29798.4    335.6   0.045927450   0.50741  -0.37545   0.60224  -0.06121
   8   30460.2    328.3   0.083313076   0.90044  -0.09374  -0.37453  -0.86682
   9   31656.7    315.9   0.000902949   0.00939  -0.04306  -0.01874   0.08476
  10   32022.2    312.3   0.000003747   0.00004  -0.00524   0.00079  -0.00323
  11   32649.6    306.3   0.078310738   0.78962  -0.77218  -0.16565  -0.40734
  12   33267.0    300.6   0.020992413   0.20774   0.45425  -0.03403   0.01545
  13   34515.1    289.7   0.000003032   0.00003   0.00505  -0.00176  -0.00056
  14   34696.9    288.2   0.003317120   0.03147  -0.16832   0.04194  -0.03721
  15   35232.4    283.8   0.140453293   1.31240   0.29203   0.73826   0.82589
  16   35396.1    282.5   0.003190377   0.02967  -0.07252   0.08770   0.12932
  17   35896.7    278.6   0.299751291   2.74905   0.89898  -1.39280  -0.03153
  18   35935.0    278.3   0.000118522   0.00109   0.00304  -0.02790  -0.01727
  19   36109.3    276.9   0.024095036   0.21968   0.22212   0.36248   0.19734
  20   36583.8    273.3   0.086831777   0.78139   0.74400  -0.34608   0.32875
  21   36818.8    271.6   0.000006178   0.00006  -0.00440   0.00599  -0.00006
  22   37503.9    266.6   0.284670381   2.49886  -0.31745   0.91176   1.25171
  23   37985.8    263.3   0.461353139   3.99841   0.91254   1.57335   0.83081
  24   38335.4    260.9   0.722024567   6.20052   2.30775  -0.61097   0.70819
  25   39124.1    255.6   0.000408899   0.00344  -0.04483   0.02694   0.02655
  26   39376.4    254.0   0.284104723   2.37530   0.48144  -1.04569  -1.02472
  27   39905.7    250.6   0.129363685   1.06722  -0.21529  -0.80796  -0.60669

FINAL SINGLE POINT ENERGY     -3975.752089217337

DIPOLE MOMENT
-------------
                                X             Y             Z
Electronic contribution:   -109.38412      76.84607     -44.51290
Nuclear contribution   :    109.83989     -73.57817      45.74581
                        -----------------------------------------
Total Dipole Moment    :      0.45577       3.26790       1.23291
                        -----------------------------------------
Magnitude (a.u.)       :      3.52235
Magnitude (Debye)      :      8.95311

Rotational constants in cm-1:     0.001735     0.000269     0.000243
Rotational constants in MHz :    52.016262     8.076221     7.283984

                             ****ORCA TERMINATED NORMALLY****
TOTAL RUN TIME: 0 days 0 hours 10 minutes 13 seconds 440 msec
