                         Program Version 4.2.0 -  RELEASE  -
|  1> # ORCA input file
|  2> # SCF done       -158.876732459265          0.000477071653
|  3> ! CAM-B3LYP def2-SVP def2/J RIJCOSX Grid4 TightSCF
|  4> %maxcore 5000
|  5> %tddft
|  6>     Mode sTDDFT
|  7>     Ethresh 5.0
|  8>     maxcore 5000
|  9> end
| 10>
| 11> %pal
| 12>   nprocs 6
| 13>   end
| 14> * xyz 0 1
| 15>    C        2.91116         3.21097        -0.86996
| 16>    C        2.67399         4.54726        -0.76185
| 17>    S        4.01553         5.36323        -0.04872
| 18>    C        4.92281         3.87722         0.10626
| 19>   Cl        6.47581         3.85524         0.77933
| 20>    C        4.19732         2.82543        -0.37093
| 21>    C        4.38343         1.37934        -0.51474
| 22>    O        5.36546         0.72867        -0.24821
| 23>    C        3.11181         0.89624        -1.15341
| 24>    C        2.21974         2.03648        -1.35622
| 25>    C        0.94929         2.03178        -1.86239
| 26>    C        0.19993         3.22353        -1.97478
| 27>    N       -0.42084         4.18242        -2.07712
| 28>    C        0.24352         0.89868        -2.31547
| 29>    N       -0.38409         0.01749        -2.69928
| 30>    C        2.89853        -0.35918        -1.60960
| 31>    C        3.71639        -1.52444        -1.35270
| 32>    C        4.27344        -1.78201        -0.10369
| 33>    C        5.03496        -2.91880         0.10910
| 34>    N        5.59226        -3.08237         1.42950
| 35>    O        5.03144        -2.51420         2.34098
| 36>    O        6.58209        -3.77218         1.55370
| 37>    C        5.27784        -3.85204        -0.91568
| 38>    C        4.68511        -3.58671        -2.15805
| 39>    C        3.91539        -2.46761        -2.37052
| 40>    C        6.02610        -5.07416        -0.70967
| 41>    C        6.78019        -5.65125        -1.65941
| 42>    C        7.50921        -6.88589        -1.51261
| 43>    C        7.62728        -7.62094        -0.32092
| 44>    N        8.25545        -8.77047        -0.25398
| 45>    C        8.81934        -9.23229        -1.37350
| 46>    N        8.81576        -8.59572        -2.54869
| 47>    C        8.17311        -7.45376        -2.61120
| 48>    C        9.47760       -10.50633        -1.32175
| 49>    S       10.24543       -11.12926        -2.74348
| 50>    C       10.70930       -12.58541        -1.90884
| 51>    C       10.27223       -12.55657        -0.57847
| 52>    C        9.58130       -11.37255        -0.26393
| 53>    C       10.48411       -13.61619         0.40672
| 54>    O       10.09688       -13.55751         1.54802
| 55>    C       11.41605       -13.62197        -2.56076
| 56>    C       11.84282       -13.55937        -3.84954
| 57>    C       12.51825       -14.63355        -4.47828
| 58>    N       12.96316       -14.60458        -5.78106
| 59>    C       12.80012       -13.52252        -6.72074
| 60>    C       11.38912       -13.47876        -7.30268
| 61>    C       13.58210       -15.80985        -6.15681
| 62>    O       14.04564       -16.00480        -7.26289
| 63>    C       13.51163       -16.63280        -4.96989
| 64>    C       12.85546       -15.87906        -3.95752
| 65>    C       12.78851       -16.69625        -2.77153
| 66>    O       12.33265       -16.49036        -1.66097
| 67>    N       13.41415       -17.89953        -3.14136
| 68>    C       13.49268       -19.00703        -2.22014
| 69>    C       12.40907       -20.04822        -2.49112
| 70>    C       13.84189       -17.87547        -4.44781
| 71>    C       14.51306       -18.97477        -5.07942
| 72>    C       14.90437       -18.94841        -6.35547
| 73>    H        1.80891         5.11019        -1.05146
| 74>    H        2.04892        -0.53629        -2.25819
| 75>    H        4.10953        -1.11445         0.72746
| 76>    H        4.81161        -4.30331        -2.95468
| 77>    H        3.46937        -2.29929        -3.33967
| 78>    H        5.97663        -5.51714         0.27397
| 79>    H        6.88754        -5.17119        -2.62475
| 80>    H        7.21108        -7.26532         0.61214
| 81>    H        8.17476        -6.96269        -3.57761
| 82>    H        9.16979       -11.16655         0.70735
| 83>    H       11.03252       -14.49838         0.03507
| 84>    H       11.61481       -14.51708        -1.98730
| 85>    H       11.65997       -12.66132        -4.42334
| 86>    H       13.52048       -13.70905        -7.52240
| 87>    H       13.05004       -12.57534        -6.23441
| 88>    H       11.17242       -14.41118        -7.81808
| 89>    H       11.31058       -12.66162        -8.01438
| 90>    H       10.64744       -13.33453        -6.52025
| 91>    H       13.34855       -18.58067        -1.22321
| 92>    H       14.48808       -19.45711        -2.26928
| 93>    H       11.42632       -19.59379        -2.39161
| 94>    H       12.49053       -20.85999        -1.77357
| 95>    H       12.50160       -20.45587        -3.49553
| 96>    H       14.69846       -19.84876        -4.47036
| 97>    H       14.73123       -18.08877        -6.98102
| 98>    H       15.40849       -19.78890        -6.80036
| 99> *
|100>
|101>                          ****END OF INPUT****

CARTESIAN COORDINATES (ANGSTROEM)
---------------------------------
  C      2.911160    3.210970   -0.869960
  C      2.673990    4.547260   -0.761850
  S      4.015530    5.363230   -0.048720
  C      4.922810    3.877220    0.106260
  Cl     6.475810    3.855240    0.779330
  C      4.197320    2.825430   -0.370930
  C      4.383430    1.379340   -0.514740
  O      5.365460    0.728670   -0.248210
  C      3.111810    0.896240   -1.153410
  C      2.219740    2.036480   -1.356220
  C      0.949290    2.031780   -1.862390
  C      0.199930    3.223530   -1.974780
  N     -0.420840    4.182420   -2.077120
  C      0.243520    0.898680   -2.315470
  N     -0.384090    0.017490   -2.699280
  C      2.898530   -0.359180   -1.609600
  C      3.716390   -1.524440   -1.352700
  C      4.273440   -1.782010   -0.103690
  C      5.034960   -2.918800    0.109100
  N      5.592260   -3.082370    1.429500
  O      5.031440   -2.514200    2.340980
  O      6.582090   -3.772180    1.553700
  C      5.277840   -3.852040   -0.915680
  C      4.685110   -3.586710   -2.158050
  C      3.915390   -2.467610   -2.370520
  C      6.026100   -5.074160   -0.709670
  C      6.780190   -5.651250   -1.659410
  C      7.509210   -6.885890   -1.512610
  C      7.627280   -7.620940   -0.320920
  N      8.255450   -8.770470   -0.253980
  C      8.819340   -9.232290   -1.373500
  N      8.815760   -8.595720   -2.548690
  C      8.173110   -7.453760   -2.611200
  C      9.477600  -10.506330   -1.321750
  S     10.245430  -11.129260   -2.743480
  C     10.709300  -12.585410   -1.908840
  C     10.272230  -12.556570   -0.578470
  C      9.581300  -11.372550   -0.263930
  C     10.484110  -13.616190    0.406720
  O     10.096880  -13.557510    1.548020
  C     11.416050  -13.621970   -2.560760
  C     11.842820  -13.559370   -3.849540
  C     12.518250  -14.633550   -4.478280
  N     12.963160  -14.604580   -5.781060
  C     12.800120  -13.522520   -6.720740
  C     11.389120  -13.478760   -7.302680
  C     13.582100  -15.809850   -6.156810
  O     14.045640  -16.004800   -7.262890
  C     13.511630  -16.632800   -4.969890
  C     12.855460  -15.879060   -3.957520
  C     12.788510  -16.696250   -2.771530
  O     12.332650  -16.490360   -1.660970
  N     13.414150  -17.899530   -3.141360
  C     13.492680  -19.007030   -2.220140
  C     12.409070  -20.048220   -2.491120
  C     13.841890  -17.875470   -4.447810
  C     14.513060  -18.974770   -5.079420
  C     14.904370  -18.948410   -6.355470
  H      1.808910    5.110190   -1.051460
  H      2.048920   -0.536290   -2.258190
  H      4.109530   -1.114450    0.727460
  H      4.811610   -4.303310   -2.954680
  H      3.469370   -2.299290   -3.339670
  H      5.976630   -5.517140    0.273970
  H      6.887540   -5.171190   -2.624750
  H      7.211080   -7.265320    0.612140
  H      8.174760   -6.962690   -3.577610
  H      9.169790  -11.166550    0.707350
  H     11.032520  -14.498380    0.035070
  H     11.614810  -14.517080   -1.987300
  H     11.659970  -12.661320   -4.423340
  H     13.520480  -13.709050   -7.522400
  H     13.050040  -12.575340   -6.234410
  H     11.172420  -14.411180   -7.818080
  H     11.310580  -12.661620   -8.014380
  H     10.647440  -13.334530   -6.520250
  H     13.348550  -18.580670   -1.223210
  H     14.488080  -19.457110   -2.269280
  H     11.426320  -19.593790   -2.391610
  H     12.490530  -20.859990   -1.773570
  H     12.501600  -20.455870   -3.495530
  H     14.698460  -19.848760   -4.470360
  H     14.731230  -18.088770   -6.981020
  H     15.408490  -19.788900   -6.800360

 Total Charge           Charge          ....    0
 Multiplicity           Mult            ....    1
 Number of Electrons    NEL             ....  424
 Basis Dimension        Dim             ....  954

ORBITAL ENERGIES
----------------

  NO   OCC          E(Eh)            E(eV)
   0   2.0000    -101.624400     -2765.3405
   1   2.0000     -89.002149     -2421.8716
   2   2.0000     -88.963616     -2420.8231
   3   2.0000     -19.250797      -523.8408
   4   2.0000     -19.249146      -523.7959
   5   2.0000     -19.231611      -523.3187
   6   2.0000     -19.200269      -522.4659
   7   2.0000     -19.190911      -522.2112
   8   2.0000     -19.186404      -522.0886
   9   2.0000     -14.655878      -398.8067
  10   2.0000     -14.452034      -393.2598
  11   2.0000     -14.450176      -393.2093
  12   2.0000     -14.430925      -392.6854
  13   2.0000     -14.428744      -392.6261
  14   2.0000     -14.421333      -392.4244
  15   2.0000     -14.419855      -392.3842
  16   2.0000     -10.389227      -282.7053
  17   2.0000     -10.384587      -282.5790
  18   2.0000     -10.371801      -282.2310
  19   2.0000     -10.370060      -282.1837
  20   2.0000     -10.358957      -281.8816
  21   2.0000     -10.358359      -281.8653
  22   2.0000     -10.356022      -281.8017
  23   2.0000     -10.345123      -281.5051
  24   2.0000     -10.340551      -281.3807
  25   2.0000     -10.338144      -281.3152
  26   2.0000     -10.336408      -281.2680
  27   2.0000     -10.334788      -281.2239
  28   2.0000     -10.333622      -281.1922
  29   2.0000     -10.332783      -281.1693
  30   2.0000     -10.331472      -281.1336
  31   2.0000     -10.330937      -281.1191
  32   2.0000     -10.330461      -281.1061
  33   2.0000     -10.326310      -280.9932
  34   2.0000     -10.321494      -280.8621
  35   2.0000     -10.319719      -280.8138
  36   2.0000     -10.317381      -280.7502
  37   2.0000     -10.314047      -280.6595
  38   2.0000     -10.311776      -280.5977
  39   2.0000     -10.311381      -280.5869
  40   2.0000     -10.308560      -280.5102
  41   2.0000     -10.306970      -280.4669
  42   2.0000     -10.306666      -280.4586
  43   2.0000     -10.303907      -280.3836
  44   2.0000     -10.303451      -280.3711
  45   2.0000     -10.301608      -280.3210
  46   2.0000     -10.300671      -280.2955
  47   2.0000     -10.297395      -280.2064
  48   2.0000     -10.294660      -280.1319
  49   2.0000     -10.292787      -280.0810
  50   2.0000     -10.285609      -279.8856
  51   2.0000     -10.281685      -279.7789
  52   2.0000     -10.279987      -279.7327
  53   2.0000     -10.276753      -279.6447
  54   2.0000     -10.262882      -279.2672
  55   2.0000     -10.262610      -279.2598
  56   2.0000     -10.257448      -279.1194
  57   2.0000     -10.255703      -279.0719
  58   2.0000      -9.579146      -260.6618
  59   2.0000      -8.097894      -220.3549
  60   2.0000      -8.058585      -219.2853
  61   2.0000      -7.349819      -199.9988
  62   2.0000      -7.339181      -199.7093
  63   2.0000      -7.338602      -199.6935
  64   2.0000      -6.067259      -165.0985
  65   2.0000      -6.062615      -164.9721
  66   2.0000      -6.060185      -164.9060
  67   2.0000      -6.027718      -164.0225
  68   2.0000      -6.023631      -163.9113
  69   2.0000      -6.021007      -163.8399
  70   2.0000      -1.331728       -36.2382
  71   2.0000      -1.150304       -31.3014
  72   2.0000      -1.149548       -31.2808
  73   2.0000      -1.131069       -30.7779
  74   2.0000      -1.124073       -30.5876
  75   2.0000      -1.112701       -30.2781
  76   2.0000      -1.094556       -29.7844
  77   2.0000      -1.061022       -28.8719
  78   2.0000      -1.052803       -28.6482
  79   2.0000      -1.046898       -28.4875
  80   2.0000      -1.026950       -27.9447
  81   2.0000      -1.008275       -27.4366
  82   2.0000      -1.004559       -27.3354
  83   2.0000      -0.996017       -27.1030
  84   2.0000      -0.992406       -27.0047
  85   2.0000      -0.988603       -26.9013
  86   2.0000      -0.963984       -26.2313
  87   2.0000      -0.941711       -25.6253
  88   2.0000      -0.929048       -25.2807
  89   2.0000      -0.925858       -25.1939
  90   2.0000      -0.914387       -24.8817
  91   2.0000      -0.911767       -24.8104
  92   2.0000      -0.900956       -24.5163
  93   2.0000      -0.889701       -24.2100
  94   2.0000      -0.880203       -23.9515
  95   2.0000      -0.868607       -23.6360
  96   2.0000      -0.857629       -23.3373
  97   2.0000      -0.842141       -22.9158
  98   2.0000      -0.841362       -22.8946
  99   2.0000      -0.832192       -22.6451
 100   2.0000      -0.818550       -22.2739
 101   2.0000      -0.803517       -21.8648
 102   2.0000      -0.800863       -21.7926
 103   2.0000      -0.786474       -21.4010
 104   2.0000      -0.774210       -21.0673
 105   2.0000      -0.764488       -20.8028
 106   2.0000      -0.759203       -20.6590
 107   2.0000      -0.757341       -20.6083
 108   2.0000      -0.754443       -20.5294
 109   2.0000      -0.735752       -20.0208
 110   2.0000      -0.714747       -19.4493
 111   2.0000      -0.708101       -19.2684
 112   2.0000      -0.705811       -19.2061
 113   2.0000      -0.697913       -18.9912
 114   2.0000      -0.687032       -18.6951
 115   2.0000      -0.685727       -18.6596
 116   2.0000      -0.682851       -18.5813
 117   2.0000      -0.676622       -18.4118
 118   2.0000      -0.664675       -18.0867
 119   2.0000      -0.657010       -17.8781
 120   2.0000      -0.648719       -17.6525
 121   2.0000      -0.642901       -17.4942
 122   2.0000      -0.640394       -17.4260
 123   2.0000      -0.638441       -17.3729
 124   2.0000      -0.629179       -17.1208
 125   2.0000      -0.625593       -17.0232
 126   2.0000      -0.621929       -16.9235
 127   2.0000      -0.613701       -16.6997
 128   2.0000      -0.611778       -16.6473
 129   2.0000      -0.602980       -16.4079
 130   2.0000      -0.596765       -16.2388
 131   2.0000      -0.590281       -16.0624
 132   2.0000      -0.585566       -15.9341
 133   2.0000      -0.584799       -15.9132
 134   2.0000      -0.575250       -15.6534
 135   2.0000      -0.571629       -15.5548
 136   2.0000      -0.566281       -15.4093
 137   2.0000      -0.562809       -15.3148
 138   2.0000      -0.559170       -15.2158
 139   2.0000      -0.548996       -14.9389
 140   2.0000      -0.547476       -14.8976
 141   2.0000      -0.546590       -14.8735
 142   2.0000      -0.545367       -14.8402
 143   2.0000      -0.540965       -14.7204
 144   2.0000      -0.538377       -14.6500
 145   2.0000      -0.535121       -14.5614
 146   2.0000      -0.530671       -14.4403
 147   2.0000      -0.530543       -14.4368
 148   2.0000      -0.527343       -14.3497
 149   2.0000      -0.523058       -14.2331
 150   2.0000      -0.518277       -14.1030
 151   2.0000      -0.515304       -14.0221
 152   2.0000      -0.513659       -13.9774
 153   2.0000      -0.512912       -13.9571
 154   2.0000      -0.510612       -13.8945
 155   2.0000      -0.505604       -13.7582
 156   2.0000      -0.504591       -13.7306
 157   2.0000      -0.499690       -13.5972
 158   2.0000      -0.497314       -13.5326
 159   2.0000      -0.496187       -13.5019
 160   2.0000      -0.495541       -13.4843
 161   2.0000      -0.492927       -13.4132
 162   2.0000      -0.491081       -13.3630
 163   2.0000      -0.490154       -13.3378
 164   2.0000      -0.474778       -12.9194
 165   2.0000      -0.470351       -12.7989
 166   2.0000      -0.468451       -12.7472
 167   2.0000      -0.465487       -12.6665
 168   2.0000      -0.463824       -12.6213
 169   2.0000      -0.461903       -12.5690
 170   2.0000      -0.460358       -12.5270
 171   2.0000      -0.459161       -12.4944
 172   2.0000      -0.455504       -12.3949
 173   2.0000      -0.454589       -12.3700
 174   2.0000      -0.452891       -12.3238
 175   2.0000      -0.452545       -12.3144
 176   2.0000      -0.452023       -12.3002
 177   2.0000      -0.449182       -12.2229
 178   2.0000      -0.442603       -12.0438
 179   2.0000      -0.441050       -12.0016
 180   2.0000      -0.439403       -11.9568
 181   2.0000      -0.438534       -11.9331
 182   2.0000      -0.432608       -11.7719
 183   2.0000      -0.429633       -11.6909
 184   2.0000      -0.426515       -11.6061
 185   2.0000      -0.425365       -11.5748
 186   2.0000      -0.424889       -11.5618
 187   2.0000      -0.419729       -11.4214
 188   2.0000      -0.415959       -11.3188
 189   2.0000      -0.410385       -11.1671
 190   2.0000      -0.403295       -10.9742
 191   2.0000      -0.397382       -10.8133
 192   2.0000      -0.391976       -10.6662
 193   2.0000      -0.390712       -10.6318
 194   2.0000      -0.387324       -10.5396
 195   2.0000      -0.377983       -10.2854
 196   2.0000      -0.373592       -10.1660
 197   2.0000      -0.362826        -9.8730
 198   2.0000      -0.350682        -9.5425
 199   2.0000      -0.348067        -9.4714
 200   2.0000      -0.346202        -9.4206
 201   2.0000      -0.345268        -9.3952
 202   2.0000      -0.337445        -9.1823
 203   2.0000      -0.331475        -9.0199
 204   2.0000      -0.329122        -8.9559
 205   2.0000      -0.326231        -8.8772
 206   2.0000      -0.320680        -8.7261
 207   2.0000      -0.318545        -8.6680
 208   2.0000      -0.312304        -8.4982
 209   2.0000      -0.306976        -8.3532
 210   2.0000      -0.280467        -7.6319
 211   2.0000      -0.236064        -6.4236
 212   0.0000      -0.105306        -2.8655
 213   0.0000      -0.085636        -2.3303
 214   0.0000      -0.064099        -1.7442
 215   0.0000      -0.057090        -1.5535
 216   0.0000      -0.040608        -1.1050

MULLIKEN ATOMIC CHARGES
-----------------------
   0 C :    0.029807
   1 C :   -0.126315
   2 S :    0.195065
   3 C :   -0.166252
   4 Cl:    0.006521
   5 C :    0.073486
   6 C :    0.141813
   7 O :   -0.123660
   8 C :   -0.088705
   9 C :    0.291635
  10 C :   -0.324055
  11 C :   -0.192559
  12 N :    0.158975
  13 C :   -0.188481
  14 N :    0.164197
  15 C :   -0.032272
  16 C :    0.066221
  17 C :    0.028708
  18 C :    0.116277
  19 N :    0.245007
  20 O :   -0.226307
  21 O :   -0.232911
  22 C :    0.069121
  23 C :   -0.044349
  24 C :    0.036793
  25 C :    0.017595
  26 C :    0.005356
  27 C :    0.013745
  28 C :    0.043905
  29 N :   -0.039302
  30 C :   -0.067356
  31 N :   -0.063111
  32 C :    0.034137
  33 C :   -0.006790
  34 S :    0.164353
  35 C :   -0.055326
  36 C :    0.014051
  37 C :   -0.018363
  38 C :    0.135223
  39 O :   -0.183598
  40 C :    0.003301
  41 C :   -0.033887
  42 C :    0.138600
  43 N :   -0.260175
  44 C :    0.098522
  45 C :    0.003328
  46 C :    0.161089
  47 O :   -0.208440
  48 C :   -0.061848
  49 C :   -0.070436
  50 C :    0.162706
  51 O :   -0.219262
  52 N :   -0.256560
  53 C :    0.097863
  54 C :    0.006233
  55 C :    0.105993
  56 C :   -0.035710
  57 C :    0.012060
  58 H :    0.056098
  59 H :    0.036605
  60 H :    0.008481
  61 H :   -0.006637
  62 H :   -0.004144
  63 H :    0.017808
  64 H :   -0.007982
  65 H :    0.017609
  66 H :    0.003246
  67 H :    0.010235
  68 H :    0.008205
  69 H :    0.024219
  70 H :   -0.017238
  71 H :    0.043171
  72 H :    0.023432
  73 H :    0.029099
  74 H :    0.023282
  75 H :    0.016100
  76 H :    0.044046
  77 H :    0.023841
  78 H :    0.029011
  79 H :    0.023819
  80 H :    0.014698
  81 H :   -0.019329
  82 H :    0.057405
  83 H :    0.029263
Sum of atomic charges:   -0.0000000

LOEWDIN ATOMIC CHARGES
----------------------
   0 C :   -0.060418
   1 C :   -0.147314
   2 S :    0.483890
   3 C :   -0.270081
   4 Cl:    0.197945
   5 C :   -0.118309
   6 C :    0.080901
   7 O :   -0.122056
   8 C :   -0.079824
   9 C :    0.074110
  10 C :   -0.130587
  11 C :   -0.015241
  12 N :   -0.045517
  13 C :   -0.023828
  14 N :   -0.041187
  15 C :    0.078214
  16 C :   -0.040631
  17 C :    0.047251
  18 C :   -0.028670
  19 N :    0.285899
  20 O :   -0.194195
  21 O :   -0.192313
  22 C :    0.012750
  23 C :   -0.013187
  24 C :    0.022384
  25 C :   -0.010597
  26 C :   -0.008054
  27 C :   -0.076934
  28 C :    0.066293
  29 N :   -0.071237
  30 C :    0.014968
  31 N :   -0.092906
  32 C :    0.052066
  33 C :   -0.183119
  34 S :    0.473925
  35 C :   -0.144427
  36 C :   -0.105401
  37 C :    0.005703
  38 C :    0.106607
  39 O :   -0.135081
  40 C :    0.005961
  41 C :   -0.047265
  42 C :    0.074003
  43 N :   -0.001766
  44 C :    0.035877
  45 C :   -0.061273
  46 C :    0.081274
  47 O :   -0.201310
  48 C :   -0.125069
  49 C :   -0.122588
  50 C :    0.080403
  51 O :   -0.207657
  52 N :    0.002396
  53 C :    0.036384
  54 C :   -0.060672
  55 C :    0.079063
  56 C :   -0.054786
  57 C :    0.023477
  58 H :    0.038693
  59 H :    0.048230
  60 H :    0.041825
  61 H :    0.035388
  62 H :    0.037861
  63 H :    0.030272
  64 H :    0.029899
  65 H :    0.029710
  66 H :    0.025489
  67 H :    0.043290
  68 H :    0.006365
  69 H :    0.039507
  70 H :    0.022640
  71 H :    0.037621
  72 H :    0.023075
  73 H :    0.032158
  74 H :    0.030478
  75 H :    0.021961
  76 H :    0.037775
  77 H :    0.023188
  78 H :    0.032112
  79 H :    0.030662
  80 H :    0.022175
  81 H :    0.029351
  82 H :    0.032789
  83 H :    0.029241

  Mayer bond orders larger than 0.100000
B(  0-C ,  1-C ) :   1.5385 B(  0-C ,  5-C ) :   1.2197 B(  0-C ,  9-C ) :   1.0066
B(  1-C ,  2-S ) :   1.1681 B(  1-C , 58-H ) :   0.9540 B(  2-S ,  3-C ) :   1.1552
B(  3-C ,  4-Cl) :   1.1345 B(  3-C ,  5-C ) :   1.4715 B(  5-C ,  6-C ) :   0.9531
B(  6-C ,  7-O ) :   2.2447 B(  6-C ,  8-C ) :   0.9180 B(  8-C ,  9-C ) :   1.0447
B(  8-C , 15-C ) :   1.7154 B(  9-C , 10-C ) :   1.6709 B( 10-C , 11-C ) :   1.1438
B( 10-C , 13-C ) :   1.1344 B( 11-C , 12-N ) :   2.9922 B( 13-C , 14-N ) :   2.9762
B( 15-C , 16-C ) :   1.0389 B( 15-C , 59-H ) :   0.9435 B( 16-C , 17-C ) :   1.3131
B( 16-C , 24-C ) :   1.3137 B( 17-C , 18-C ) :   1.4093 B( 17-C , 60-H ) :   0.9762
B( 18-C , 19-N ) :   0.8768 B( 18-C , 22-C ) :   1.3400 B( 19-N , 20-O ) :   1.5635
B( 19-N , 21-O ) :   1.5217 B( 20-O , 21-O ) :   0.2655 B( 22-C , 23-C ) :   1.3462
B( 22-C , 25-C ) :   1.0595 B( 23-C , 24-C ) :   1.3955 B( 23-C , 61-H ) :   0.9909
B( 24-C , 62-H ) :   0.9983 B( 25-C , 26-C ) :   1.7670 B( 25-C , 63-H ) :   0.9347
B( 26-C , 27-C ) :   1.0716 B( 26-C , 64-H ) :   0.9775 B( 27-C , 28-C ) :   1.3019
B( 27-C , 32-C ) :   1.3148 B( 28-C , 29-N ) :   1.5849 B( 28-C , 65-H ) :   0.9826
B( 29-N , 30-C ) :   1.5802 B( 30-C , 31-N ) :   1.5785 B( 30-C , 33-C ) :   1.0273
B( 31-N , 32-C ) :   1.5685 B( 32-C , 66-H ) :   0.9878 B( 33-C , 34-S ) :   1.1091
B( 33-C , 37-C ) :   1.5120 B( 34-S , 35-C ) :   1.1343 B( 35-C , 36-C ) :   1.3887
B( 35-C , 40-C ) :   1.1682 B( 36-C , 37-C ) :   1.2190 B( 36-C , 38-C ) :   0.9837
B( 37-C , 67-H ) :   1.0129 B( 38-C , 39-O ) :   2.1799 B( 38-C , 68-H ) :   0.9653
B( 40-C , 41-C ) :   1.5913 B( 40-C , 69-H ) :   0.9501 B( 41-C , 42-C ) :   1.1647
B( 41-C , 70-H ) :   0.9624 B( 42-C , 43-N ) :   1.1560 B( 42-C , 49-C ) :   1.3508
B( 43-N , 44-C ) :   0.9482 B( 43-N , 46-C ) :   1.0535 B( 44-C , 45-C ) :   1.1207
B( 44-C , 71-H ) :   0.9279 B( 44-C , 72-H ) :   0.9504 B( 45-C , 73-H ) :   0.9635
B( 45-C , 74-H ) :   0.9676 B( 45-C , 75-H ) :   0.9686 B( 46-C , 47-O ) :   2.0488
B( 46-C , 48-C ) :   0.9825 B( 48-C , 49-C ) :   1.2356 B( 48-C , 55-C ) :   1.3732
B( 49-C , 50-C ) :   0.9983 B( 50-C , 51-O ) :   2.0111 B( 50-C , 52-N ) :   1.0626
B( 52-N , 53-C ) :   0.9468 B( 52-N , 55-C ) :   1.1659 B( 53-C , 54-C ) :   1.1193
B( 53-C , 76-H ) :   0.9289 B( 53-C , 77-H ) :   0.9503 B( 54-C , 78-H ) :   0.9639
B( 54-C , 79-H ) :   0.9679 B( 54-C , 80-H ) :   0.9689 B( 55-C , 56-C ) :   1.1291
B( 56-C , 57-C ) :   1.8869 B( 56-C , 81-H ) :   0.9528 B( 57-C , 82-H ) :   0.9270
B( 57-C , 83-H ) :   0.9445

-----------------------------------------------------------------------------
         ABSORPTION SPECTRUM VIA TRANSITION ELECTRIC DIPOLE MOMENTS
-----------------------------------------------------------------------------
State   Energy  Wavelength   fosc         T2         TX        TY        TZ
        (cm-1)    (nm)                  (au**2)     (au)      (au)      (au)
-----------------------------------------------------------------------------
   0   16896.5    591.8   0.958682143  18.67896   2.02559  -3.72546  -0.83483
   1   21652.5    461.8   0.233573309   3.55133   1.00676  -1.59193  -0.05938
   2   24479.8    408.5   0.753409073  10.13206   1.68566  -2.69016  -0.23154
   3   26463.9    377.9   0.239995341   2.98555   0.78336  -1.26957  -0.87183
   4   27298.9    366.3   0.210145968   2.53426  -0.81137   1.03755   0.89411
   5   27872.8    358.8   0.005557879   0.06565   0.12066  -0.14728  -0.17146
   6   28768.8    347.6   0.045469029   0.52032   0.17008  -0.49726   0.49409
   7   29114.3    343.5   0.000297243   0.00336  -0.00266  -0.03842  -0.04333
   8   29295.7    341.3   0.031432093   0.35322   0.42732   0.40821   0.06309
   9   29740.9    336.2   0.064942070   0.71887  -0.41614   0.10852   0.73070
  10   30026.1    333.0   0.001009382   0.01107  -0.09968  -0.03187   0.01072
  11   30917.9    323.4   0.036048044   0.38384   0.13546   0.30340  -0.52291
  12   31719.7    315.3   0.057246357   0.59415  -0.61037   0.32600  -0.33958
  13   31742.4    315.0   0.009506625   0.09860  -0.29264  -0.04806  -0.10320
  14   32584.6    306.9   0.023435135   0.23677   0.40434  -0.25840   0.08070
  15   33087.5    302.2   0.070888244   0.70532  -0.46029   0.68177  -0.16924
  16   33325.9    300.1   0.034967270   0.34543   0.29430  -0.50345   0.07318
  17   33836.9    295.5   0.000411626   0.00400  -0.03437  -0.00695   0.05268
  18   34207.4    292.3   0.218225824   2.10020  -0.22646  -1.41763  -0.19811
  19   34987.1    285.8   0.084481182   0.79493   0.16512   0.53654  -0.69266
  20   35409.1    282.4   0.002653912   0.02467   0.13543  -0.00424   0.07947
  21   35625.0    280.7   0.048352114   0.44682   0.28750  -0.55828   0.22911
  22   35843.0    279.0   0.119204051   1.09487   0.36918  -0.20249  -0.95790
  23   35961.6    278.1   0.026904093   0.24629   0.03369   0.27905  -0.40901
  24   36423.4    274.5   0.174952213   1.58130   0.58673   0.78798   0.78494
  25   37514.5    266.6   0.376430808   3.30340   1.34235  -0.79958   0.92852
  26   38047.2    262.8   0.529695435   4.58331   1.17744   1.65825   0.66871
  27   38115.6    262.4   0.006084116   0.05255  -0.16947  -0.03493  -0.15036
  28   38543.6    259.4   0.073006968   0.62357   0.36771   0.53141  -0.45384
  29   38657.7    258.7   0.063692993   0.54241   0.28177  -0.16443   0.66029
  30   38971.3    256.6   0.002244698   0.01896  -0.07719   0.02059  -0.11216
  31   39295.3    254.5   0.006174951   0.05173   0.03876  -0.11121   0.19458
  32   39588.2    252.6   0.093488323   0.77744  -0.73805   0.45175   0.16926
  33   39888.9    250.7   0.021633448   0.17855  -0.05322  -0.32915   0.25957
  34   40198.4    248.8   0.045306710   0.37105  -0.52984   0.23918   0.18197

FINAL SINGLE POINT ENERGY     -3703.731624292366

DIPOLE MOMENT
-------------
                                X             Y             Z
Electronic contribution:    -50.59138     131.41779      35.65792
Nuclear contribution   :     51.22298    -130.47994     -37.55623
                        -----------------------------------------
Total Dipole Moment    :      0.63160       0.93785      -1.89831
                        -----------------------------------------
Magnitude (a.u.)       :      2.20954
Magnitude (Debye)      :      5.61619

Rotational constants in cm-1:     0.003820     0.000246     0.000242
Rotational constants in MHz :   114.513822     7.381177     7.269540

                             ****ORCA TERMINATED NORMALLY****
TOTAL RUN TIME: 0 days 0 hours 8 minutes 20 seconds 510 msec
