                         Program Version 4.2.0 -  RELEASE  -
|  1> # ORCA input file
|  2> # SCF done       -175.807538231353          0.000357251753
|  3> ! CAM-B3LYP def2-SVP def2/J RIJCOSX Grid4 TightSCF
|  4> %maxcore 5000
|  5> %tddft
|  6>     Mode sTDDFT
|  7>     Ethresh 5.0
|  8>     maxcore 5000
|  9> end
| 10>
| 11> %pal
| 12>   nprocs 6
| 13>   end
| 14> * xyz 0 1
| 15>    C        0.61315        -0.02716        -2.54648
| 16>    C       -0.44181         0.73560        -2.94026
| 17>    S       -0.45935         2.25016        -2.11247
| 18>    C        0.99295         1.85265        -1.22206
| 19>   Cl        1.66378         2.92974        -0.10037
| 20>    C        1.43460         0.60984        -1.56051
| 21>    C        2.56105        -0.26332        -1.21096
| 22>    O        3.54576         0.01881        -0.56783
| 23>    C        2.31247        -1.51992        -1.98221
| 24>    C        1.15786        -1.33853        -2.83886
| 25>    C        0.61047        -2.23472        -3.72116
| 26>    C       -0.54821        -1.92271        -4.46186
| 27>    N       -1.48815        -1.68504        -5.07555
| 28>    C        1.10989        -3.52333        -3.99020
| 29>    N        1.47173        -4.58265        -4.24680
| 30>    C        3.14227        -2.60593        -1.95995
| 31>    C        4.05502        -2.87607        -0.92159
| 32>    S        5.47220        -3.83299        -1.18869
| 33>    C        5.95429        -3.78571         0.47625
| 34>    C        5.03891        -3.03017         1.22084
| 35>    C        3.93409        -2.56124         0.44430
| 36>    N        2.87394        -1.96514         1.00659
| 37>    C        2.96727        -1.71751         2.28341
| 38>    N        4.04865        -1.87797         3.04973
| 39>    C        5.07639        -2.52209         2.54821
| 40>    C        6.26511        -2.56878         3.32879
| 41>    N        7.24002        -2.55101         3.92920
| 42>    C        7.00510        -4.57272         1.00938
| 43>    N        8.15401        -4.96046         0.36553
| 44>    C        8.65898        -4.45545        -0.88856
| 45>    C        9.02106        -2.97634        -0.80280
| 46>    C        8.92594        -5.83813         1.16213
| 47>    O        9.99045        -6.29680         0.81204
| 48>    C        8.13884        -6.00559         2.36226
| 49>    C        6.98151        -5.20155         2.25027
| 50>    C        6.15171        -5.46633         3.40580
| 51>    O        5.06536        -5.03820         3.73849
| 52>    N        6.88021        -6.40792         4.15626
| 53>    C        6.36984        -6.83289         5.43863
| 54>    C        5.44090        -8.03818         5.30652
| 55>    C        8.05638        -6.75493         3.53400
| 56>    C        9.03634        -7.72053         3.89640
| 57>    C        8.96064        -8.70600         4.81809
| 58>    C        9.97735        -9.70080         5.02901
| 59>    C        9.67711       -10.88191         5.73116
| 60>    N       10.54922       -11.83738         5.93476
| 61>    C       11.77775       -11.65217         5.45516
| 62>    N       12.17132       -10.58659         4.75291
| 63>    C       11.29733        -9.62882         4.55322
| 64>    C       12.75769       -12.69450         5.64403
| 65>    S       14.00390       -12.86823         4.46910
| 66>    C       14.64343       -14.28293         5.25265
| 67>    C       13.89582       -14.60326         6.38413
| 68>    C       12.83564       -13.67568         6.60830
| 69>    C       12.00472       -13.70584         7.82574
| 70>    O       11.46425       -12.72934         8.29933
| 71>    C       11.93563       -15.04087         8.45644
| 72>    C       10.91589       -15.31359         9.36285
| 73>    C       10.83513       -16.55188         9.97270
| 74>    C       11.78798       -17.52209         9.69735
| 75>    C       12.81859       -17.25073         8.81648
| 76>    C       12.89930       -16.01504         8.17924
| 77>    C       14.04574       -15.76835         7.26729
| 78>    O       15.00320       -16.51915         7.27591
| 79>    C       15.78066       -14.85521         4.57582
| 80>    C       16.60826       -15.81050         4.99481
| 81>    H       -1.20824         0.51969        -3.65795
| 82>    H        3.11095        -3.31863        -2.77457
| 83>    H        2.10207        -1.28706         2.76847
| 84>    H        7.92739        -4.63015        -1.68329
| 85>    H        9.55412        -5.04770        -1.09977
| 86>    H        8.14344        -2.36696        -0.59791
| 87>    H        9.45547        -2.65119        -1.74368
| 88>    H        9.74640        -2.81414        -0.00914
| 89>    H        5.79840        -5.98873         5.83674
| 90>    H        7.20772        -7.03362         6.10855
| 91>    H        4.56211        -7.75813         4.73141
| 92>    H        5.12050        -8.36741         6.29114
| 93>    H        5.93275        -8.86515         4.79827
| 94>    H        9.91236        -7.66045         3.26350
| 95>    H        8.07376        -8.84284         5.41837
| 96>    H        8.68153       -11.06293         6.11884
| 97>    H       11.66299        -8.76927         4.00731
| 98>    H       10.19420       -14.53757         9.56953
| 99>    H       10.03480       -16.76082        10.66672
|100>    H       11.73034       -18.48799        10.17640
|101>    H       13.57908       -17.98744         8.60417
|102>    H       15.96079       -14.38939         3.61305
|103>    H       16.49448       -16.29606         5.94635
|104>    H       17.42651       -16.12788         4.37070
|105> *
|106>
|107>                          ****END OF INPUT****

CARTESIAN COORDINATES (ANGSTROEM)
---------------------------------
  C      0.613150   -0.027160   -2.546480
  C     -0.441810    0.735600   -2.940260
  S     -0.459350    2.250160   -2.112470
  C      0.992950    1.852650   -1.222060
  Cl     1.663780    2.929740   -0.100370
  C      1.434600    0.609840   -1.560510
  C      2.561050   -0.263320   -1.210960
  O      3.545760    0.018810   -0.567830
  C      2.312470   -1.519920   -1.982210
  C      1.157860   -1.338530   -2.838860
  C      0.610470   -2.234720   -3.721160
  C     -0.548210   -1.922710   -4.461860
  N     -1.488150   -1.685040   -5.075550
  C      1.109890   -3.523330   -3.990200
  N      1.471730   -4.582650   -4.246800
  C      3.142270   -2.605930   -1.959950
  C      4.055020   -2.876070   -0.921590
  S      5.472200   -3.832990   -1.188690
  C      5.954290   -3.785710    0.476250
  C      5.038910   -3.030170    1.220840
  C      3.934090   -2.561240    0.444300
  N      2.873940   -1.965140    1.006590
  C      2.967270   -1.717510    2.283410
  N      4.048650   -1.877970    3.049730
  C      5.076390   -2.522090    2.548210
  C      6.265110   -2.568780    3.328790
  N      7.240020   -2.551010    3.929200
  C      7.005100   -4.572720    1.009380
  N      8.154010   -4.960460    0.365530
  C      8.658980   -4.455450   -0.888560
  C      9.021060   -2.976340   -0.802800
  C      8.925940   -5.838130    1.162130
  O      9.990450   -6.296800    0.812040
  C      8.138840   -6.005590    2.362260
  C      6.981510   -5.201550    2.250270
  C      6.151710   -5.466330    3.405800
  O      5.065360   -5.038200    3.738490
  N      6.880210   -6.407920    4.156260
  C      6.369840   -6.832890    5.438630
  C      5.440900   -8.038180    5.306520
  C      8.056380   -6.754930    3.534000
  C      9.036340   -7.720530    3.896400
  C      8.960640   -8.706000    4.818090
  C      9.977350   -9.700800    5.029010
  C      9.677110  -10.881910    5.731160
  N     10.549220  -11.837380    5.934760
  C     11.777750  -11.652170    5.455160
  N     12.171320  -10.586590    4.752910
  C     11.297330   -9.628820    4.553220
  C     12.757690  -12.694500    5.644030
  S     14.003900  -12.868230    4.469100
  C     14.643430  -14.282930    5.252650
  C     13.895820  -14.603260    6.384130
  C     12.835640  -13.675680    6.608300
  C     12.004720  -13.705840    7.825740
  O     11.464250  -12.729340    8.299330
  C     11.935630  -15.040870    8.456440
  C     10.915890  -15.313590    9.362850
  C     10.835130  -16.551880    9.972700
  C     11.787980  -17.522090    9.697350
  C     12.818590  -17.250730    8.816480
  C     12.899300  -16.015040    8.179240
  C     14.045740  -15.768350    7.267290
  O     15.003200  -16.519150    7.275910
  C     15.780660  -14.855210    4.575820
  C     16.608260  -15.810500    4.994810
  H     -1.208240    0.519690   -3.657950
  H      3.110950   -3.318630   -2.774570
  H      2.102070   -1.287060    2.768470
  H      7.927390   -4.630150   -1.683290
  H      9.554120   -5.047700   -1.099770
  H      8.143440   -2.366960   -0.597910
  H      9.455470   -2.651190   -1.743680
  H      9.746400   -2.814140   -0.009140
  H      5.798400   -5.988730    5.836740
  H      7.207720   -7.033620    6.108550
  H      4.562110   -7.758130    4.731410
  H      5.120500   -8.367410    6.291140
  H      5.932750   -8.865150    4.798270
  H      9.912360   -7.660450    3.263500
  H      8.073760   -8.842840    5.418370
  H      8.681530  -11.062930    6.118840
  H     11.662990   -8.769270    4.007310
  H     10.194200  -14.537570    9.569530
  H     10.034800  -16.760820   10.666720
  H     11.730340  -18.487990   10.176400
  H     13.579080  -17.987440    8.604170
  H     15.960790  -14.389390    3.613050
  H     16.494480  -16.296060    5.946350
  H     17.426510  -16.127880    4.370700

 Total Charge           Charge          ....    0
 Multiplicity           Mult            ....    1
 Number of Electrons    NEL             ....  480
 Basis Dimension        Dim             .... 1060

ORBITAL ENERGIES
----------------

  NO   OCC          E(Eh)            E(eV)
   0   2.0000    -101.615664     -2765.1028
   1   2.0000     -89.008732     -2422.0507
   2   2.0000     -88.991653     -2421.5860
   3   2.0000     -88.971607     -2421.0405
   4   2.0000     -19.215974      -522.8932
   5   2.0000     -19.211123      -522.7612
   6   2.0000     -19.210614      -522.7474
   7   2.0000     -19.206205      -522.6274
   8   2.0000     -19.199882      -522.4554
   9   2.0000     -14.470042      -393.7499
  10   2.0000     -14.466992      -393.6669
  11   2.0000     -14.434465      -392.7818
  12   2.0000     -14.430191      -392.6654
  13   2.0000     -14.425043      -392.5254
  14   2.0000     -14.422143      -392.4465
  15   2.0000     -14.422053      -392.4440
  16   2.0000     -14.420347      -392.3976
  17   2.0000     -14.419377      -392.3712
  18   2.0000     -10.392239      -282.7872
  19   2.0000     -10.385370      -282.6003
  20   2.0000     -10.380050      -282.4555
  21   2.0000     -10.374272      -282.2983
  22   2.0000     -10.373699      -282.2827
  23   2.0000     -10.366319      -282.0819
  24   2.0000     -10.362001      -281.9644
  25   2.0000     -10.361044      -281.9383
  26   2.0000     -10.360470      -281.9227
  27   2.0000     -10.357565      -281.8437
  28   2.0000     -10.356705      -281.8203
  29   2.0000     -10.354629      -281.7638
  30   2.0000     -10.348429      -281.5951
  31   2.0000     -10.347213      -281.5620
  32   2.0000     -10.344601      -281.4909
  33   2.0000     -10.335733      -281.2496
  34   2.0000     -10.334628      -281.2195
  35   2.0000     -10.333946      -281.2010
  36   2.0000     -10.329094      -281.0689
  37   2.0000     -10.328313      -281.0477
  38   2.0000     -10.325521      -280.9717
  39   2.0000     -10.324461      -280.9429
  40   2.0000     -10.323452      -280.9154
  41   2.0000     -10.321645      -280.8662
  42   2.0000     -10.319627      -280.8113
  43   2.0000     -10.317816      -280.7621
  44   2.0000     -10.317588      -280.7558
  45   2.0000     -10.315189      -280.6906
  46   2.0000     -10.313878      -280.6549
  47   2.0000     -10.311291      -280.5845
  48   2.0000     -10.308923      -280.5200
  49   2.0000     -10.307143      -280.4716
  50   2.0000     -10.306698      -280.4595
  51   2.0000     -10.297693      -280.2145
  52   2.0000     -10.292841      -280.0824
  53   2.0000     -10.291483      -280.0455
  54   2.0000     -10.286149      -279.9003
  55   2.0000     -10.285110      -279.8721
  56   2.0000     -10.284062      -279.8436
  57   2.0000     -10.283821      -279.8370
  58   2.0000     -10.282882      -279.8114
  59   2.0000     -10.282050      -279.7888
  60   2.0000     -10.280305      -279.7413
  61   2.0000     -10.279641      -279.7233
  62   2.0000     -10.275241      -279.6035
  63   2.0000     -10.272927      -279.5406
  64   2.0000     -10.270516      -279.4749
  65   2.0000     -10.266835      -279.3748
  66   2.0000      -9.570431      -260.4247
  67   2.0000      -8.103161      -220.4982
  68   2.0000      -8.087412      -220.0697
  69   2.0000      -8.067280      -219.5218
  70   2.0000      -7.341059      -199.7604
  71   2.0000      -7.330465      -199.4721
  72   2.0000      -7.329949      -199.4580
  73   2.0000      -6.072079      -165.2297
  74   2.0000      -6.067924      -165.1166
  75   2.0000      -6.066142      -165.0681
  76   2.0000      -6.056800      -164.8139
  77   2.0000      -6.052211      -164.6890
  78   2.0000      -6.049619      -164.6185
  79   2.0000      -6.036260      -164.2550
  80   2.0000      -6.032106      -164.1419
  81   2.0000      -6.029882      -164.0814
  82   2.0000      -1.150845       -31.3161
  83   2.0000      -1.140246       -31.0277
  84   2.0000      -1.134005       -30.8578
  85   2.0000      -1.128196       -30.6998
  86   2.0000      -1.122946       -30.5569
  87   2.0000      -1.107361       -30.1328
  88   2.0000      -1.098234       -29.8845
  89   2.0000      -1.079689       -29.3798
  90   2.0000      -1.071107       -29.1463
  91   2.0000      -1.036593       -28.2071
  92   2.0000      -1.025841       -27.9145
  93   2.0000      -1.017430       -27.6857
  94   2.0000      -1.011197       -27.5161
  95   2.0000      -1.001366       -27.2486
  96   2.0000      -0.999298       -27.1923
  97   2.0000      -0.992207       -26.9993
  98   2.0000      -0.990447       -26.9514
  99   2.0000      -0.987175       -26.8624
 100   2.0000      -0.964226       -26.2379
 101   2.0000      -0.954225       -25.9658
 102   2.0000      -0.945133       -25.7184
 103   2.0000      -0.942389       -25.6437
 104   2.0000      -0.921327       -25.0706
 105   2.0000      -0.903947       -24.5976
 106   2.0000      -0.900704       -24.5094
 107   2.0000      -0.897320       -24.4173
 108   2.0000      -0.892680       -24.2911
 109   2.0000      -0.887100       -24.1392
 110   2.0000      -0.871723       -23.7208
 111   2.0000      -0.862993       -23.4832
 112   2.0000      -0.849133       -23.1061
 113   2.0000      -0.841688       -22.9035
 114   2.0000      -0.832416       -22.6512
 115   2.0000      -0.832246       -22.6466
 116   2.0000      -0.831234       -22.6190
 117   2.0000      -0.814015       -22.1505
 118   2.0000      -0.806266       -21.9396
 119   2.0000      -0.798018       -21.7152
 120   2.0000      -0.779973       -21.2241
 121   2.0000      -0.771888       -21.0041
 122   2.0000      -0.768271       -20.9057
 123   2.0000      -0.757331       -20.6080
 124   2.0000      -0.753498       -20.5037
 125   2.0000      -0.743738       -20.2382
 126   2.0000      -0.733025       -19.9466
 127   2.0000      -0.731548       -19.9064
 128   2.0000      -0.723129       -19.6773
 129   2.0000      -0.712264       -19.3817
 130   2.0000      -0.709363       -19.3027
 131   2.0000      -0.701720       -19.0948
 132   2.0000      -0.696211       -18.9449
 133   2.0000      -0.688173       -18.7261
 134   2.0000      -0.678391       -18.4600
 135   2.0000      -0.675818       -18.3900
 136   2.0000      -0.674896       -18.3649
 137   2.0000      -0.668317       -18.1858
 138   2.0000      -0.663471       -18.0540
 139   2.0000      -0.651895       -17.7390
 140   2.0000      -0.638510       -17.3748
 141   2.0000      -0.633724       -17.2445
 142   2.0000      -0.630455       -17.1556
 143   2.0000      -0.624634       -16.9972
 144   2.0000      -0.615030       -16.7358
 145   2.0000      -0.610023       -16.5996
 146   2.0000      -0.606111       -16.4931
 147   2.0000      -0.596458       -16.2304
 148   2.0000      -0.592637       -16.1265
 149   2.0000      -0.586222       -15.9519
 150   2.0000      -0.585080       -15.9208
 151   2.0000      -0.580288       -15.7904
 152   2.0000      -0.577035       -15.7019
 153   2.0000      -0.570699       -15.5295
 154   2.0000      -0.568505       -15.4698
 155   2.0000      -0.564044       -15.3484
 156   2.0000      -0.562348       -15.3023
 157   2.0000      -0.553629       -15.0650
 158   2.0000      -0.546951       -14.8833
 159   2.0000      -0.546647       -14.8750
 160   2.0000      -0.545497       -14.8437
 161   2.0000      -0.544329       -14.8119
 162   2.0000      -0.541911       -14.7462
 163   2.0000      -0.539309       -14.6754
 164   2.0000      -0.537904       -14.6371
 165   2.0000      -0.535186       -14.5632
 166   2.0000      -0.532227       -14.4826
 167   2.0000      -0.529090       -14.3973
 168   2.0000      -0.527596       -14.3566
 169   2.0000      -0.525315       -14.2946
 170   2.0000      -0.524737       -14.2788
 171   2.0000      -0.523283       -14.2393
 172   2.0000      -0.520532       -14.1644
 173   2.0000      -0.519083       -14.1250
 174   2.0000      -0.514319       -13.9953
 175   2.0000      -0.513751       -13.9799
 176   2.0000      -0.512290       -13.9401
 177   2.0000      -0.511119       -13.9082
 178   2.0000      -0.509047       -13.8519
 179   2.0000      -0.504250       -13.7213
 180   2.0000      -0.494500       -13.4560
 181   2.0000      -0.493221       -13.4212
 182   2.0000      -0.488636       -13.2965
 183   2.0000      -0.483061       -13.1447
 184   2.0000      -0.482591       -13.1320
 185   2.0000      -0.481534       -13.1032
 186   2.0000      -0.477904       -13.0044
 187   2.0000      -0.476266       -12.9599
 188   2.0000      -0.474190       -12.9034
 189   2.0000      -0.471065       -12.8183
 190   2.0000      -0.468363       -12.7448
 191   2.0000      -0.468264       -12.7421
 192   2.0000      -0.464942       -12.6517
 193   2.0000      -0.459728       -12.5098
 194   2.0000      -0.458879       -12.4867
 195   2.0000      -0.454895       -12.3783
 196   2.0000      -0.454064       -12.3557
 197   2.0000      -0.450795       -12.2668
 198   2.0000      -0.450525       -12.2594
 199   2.0000      -0.448709       -12.2100
 200   2.0000      -0.447060       -12.1651
 201   2.0000      -0.442846       -12.0504
 202   2.0000      -0.441950       -12.0261
 203   2.0000      -0.440259       -11.9800
 204   2.0000      -0.437162       -11.8958
 205   2.0000      -0.435188       -11.8421
 206   2.0000      -0.433696       -11.8015
 207   2.0000      -0.432964       -11.7815
 208   2.0000      -0.432016       -11.7558
 209   2.0000      -0.429355       -11.6833
 210   2.0000      -0.429223       -11.6797
 211   2.0000      -0.420799       -11.4505
 212   2.0000      -0.418072       -11.3763
 213   2.0000      -0.414334       -11.2746
 214   2.0000      -0.407567       -11.0905
 215   2.0000      -0.405053       -11.0220
 216   2.0000      -0.401951       -10.9376
 217   2.0000      -0.397273       -10.8104
 218   2.0000      -0.393186       -10.6991
 219   2.0000      -0.389752       -10.6057
 220   2.0000      -0.378882       -10.3099
 221   2.0000      -0.371730       -10.1153
 222   2.0000      -0.365691        -9.9510
 223   2.0000      -0.354094        -9.6354
 224   2.0000      -0.350428        -9.5356
 225   2.0000      -0.345065        -9.3897
 226   2.0000      -0.344349        -9.3702
 227   2.0000      -0.340618        -9.2687
 228   2.0000      -0.338826        -9.2199
 229   2.0000      -0.337321        -9.1790
 230   2.0000      -0.332140        -9.0380
 231   2.0000      -0.331418        -9.0183
 232   2.0000      -0.330047        -8.9810
 233   2.0000      -0.329158        -8.9568
 234   2.0000      -0.325599        -8.8600
 235   2.0000      -0.317829        -8.6486
 236   2.0000      -0.315960        -8.5977
 237   2.0000      -0.297404        -8.0928
 238   2.0000      -0.285327        -7.7641
 239   2.0000      -0.251522        -6.8443
 240   0.0000      -0.127055        -3.4574
 241   0.0000      -0.085387        -2.3235
 242   0.0000      -0.070021        -1.9054
 243   0.0000      -0.056778        -1.5450
 244   0.0000      -0.046826        -1.2742

MULLIKEN ATOMIC CHARGES
-----------------------
   0 C :    0.032307
   1 C :   -0.132241
   2 S :    0.183910
   3 C :   -0.175091
   4 Cl:   -0.003727
   5 C :    0.081240
   6 C :    0.155097
   7 O :   -0.135968
   8 C :   -0.090937
   9 C :    0.288517
  10 C :   -0.330262
  11 C :   -0.195495
  12 N :    0.154574
  13 C :   -0.186424
  14 N :    0.156482
  15 C :   -0.004051
  16 C :   -0.123195
  17 S :    0.221643
  18 C :   -0.197751
  19 C :    0.187359
  20 C :    0.052239
  21 N :   -0.051649
  22 C :    0.113090
  23 N :   -0.054247
  24 C :   -0.137568
  25 C :   -0.199469
  26 N :    0.170837
  27 C :    0.132246
  28 N :   -0.265252
  29 C :    0.086582
  30 C :   -0.002623
  31 C :    0.157860
  32 O :   -0.185345
  33 C :   -0.067807
  34 C :   -0.030548
  35 C :    0.142716
  36 O :   -0.190572
  37 N :   -0.261511
  38 C :    0.104261
  39 C :    0.003605
  40 C :    0.129557
  41 C :   -0.018398
  42 C :    0.023755
  43 C :    0.007226
  44 C :    0.038841
  45 N :   -0.027203
  46 C :   -0.073325
  47 N :   -0.063207
  48 C :    0.048106
  49 C :   -0.097020
  50 S :    0.202800
  51 C :   -0.152530
  52 C :    0.032678
  53 C :    0.042595
  54 C :    0.102872
  55 O :   -0.140621
  56 C :   -0.003101
  57 C :   -0.020483
  58 C :    0.044541
  59 C :    0.048259
  60 C :   -0.021049
  61 C :   -0.008325
  62 C :    0.129362
  63 O :   -0.166237
  64 C :    0.021869
  65 C :    0.000456
  66 H :    0.053826
  67 H :    0.028186
  68 H :    0.022971
  69 H :    0.027085
  70 H :    0.052005
  71 H :    0.025372
  72 H :    0.028192
  73 H :    0.034549
  74 H :    0.045140
  75 H :    0.030181
  76 H :    0.035672
  77 H :    0.025432
  78 H :    0.016878
  79 H :    0.015569
  80 H :   -0.009926
  81 H :    0.005408
  82 H :    0.021178
  83 H :   -0.003052
  84 H :   -0.004730
  85 H :   -0.005780
  86 H :   -0.001163
  87 H :   -0.008633
  88 H :    0.057265
  89 H :    0.024125
Sum of atomic charges:   -0.0000000

LOEWDIN ATOMIC CHARGES
----------------------
   0 C :   -0.058633
   1 C :   -0.149432
   2 S :    0.472619
   3 C :   -0.274324
   4 Cl:    0.189504
   5 C :   -0.112004
   6 C :    0.081682
   7 O :   -0.134805
   8 C :   -0.071315
   9 C :    0.073629
  10 C :   -0.137694
  11 C :   -0.016144
  12 N :   -0.052164
  13 C :   -0.022017
  14 N :   -0.049922
  15 C :    0.039729
  16 C :   -0.187156
  17 S :    0.540172
  18 C :   -0.159204
  19 C :   -0.059013
  20 C :    0.009590
  21 N :   -0.059450
  22 C :    0.067730
  23 N :   -0.053943
  24 C :    0.029673
  25 C :   -0.022354
  26 N :   -0.029592
  27 C :    0.041881
  28 N :   -0.005953
  29 C :    0.028458
  30 C :   -0.061648
  31 C :    0.081274
  32 O :   -0.190638
  33 C :   -0.116182
  34 C :   -0.097172
  35 C :    0.088858
  36 O :   -0.181193
  37 N :    0.004038
  38 C :    0.038243
  39 C :   -0.062885
  40 C :    0.089068
  41 C :   -0.027568
  42 C :    0.010490
  43 C :   -0.077746
  44 C :    0.058892
  45 N :   -0.055580
  46 C :    0.018527
  47 N :   -0.083991
  48 C :    0.065369
  49 C :   -0.164737
  50 S :    0.513335
  51 C :   -0.115021
  52 C :   -0.098033
  53 C :   -0.065471
  54 C :    0.081463
  55 O :   -0.127104
  56 C :   -0.047606
  57 C :    0.011201
  58 C :   -0.006980
  59 C :   -0.008674
  60 C :    0.013125
  61 C :   -0.049361
  62 C :    0.090758
  63 O :   -0.138316
  64 C :   -0.066664
  65 C :    0.002845
  66 H :    0.037591
  67 H :    0.044959
  68 H :    0.025980
  69 H :    0.011109
  70 H :    0.040824
  71 H :    0.020714
  72 H :    0.033638
  73 H :    0.034227
  74 H :    0.040266
  75 H :    0.026042
  76 H :    0.035180
  77 H :    0.031954
  78 H :    0.019917
  79 H :    0.046927
  80 H :    0.033081
  81 H :    0.026701
  82 H :    0.030814
  83 H :    0.036088
  84 H :    0.032239
  85 H :    0.032272
  86 H :    0.035860
  87 H :    0.026244
  88 H :    0.026316
  89 H :    0.026596

  Mayer bond orders larger than 0.100000
B(  0-C ,  1-C ) :   1.5450 B(  0-C ,  5-C ) :   1.2236 B(  0-C ,  9-C ) :   0.9971
B(  1-C ,  2-S ) :   1.1621 B(  1-C , 66-H ) :   0.9543 B(  2-S ,  3-C ) :   1.1464
B(  3-C ,  4-Cl) :   1.1251 B(  3-C ,  5-C ) :   1.4820 B(  5-C ,  6-C ) :   0.9437
B(  6-C ,  7-O ) :   2.2421 B(  6-C ,  8-C ) :   0.9360 B(  8-C ,  9-C ) :   1.0953
B(  8-C , 15-C ) :   1.6229 B(  9-C , 10-C ) :   1.6421 B( 10-C , 11-C ) :   1.1488
B( 10-C , 13-C ) :   1.1390 B( 11-C , 12-N ) :   2.9898 B( 13-C , 14-N ) :   2.9735
B( 15-C , 16-C ) :   1.1772 B( 15-C , 67-H ) :   0.9276 B( 16-C , 17-S ) :   1.1339
B( 16-C , 18-C ) :   0.1167 B( 16-C , 20-C ) :   1.3100 B( 17-S , 18-C ) :   1.1928
B( 18-C , 19-C ) :   1.3232 B( 18-C , 27-C ) :   1.1026 B( 19-C , 20-C ) :   1.2058
B( 19-C , 24-C ) :   1.1899 B( 20-C , 21-N ) :   1.4129 B( 21-N , 22-C ) :   1.6208
B( 22-C , 23-N ) :   1.3362 B( 22-C , 68-H ) :   0.9719 B( 23-N , 24-C ) :   1.7608
B( 24-C , 25-C ) :   1.1186 B( 25-C , 26-N ) :   3.0619 B( 27-C , 28-N ) :   1.1966
B( 27-C , 34-C ) :   1.4056 B( 28-N , 29-C ) :   0.9415 B( 28-N , 31-C ) :   1.0205
B( 29-C , 30-C ) :   1.1146 B( 29-C , 69-H ) :   0.9470 B( 29-C , 70-H ) :   0.9242
B( 30-C , 71-H ) :   0.9667 B( 30-C , 72-H ) :   0.9669 B( 30-C , 73-H ) :   0.9644
B( 31-C , 32-O ) :   2.1378 B( 31-C , 33-C ) :   0.9855 B( 33-C , 34-C ) :   1.2421
B( 33-C , 40-C ) :   1.3455 B( 34-C , 35-C ) :   0.9531 B( 35-C , 36-O ) :   2.0886
B( 35-C , 37-N ) :   1.0575 B( 37-N , 38-C ) :   0.9377 B( 37-N , 40-C ) :   1.1717
B( 38-C , 39-C ) :   1.1161 B( 38-C , 74-H ) :   0.9293 B( 38-C , 75-H ) :   0.9509
B( 39-C , 76-H ) :   0.9600 B( 39-C , 77-H ) :   0.9688 B( 39-C , 78-H ) :   0.9654
B( 40-C , 41-C ) :   1.1824 B( 41-C , 42-C ) :   1.6185 B( 41-C , 79-H ) :   0.9429
B( 42-C , 43-C ) :   1.0738 B( 42-C , 80-H ) :   0.9800 B( 43-C , 44-C ) :   1.2868
B( 43-C , 48-C ) :   1.3121 B( 44-C , 45-N ) :   1.5888 B( 44-C , 81-H ) :   0.9885
B( 45-N , 46-C ) :   1.5325 B( 46-C , 47-N ) :   1.5520 B( 46-C , 49-C ) :   1.0005
B( 47-N , 48-C ) :   1.5826 B( 48-C , 82-H ) :   0.9813 B( 49-C , 50-S ) :   1.1572
B( 49-C , 53-C ) :   1.5559 B( 50-S , 51-C ) :   1.1733 B( 51-C , 52-C ) :   1.4632
B( 51-C , 64-C ) :   1.1041 B( 52-C , 53-C ) :   1.2284 B( 52-C , 62-C ) :   0.9527
B( 53-C , 54-C ) :   0.9349 B( 54-C , 55-O ) :   2.2547 B( 54-C , 56-C ) :   0.9244
B( 56-C , 57-C ) :   1.3977 B( 56-C , 61-C ) :   1.3622 B( 57-C , 58-C ) :   1.3654
B( 57-C , 83-H ) :   0.9956 B( 58-C , 59-C ) :   1.3567 B( 58-C , 84-H ) :   0.9936
B( 59-C , 60-C ) :   1.3653 B( 59-C , 85-H ) :   0.9927 B( 60-C , 61-C ) :   1.4015
B( 60-C , 86-H ) :   0.9933 B( 61-C , 62-C ) :   0.9587 B( 62-C , 63-O ) :   2.1463
B( 64-C , 65-C ) :   1.9432 B( 64-C , 87-H ) :   0.9400 B( 65-C , 88-H ) :   0.9313
B( 65-C , 89-H ) :   0.9413

-----------------------------------------------------------------------------
         ABSORPTION SPECTRUM VIA TRANSITION ELECTRIC DIPOLE MOMENTS
-----------------------------------------------------------------------------
State   Energy  Wavelength   fosc         T2         TX        TY        TZ
        (cm-1)    (nm)                  (au**2)     (au)      (au)      (au)
-----------------------------------------------------------------------------
   0   11316.4    883.7   0.718554625  20.90383  -2.43964   2.75468  -2.71362
   1   20190.0    495.3   0.425263259   6.93422   1.85697  -0.91688   1.62642
   2   21469.5    465.8   0.238538055   3.65773  -0.09462   1.72087  -0.82908
   3   23094.4    433.0   0.391914837   5.58676  -1.25584   1.55232  -1.26489
   4   24160.5    413.9   0.107723178   1.46784   0.85819  -0.85455   0.03303
   5   24404.2    409.8   0.040725287   0.54938   0.49367  -0.52733   0.16611
   6   24537.6    407.5   0.016606279   0.22280  -0.07779  -0.29529  -0.35993
   7   25210.5    396.7   0.013330939   0.17408   0.12374   0.31714   0.24124
   8   25817.9    387.3   0.092163325   1.17520   0.80259  -0.52979   0.50038
   9   26872.9    372.1   0.008371716   0.10256   0.25029   0.19710  -0.03265
  10   27122.9    368.7   0.008297363   0.10071   0.28156  -0.00573  -0.14630
  11   28477.5    351.2   0.057117714   0.66031   0.21768  -0.58086   0.52491
  12   28780.0    347.5   0.027607345   0.31580   0.37506  -0.41786  -0.02276
  13   29350.3    340.7   0.014276568   0.16014  -0.27584  -0.12078   0.26355
  14   29547.9    338.4   0.053291303   0.59375   0.05802  -0.76818  -0.01666
  15   30013.7    333.2   0.036150628   0.39653  -0.24031   0.57215   0.10687
  16   30455.7    328.3   0.034405495   0.37191   0.56427   0.09238  -0.21206
  17   30715.3    325.6   0.063304448   0.67851  -0.24168   0.46242   0.63739
  18   30920.7    323.4   0.035487980   0.37784  -0.11767  -0.16255   0.58101
  19   31952.4    313.0   0.475554707   4.89973  -1.63603   1.48440   0.14033
  20   31969.9    312.8   0.028518075   0.29367  -0.19480   0.43316  -0.26095
  21   33050.0    302.6   0.032527205   0.32400   0.09428   0.44598   0.34090
  22   33323.7    300.1   0.243387475   2.40448   1.08771  -0.75399  -0.80799
  23   33963.5    294.4   0.027654556   0.26806  -0.24876   0.31362  -0.32836
  24   34239.3    292.1   0.012353308   0.11878  -0.14957   0.11658   0.28778
  25   34390.5    290.8   0.017383184   0.16641   0.28131   0.02962  -0.29393
  26   34444.6    290.3   0.000766170   0.00732  -0.06197  -0.05073  -0.03014
  27   34780.5    287.5   0.006769570   0.06408   0.00796   0.24806  -0.04981
  28   34827.9    287.1   0.074743200   0.70651   0.58185  -0.06513  -0.60309
  29   34966.2    286.0   0.087602429   0.82479  -0.11705   0.86388   0.25456
  30   35277.4    283.5   0.012685454   0.11838   0.17236   0.28369   0.09051
  31   35745.3    279.8   0.008803309   0.08108  -0.01702   0.27509  -0.07152
  32   35802.9    279.3   0.012182287   0.11202  -0.27566   0.09296   0.16549
  33   35951.6    278.2   0.006993603   0.06404  -0.09635  -0.22470   0.06532
  34   36371.2    274.9   0.055010233   0.49792  -0.44442   0.53563  -0.11623
  35   36734.1    272.2   0.051308528   0.45983   0.38250   0.41190  -0.37929
  36   36779.0    271.9   0.041279350   0.36950   0.39127   0.13031   0.44657
  37   36989.2    270.3   0.040142575   0.35728   0.14025  -0.03936  -0.57970
  38   37172.3    269.0   0.009933503   0.08797   0.14987  -0.03313  -0.25380
  39   37216.3    268.7   0.001512082   0.01338  -0.05510  -0.08058   0.06202
  40   37603.0    265.9   0.148674613   1.30164   0.14006  -1.08781  -0.31413
  41   37785.1    264.7   0.021375208   0.18624  -0.35374   0.04655   0.24278
  42   38016.9    263.0   0.011040332   0.09561   0.14191   0.11605  -0.24900
  43   38438.2    260.2   0.043207755   0.37006   0.12395  -0.57562   0.15283
  44   38574.1    259.2   0.016730593   0.14279  -0.33665  -0.15950   0.06337
  45   38944.5    256.8   0.166049005   1.40367   0.15169   1.11218   0.37909
  46   39152.0    255.4   0.028019563   0.23560   0.46435  -0.12527  -0.06549
  47   39384.0    253.9   0.051427524   0.42988   0.24080  -0.39971   0.46057
  48   39776.8    251.4   0.252977046   2.09376   0.59121   1.00679   0.85476
  49   40070.8    249.6   0.026651999   0.21897  -0.18843  -0.33737  -0.26389

FINAL SINGLE POINT ENERGY     -4363.253203243835

DIPOLE MOMENT
-------------
                                X             Y             Z
Electronic contribution:    -44.45650      62.27067     -33.69458
Nuclear contribution   :     44.43961     -62.71786      34.29558
                        -----------------------------------------
Total Dipole Moment    :     -0.01689      -0.44719       0.60100
                        -----------------------------------------
Magnitude (a.u.)       :      0.74930
Magnitude (Debye)      :      1.90458

Rotational constants in cm-1:     0.003113     0.000256     0.000253
Rotational constants in MHz :    93.326552     7.685291     7.587604

                             ****ORCA TERMINATED NORMALLY****
TOTAL RUN TIME: 0 days 0 hours 8 minutes 8 seconds 105 msec
