                         Program Version 4.2.0 -  RELEASE  -
|  1> # ORCA input file
|  2> # SCF done       -163.287804409045          0.000938036733
|  3> ! CAM-B3LYP def2-SVP def2/J RIJCOSX Grid4 TightSCF
|  4> %maxcore 5000
|  5> %tddft
|  6>     Mode sTDDFT
|  7>     Ethresh 5.0
|  8>     maxcore 5000
|  9> end
| 10>
| 11> %pal
| 12>   nprocs 6
| 13>   end
| 14> * xyz 0 1
| 15>    C        9.94037        -2.09078         2.67991
| 16>    C       10.87843        -1.84028         3.63476
| 17>    S       10.45158        -2.57217         5.13623
| 18>    C        8.97908        -3.23793         4.46960
| 19>   Cl        7.92244        -4.16625         5.41184
| 20>    C        8.85038        -2.88954         3.15749
| 21>    C        7.88849        -3.12475         2.07723
| 22>    O        6.89960        -3.81753         2.09202
| 23>    C        8.44904        -2.37481         0.90265
| 24>    C        9.72662        -1.77491         1.28377
| 25>    C       10.57413        -1.03263         0.50929
| 26>    C       11.77175        -0.49828         1.03331
| 27>    N       12.74660        -0.05509         1.44337
| 28>    C       10.38040        -0.72070        -0.85158
| 29>    N       10.27854        -0.44750        -1.96157
| 30>    C        7.87164        -2.35189        -0.31655
| 31>    C        6.53959        -2.85077        -0.60953
| 32>    C        6.30642        -3.69933        -1.68564
| 33>    C        5.00592        -4.12780        -1.96371
| 34>    C        3.98669        -3.63466        -1.13586
| 35>    N        4.19878        -2.78856        -0.15292
| 36>    C        5.42558        -2.40577         0.11793
| 37>    C        4.71537        -5.03614        -3.04088
| 38>    S        3.12135        -5.11248        -3.75061
| 39>    C        3.55146        -6.34779        -4.90486
| 40>    C        4.88838        -6.69816        -4.72154
| 41>    C        5.52518        -5.95379        -3.67846
| 42>    N        6.80991        -6.39250        -3.57346
| 43>    C        7.00053        -7.39456        -4.50658
| 44>    C        8.23126        -8.05481        -4.62793
| 45>    N        9.24037        -8.59320        -4.71808
| 46>    C        5.84958        -7.60029        -5.23455
| 47>    C        2.63741        -6.85805        -5.85138
| 48>    S        3.17053        -8.05006        -7.02213
| 49>    C        1.60653        -8.13387        -7.75703
| 50>    C        0.74186        -7.30651        -7.14230
| 51>    C        1.29110        -6.56833        -6.05592
| 52>    C        0.37141        -5.69925        -5.39572
| 53>    C       -0.88560        -5.69796        -5.90103
| 54>    S       -0.98136        -6.84063        -7.30282
| 55>    O       -1.20875        -6.12835        -8.52823
| 56>    O       -1.84570        -7.94671        -7.00438
| 57>    C       -2.06516        -5.00896        -5.54439
| 58>    C       -2.20423        -4.14344        -4.51127
| 59>    C       -3.42376        -3.49212        -4.18239
| 60>    S       -4.87317        -3.73029        -5.10966
| 61>    C       -5.79227        -2.68304        -4.07774
| 62>    C       -5.00683        -2.19760        -3.05050
| 63>    C       -3.66736        -2.63291        -3.12310
| 64>    C       -2.64797        -2.28154        -2.08301
| 65>    F       -2.45030        -3.38785        -1.26780
| 66>    C       -3.11849        -1.11561        -1.20548
| 67>    F       -2.26637        -0.98931        -0.14153
| 68>    C       -4.54701        -1.39380        -0.73633
| 69>    F       -4.94197        -0.47778         0.20177
| 70>    C       -5.48084        -1.30333        -1.94848
| 71>    F       -5.48084         0.01297        -2.39146
| 72>    C       -7.18551        -2.47205        -4.38418
| 73>    C       -7.90931        -1.40526        -4.05442
| 74>    H       11.78891        -1.27897         3.56249
| 75>    H        8.40122        -1.91546        -1.15466
| 76>    H        7.13457        -4.01745        -2.30221
| 77>    H        2.96096        -3.94614        -1.28340
| 78>    H        5.53801        -1.69130         0.92045
| 79>    H        7.48651        -6.12593        -2.87898
| 80>    H        5.72365        -8.31199        -6.02417
| 81>    H        1.44373        -8.78921        -8.58820
| 82>    H        0.67415        -5.09731        -4.55389
| 83>    H       -2.91812        -5.22727        -6.17512
| 84>    H       -1.36082        -3.93586        -3.86858
| 85>    H       -1.66533        -2.05496        -2.51476
| 86>    H       -3.07950        -0.16817        -1.75788
| 87>    H       -4.61025        -2.38184        -0.26344
| 88>    H       -6.51574        -1.52020        -1.65715
| 89>    H       -7.63419        -3.26344        -4.97117
| 90>    H       -7.50073        -0.55569        -3.53823
| 91>    H       -8.94715        -1.34079        -4.33161
| 92> *
| 93>
| 94>                          ****END OF INPUT****

CARTESIAN COORDINATES (ANGSTROEM)
---------------------------------
  C      9.940370   -2.090780    2.679910
  C     10.878430   -1.840280    3.634760
  S     10.451580   -2.572170    5.136230
  C      8.979080   -3.237930    4.469600
  Cl     7.922440   -4.166250    5.411840
  C      8.850380   -2.889540    3.157490
  C      7.888490   -3.124750    2.077230
  O      6.899600   -3.817530    2.092020
  C      8.449040   -2.374810    0.902650
  C      9.726620   -1.774910    1.283770
  C     10.574130   -1.032630    0.509290
  C     11.771750   -0.498280    1.033310
  N     12.746600   -0.055090    1.443370
  C     10.380400   -0.720700   -0.851580
  N     10.278540   -0.447500   -1.961570
  C      7.871640   -2.351890   -0.316550
  C      6.539590   -2.850770   -0.609530
  C      6.306420   -3.699330   -1.685640
  C      5.005920   -4.127800   -1.963710
  C      3.986690   -3.634660   -1.135860
  N      4.198780   -2.788560   -0.152920
  C      5.425580   -2.405770    0.117930
  C      4.715370   -5.036140   -3.040880
  S      3.121350   -5.112480   -3.750610
  C      3.551460   -6.347790   -4.904860
  C      4.888380   -6.698160   -4.721540
  C      5.525180   -5.953790   -3.678460
  N      6.809910   -6.392500   -3.573460
  C      7.000530   -7.394560   -4.506580
  C      8.231260   -8.054810   -4.627930
  N      9.240370   -8.593200   -4.718080
  C      5.849580   -7.600290   -5.234550
  C      2.637410   -6.858050   -5.851380
  S      3.170530   -8.050060   -7.022130
  C      1.606530   -8.133870   -7.757030
  C      0.741860   -7.306510   -7.142300
  C      1.291100   -6.568330   -6.055920
  C      0.371410   -5.699250   -5.395720
  C     -0.885600   -5.697960   -5.901030
  S     -0.981360   -6.840630   -7.302820
  O     -1.208750   -6.128350   -8.528230
  O     -1.845700   -7.946710   -7.004380
  C     -2.065160   -5.008960   -5.544390
  C     -2.204230   -4.143440   -4.511270
  C     -3.423760   -3.492120   -4.182390
  S     -4.873170   -3.730290   -5.109660
  C     -5.792270   -2.683040   -4.077740
  C     -5.006830   -2.197600   -3.050500
  C     -3.667360   -2.632910   -3.123100
  C     -2.647970   -2.281540   -2.083010
  F     -2.450300   -3.387850   -1.267800
  C     -3.118490   -1.115610   -1.205480
  F     -2.266370   -0.989310   -0.141530
  C     -4.547010   -1.393800   -0.736330
  F     -4.941970   -0.477780    0.201770
  C     -5.480840   -1.303330   -1.948480
  F     -5.480840    0.012970   -2.391460
  C     -7.185510   -2.472050   -4.384180
  C     -7.909310   -1.405260   -4.054420
  H     11.788910   -1.278970    3.562490
  H      8.401220   -1.915460   -1.154660
  H      7.134570   -4.017450   -2.302210
  H      2.960960   -3.946140   -1.283400
  H      5.538010   -1.691300    0.920450
  H      7.486510   -6.125930   -2.878980
  H      5.723650   -8.311990   -6.024170
  H      1.443730   -8.789210   -8.588200
  H      0.674150   -5.097310   -4.553890
  H     -2.918120   -5.227270   -6.175120
  H     -1.360820   -3.935860   -3.868580
  H     -1.665330   -2.054960   -2.514760
  H     -3.079500   -0.168170   -1.757880
  H     -4.610250   -2.381840   -0.263440
  H     -6.515740   -1.520200   -1.657150
  H     -7.634190   -3.263440   -4.971170
  H     -7.500730   -0.555690   -3.538230
  H     -8.947150   -1.340790   -4.331610

 Total Charge           Charge          ....    0
 Multiplicity           Mult            ....    1
 Number of Electrons    NEL             ....  456
 Basis Dimension        Dim             ....  940

ORBITAL ENERGIES
----------------

  NO   OCC          E(Eh)            E(eV)
   0   2.0000    -101.626902     -2765.4086
   1   2.0000     -89.146362     -2425.7958
   2   2.0000     -89.005345     -2421.9586
   3   2.0000     -88.987026     -2421.4601
   4   2.0000     -88.982543     -2421.3381
   5   2.0000     -88.973315     -2421.0870
   6   2.0000     -24.764484      -673.8759
   7   2.0000     -24.761864      -673.8046
   8   2.0000     -24.759060      -673.7283
   9   2.0000     -24.758988      -673.7263
  10   2.0000     -19.233444      -523.3686
  11   2.0000     -19.197291      -522.3849
  12   2.0000     -19.197134      -522.3806
  13   2.0000     -14.492232      -394.3537
  14   2.0000     -14.434801      -392.7909
  15   2.0000     -14.432340      -392.7239
  16   2.0000     -14.428408      -392.6169
  17   2.0000     -14.418096      -392.3363
  18   2.0000     -10.390619      -282.7431
  19   2.0000     -10.387421      -282.6561
  20   2.0000     -10.368386      -282.1381
  21   2.0000     -10.365492      -282.0594
  22   2.0000     -10.363535      -282.0061
  23   2.0000     -10.363037      -281.9926
  24   2.0000     -10.362290      -281.9722
  25   2.0000     -10.359391      -281.8934
  26   2.0000     -10.359057      -281.8843
  27   2.0000     -10.341163      -281.3974
  28   2.0000     -10.339891      -281.3627
  29   2.0000     -10.337892      -281.3084
  30   2.0000     -10.336350      -281.2664
  31   2.0000     -10.335819      -281.2519
  32   2.0000     -10.335673      -281.2480
  33   2.0000     -10.333779      -281.1964
  34   2.0000     -10.327893      -281.0363
  35   2.0000     -10.327077      -281.0141
  36   2.0000     -10.326777      -281.0059
  37   2.0000     -10.324840      -280.9532
  38   2.0000     -10.323463      -280.9157
  39   2.0000     -10.323338      -280.9123
  40   2.0000     -10.323242      -280.9097
  41   2.0000     -10.322481      -280.8890
  42   2.0000     -10.321953      -280.8746
  43   2.0000     -10.316551      -280.7276
  44   2.0000     -10.316076      -280.7147
  45   2.0000     -10.315074      -280.6874
  46   2.0000     -10.313864      -280.6545
  47   2.0000     -10.312250      -280.6106
  48   2.0000     -10.311405      -280.5876
  49   2.0000     -10.309598      -280.5384
  50   2.0000     -10.308359      -280.5047
  51   2.0000     -10.306498      -280.4541
  52   2.0000     -10.304648      -280.4037
  53   2.0000     -10.304084      -280.3884
  54   2.0000     -10.302329      -280.3406
  55   2.0000     -10.300516      -280.2913
  56   2.0000     -10.297301      -280.2038
  57   2.0000     -10.295860      -280.1646
  58   2.0000     -10.282204      -279.7930
  59   2.0000      -9.581623      -260.7292
  60   2.0000      -8.211558      -223.4479
  61   2.0000      -8.100982      -220.4389
  62   2.0000      -8.081016      -219.8956
  63   2.0000      -8.077787      -219.8078
  64   2.0000      -8.069086      -219.5710
  65   2.0000      -7.352248      -200.0648
  66   2.0000      -7.341691      -199.7776
  67   2.0000      -7.341116      -199.7619
  68   2.0000      -6.180714      -168.1858
  69   2.0000      -6.180095      -168.1689
  70   2.0000      -6.179729      -168.1590
  71   2.0000      -6.070334      -165.1822
  72   2.0000      -6.065695      -165.0560
  73   2.0000      -6.063332      -164.9917
  74   2.0000      -6.050523      -164.6431
  75   2.0000      -6.047433      -164.5590
  76   2.0000      -6.046235      -164.5264
  77   2.0000      -6.043124      -164.4418
  78   2.0000      -6.042874      -164.4350
  79   2.0000      -6.039598      -164.3458
  80   2.0000      -6.038155      -164.3065
  81   2.0000      -6.034123      -164.1968
  82   2.0000      -6.031442      -164.1239
  83   2.0000      -1.287120       -35.0243
  84   2.0000      -1.278165       -34.7806
  85   2.0000      -1.267456       -34.4892
  86   2.0000      -1.260810       -34.3084
  87   2.0000      -1.203575       -32.7509
  88   2.0000      -1.151056       -31.3218
  89   2.0000      -1.114949       -30.3393
  90   2.0000      -1.081074       -29.4175
  91   2.0000      -1.057258       -28.7694
  92   2.0000      -1.049808       -28.5667
  93   2.0000      -1.030378       -28.0380
  94   2.0000      -1.022779       -27.8312
  95   2.0000      -1.011963       -27.5369
  96   2.0000      -1.010708       -27.5028
  97   2.0000      -1.009526       -27.4706
  98   2.0000      -1.000167       -27.2159
  99   2.0000      -0.994893       -27.0724
 100   2.0000      -0.967447       -26.3256
 101   2.0000      -0.957723       -26.0610
 102   2.0000      -0.942126       -25.6365
 103   2.0000      -0.930208       -25.3122
 104   2.0000      -0.928211       -25.2579
 105   2.0000      -0.919196       -25.0126
 106   2.0000      -0.916041       -24.9267
 107   2.0000      -0.897482       -24.4217
 108   2.0000      -0.886630       -24.1264
 109   2.0000      -0.881404       -23.9842
 110   2.0000      -0.866781       -23.5863
 111   2.0000      -0.856199       -23.2983
 112   2.0000      -0.853260       -23.2184
 113   2.0000      -0.844426       -22.9780
 114   2.0000      -0.841302       -22.8930
 115   2.0000      -0.833670       -22.6853
 116   2.0000      -0.815314       -22.1858
 117   2.0000      -0.798982       -21.7414
 118   2.0000      -0.791472       -21.5370
 119   2.0000      -0.780786       -21.2463
 120   2.0000      -0.767076       -20.8732
 121   2.0000      -0.758380       -20.6366
 122   2.0000      -0.748322       -20.3629
 123   2.0000      -0.745242       -20.2791
 124   2.0000      -0.740677       -20.1548
 125   2.0000      -0.734754       -19.9937
 126   2.0000      -0.719050       -19.5663
 127   2.0000      -0.715237       -19.4626
 128   2.0000      -0.706797       -19.2329
 129   2.0000      -0.696501       -18.9528
 130   2.0000      -0.688928       -18.7467
 131   2.0000      -0.684231       -18.6189
 132   2.0000      -0.678467       -18.4620
 133   2.0000      -0.670014       -18.2320
 134   2.0000      -0.661472       -17.9996
 135   2.0000      -0.650973       -17.7139
 136   2.0000      -0.643573       -17.5125
 137   2.0000      -0.637620       -17.3505
 138   2.0000      -0.633259       -17.2318
 139   2.0000      -0.627447       -17.0737
 140   2.0000      -0.621806       -16.9202
 141   2.0000      -0.618473       -16.8295
 142   2.0000      -0.615010       -16.7353
 143   2.0000      -0.613266       -16.6878
 144   2.0000      -0.607751       -16.5378
 145   2.0000      -0.603793       -16.4300
 146   2.0000      -0.597758       -16.2658
 147   2.0000      -0.591765       -16.1028
 148   2.0000      -0.585408       -15.9298
 149   2.0000      -0.583206       -15.8699
 150   2.0000      -0.579629       -15.7725
 151   2.0000      -0.577143       -15.7049
 152   2.0000      -0.565671       -15.3927
 153   2.0000      -0.562518       -15.3069
 154   2.0000      -0.561568       -15.2810
 155   2.0000      -0.559125       -15.2146
 156   2.0000      -0.558436       -15.1958
 157   2.0000      -0.555625       -15.1193
 158   2.0000      -0.552095       -15.0233
 159   2.0000      -0.549710       -14.9584
 160   2.0000      -0.547289       -14.8925
 161   2.0000      -0.545080       -14.8324
 162   2.0000      -0.541867       -14.7449
 163   2.0000      -0.540497       -14.7077
 164   2.0000      -0.535966       -14.5844
 165   2.0000      -0.534740       -14.5510
 166   2.0000      -0.534200       -14.5363
 167   2.0000      -0.522075       -14.2064
 168   2.0000      -0.518278       -14.1031
 169   2.0000      -0.513564       -13.9748
 170   2.0000      -0.511661       -13.9230
 171   2.0000      -0.509045       -13.8518
 172   2.0000      -0.506266       -13.7762
 173   2.0000      -0.505058       -13.7433
 174   2.0000      -0.504440       -13.7265
 175   2.0000      -0.501937       -13.6584
 176   2.0000      -0.500046       -13.6069
 177   2.0000      -0.496074       -13.4988
 178   2.0000      -0.494603       -13.4588
 179   2.0000      -0.487028       -13.2527
 180   2.0000      -0.483178       -13.1479
 181   2.0000      -0.481077       -13.0908
 182   2.0000      -0.477953       -13.0058
 183   2.0000      -0.476098       -12.9553
 184   2.0000      -0.472912       -12.8686
 185   2.0000      -0.470178       -12.7942
 186   2.0000      -0.466256       -12.6875
 187   2.0000      -0.465266       -12.6605
 188   2.0000      -0.459224       -12.4961
 189   2.0000      -0.458298       -12.4709
 190   2.0000      -0.456249       -12.4152
 191   2.0000      -0.455596       -12.3974
 192   2.0000      -0.452783       -12.3208
 193   2.0000      -0.448986       -12.2175
 194   2.0000      -0.446063       -12.1380
 195   2.0000      -0.445010       -12.1093
 196   2.0000      -0.444472       -12.0947
 197   2.0000      -0.439749       -11.9662
 198   2.0000      -0.437990       -11.9183
 199   2.0000      -0.435090       -11.8394
 200   2.0000      -0.431472       -11.7410
 201   2.0000      -0.430172       -11.7056
 202   2.0000      -0.427175       -11.6240
 203   2.0000      -0.426196       -11.5974
 204   2.0000      -0.415125       -11.2961
 205   2.0000      -0.412745       -11.2314
 206   2.0000      -0.412585       -11.2270
 207   2.0000      -0.407436       -11.0869
 208   2.0000      -0.406484       -11.0610
 209   2.0000      -0.401499       -10.9254
 210   2.0000      -0.396504       -10.7894
 211   2.0000      -0.390333       -10.6215
 212   2.0000      -0.389640       -10.6026
 213   2.0000      -0.373580       -10.1656
 214   2.0000      -0.368903       -10.0384
 215   2.0000      -0.364193        -9.9102
 216   2.0000      -0.362194        -9.8558
 217   2.0000      -0.361157        -9.8276
 218   2.0000      -0.348702        -9.4887
 219   2.0000      -0.343352        -9.3431
 220   2.0000      -0.341084        -9.2814
 221   2.0000      -0.339318        -9.2333
 222   2.0000      -0.331706        -9.0262
 223   2.0000      -0.323332        -8.7983
 224   2.0000      -0.321690        -8.7536
 225   2.0000      -0.317454        -8.6384
 226   2.0000      -0.279511        -7.6059
 227   2.0000      -0.248849        -6.7715
 228   0.0000      -0.104294        -2.8380
 229   0.0000      -0.093362        -2.5405
 230   0.0000      -0.062529        -1.7015
 231   0.0000      -0.054477        -1.4824
 232   0.0000      -0.019446        -0.5292

MULLIKEN ATOMIC CHARGES
-----------------------
   0 C :    0.025627
   1 C :   -0.123907
   2 S :    0.198209
   3 C :   -0.169256
   4 Cl:    0.008496
   5 C :    0.077413
   6 C :    0.130803
   7 O :   -0.113310
   8 C :   -0.083869
   9 C :    0.297790
  10 C :   -0.323888
  11 C :   -0.192480
  12 N :    0.166904
  13 C :   -0.188210
  14 N :    0.164704
  15 C :   -0.047608
  16 C :    0.038981
  17 C :   -0.026162
  18 C :    0.069071
  19 C :   -0.022014
  20 N :   -0.041739
  21 C :    0.046612
  22 C :   -0.149966
  23 S :    0.121915
  24 C :   -0.117454
  25 C :    0.074438
  26 C :    0.117067
  27 N :   -0.042198
  28 C :   -0.093693
  29 C :   -0.146896
  30 N :    0.173163
  31 C :   -0.028747
  32 C :   -0.106112
  33 S :    0.125689
  34 C :   -0.132962
  35 C :    0.054301
  36 C :    0.051452
  37 C :    0.020892
  38 C :   -0.064656
  39 S :    0.772022
  40 O :   -0.447965
  41 O :   -0.447351
  42 C :    0.065355
  43 C :    0.007737
  44 C :   -0.090483
  45 S :    0.152038
  46 C :   -0.121479
  47 C :   -0.044334
  48 C :   -0.069516
  49 C :    0.286524
  50 F :   -0.251956
  51 C :    0.221199
  52 F :   -0.229772
  53 C :    0.215240
  54 F :   -0.230701
  55 C :    0.277837
  56 F :   -0.249248
  57 C :   -0.001121
  58 C :   -0.017291
  59 H :    0.056966
  60 H :    0.044048
  61 H :   -0.028093
  62 H :    0.008984
  63 H :    0.004219
  64 H :    0.133526
  65 H :    0.000422
  66 H :    0.044144
  67 H :    0.002271
  68 H :    0.008747
  69 H :    0.003246
  70 H :    0.016377
  71 H :    0.026215
  72 H :    0.026757
  73 H :    0.019446
  74 H :    0.008407
  75 H :    0.044614
  76 H :    0.034568
Sum of atomic charges:   -0.0000000

LOEWDIN ATOMIC CHARGES
----------------------
   0 C :   -0.060897
   1 C :   -0.146827
   2 S :    0.486656
   3 C :   -0.270383
   4 Cl:    0.198700
   5 C :   -0.119183
   6 C :    0.079066
   7 O :   -0.117971
   8 C :   -0.074693
   9 C :    0.073202
  10 C :   -0.127400
  11 C :   -0.015758
  12 N :   -0.041897
  13 C :   -0.022047
  14 N :   -0.038765
  15 C :    0.075530
  16 C :   -0.047117
  17 C :    0.007037
  18 C :   -0.055107
  19 C :    0.023740
  20 N :   -0.049485
  21 C :    0.047441
  22 C :   -0.203748
  23 S :    0.474215
  24 C :   -0.189455
  25 C :   -0.067344
  26 C :   -0.001664
  27 N :    0.067298
  28 C :   -0.019883
  29 C :   -0.045266
  30 N :   -0.030744
  31 C :   -0.037449
  32 C :   -0.169760
  33 S :    0.457810
  34 C :   -0.152492
  35 C :   -0.201146
  36 C :   -0.081841
  37 C :   -0.017253
  38 C :   -0.153049
  39 S :    1.170292
  40 O :   -0.493631
  41 O :   -0.492931
  42 C :   -0.041254
  43 C :   -0.010426
  44 C :   -0.160149
  45 S :    0.473472
  46 C :   -0.147485
  47 C :   -0.083918
  48 C :   -0.075175
  49 C :    0.102092
  50 F :   -0.129375
  51 C :    0.077780
  52 F :   -0.106071
  53 C :    0.079078
  54 F :   -0.107131
  55 C :    0.101058
  56 F :   -0.125715
  57 C :   -0.048886
  58 C :   -0.018310
  59 H :    0.039025
  60 H :    0.048883
  61 H :    0.024851
  62 H :    0.018217
  63 H :    0.023836
  64 H :    0.093230
  65 H :    0.030502
  66 H :    0.037946
  67 H :    0.022130
  68 H :    0.029328
  69 H :    0.035506
  70 H :    0.025334
  71 H :    0.027542
  72 H :    0.028191
  73 H :    0.028865
  74 H :    0.033398
  75 H :    0.026339
  76 H :    0.031490

  Mayer bond orders larger than 0.100000
B(  0-C ,  1-C ) :   1.5380 B(  0-C ,  5-C ) :   1.2215 B(  0-C ,  9-C ) :   1.0097
B(  1-C ,  2-S ) :   1.1698 B(  1-C , 59-H ) :   0.9531 B(  2-S ,  3-C ) :   1.1553
B(  3-C ,  4-Cl) :   1.1365 B(  3-C ,  5-C ) :   1.4718 B(  5-C ,  6-C ) :   0.9463
B(  6-C ,  7-O ) :   2.2634 B(  6-C ,  8-C ) :   0.9126 B(  8-C ,  9-C ) :   1.0305
B(  8-C , 15-C ) :   1.7726 B(  9-C , 10-C ) :   1.6781 B( 10-C , 11-C ) :   1.1405
B( 10-C , 13-C ) :   1.1399 B( 11-C , 12-N ) :   2.9952 B( 13-C , 14-N ) :   2.9716
B( 15-C , 16-C ) :   0.9881 B( 15-C , 60-H ) :   0.9405 B( 16-C , 17-C ) :   1.3987
B( 16-C , 21-C ) :   1.3255 B( 17-C , 18-C ) :   1.3689 B( 17-C , 61-H ) :   0.9863
B( 18-C , 19-C ) :   1.3152 B( 18-C , 22-C ) :   1.0414 B( 19-C , 20-N ) :   1.5698
B( 19-C , 62-H ) :   0.9850 B( 20-N , 21-C ) :   1.5701 B( 21-C , 63-H ) :   0.9854
B( 22-C , 23-S ) :   1.1097 B( 22-C , 24-C ) :   0.1200 B( 22-C , 26-C ) :   1.4447
B( 23-S , 24-C ) :   1.1367 B( 24-C , 25-C ) :   1.3403 B( 24-C , 32-C ) :   1.2115
B( 25-C , 26-C ) :   1.2245 B( 25-C , 31-C ) :   1.1653 B( 26-C , 27-N ) :   1.1646
B( 27-N , 28-C ) :   1.1980 B( 27-N , 64-H ) :   0.9316 B( 28-C , 29-C ) :   1.0537
B( 28-C , 31-C ) :   1.5951 B( 29-C , 30-N ) :   3.0555 B( 31-C , 65-H ) :   1.0038
B( 32-C , 33-S ) :   1.1264 B( 32-C , 36-C ) :   1.4420 B( 33-S , 34-C ) :   1.1395
B( 34-C , 35-C ) :   1.6447 B( 34-C , 66-H ) :   0.9773 B( 35-C , 36-C ) :   1.2291
B( 35-C , 39-S ) :   0.7629 B( 36-C , 37-C ) :   1.1096 B( 37-C , 38-C ) :   1.6572
B( 37-C , 67-H ) :   0.9718 B( 38-C , 39-S ) :   0.8450 B( 38-C , 42-C ) :   1.1415
B( 39-S , 40-O ) :   1.7340 B( 39-S , 41-O ) :   1.7348 B( 42-C , 43-C ) :   1.6619
B( 42-C , 68-H ) :   0.9502 B( 43-C , 44-C ) :   1.1719 B( 43-C , 69-H ) :   0.9646
B( 44-C , 45-S ) :   1.1273 B( 44-C , 48-C ) :   1.5016 B( 45-S , 46-C ) :   1.1505
B( 46-C , 47-C ) :   1.5502 B( 46-C , 57-C ) :   1.0749 B( 47-C , 48-C ) :   1.3167
B( 47-C , 55-C ) :   0.9638 B( 48-C , 49-C ) :   0.9731 B( 49-C , 50-F ) :   1.0173
B( 49-C , 51-C ) :   0.9967 B( 49-C , 70-H ) :   0.9159 B( 51-C , 52-F ) :   1.0533
B( 51-C , 53-C ) :   0.9815 B( 51-C , 71-H ) :   0.9315 B( 53-C , 54-F ) :   1.0529
B( 53-C , 55-C ) :   0.9981 B( 53-C , 72-H ) :   0.9369 B( 55-C , 56-F ) :   0.9826
B( 55-C , 73-H ) :   0.9228 B( 57-C , 58-C ) :   1.9415 B( 57-C , 74-H ) :   0.9512
B( 58-C , 75-H ) :   0.9509 B( 58-C , 76-H ) :   0.9469

-----------------------------------------------------------------------------
         ABSORPTION SPECTRUM VIA TRANSITION ELECTRIC DIPOLE MOMENTS
-----------------------------------------------------------------------------
State   Energy  Wavelength   fosc         T2         TX        TY        TZ
        (cm-1)    (nm)                  (au**2)     (au)      (au)      (au)
-----------------------------------------------------------------------------
   0   18474.4    541.3   1.190131340  21.20803   4.41377  -0.31229   1.27636
   1   18954.4    527.6   0.007772026   0.13499   0.31897   0.16056   0.08643
   2   24925.9    401.2   0.235691761   3.11293   1.19506  -1.04968  -0.76351
   3   26395.8    378.8   0.144666058   1.80429   0.50262   0.94529   0.81123
   4   27454.8    364.2   0.811655834   9.73261  -0.90116   2.15047   2.07268
   5   28378.8    352.4   0.014357885   0.16656   0.31173  -0.04604  -0.25935
   6   28854.5    346.6   0.003257003   0.03716  -0.18381  -0.05810   0.00085
   7   29572.7    338.1   0.070809283   0.78827  -0.65292  -0.36013   0.48194
   8   31018.4    322.4   0.094029133   0.99797  -0.82920  -0.19944  -0.52021
   9   32566.7    307.1   0.089165062   0.90136  -0.70109  -0.63893   0.04012
  10   33043.2    302.6   0.094421507   0.94073  -0.92939   0.27349   0.04648
  11   33385.1    299.5   0.023629349   0.23301  -0.02644   0.14425  -0.45990
  12   33605.8    297.6   0.015537080   0.15221   0.35545  -0.15750  -0.03252
  13   33889.3    295.1   0.011956349   0.11615  -0.28700  -0.09869  -0.15504
  14   34228.1    292.2   0.084173353   0.80959  -0.83564   0.04808  -0.33012
  15   34500.4    289.9   0.138229549   1.31902   0.65160  -0.81330  -0.48268
  16   34975.8    285.9   0.032819056   0.30891  -0.27613  -0.20882  -0.43481
  17   35153.4    284.5   0.178733766   1.67384  -0.28016  -0.59425  -1.11455
  18   36079.0    277.2   0.165986004   1.51458   1.12320  -0.33220  -0.37768
  19   36369.8    275.0   0.013704314   0.12405  -0.08867   0.16121   0.30033
  20   36542.7    273.7   0.050232310   0.45254   0.12944   0.11235   0.65051
  21   37096.4    269.6   0.408666710   3.62671  -0.65679  -0.37821   1.74708
  22   37384.6    267.5   0.310510677   2.73438  -0.30559   1.21757  -1.07634
  23   37636.7    265.7   0.005345043   0.04675  -0.10591   0.11383  -0.15027
  24   38031.5    262.9   0.027762196   0.24032  -0.30697  -0.35637  -0.13818
  25   38052.7    262.8   0.165483456   1.43167   0.17612   0.26115  -1.15432
  26   39026.0    256.2   0.044446364   0.37494  -0.06802   0.25384   0.55306
  27   39328.5    254.3   0.040381920   0.33803   0.43640  -0.38251  -0.03568
  28   39959.4    250.3   0.016051216   0.13224   0.28640   0.05718  -0.21667

FINAL SINGLE POINT ENERGY     -4919.182390747589

DIPOLE MOMENT
-------------
                                X             Y             Z
Electronic contribution:     23.19980       0.60017      27.33611
Nuclear contribution   :    -23.05198      -0.77994     -25.96392
                        -----------------------------------------
Total Dipole Moment    :      0.14782      -0.17978       1.37219
                        -----------------------------------------
Magnitude (a.u.)       :      1.39179
Magnitude (Debye)      :      3.53765

Rotational constants in cm-1:     0.001309     0.000475     0.000372
Rotational constants in MHz :    39.257242    14.230437    11.144277

                             ****ORCA TERMINATED NORMALLY****
TOTAL RUN TIME: 0 days 0 hours 8 minutes 8 seconds 25 msec
