                         Program Version 4.2.0 -  RELEASE  -
|  1> # ORCA input file
|  2> # SCF done       -164.351325587792          0.000537984449
|  3> ! CAM-B3LYP def2-SVP def2/J RIJCOSX Grid4 TightSCF
|  4> %maxcore 5000
|  5> %tddft
|  6>     Mode sTDDFT
|  7>     Ethresh 5.0
|  8>     maxcore 5000
|  9> end
| 10>
| 11> %pal
| 12>   nprocs 6
| 13>   end
| 14> * xyz 0 1
| 15>    C        6.12864        -0.66182         5.31870
| 16>    C        6.55443        -0.30282         6.56047
| 17>    S        8.16930        -0.83858         6.84505
| 18>    C        8.27879        -1.56275         5.25852
| 19>   Cl        9.68353        -2.35626         4.74484
| 20>    C        7.11376        -1.38450         4.57263
| 21>    C        6.58855        -1.73837         3.25099
| 22>    O        7.16677        -2.32565         2.36652
| 23>    C        5.21133        -1.15070         3.22016
| 24>    C        4.93509        -0.52381         4.51026
| 25>    C        3.77073         0.05088         4.94140
| 26>    C        3.66433         0.59998         6.23825
| 27>    N        3.56200         1.05503         7.28600
| 28>    C        2.57101         0.16309         4.20878
| 29>    N        1.56149         0.28617         3.67635
| 30>    C        4.38593        -1.06171         2.14263
| 31>    C        4.49070        -1.68167         0.86767
| 32>    S        3.56506        -0.99370        -0.43825
| 33>    C        4.12086        -2.20413        -1.53515
| 34>    C        3.58633        -2.26494        -2.87901
| 35>    O        3.86830        -3.10604        -3.69717
| 36>    C        4.97233        -3.10989        -0.90484
| 37>    C        5.15745        -2.81693         0.45294
| 38>    C        5.53861        -4.30175        -1.51043
| 39>    N        6.38251        -4.34489        -2.58247
| 40>    C        6.98658        -3.21904        -3.25000
| 41>    C        7.96012        -2.47759        -2.33833
| 42>    C        6.72242        -5.67235        -2.91452
| 43>    O        7.49373        -5.95800        -3.81258
| 44>    C        5.99870        -6.47995        -1.96175
| 45>    C        5.30584        -5.59038        -1.08674
| 46>    C        4.54226        -6.37830        -0.14684
| 47>    O        3.82358        -6.07325         0.78094
| 48>    N        4.80928        -7.70887        -0.52772
| 49>    C        4.25053        -8.82048         0.20177
| 50>    C        5.27863        -9.47322         1.12276
| 51>    C        5.66617        -7.77910        -1.60282
| 52>    C        6.06007        -9.00126        -2.22368
| 53>    C        6.95637        -9.00944        -3.23129
| 54>    C        7.38369       -10.14820        -4.00451
| 55>    C        8.28347        -9.93448        -5.05054
| 56>    C        8.65977       -10.98674        -5.88062
| 57>    C        8.13561       -12.25305        -5.57889
| 58>    N        7.31811       -12.47487        -4.57163
| 59>    C        6.94547       -11.46601        -3.81059
| 60>    C        9.57583       -10.81453        -6.98288
| 61>    C        9.76026        -9.73364        -7.77065
| 62>    C       11.00264        -9.67238        -8.61435
| 63>    O       11.74179       -10.59243        -8.86338
| 64>    C       11.11692        -8.26077        -8.99145
| 65>    C       12.01381        -7.46766        -9.64375
| 66>    S       11.44723        -5.81548        -9.69216
| 67>    C        9.99991        -6.21759        -8.84234
| 68>    C        9.96251        -7.54176        -8.53591
| 69>    C        9.04331        -8.46912        -7.90284
| 70>    C        7.71580        -8.21675        -7.69797
| 71>    C        7.16673        -6.94174        -7.95847
| 72>    N        6.71714        -5.90976        -8.17654
| 73>    C        6.76059        -9.17648        -7.30812
| 74>    N        5.93269        -9.92587        -7.04464
| 75>   Cl       13.49063        -7.91554       -10.34199
| 76>    H        6.03865         0.24059         7.32703
| 77>    H        3.52219        -0.41373         2.23764
| 78>    H        2.85947        -1.46041        -3.09710
| 79>    H        5.75854        -3.42370         1.10290
| 80>    H        6.20738        -2.54695        -3.61523
| 81>    H        7.51732        -3.63626        -4.11016
| 82>    H        7.45095        -2.07945        -1.46284
| 83>    H        8.41432        -1.65326        -2.88109
| 84>    H        8.74735        -3.14865        -2.00256
| 85>    H        3.83694        -9.55099        -0.49961
| 86>    H        3.43314        -8.40606         0.79877
| 87>    H        6.12465        -9.85542         0.55554
| 88>    H        4.81857       -10.29572         1.66344
| 89>    H        5.64579        -8.74615         1.84293
| 90>    H        5.60041        -9.91359        -1.87444
| 91>    H        7.38874        -8.06565        -3.53721
| 92>    H        8.70140        -8.94746        -5.19308
| 93>    H        8.37829       -13.11142        -6.19037
| 94>    H        6.27479       -11.72388        -3.00307
| 95>    H       10.24350       -11.64768        -7.18122
| 96>    H        9.28721        -5.44846        -8.62027
| 97> *
| 98>
| 99>                          ****END OF INPUT****

CARTESIAN COORDINATES (ANGSTROEM)
---------------------------------
  C      6.128640   -0.661820    5.318700
  C      6.554430   -0.302820    6.560470
  S      8.169300   -0.838580    6.845050
  C      8.278790   -1.562750    5.258520
  Cl     9.683530   -2.356260    4.744840
  C      7.113760   -1.384500    4.572630
  C      6.588550   -1.738370    3.250990
  O      7.166770   -2.325650    2.366520
  C      5.211330   -1.150700    3.220160
  C      4.935090   -0.523810    4.510260
  C      3.770730    0.050880    4.941400
  C      3.664330    0.599980    6.238250
  N      3.562000    1.055030    7.286000
  C      2.571010    0.163090    4.208780
  N      1.561490    0.286170    3.676350
  C      4.385930   -1.061710    2.142630
  C      4.490700   -1.681670    0.867670
  S      3.565060   -0.993700   -0.438250
  C      4.120860   -2.204130   -1.535150
  C      3.586330   -2.264940   -2.879010
  O      3.868300   -3.106040   -3.697170
  C      4.972330   -3.109890   -0.904840
  C      5.157450   -2.816930    0.452940
  C      5.538610   -4.301750   -1.510430
  N      6.382510   -4.344890   -2.582470
  C      6.986580   -3.219040   -3.250000
  C      7.960120   -2.477590   -2.338330
  C      6.722420   -5.672350   -2.914520
  O      7.493730   -5.958000   -3.812580
  C      5.998700   -6.479950   -1.961750
  C      5.305840   -5.590380   -1.086740
  C      4.542260   -6.378300   -0.146840
  O      3.823580   -6.073250    0.780940
  N      4.809280   -7.708870   -0.527720
  C      4.250530   -8.820480    0.201770
  C      5.278630   -9.473220    1.122760
  C      5.666170   -7.779100   -1.602820
  C      6.060070   -9.001260   -2.223680
  C      6.956370   -9.009440   -3.231290
  C      7.383690  -10.148200   -4.004510
  C      8.283470   -9.934480   -5.050540
  C      8.659770  -10.986740   -5.880620
  C      8.135610  -12.253050   -5.578890
  N      7.318110  -12.474870   -4.571630
  C      6.945470  -11.466010   -3.810590
  C      9.575830  -10.814530   -6.982880
  C      9.760260   -9.733640   -7.770650
  C     11.002640   -9.672380   -8.614350
  O     11.741790  -10.592430   -8.863380
  C     11.116920   -8.260770   -8.991450
  C     12.013810   -7.467660   -9.643750
  S     11.447230   -5.815480   -9.692160
  C      9.999910   -6.217590   -8.842340
  C      9.962510   -7.541760   -8.535910
  C      9.043310   -8.469120   -7.902840
  C      7.715800   -8.216750   -7.697970
  C      7.166730   -6.941740   -7.958470
  N      6.717140   -5.909760   -8.176540
  C      6.760590   -9.176480   -7.308120
  N      5.932690   -9.925870   -7.044640
  Cl    13.490630   -7.915540  -10.341990
  H      6.038650    0.240590    7.327030
  H      3.522190   -0.413730    2.237640
  H      2.859470   -1.460410   -3.097100
  H      5.758540   -3.423700    1.102900
  H      6.207380   -2.546950   -3.615230
  H      7.517320   -3.636260   -4.110160
  H      7.450950   -2.079450   -1.462840
  H      8.414320   -1.653260   -2.881090
  H      8.747350   -3.148650   -2.002560
  H      3.836940   -9.550990   -0.499610
  H      3.433140   -8.406060    0.798770
  H      6.124650   -9.855420    0.555540
  H      4.818570  -10.295720    1.663440
  H      5.645790   -8.746150    1.842930
  H      5.600410   -9.913590   -1.874440
  H      7.388740   -8.065650   -3.537210
  H      8.701400   -8.947460   -5.193080
  H      8.378290  -13.111420   -6.190370
  H      6.274790  -11.723880   -3.003070
  H     10.243500  -11.647680   -7.181220
  H      9.287210   -5.448460   -8.620270

 Total Charge           Charge          ....    0
 Multiplicity           Mult            ....    1
 Number of Electrons    NEL             ....  456
 Basis Dimension        Dim             ....  979

ORBITAL ENERGIES
----------------

  NO   OCC          E(Eh)            E(eV)
   0   2.0000    -101.623865     -2765.3260
   1   2.0000    -101.618492     -2765.1797
   2   2.0000     -89.000484     -2421.8263
   3   2.0000     -88.994470     -2421.6626
   4   2.0000     -88.990222     -2421.5471
   5   2.0000     -19.231478      -523.3151
   6   2.0000     -19.228566      -523.2359
   7   2.0000     -19.222021      -523.0578
   8   2.0000     -19.188307      -522.1404
   9   2.0000     -19.187925      -522.1300
  10   2.0000     -14.451804      -393.2536
  11   2.0000     -14.450993      -393.2315
  12   2.0000     -14.428555      -392.6209
  13   2.0000     -14.426550      -392.5664
  14   2.0000     -14.419950      -392.3868
  15   2.0000     -14.419550      -392.3759
  16   2.0000     -14.412150      -392.1745
  17   2.0000     -10.389018      -282.6996
  18   2.0000     -10.383275      -282.5433
  19   2.0000     -10.378103      -282.4025
  20   2.0000     -10.377494      -282.3860
  21   2.0000     -10.376814      -282.3675
  22   2.0000     -10.373028      -282.2644
  23   2.0000     -10.370921      -282.2071
  24   2.0000     -10.356902      -281.8256
  25   2.0000     -10.356187      -281.8062
  26   2.0000     -10.351569      -281.6805
  27   2.0000     -10.350965      -281.6641
  28   2.0000     -10.341140      -281.3967
  29   2.0000     -10.339211      -281.3442
  30   2.0000     -10.338806      -281.3332
  31   2.0000     -10.336703      -281.2760
  32   2.0000     -10.336412      -281.2681
  33   2.0000     -10.330337      -281.1027
  34   2.0000     -10.329727      -281.0862
  35   2.0000     -10.328580      -281.0550
  36   2.0000     -10.328432      -281.0509
  37   2.0000     -10.322630      -280.8930
  38   2.0000     -10.320884      -280.8455
  39   2.0000     -10.320857      -280.8448
  40   2.0000     -10.320317      -280.8301
  41   2.0000     -10.319632      -280.8115
  42   2.0000     -10.319040      -280.7953
  43   2.0000     -10.318833      -280.7897
  44   2.0000     -10.318507      -280.7809
  45   2.0000     -10.314332      -280.6672
  46   2.0000     -10.309144      -280.5261
  47   2.0000     -10.308107      -280.4979
  48   2.0000     -10.307125      -280.4711
  49   2.0000     -10.304215      -280.3919
  50   2.0000     -10.303277      -280.3664
  51   2.0000     -10.301924      -280.3296
  52   2.0000     -10.301826      -280.3269
  53   2.0000     -10.298678      -280.2413
  54   2.0000     -10.296800      -280.1902
  55   2.0000     -10.292770      -280.0805
  56   2.0000     -10.291575      -280.0480
  57   2.0000     -10.264886      -279.3217
  58   2.0000     -10.259679      -279.1801
  59   2.0000     -10.259265      -279.1688
  60   2.0000     -10.256772      -279.1010
  61   2.0000      -9.578661      -260.6486
  62   2.0000      -9.573277      -260.5021
  63   2.0000      -8.096225      -220.3095
  64   2.0000      -8.090267      -220.1473
  65   2.0000      -8.085964      -220.0303
  66   2.0000      -7.349294      -199.9845
  67   2.0000      -7.343899      -199.8377
  68   2.0000      -7.338698      -199.6961
  69   2.0000      -7.338151      -199.6812
  70   2.0000      -7.333323      -199.5499
  71   2.0000      -7.332786      -199.5352
  72   2.0000      -6.065579      -165.0528
  73   2.0000      -6.060977      -164.9276
  74   2.0000      -6.059633      -164.8910
  75   2.0000      -6.058511      -164.8605
  76   2.0000      -6.055032      -164.7658
  77   2.0000      -6.054904      -164.7623
  78   2.0000      -6.052506      -164.6971
  79   2.0000      -6.050917      -164.6538
  80   2.0000      -6.048536      -164.5890
  81   2.0000      -1.149010       -31.2662
  82   2.0000      -1.142012       -31.0757
  83   2.0000      -1.139190       -30.9989
  84   2.0000      -1.130592       -30.7650
  85   2.0000      -1.123655       -30.5762
  86   2.0000      -1.062301       -28.9067
  87   2.0000      -1.054358       -28.6905
  88   2.0000      -1.049589       -28.5608
  89   2.0000      -1.045651       -28.4536
  90   2.0000      -1.039310       -28.2811
  91   2.0000      -1.025226       -27.8978
  92   2.0000      -1.017145       -27.6779
  93   2.0000      -1.015904       -27.6441
  94   2.0000      -1.006047       -27.3759
  95   2.0000      -0.997898       -27.1542
  96   2.0000      -0.995372       -27.0855
  97   2.0000      -0.989217       -26.9180
  98   2.0000      -0.962306       -26.1857
  99   2.0000      -0.957097       -26.0439
 100   2.0000      -0.934522       -25.4296
 101   2.0000      -0.926381       -25.2081
 102   2.0000      -0.921543       -25.0765
 103   2.0000      -0.919516       -25.0213
 104   2.0000      -0.908056       -24.7095
 105   2.0000      -0.905590       -24.6423
 106   2.0000      -0.886051       -24.1107
 107   2.0000      -0.874831       -23.8054
 108   2.0000      -0.865898       -23.5623
 109   2.0000      -0.854511       -23.2524
 110   2.0000      -0.850864       -23.1532
 111   2.0000      -0.839842       -22.8533
 112   2.0000      -0.833628       -22.6842
 113   2.0000      -0.818245       -22.2656
 114   2.0000      -0.805357       -21.9149
 115   2.0000      -0.793499       -21.5922
 116   2.0000      -0.789055       -21.4713
 117   2.0000      -0.778871       -21.1941
 118   2.0000      -0.763186       -20.7674
 119   2.0000      -0.759019       -20.6540
 120   2.0000      -0.756360       -20.5816
 121   2.0000      -0.737839       -20.0776
 122   2.0000      -0.732377       -19.9290
 123   2.0000      -0.725073       -19.7302
 124   2.0000      -0.711581       -19.3631
 125   2.0000      -0.706231       -19.2175
 126   2.0000      -0.693812       -18.8796
 127   2.0000      -0.691598       -18.8194
 128   2.0000      -0.688084       -18.7237
 129   2.0000      -0.684559       -18.6278
 130   2.0000      -0.677101       -18.4249
 131   2.0000      -0.669170       -18.2091
 132   2.0000      -0.665595       -18.1118
 133   2.0000      -0.648094       -17.6355
 134   2.0000      -0.636978       -17.3331
 135   2.0000      -0.632036       -17.1986
 136   2.0000      -0.623194       -16.9580
 137   2.0000      -0.620234       -16.8774
 138   2.0000      -0.619306       -16.8522
 139   2.0000      -0.611459       -16.6387
 140   2.0000      -0.608324       -16.5533
 141   2.0000      -0.607046       -16.5186
 142   2.0000      -0.603988       -16.4353
 143   2.0000      -0.592806       -16.1311
 144   2.0000      -0.581559       -15.8250
 145   2.0000      -0.575516       -15.6606
 146   2.0000      -0.573700       -15.6112
 147   2.0000      -0.565563       -15.3898
 148   2.0000      -0.561960       -15.2917
 149   2.0000      -0.558928       -15.2092
 150   2.0000      -0.550755       -14.9868
 151   2.0000      -0.547906       -14.9093
 152   2.0000      -0.546608       -14.8740
 153   2.0000      -0.544312       -14.8115
 154   2.0000      -0.543669       -14.7940
 155   2.0000      -0.540922       -14.7192
 156   2.0000      -0.533888       -14.5278
 157   2.0000      -0.532762       -14.4972
 158   2.0000      -0.530734       -14.4420
 159   2.0000      -0.529727       -14.4146
 160   2.0000      -0.525897       -14.3104
 161   2.0000      -0.524555       -14.2739
 162   2.0000      -0.519544       -14.1375
 163   2.0000      -0.516599       -14.0574
 164   2.0000      -0.515168       -14.0184
 165   2.0000      -0.513850       -13.9826
 166   2.0000      -0.510659       -13.8957
 167   2.0000      -0.508610       -13.8400
 168   2.0000      -0.508256       -13.8303
 169   2.0000      -0.503635       -13.7046
 170   2.0000      -0.500151       -13.6098
 171   2.0000      -0.497741       -13.5442
 172   2.0000      -0.497613       -13.5407
 173   2.0000      -0.494902       -13.4670
 174   2.0000      -0.494315       -13.4510
 175   2.0000      -0.490611       -13.3502
 176   2.0000      -0.486202       -13.2302
 177   2.0000      -0.485534       -13.2120
 178   2.0000      -0.477030       -12.9806
 179   2.0000      -0.473163       -12.8754
 180   2.0000      -0.468432       -12.7467
 181   2.0000      -0.464375       -12.6363
 182   2.0000      -0.462375       -12.5819
 183   2.0000      -0.459503       -12.5037
 184   2.0000      -0.459001       -12.4901
 185   2.0000      -0.458609       -12.4794
 186   2.0000      -0.455308       -12.3896
 187   2.0000      -0.453967       -12.3531
 188   2.0000      -0.452985       -12.3264
 189   2.0000      -0.451866       -12.2959
 190   2.0000      -0.451309       -12.2808
 191   2.0000      -0.446770       -12.1572
 192   2.0000      -0.445945       -12.1348
 193   2.0000      -0.444718       -12.1014
 194   2.0000      -0.444412       -12.0931
 195   2.0000      -0.439928       -11.9711
 196   2.0000      -0.439309       -11.9542
 197   2.0000      -0.438409       -11.9297
 198   2.0000      -0.434325       -11.8186
 199   2.0000      -0.431391       -11.7387
 200   2.0000      -0.426998       -11.6192
 201   2.0000      -0.425491       -11.5782
 202   2.0000      -0.423588       -11.5264
 203   2.0000      -0.422054       -11.4847
 204   2.0000      -0.418342       -11.3837
 205   2.0000      -0.411841       -11.2068
 206   2.0000      -0.409811       -11.1515
 207   2.0000      -0.404416       -11.0047
 208   2.0000      -0.403201       -10.9717
 209   2.0000      -0.390981       -10.6391
 210   2.0000      -0.382235       -10.4011
 211   2.0000      -0.381060       -10.3692
 212   2.0000      -0.357887        -9.7386
 213   2.0000      -0.349227        -9.5029
 214   2.0000      -0.347797        -9.4640
 215   2.0000      -0.346588        -9.4312
 216   2.0000      -0.344490        -9.3740
 217   2.0000      -0.343930        -9.3588
 218   2.0000      -0.338242        -9.2040
 219   2.0000      -0.335836        -9.1386
 220   2.0000      -0.329438        -8.9645
 221   2.0000      -0.327172        -8.9028
 222   2.0000      -0.325493        -8.8571
 223   2.0000      -0.316974        -8.6253
 224   2.0000      -0.311468        -8.4755
 225   2.0000      -0.304617        -8.2890
 226   2.0000      -0.304003        -8.2723
 227   2.0000      -0.245815        -6.6890
 228   0.0000      -0.110306        -3.0016
 229   0.0000      -0.093049        -2.5320
 230   0.0000      -0.074571        -2.0292
 231   0.0000      -0.062189        -1.6923
 232   0.0000      -0.049746        -1.3536

MULLIKEN ATOMIC CHARGES
-----------------------
   0 C :    0.031816
   1 C :   -0.130311
   2 S :    0.193327
   3 C :   -0.168355
   4 Cl:    0.002668
   5 C :    0.073361
   6 C :    0.153262
   7 O :   -0.132685
   8 C :   -0.093252
   9 C :    0.292119
  10 C :   -0.331171
  11 C :   -0.193230
  12 N :    0.161825
  13 C :   -0.187042
  14 N :    0.166894
  15 C :    0.042516
  16 C :   -0.112961
  17 S :    0.180858
  18 C :   -0.152549
  19 C :    0.189101
  20 O :   -0.169970
  21 C :   -0.004755
  22 C :    0.085870
  23 C :    0.062908
  24 N :   -0.228074
  25 C :    0.115554
  26 C :   -0.007143
  27 C :    0.182398
  28 O :   -0.224847
  29 C :   -0.085968
  30 C :   -0.012391
  31 C :    0.134418
  32 O :   -0.191176
  33 N :   -0.269939
  34 C :    0.100585
  35 C :    0.004053
  36 C :    0.135017
  37 C :    0.008110
  38 C :    0.014029
  39 C :    0.068618
  40 C :   -0.018982
  41 C :    0.029351
  42 C :    0.021213
  43 N :   -0.047237
  44 C :    0.009579
  45 C :    0.042682
  46 C :   -0.118373
  47 C :    0.129194
  48 O :   -0.128365
  49 C :    0.092008
  50 C :   -0.171211
  51 S :    0.187257
  52 C :   -0.122686
  53 C :    0.010999
  54 C :    0.256942
  55 C :   -0.316135
  56 C :   -0.171495
  57 N :    0.158519
  58 C :   -0.190588
  59 N :    0.184081
  60 Cl:    0.000998
  61 H :    0.056863
  62 H :    0.022185
  63 H :   -0.006839
  64 H :    0.021425
  65 H :    0.022953
  66 H :    0.042296
  67 H :    0.024762
  68 H :    0.019223
  69 H :    0.022874
  70 H :    0.025352
  71 H :    0.044384
  72 H :    0.014742
  73 H :    0.023511
  74 H :    0.027433
  75 H :   -0.026872
  76 H :    0.006403
  77 H :    0.022430
  78 H :    0.005531
  79 H :    0.001597
  80 H :    0.031712
  81 H :    0.056794
Sum of atomic charges:    0.0000000

LOEWDIN ATOMIC CHARGES
----------------------
   0 C :   -0.059680
   1 C :   -0.147664
   2 S :    0.481278
   3 C :   -0.271175
   4 Cl:    0.194535
   5 C :   -0.117511
   6 C :    0.083528
   7 O :   -0.126634
   8 C :   -0.076645
   9 C :    0.073650
  10 C :   -0.131618
  11 C :   -0.014818
  12 N :   -0.046603
  13 C :   -0.025996
  14 N :   -0.039412
  15 C :    0.050822
  16 C :   -0.167106
  17 S :    0.490567
  18 C :   -0.215927
  19 C :    0.087394
  20 O :   -0.118793
  21 C :   -0.033318
  22 C :    0.020002
  23 C :    0.070727
  24 N :    0.017595
  25 C :    0.036878
  26 C :   -0.062700
  27 C :    0.085389
  28 O :   -0.210012
  29 C :   -0.129387
  30 C :   -0.115629
  31 C :    0.081290
  32 O :   -0.196200
  33 N :   -0.006449
  34 C :    0.036007
  35 C :   -0.061298
  36 C :    0.088257
  37 C :   -0.044970
  38 C :    0.039263
  39 C :   -0.046524
  40 C :    0.040301
  41 C :   -0.064095
  42 C :    0.047643
  43 N :   -0.057149
  44 C :    0.052094
  45 C :    0.078126
  46 C :   -0.078334
  47 C :    0.082511
  48 O :   -0.129750
  49 C :   -0.119373
  50 C :   -0.272238
  51 S :    0.477194
  52 C :   -0.149419
  53 C :   -0.056609
  54 C :    0.064095
  55 C :   -0.123602
  56 C :   -0.012793
  57 N :   -0.041691
  58 C :   -0.019953
  59 N :   -0.033944
  60 Cl:    0.192486
  61 H :    0.038562
  62 H :    0.045898
  63 H :   -0.000463
  64 H :    0.043144
  65 H :    0.021891
  66 H :    0.036980
  67 H :    0.023494
  68 H :    0.029543
  69 H :    0.028788
  70 H :    0.023208
  71 H :    0.038210
  72 H :    0.021534
  73 H :    0.030757
  74 H :    0.031597
  75 H :    0.027372
  76 H :    0.037111
  77 H :    0.038863
  78 H :    0.026087
  79 H :    0.022282
  80 H :    0.049640
  81 H :    0.038893

  Mayer bond orders larger than 0.100000
B(  0-C ,  1-C ) :   1.5440 B(  0-C ,  5-C ) :   1.2215 B(  0-C ,  9-C ) :   0.9982
B(  1-C ,  2-S ) :   1.1657 B(  1-C , 61-H ) :   0.9532 B(  2-S ,  3-C ) :   1.1546
B(  3-C ,  4-Cl) :   1.1306 B(  3-C ,  5-C ) :   1.4732 B(  5-C ,  6-C ) :   0.9559
B(  6-C ,  7-O ) :   2.2235 B(  6-C ,  8-C ) :   0.9255 B(  8-C ,  9-C ) :   1.0637
B(  8-C , 15-C ) :   1.6763 B(  9-C , 10-C ) :   1.6601 B( 10-C , 11-C ) :   1.1494
B( 10-C , 13-C ) :   1.1318 B( 11-C , 12-N ) :   2.9911 B( 13-C , 14-N ) :   2.9790
B( 15-C , 16-C ) :   1.1342 B( 15-C , 62-H ) :   0.9219 B( 16-C , 17-S ) :   1.1438
B( 16-C , 22-C ) :   1.4322 B( 17-S , 18-C ) :   1.1380 B( 18-C , 19-C ) :   0.9951
B( 18-C , 21-C ) :   1.4516 B( 19-C , 20-O ) :   2.1277 B( 19-C , 63-H ) :   0.9553
B( 21-C , 22-C ) :   1.3225 B( 21-C , 23-C ) :   0.9617 B( 22-C , 64-H ) :   0.9910
B( 23-C , 24-N ) :   1.2177 B( 23-C , 30-C ) :   1.4826 B( 24-N , 25-C ) :   0.9452
B( 24-N , 27-C ) :   1.0537 B( 25-C , 26-C ) :   1.1122 B( 25-C , 65-H ) :   0.9461
B( 25-C , 66-H ) :   0.9297 B( 26-C , 67-H ) :   0.9697 B( 26-C , 68-H ) :   0.9666
B( 26-C , 69-H ) :   0.9646 B( 27-C , 28-O ) :   1.9980 B( 27-C , 29-C ) :   1.0057
B( 28-O , 76-H ) :   0.1190 B( 29-C , 30-C ) :   1.1947 B( 29-C , 36-C ) :   1.3832
B( 30-C , 31-C ) :   0.9560 B( 31-C , 32-O ) :   2.1613 B( 31-C , 33-N ) :   1.0286
B( 33-N , 34-C ) :   0.9455 B( 33-N , 36-C ) :   1.1589 B( 34-C , 35-C ) :   1.1209
B( 34-C , 70-H ) :   0.9498 B( 34-C , 71-H ) :   0.9271 B( 35-C , 72-H ) :   0.9681
B( 35-C , 73-H ) :   0.9679 B( 35-C , 74-H ) :   0.9639 B( 36-C , 37-C ) :   1.1314
B( 37-C , 38-C ) :   1.6313 B( 37-C , 75-H ) :   0.9625 B( 38-C , 39-C ) :   1.0598
B( 38-C , 76-H ) :   0.9625 B( 39-C , 40-C ) :   1.3736 B( 39-C , 44-C ) :   1.3136
B( 40-C , 41-C ) :   1.3483 B( 40-C , 77-H ) :   0.9949 B( 41-C , 42-C ) :   1.3164
B( 41-C , 45-C ) :   1.0090 B( 42-C , 43-N ) :   1.5590 B( 42-C , 78-H ) :   0.9901
B( 43-N , 44-C ) :   1.5741 B( 44-C , 79-H ) :   0.9829 B( 45-C , 46-C ) :   1.7688
B( 45-C , 80-H ) :   0.9395 B( 46-C , 47-C ) :   0.9274 B( 46-C , 54-C ) :   0.9978
B( 47-C , 48-O ) :   2.2774 B( 47-C , 49-C ) :   0.9269 B( 49-C , 50-C ) :   1.4800
B( 49-C , 53-C ) :   1.2221 B( 50-C , 51-S ) :   1.1548 B( 50-C , 60-Cl) :   1.1297
B( 51-S , 52-C ) :   1.1605 B( 52-C , 53-C ) :   1.5535 B( 52-C , 81-H ) :   0.9545
B( 53-C , 54-C ) :   1.0141 B( 54-C , 55-C ) :   1.6979 B( 55-C , 56-C ) :   1.1248
B( 55-C , 58-C ) :   1.1609 B( 56-C , 57-N ) :   2.9991 B( 58-C , 59-N ) :   3.0012

-----------------------------------------------------------------------------
         ABSORPTION SPECTRUM VIA TRANSITION ELECTRIC DIPOLE MOMENTS
-----------------------------------------------------------------------------
State   Energy  Wavelength   fosc         T2         TX        TY        TZ
        (cm-1)    (nm)                  (au**2)     (au)      (au)      (au)
-----------------------------------------------------------------------------
   0   13801.2    724.6   0.029132547   0.69492   0.23842  -0.79588   0.06823
   1   18539.4    539.4   0.007995978   0.14199  -0.07070  -0.34958   0.12157
   2   20297.3    492.7   0.409724856   6.64554  -0.13473   2.39573   0.94228
   3   24900.5    401.6   0.433180257   5.72712  -0.03644   0.65709   2.30088
   4   25850.5    386.8   0.030344911   0.38645  -0.00928  -0.25611  -0.56636
   5   26602.3    375.9   0.004318519   0.05344  -0.06967   0.19605   0.10077
   6   27618.4    362.1   0.029734077   0.35443   0.00386  -0.39991   0.44101
   7   27975.0    357.5   0.072208452   0.84975  -0.21300  -0.24780   0.86196
   8   28025.1    356.8   0.120274782   1.41287   0.20630  -0.85901   0.79524
   9   28978.5    345.1   0.019927920   0.22639   0.11557   0.03036   0.46056
  10   29383.3    340.3   0.419458896   4.69964  -0.29652  -0.48271  -2.09254
  11   29529.0    338.6   0.063887920   0.71227   0.48354   0.36180  -0.58954
  12   29612.1    337.7   0.004862822   0.05406  -0.15850   0.03887  -0.16562
  13   29769.2    335.9   0.008585767   0.09495  -0.15341  -0.25555   0.07814
  14   30050.1    332.8   0.011877468   0.13012  -0.16321   0.29509   0.12810
  15   30595.5    326.8   0.075010421   0.80712  -0.51988  -0.60323   0.41588
  16   31112.3    321.4   0.005973584   0.06321   0.14517   0.20461  -0.01637
  17   31675.9    315.7   0.041627123   0.43264  -0.24523   0.49972   0.35039
  18   32096.2    311.6   0.029942081   0.30712  -0.18319  -0.29880  -0.42928
  19   32125.1    311.3   0.053383886   0.54707  -0.35477   0.63418   0.13793
  20   32833.0    304.6   0.043969860   0.44088   0.00038   0.27084  -0.60624
  21   33666.0    297.0   0.085595579   0.83702   0.14451   0.57745   0.69476
  22   33863.3    295.3   0.270382885   2.62861  -1.41944   0.61140  -0.48989
  23   34033.3    293.8   0.150435995   1.45520   0.90759   0.41436   0.67808
  24   34073.0    293.5   0.118922602   1.14903   0.00132  -0.82083   0.68939
  25   34217.2    292.3   0.015955434   0.15351   0.00993  -0.24922  -0.30216
  26   34397.3    290.7   0.034055909   0.32594  -0.39715  -0.35458  -0.20612
  27   34596.6    289.0   0.030362225   0.28892   0.45448  -0.14663   0.24672
  28   35405.9    282.4   0.003631710   0.03377  -0.00244  -0.03549  -0.18029
  29   35452.2    282.1   0.019435497   0.18048  -0.14649   0.24559  -0.31417
  30   35579.0    281.1   0.002342633   0.02168  -0.12176  -0.07688   0.03065
  31   35683.1    280.2   0.158387132   1.46128  -0.92569   0.36150   0.68826
  32   36159.4    276.6   0.121047706   1.10207   0.58708  -0.38380  -0.78109
  33   36254.4    275.8   0.290723276   2.63995   1.43828  -0.40931   0.63543
  34   36537.0    273.7   0.263069533   2.37036  -1.02914   0.49708   1.03157
  35   36687.1    272.6   0.142212054   1.27614  -0.79412   0.38456   0.70543
  36   37382.6    267.5   0.075867918   0.66813  -0.62834   0.02374   0.52226
  37   37408.8    267.3   0.194737751   1.71377   0.53844   0.22398  -1.17204
  38   37439.3    267.1   0.566350431   4.98004  -2.11500   0.35296   0.61826
  39   38240.4    261.5   0.564028242   4.85572   1.84207   0.72004  -0.97162
  40   38616.6    259.0   0.143243081   1.22117   0.56194   0.95112   0.02766
  41   38956.0    256.7   0.020448492   0.17281   0.05261   0.32116   0.25864
  42   39398.4    253.8   0.022674902   0.18947   0.30601  -0.25807   0.17096
  43   39720.6    251.8   0.031500792   0.26108  -0.32165   0.07746   0.38939

FINAL SINGLE POINT ENERGY     -4559.861002109633

DIPOLE MOMENT
-------------
                                X             Y             Z
Electronic contribution:     26.08630      23.73862      -4.83053
Nuclear contribution   :    -23.52664     -22.96058       5.63585
                        -----------------------------------------
Total Dipole Moment    :      2.55965       0.77804       0.80532
                        -----------------------------------------
Magnitude (a.u.)       :      2.79387
Magnitude (Debye)      :      7.10145

Rotational constants in cm-1:     0.001990     0.000424     0.000413
Rotational constants in MHz :    59.654380    12.709409    12.371934

                             ****ORCA TERMINATED NORMALLY****
TOTAL RUN TIME: 0 days 0 hours 6 minutes 35 seconds 619 msec
