                         Program Version 4.2.0 -  RELEASE  -
|  1> # ORCA input file
|  2> # SCF done       -187.052561355948          0.000522311748
|  3> ! CAM-B3LYP def2-SVP def2/J RIJCOSX Grid4 TightSCF
|  4> %maxcore 5000
|  5> %tddft
|  6>     Mode sTDDFT
|  7>     Ethresh 5.0
|  8>     maxcore 5000
|  9> end
| 10>
| 11> %pal
| 12>   nprocs 6
| 13>   end
| 14> * xyz 0 1
| 15>    C       -1.83211        -2.78503        -0.09175
| 16>    C       -2.77143        -2.77285         0.89069
| 17>    S       -3.49917        -4.32761         1.07698
| 18>    C       -2.52439        -5.00930        -0.20441
| 19>   Cl       -2.68011        -6.63258        -0.66177
| 20>    C       -1.68808        -4.06577        -0.72161
| 21>    C       -0.65862        -3.99240        -1.76595
| 22>    O       -0.29425        -4.84613        -2.53546
| 23>    C       -0.09486        -2.60804        -1.63107
| 24>    C       -0.93771        -1.84113        -0.73301
| 25>    C       -1.04177        -0.47952        -0.63883
| 26>    C       -1.93488         0.12745         0.26729
| 27>    N       -2.64017         0.62851         1.02087
| 28>    C       -0.33509         0.42886        -1.44934
| 29>    N        0.20316         1.20081        -2.10649
| 30>    C        1.08167        -2.31828        -2.23980
| 31>    C        1.99510        -1.24949        -1.98319
| 32>    C        2.86511        -0.80765        -3.00217
| 33>    C        3.80081         0.25905        -2.80023
| 34>    N        4.49683         0.74509        -3.85440
| 35>    C        4.35705         0.18203        -5.00417
| 36>    C        3.50048        -0.94422        -5.18407
| 37>    N        2.77385        -1.39521        -4.21895
| 38>    F        3.42802        -1.55710        -6.35996
| 39>    F        5.03800         0.68579        -6.03084
| 40>    C        3.97840         0.85686        -1.53939
| 41>    C        3.15953         0.38346        -0.50305
| 42>    C        2.16354        -0.64036        -0.72354
| 43>    N        1.51716        -0.94669         0.40595
| 44>    S        2.10174        -0.04837         1.60005
| 45>    N        3.20419         0.75852         0.78023
| 46>    C        4.95932         1.89734        -1.32041
| 47>    C        4.65950         3.05196        -0.57767
| 48>    C        5.64787         4.06005        -0.31038
| 49>    N        5.30275         5.15627         0.40630
| 50>    C        4.09279         5.26658         0.84088
| 51>    C        3.10731         4.27842         0.55073
| 52>    N        3.39048         3.22957        -0.14066
| 53>    F        1.85525         4.42994         0.97111
| 54>    F        3.78260         6.34773         1.54895
| 55>    C        6.96683         3.95475        -0.79297
| 56>    C        7.25460         2.81959        -1.57317
| 57>    C        6.26615         1.79469        -1.82356
| 58>    N        6.78195         0.77156        -2.51237
| 59>    S        8.31409         1.08321        -2.84157
| 60>    N        8.43740         2.50463        -2.11363
| 61>    C        7.99574         4.91593        -0.47491
| 62>    C        8.08510         5.56903         0.76974
| 63>    N        9.05431         6.39118         1.06032
| 64>    C       10.01567         6.59814         0.15742
| 65>    N       10.01354         6.04252        -1.05758
| 66>    C        9.02584         5.24083        -1.37112
| 67>    C       11.09039         7.46259         0.56939
| 68>    N       12.13413         7.88198        -0.21439
| 69>    C       12.40815         7.52811        -1.58663
| 70>    C       13.08638         6.16567        -1.69082
| 71>    C       13.01430         8.71670         0.49862
| 72>    O       14.01172         9.20977         0.00907
| 73>    C       12.43702         8.80288         1.82024
| 74>    C       11.25019         8.01915         1.82949
| 75>    C       10.67454         8.09523         3.15935
| 76>    O        9.69813         7.60956         3.67538
| 77>    N       11.56448         8.95135         3.86166
| 78>    C       11.35103         9.24255         5.25826
| 79>    C       12.21779         8.36591         6.15925
| 80>    C       12.60964         9.36222         3.08081
| 81>    C       13.65516        10.22795         3.54847
| 82>    C       14.68149        10.60290         2.78182
| 83>    H       -3.08245        -1.96622         1.52437
| 84>    H        1.40347        -3.02219        -3.00075
| 85>    H        7.35792         5.39104         1.54880
| 86>    H        9.03573         4.84275        -2.37654
| 87>    H       13.07655         8.30446        -1.96964
| 88>    H       11.47404         7.52744        -2.14951
| 89>    H       14.00646         6.15936        -1.11125
| 90>    H       13.32621         5.95590        -2.72914
| 91>    H       12.42432         5.38750        -1.32078
| 92>    H       10.29533         9.03196         5.45136
| 93>    H       11.53874        10.30298         5.44685
| 94>    H       11.98088         7.31798         5.99282
| 95>    H       12.02477         8.60462         7.20153
| 96>    H       13.27512         8.51903         5.95362
| 97>    H       13.58061        10.57597         4.56948
| 98>    H       14.77674        10.26785         1.76223
| 99>    H       15.44956        11.25490         3.16099
|100> *
|101>
|102>                          ****END OF INPUT****

CARTESIAN COORDINATES (ANGSTROEM)
---------------------------------
  C     -1.832110   -2.785030   -0.091750
  C     -2.771430   -2.772850    0.890690
  S     -3.499170   -4.327610    1.076980
  C     -2.524390   -5.009300   -0.204410
  Cl    -2.680110   -6.632580   -0.661770
  C     -1.688080   -4.065770   -0.721610
  C     -0.658620   -3.992400   -1.765950
  O     -0.294250   -4.846130   -2.535460
  C     -0.094860   -2.608040   -1.631070
  C     -0.937710   -1.841130   -0.733010
  C     -1.041770   -0.479520   -0.638830
  C     -1.934880    0.127450    0.267290
  N     -2.640170    0.628510    1.020870
  C     -0.335090    0.428860   -1.449340
  N      0.203160    1.200810   -2.106490
  C      1.081670   -2.318280   -2.239800
  C      1.995100   -1.249490   -1.983190
  C      2.865110   -0.807650   -3.002170
  C      3.800810    0.259050   -2.800230
  N      4.496830    0.745090   -3.854400
  C      4.357050    0.182030   -5.004170
  C      3.500480   -0.944220   -5.184070
  N      2.773850   -1.395210   -4.218950
  F      3.428020   -1.557100   -6.359960
  F      5.038000    0.685790   -6.030840
  C      3.978400    0.856860   -1.539390
  C      3.159530    0.383460   -0.503050
  C      2.163540   -0.640360   -0.723540
  N      1.517160   -0.946690    0.405950
  S      2.101740   -0.048370    1.600050
  N      3.204190    0.758520    0.780230
  C      4.959320    1.897340   -1.320410
  C      4.659500    3.051960   -0.577670
  C      5.647870    4.060050   -0.310380
  N      5.302750    5.156270    0.406300
  C      4.092790    5.266580    0.840880
  C      3.107310    4.278420    0.550730
  N      3.390480    3.229570   -0.140660
  F      1.855250    4.429940    0.971110
  F      3.782600    6.347730    1.548950
  C      6.966830    3.954750   -0.792970
  C      7.254600    2.819590   -1.573170
  C      6.266150    1.794690   -1.823560
  N      6.781950    0.771560   -2.512370
  S      8.314090    1.083210   -2.841570
  N      8.437400    2.504630   -2.113630
  C      7.995740    4.915930   -0.474910
  C      8.085100    5.569030    0.769740
  N      9.054310    6.391180    1.060320
  C     10.015670    6.598140    0.157420
  N     10.013540    6.042520   -1.057580
  C      9.025840    5.240830   -1.371120
  C     11.090390    7.462590    0.569390
  N     12.134130    7.881980   -0.214390
  C     12.408150    7.528110   -1.586630
  C     13.086380    6.165670   -1.690820
  C     13.014300    8.716700    0.498620
  O     14.011720    9.209770    0.009070
  C     12.437020    8.802880    1.820240
  C     11.250190    8.019150    1.829490
  C     10.674540    8.095230    3.159350
  O      9.698130    7.609560    3.675380
  N     11.564480    8.951350    3.861660
  C     11.351030    9.242550    5.258260
  C     12.217790    8.365910    6.159250
  C     12.609640    9.362220    3.080810
  C     13.655160   10.227950    3.548470
  C     14.681490   10.602900    2.781820
  H     -3.082450   -1.966220    1.524370
  H      1.403470   -3.022190   -3.000750
  H      7.357920    5.391040    1.548800
  H      9.035730    4.842750   -2.376540
  H     13.076550    8.304460   -1.969640
  H     11.474040    7.527440   -2.149510
  H     14.006460    6.159360   -1.111250
  H     13.326210    5.955900   -2.729140
  H     12.424320    5.387500   -1.320780
  H     10.295330    9.031960    5.451360
  H     11.538740   10.302980    5.446850
  H     11.980880    7.317980    5.992820
  H     12.024770    8.604620    7.201530
  H     13.275120    8.519030    5.953620
  H     13.580610   10.575970    4.569480
  H     14.776740   10.267850    1.762230
  H     15.449560   11.254900    3.160990

 Total Charge           Charge          ....    0
 Multiplicity           Mult            ....    1
 Number of Electrons    NEL             ....  498
 Basis Dimension        Dim             .... 1053

ORBITAL ENERGIES
----------------

  NO   OCC          E(Eh)            E(eV)
   0   2.0000    -101.615117     -2765.0879
   1   2.0000     -89.048081     -2423.1215
   2   2.0000     -89.047214     -2423.0979
   3   2.0000     -88.990397     -2421.5518
   4   2.0000     -24.819436      -675.3712
   5   2.0000     -24.816395      -675.2885
   6   2.0000     -24.815201      -675.2560
   7   2.0000     -24.814406      -675.2343
   8   2.0000     -19.217254      -522.9281
   9   2.0000     -19.183800      -522.0177
  10   2.0000     -19.176575      -521.8211
  11   2.0000     -14.457018      -393.3955
  12   2.0000     -14.455222      -393.3466
  13   2.0000     -14.455184      -393.3455
  14   2.0000     -14.454994      -393.3404
  15   2.0000     -14.454092      -393.3158
  16   2.0000     -14.452079      -393.2611
  17   2.0000     -14.451955      -393.2577
  18   2.0000     -14.450738      -393.2246
  19   2.0000     -14.447164      -393.1273
  20   2.0000     -14.441357      -392.9693
  21   2.0000     -14.419134      -392.3646
  22   2.0000     -14.418678      -392.3522
  23   2.0000     -14.415433      -392.2639
  24   2.0000     -14.407446      -392.0465
  25   2.0000     -10.436667      -283.9962
  26   2.0000     -10.432181      -283.8741
  27   2.0000     -10.431665      -283.8600
  28   2.0000     -10.431144      -283.8459
  29   2.0000     -10.373742      -282.2839
  30   2.0000     -10.373275      -282.2712
  31   2.0000     -10.367490      -282.1137
  32   2.0000     -10.360557      -281.9251
  33   2.0000     -10.353767      -281.7403
  34   2.0000     -10.351904      -281.6896
  35   2.0000     -10.351242      -281.6716
  36   2.0000     -10.350048      -281.6391
  37   2.0000     -10.349884      -281.6347
  38   2.0000     -10.344076      -281.4766
  39   2.0000     -10.343648      -281.4650
  40   2.0000     -10.343423      -281.4589
  41   2.0000     -10.343207      -281.4530
  42   2.0000     -10.343148      -281.4514
  43   2.0000     -10.342280      -281.4277
  44   2.0000     -10.338041      -281.3124
  45   2.0000     -10.327268      -281.0192
  46   2.0000     -10.325989      -280.9844
  47   2.0000     -10.325452      -280.9698
  48   2.0000     -10.323676      -280.9215
  49   2.0000     -10.323355      -280.9128
  50   2.0000     -10.322154      -280.8801
  51   2.0000     -10.320919      -280.8465
  52   2.0000     -10.320811      -280.8435
  53   2.0000     -10.318592      -280.7832
  54   2.0000     -10.317468      -280.7526
  55   2.0000     -10.316611      -280.7293
  56   2.0000     -10.309933      -280.5475
  57   2.0000     -10.304359      -280.3959
  58   2.0000     -10.303732      -280.3788
  59   2.0000     -10.301521      -280.3186
  60   2.0000     -10.297626      -280.2126
  61   2.0000     -10.285698      -279.8881
  62   2.0000     -10.283861      -279.8381
  63   2.0000     -10.278658      -279.6965
  64   2.0000     -10.260948      -279.2146
  65   2.0000     -10.258880      -279.1583
  66   2.0000     -10.250608      -278.9332
  67   2.0000     -10.241909      -278.6965
  68   2.0000      -9.569934      -260.4111
  69   2.0000      -8.139084      -221.4757
  70   2.0000      -8.138425      -221.4578
  71   2.0000      -8.086205      -220.0368
  72   2.0000      -7.340572      -199.7471
  73   2.0000      -7.329959      -199.4583
  74   2.0000      -7.329433      -199.4440
  75   2.0000      -6.109997      -166.2615
  76   2.0000      -6.109377      -166.2446
  77   2.0000      -6.102295      -166.0519
  78   2.0000      -6.102192      -166.0491
  79   2.0000      -6.101602      -166.0330
  80   2.0000      -6.101495      -166.0301
  81   2.0000      -6.055602      -164.7813
  82   2.0000      -6.051008      -164.6563
  83   2.0000      -6.048388      -164.5850
  84   2.0000      -1.346751       -36.6470
  85   2.0000      -1.343569       -36.5604
  86   2.0000      -1.332114       -36.2487
  87   2.0000      -1.329298       -36.1720
  88   2.0000      -1.144189       -31.1350
  89   2.0000      -1.142918       -31.1004
  90   2.0000      -1.134463       -30.8703
  91   2.0000      -1.125777       -30.6340
  92   2.0000      -1.116513       -30.3819
  93   2.0000      -1.116124       -30.3713
  94   2.0000      -1.114274       -30.3209
  95   2.0000      -1.089727       -29.6530
  96   2.0000      -1.055762       -28.7287
  97   2.0000      -1.043498       -28.3950
  98   2.0000      -1.042370       -28.3643
  99   2.0000      -1.038892       -28.2697
 100   2.0000      -1.035344       -28.1731
 101   2.0000      -1.016703       -27.6659
 102   2.0000      -0.999806       -27.2061
 103   2.0000      -0.998439       -27.1689
 104   2.0000      -0.995324       -27.0841
 105   2.0000      -0.988127       -26.8883
 106   2.0000      -0.983267       -26.7561
 107   2.0000      -0.981824       -26.7168
 108   2.0000      -0.969575       -26.3835
 109   2.0000      -0.950314       -25.8594
 110   2.0000      -0.922195       -25.0942
 111   2.0000      -0.918301       -24.9882
 112   2.0000      -0.907451       -24.6930
 113   2.0000      -0.897882       -24.4326
 114   2.0000      -0.888908       -24.1884
 115   2.0000      -0.888607       -24.1802
 116   2.0000      -0.883649       -24.0453
 117   2.0000      -0.872388       -23.7389
 118   2.0000      -0.860384       -23.4122
 119   2.0000      -0.845971       -23.0201
 120   2.0000      -0.829799       -22.5800
 121   2.0000      -0.819374       -22.2963
 122   2.0000      -0.812437       -22.1075
 123   2.0000      -0.809547       -22.0289
 124   2.0000      -0.808459       -21.9993
 125   2.0000      -0.789671       -21.4880
 126   2.0000      -0.779486       -21.2109
 127   2.0000      -0.770375       -20.9630
 128   2.0000      -0.768730       -20.9182
 129   2.0000      -0.758075       -20.6283
 130   2.0000      -0.752206       -20.4686
 131   2.0000      -0.750894       -20.4329
 132   2.0000      -0.746679       -20.3182
 133   2.0000      -0.745808       -20.2945
 134   2.0000      -0.733729       -19.9658
 135   2.0000      -0.715907       -19.4808
 136   2.0000      -0.698760       -19.0142
 137   2.0000      -0.697851       -18.9895
 138   2.0000      -0.688882       -18.7454
 139   2.0000      -0.686667       -18.6852
 140   2.0000      -0.684969       -18.6389
 141   2.0000      -0.680685       -18.5224
 142   2.0000      -0.675764       -18.3885
 143   2.0000      -0.672838       -18.3088
 144   2.0000      -0.669064       -18.2061
 145   2.0000      -0.667131       -18.1535
 146   2.0000      -0.657831       -17.9005
 147   2.0000      -0.650742       -17.7076
 148   2.0000      -0.641988       -17.4694
 149   2.0000      -0.641092       -17.4450
 150   2.0000      -0.631926       -17.1956
 151   2.0000      -0.629965       -17.1422
 152   2.0000      -0.628269       -17.0961
 153   2.0000      -0.621052       -16.8997
 154   2.0000      -0.619561       -16.8591
 155   2.0000      -0.617926       -16.8146
 156   2.0000      -0.616783       -16.7835
 157   2.0000      -0.606200       -16.4955
 158   2.0000      -0.605531       -16.4773
 159   2.0000      -0.596677       -16.2364
 160   2.0000      -0.587909       -15.9978
 161   2.0000      -0.576043       -15.6749
 162   2.0000      -0.574760       -15.6400
 163   2.0000      -0.573271       -15.5995
 164   2.0000      -0.571364       -15.5476
 165   2.0000      -0.570584       -15.5264
 166   2.0000      -0.568591       -15.4721
 167   2.0000      -0.567449       -15.4411
 168   2.0000      -0.563675       -15.3384
 169   2.0000      -0.554832       -15.0977
 170   2.0000      -0.552217       -15.0266
 171   2.0000      -0.547146       -14.8886
 172   2.0000      -0.544675       -14.8214
 173   2.0000      -0.542374       -14.7588
 174   2.0000      -0.538056       -14.6412
 175   2.0000      -0.536682       -14.6038
 176   2.0000      -0.529432       -14.4066
 177   2.0000      -0.528845       -14.3906
 178   2.0000      -0.524382       -14.2692
 179   2.0000      -0.523348       -14.2410
 180   2.0000      -0.521893       -14.2014
 181   2.0000      -0.521599       -14.1934
 182   2.0000      -0.519030       -14.1235
 183   2.0000      -0.516434       -14.0529
 184   2.0000      -0.515473       -14.0267
 185   2.0000      -0.514152       -13.9908
 186   2.0000      -0.511861       -13.9285
 187   2.0000      -0.510818       -13.9001
 188   2.0000      -0.503953       -13.7133
 189   2.0000      -0.503098       -13.6900
 190   2.0000      -0.502466       -13.6728
 191   2.0000      -0.497622       -13.5410
 192   2.0000      -0.497374       -13.5342
 193   2.0000      -0.492695       -13.4069
 194   2.0000      -0.491290       -13.3687
 195   2.0000      -0.487799       -13.2737
 196   2.0000      -0.485075       -13.1996
 197   2.0000      -0.484229       -13.1765
 198   2.0000      -0.482347       -13.1253
 199   2.0000      -0.467516       -12.7218
 200   2.0000      -0.464239       -12.6326
 201   2.0000      -0.458057       -12.4644
 202   2.0000      -0.457024       -12.4362
 203   2.0000      -0.454052       -12.3554
 204   2.0000      -0.452924       -12.3247
 205   2.0000      -0.450454       -12.2575
 206   2.0000      -0.450216       -12.2510
 207   2.0000      -0.445782       -12.1303
 208   2.0000      -0.443352       -12.0642
 209   2.0000      -0.440295       -11.9810
 210   2.0000      -0.439978       -11.9724
 211   2.0000      -0.436449       -11.8764
 212   2.0000      -0.433756       -11.8031
 213   2.0000      -0.432677       -11.7737
 214   2.0000      -0.431271       -11.7355
 215   2.0000      -0.429499       -11.6873
 216   2.0000      -0.428137       -11.6502
 217   2.0000      -0.426823       -11.6144
 218   2.0000      -0.424517       -11.5517
 219   2.0000      -0.418513       -11.3883
 220   2.0000      -0.415818       -11.3150
 221   2.0000      -0.413560       -11.2535
 222   2.0000      -0.412121       -11.2144
 223   2.0000      -0.410910       -11.1814
 224   2.0000      -0.406028       -11.0486
 225   2.0000      -0.401853       -10.9350
 226   2.0000      -0.401554       -10.9268
 227   2.0000      -0.399351       -10.8669
 228   2.0000      -0.391770       -10.6606
 229   2.0000      -0.386241       -10.5101
 230   2.0000      -0.381315       -10.3761
 231   2.0000      -0.380112       -10.3434
 232   2.0000      -0.368826       -10.0363
 233   2.0000      -0.368098       -10.0165
 234   2.0000      -0.358629        -9.7588
 235   2.0000      -0.357122        -9.7178
 236   2.0000      -0.344128        -9.3642
 237   2.0000      -0.342623        -9.3232
 238   2.0000      -0.340957        -9.2779
 239   2.0000      -0.340638        -9.2692
 240   2.0000      -0.338025        -9.1981
 241   2.0000      -0.328958        -8.9514
 242   2.0000      -0.324161        -8.8209
 243   2.0000      -0.314682        -8.5629
 244   2.0000      -0.308413        -8.3923
 245   2.0000      -0.305487        -8.3127
 246   2.0000      -0.304148        -8.2763
 247   2.0000      -0.277547        -7.5525
 248   2.0000      -0.238191        -6.4815
 249   0.0000      -0.125643        -3.4189
 250   0.0000      -0.103022        -2.8034
 251   0.0000      -0.071972        -1.9585
 252   0.0000      -0.066447        -1.8081
 253   0.0000      -0.044048        -1.1986

MULLIKEN ATOMIC CHARGES
-----------------------
   0 C :    0.012678
   1 C :   -0.131882
   2 S :    0.180582
   3 C :   -0.173822
   4 Cl:   -0.002013
   5 C :    0.095132
   6 C :    0.129329
   7 O :   -0.125340
   8 C :   -0.119525
   9 C :    0.327784
  10 C :   -0.321796
  11 C :   -0.201105
  12 N :    0.154188
  13 C :   -0.191176
  14 N :    0.164821
  15 C :   -0.042526
  16 C :    0.084207
  17 C :   -0.034622
  18 C :   -0.049612
  19 N :    0.042501
  20 C :    0.128033
  21 C :    0.141897
  22 N :    0.018598
  23 F :   -0.132692
  24 F :   -0.141789
  25 C :    0.042223
  26 C :    0.052414
  27 C :   -0.029482
  28 N :   -0.293735
  29 S :    0.556002
  30 N :   -0.261483
  31 C :    0.024544
  32 C :   -0.049861
  33 C :   -0.067012
  34 N :    0.003218
  35 C :    0.137832
  36 C :    0.134737
  37 N :    0.040718
  38 F :   -0.136002
  39 F :   -0.134568
  40 C :    0.129500
  41 C :   -0.007340
  42 C :    0.022299
  43 N :   -0.272573
  44 S :    0.548810
  45 N :   -0.286020
  46 C :   -0.112007
  47 C :    0.074166
  48 N :    0.002933
  49 C :   -0.189431
  50 N :   -0.062637
  51 C :    0.077878
  52 C :    0.204205
  53 N :   -0.258417
  54 C :    0.143022
  55 C :    0.005584
  56 C :    0.158157
  57 O :   -0.215157
  58 C :   -0.071276
  59 C :   -0.058904
  60 C :    0.146204
  61 O :   -0.151229
  62 N :   -0.268835
  63 C :    0.100048
  64 C :    0.001463
  65 C :    0.118767
  66 C :   -0.038467
  67 C :    0.020143
  68 H :    0.051003
  69 H :    0.039184
  70 H :    0.013254
  71 H :    0.007797
  72 H :    0.029278
  73 H :    0.021638
  74 H :    0.015890
  75 H :    0.010214
  76 H :    0.013801
  77 H :    0.042525
  78 H :    0.022642
  79 H :    0.030304
  80 H :    0.021654
  81 H :    0.015500
  82 H :   -0.019007
  83 H :    0.060907
  84 H :    0.031134
Sum of atomic charges:   -0.0000000

LOEWDIN ATOMIC CHARGES
----------------------
   0 C :   -0.053476
   1 C :   -0.154369
   2 S :    0.470372
   3 C :   -0.272698
   4 Cl:    0.190638
   5 C :   -0.117816
   6 C :    0.082053
   7 O :   -0.128223
   8 C :   -0.070674
   9 C :    0.077284
  10 C :   -0.135246
  11 C :   -0.017470
  12 N :   -0.055125
  13 C :   -0.017882
  14 N :   -0.052680
  15 C :    0.074918
  16 C :   -0.040480
  17 C :    0.018033
  18 C :    0.000533
  19 N :   -0.023067
  20 C :    0.056251
  21 C :    0.067768
  22 N :   -0.040362
  23 F :   -0.021999
  24 F :   -0.031025
  25 C :    0.014714
  26 C :   -0.034837
  27 C :   -0.038372
  28 N :   -0.291580
  29 S :    0.690990
  30 N :   -0.270459
  31 C :   -0.024379
  32 C :    0.008852
  33 C :   -0.009118
  34 N :   -0.036977
  35 C :    0.059750
  36 C :    0.061383
  37 N :   -0.026652
  38 F :   -0.025613
  39 F :   -0.024626
  40 C :   -0.006947
  41 C :   -0.044056
  42 C :   -0.034484
  43 N :   -0.283718
  44 S :    0.685744
  45 N :   -0.286938
  46 C :   -0.068338
  47 C :    0.073485
  48 N :   -0.047206
  49 C :    0.023579
  50 N :   -0.073674
  51 C :    0.066673
  52 C :    0.045614
  53 N :    0.010037
  54 C :    0.036087
  55 C :   -0.061898
  56 C :    0.076655
  57 O :   -0.207285
  58 C :   -0.133265
  59 C :   -0.092386
  60 C :    0.085546
  61 O :   -0.160346
  62 N :   -0.005824
  63 C :    0.035350
  64 C :   -0.061737
  65 C :    0.094037
  66 C :   -0.056547
  67 C :    0.034263
  68 H :    0.036728
  69 H :    0.051964
  70 H :    0.027243
  71 H :    0.024936
  72 H :    0.029327
  73 H :    0.022401
  74 H :    0.024815
  75 H :    0.026260
  76 H :    0.018677
  77 H :    0.036962
  78 H :    0.022318
  79 H :    0.032264
  80 H :    0.029646
  81 H :    0.021874
  82 H :    0.029491
  83 H :    0.034237
  84 H :    0.030104

  Mayer bond orders larger than 0.100000
B(  0-C ,  1-C ) :   1.5527 B(  0-C ,  5-C ) :   1.2208 B(  0-C ,  9-C ) :   1.0164
B(  1-C ,  2-S ) :   1.1536 B(  1-C , 68-H ) :   0.9563 B(  2-S ,  3-C ) :   1.1506
B(  3-C ,  4-Cl) :   1.1275 B(  3-C ,  5-C ) :   1.4840 B(  5-C ,  6-C ) :   0.9212
B(  6-C ,  7-O ) :   2.2823 B(  6-C ,  8-C ) :   0.9329 B(  8-C ,  9-C ) :   1.0347
B(  8-C , 15-C ) :   1.6735 B(  9-C , 10-C ) :   1.6572 B( 10-C , 11-C ) :   1.1429
B( 10-C , 13-C ) :   1.1652 B( 11-C , 12-N ) :   2.9997 B( 13-C , 14-N ) :   2.9948
B( 15-C , 16-C ) :   1.0983 B( 15-C , 69-H ) :   0.9401 B( 16-C , 17-C ) :   1.3039
B( 16-C , 25-C ) :   0.1451 B( 16-C , 27-C ) :   1.1891 B( 17-C , 18-C ) :   1.1135
B( 17-C , 22-N ) :   1.4429 B( 18-C , 19-N ) :   1.3975 B( 18-C , 25-C ) :   1.3903
B( 19-N , 20-C ) :   1.7029 B( 20-C , 21-C ) :   1.0804 B( 20-C , 24-F ) :   1.1759
B( 21-C , 22-N ) :   1.6998 B( 21-C , 23-F ) :   1.1856 B( 25-C , 26-C ) :   1.3020
B( 25-C , 31-C ) :   0.9403 B( 26-C , 27-C ) :   1.1105 B( 26-C , 30-N ) :   1.4752
B( 27-C , 28-N ) :   1.4963 B( 28-N , 29-S ) :   1.2748 B( 28-N , 30-N ) :   0.1526
B( 29-S , 30-N ) :   1.3190 B( 31-C , 32-C ) :   1.4063 B( 31-C , 40-C ) :   0.1454
B( 31-C , 42-C ) :   1.2866 B( 32-C , 33-C ) :   1.0996 B( 32-C , 37-N ) :   1.3934
B( 33-C , 34-N ) :   1.4020 B( 33-C , 40-C ) :   1.3401 B( 34-N , 35-C ) :   1.7003
B( 35-C , 36-C ) :   1.0792 B( 35-C , 39-F ) :   1.1826 B( 36-C , 37-N ) :   1.6989
B( 36-C , 38-F ) :   1.1823 B( 40-C , 41-C ) :   1.2330 B( 40-C , 46-C ) :   1.0141
B( 41-C , 42-C ) :   1.1091 B( 41-C , 45-N ) :   1.4877 B( 42-C , 43-N ) :   1.4784
B( 43-N , 44-S ) :   1.2998 B( 43-N , 45-N ) :   0.1589 B( 44-S , 45-N ) :   1.2953
B( 46-C , 47-C ) :   1.2976 B( 46-C , 51-C ) :   1.3291 B( 47-C , 48-N ) :   1.5949
B( 47-C , 70-H ) :   0.9819 B( 48-N , 49-C ) :   1.6405 B( 48-N , 52-C ) :  -0.1328
B( 49-C , 50-N ) :   1.4922 B( 49-C , 52-C ) :   0.9836 B( 50-N , 51-C ) :   1.5488
B( 51-C , 71-H ) :   0.9794 B( 52-C , 53-N ) :   1.1966 B( 52-C , 59-C ) :   1.4012
B( 53-N , 54-C ) :   0.9388 B( 53-N , 56-C ) :   1.0622 B( 54-C , 55-C ) :   1.1265
B( 54-C , 72-H ) :   0.9277 B( 54-C , 73-H ) :   0.9361 B( 55-C , 74-H ) :   0.9651
B( 55-C , 75-H ) :   0.9675 B( 55-C , 76-H ) :   0.9647 B( 56-C , 57-O ) :   2.0333
B( 56-C , 58-C ) :   0.9878 B( 58-C , 59-C ) :   1.2374 B( 58-C , 65-C ) :   1.3441
B( 59-C , 60-C ) :   0.9438 B( 60-C , 61-O ) :   2.1867 B( 60-C , 62-N ) :   1.0053
B( 62-N , 63-C ) :   0.9490 B( 62-N , 65-C ) :   1.1928 B( 63-C , 64-C ) :   1.1165
B( 63-C , 77-H ) :   0.9278 B( 63-C , 78-H ) :   0.9512 B( 64-C , 79-H ) :   0.9646
B( 64-C , 80-H ) :   0.9684 B( 64-C , 81-H ) :   0.9691 B( 65-C , 66-C ) :   1.1241
B( 66-C , 67-C ) :   1.8869 B( 66-C , 82-H ) :   0.9541 B( 67-C , 83-H ) :   0.9230
B( 67-C , 84-H ) :   0.9445

-----------------------------------------------------------------------------
         ABSORPTION SPECTRUM VIA TRANSITION ELECTRIC DIPOLE MOMENTS
-----------------------------------------------------------------------------
State   Energy  Wavelength   fosc         T2         TX        TY        TZ
        (cm-1)    (nm)                  (au**2)     (au)      (au)      (au)
-----------------------------------------------------------------------------
   0   12817.7    780.2   0.600219974  15.41619  -2.76972  -2.53900  -1.13944
   1   16553.0    604.1   0.129282530   2.57121  -1.28660  -0.82110   0.49158
   2   18104.0    552.4   0.234054128   4.25616  -1.55939  -1.28725  -0.40921
   3   20746.5    482.0   0.154849186   2.45720  -0.26347  -0.53885  -1.44825
   4   21280.3    469.9   0.110756941   1.71344  -0.34715  -0.85301  -0.93022
   5   21841.9    457.8   0.012318426   0.18567  -0.02627  -0.42797   0.04262
   6   23104.6    432.8   0.026627336   0.37941  -0.48946  -0.35181   0.12676
   7   24405.2    409.7   0.050396043   0.67981   0.76434   0.08659  -0.29681
   8   26280.9    380.5   0.019524519   0.24458   0.46401   0.11700  -0.12483
   9   26453.6    378.0   0.029823942   0.37116   0.58559  -0.06179  -0.15628
  10   26878.4    372.0   0.008439640   0.10337  -0.25492   0.16778   0.10119
  11   27572.0    362.7   0.037080303   0.44274  -0.53144  -0.38520   0.10926
  12   28052.1    356.5   0.041624310   0.48849  -0.49885  -0.15236   0.46521
  13   28302.6    353.3   0.065626482   0.76336  -0.00408  -0.29972  -0.82067
  14   28977.2    345.1   0.237116585   2.69390  -0.87297  -0.13850   1.38298
  15   29150.5    343.0   0.055435366   0.62606  -0.44908   0.52389  -0.38721
  16   29459.2    339.5   0.023775519   0.26570   0.38941   0.03979  -0.33536
  17   29599.1    337.8   0.026086949   0.29015  -0.38569  -0.22466  -0.30153
  18   30375.3    329.2   0.006437550   0.06977  -0.11320  -0.16537  -0.17208
  19   30749.3    325.2   0.024764799   0.26514   0.14600   0.21961   0.44226
  20   30851.2    324.1   0.004369357   0.04663   0.19828   0.01166   0.08471
  21   31101.5    321.5   0.081000420   0.85740  -0.52212   0.44531   0.62168
  22   31637.9    316.1   0.010639225   0.11071  -0.08612   0.30263   0.10820
  23   31650.8    315.9   0.019737340   0.20530   0.07348  -0.42595  -0.13586
  24   31884.4    313.6   0.022888008   0.23632  -0.26401  -0.38020  -0.14857
  25   32069.5    311.8   0.007790804   0.07998  -0.21711   0.13124   0.12496
  26   32533.1    307.4   0.050221733   0.50821   0.49244   0.50681   0.09412
  27   32693.7    305.9   0.023219682   0.23381  -0.37974  -0.28722   0.08436
  28   32786.9    305.0   0.026671388   0.26781   0.17445   0.16021   0.46012
  29   32963.9    303.4   0.006364985   0.06357  -0.14824  -0.19789   0.04931
  30   33159.1    301.6   0.106798504   1.06032  -0.58752  -0.82028  -0.20565
  31   33601.8    297.6   0.279264232   2.73608   1.49685   0.37051  -0.59852
  32   33740.0    296.4   0.052901262   0.51618   0.41721  -0.56717  -0.14293
  33   34105.7    293.2   0.002880141   0.02780   0.00364   0.10231   0.13161
  34   34124.6    293.0   0.079064966   0.76277  -0.17618  -0.63427  -0.57396
  35   34311.0    291.5   0.059942833   0.57515  -0.11998  -0.69017   0.29053
  36   34326.9    291.3   0.079718686   0.76454  -0.80112   0.12911   0.32569
  37   34620.3    288.8   0.106916588   1.01669  -0.08353  -0.89711   0.45266
  38   34944.5    286.2   0.149445993   1.40793   0.37246   1.11072   0.18839
  39   35126.9    284.7   0.030542253   0.28624  -0.33090  -0.40472   0.11378
  40   36216.3    276.1   0.020570673   0.18699  -0.16740  -0.39794  -0.02464
  41   36313.5    275.4   0.014774285   0.13394  -0.34190   0.03839   0.12480
  42   36451.6    274.3   0.014344925   0.12956  -0.32029  -0.12754   0.10344
  43   36631.3    273.0   0.095030879   0.85406   0.62743   0.57341  -0.36276
  44   36878.7    271.2   0.023271793   0.20774   0.29452   0.19776  -0.28617
  45   37001.0    270.3   0.004420826   0.03933  -0.02245  -0.09623  -0.17196
  46   37405.9    267.3   0.006014874   0.05294  -0.22603  -0.04056  -0.01430
  47   37671.3    265.5   0.002438663   0.02131   0.08938   0.04506  -0.10627
  48   37719.0    265.1   0.097736172   0.85304   0.33411   0.86017   0.03907
  49   38097.1    262.5   0.005293906   0.04575  -0.00666  -0.14455   0.15751
  50   38484.0    259.8   0.079957015   0.68399   0.32412   0.76020   0.03227
  51   38665.7    258.6   0.011235404   0.09566   0.23787  -0.00576  -0.19760
  52   38822.9    257.6   0.087221929   0.73963   0.15320   0.78767  -0.30941
  53   38925.4    256.9   0.277269357   2.34501  -0.34854  -1.48922  -0.07588
  54   39115.9    255.7   0.020595478   0.17334   0.23114   0.01219  -0.34607
  55   39226.1    254.9   0.078790030   0.66126   0.58521   0.05068  -0.56234
  56   39561.2    252.8   0.004796374   0.03991  -0.12066  -0.10279  -0.12161
  57   39878.9    250.8   0.082923007   0.68455  -0.30561   0.60276   0.47732
  58   39909.1    250.6   0.082372043   0.67949  -0.60614   0.53057   0.17488
  59   40194.7    248.8   0.015993992   0.13100   0.00323  -0.29729  -0.20641

FINAL SINGLE POINT ENERGY     -4690.885206721190

DIPOLE MOMENT
-------------
                                X             Y             Z
Electronic contribution:   -106.68578     -83.80483     -39.48559
Nuclear contribution   :    107.42395      82.74518      40.74074
                        -----------------------------------------
Total Dipole Moment    :      0.73816      -1.05965       1.25515
                        -----------------------------------------
Magnitude (a.u.)       :      1.80087
Magnitude (Debye)      :      4.57745

Rotational constants in cm-1:     0.002299     0.000361     0.000329
Rotational constants in MHz :    68.932128    10.827358     9.857656

                             ****ORCA TERMINATED NORMALLY****
TOTAL RUN TIME: 0 days 0 hours 8 minutes 23 seconds 607 msec
