                         Program Version 4.2.0 -  RELEASE  -
|  1> # ORCA input file
|  2> # SCF done       -169.916435724143          0.000881040666
|  3> ! CAM-B3LYP def2-SVP def2/J RIJCOSX Grid4 TightSCF
|  4> %maxcore 5000
|  5> %tddft
|  6>     Mode sTDDFT
|  7>     Ethresh 5.0
|  8>     maxcore 5000
|  9> end
| 10>
| 11> %pal
| 12>   nprocs 6
| 13>   end
| 14> * xyz 0 1
| 15>    C        1.10061         1.69850         1.88606
| 16>    C       -0.01254         2.38028         2.27018
| 17>    S       -1.15019         1.33544         3.03918
| 18>    C       -0.10784        -0.05344         2.83987
| 19>   Cl       -0.56526        -1.58743         3.39256
| 20>    C        1.04838         0.30473         2.21273
| 21>    C        2.27846        -0.36085         1.77417
| 22>    O        2.55639        -1.53498         1.86096
| 23>    C        3.08977         0.72560         1.13657
| 24>    C        2.35836         1.98345         1.22669
| 25>    C        2.75995         3.22596         0.81637
| 26>    C        1.93388         4.35710         0.98928
| 27>    N        1.27142         5.28451         1.11915
| 28>    C        3.99273         3.53273         0.20668
| 29>    N        4.98042         3.84559        -0.28735
| 30>    C        4.24721         0.52157         0.45818
| 31>    C        4.97473        -0.71494         0.41001
| 32>    C        5.53681        -1.19325        -0.78939
| 33>    N        6.16136        -2.33698        -0.86971
| 34>    C        6.25373        -3.08290         0.23480
| 35>    N        5.83250        -2.68245         1.43741
| 36>    C        5.22912        -1.52471         1.52974
| 37>    C        6.86499        -4.37614         0.07320
| 38>    N        6.83528        -5.39304         0.99126
| 39>    C        6.27100        -5.36863         2.31986
| 40>    C        7.24044        -4.75551         3.32521
| 41>    C        7.46937        -6.54711         0.50263
| 42>    O        7.55474        -7.58598         1.13138
| 43>    C        7.92300        -6.17850        -0.81831
| 44>    C        7.53597        -4.83429        -1.05267
| 45>    C        8.01517        -4.45099        -2.36941
| 46>    O        7.96848        -3.42724        -3.00560
| 47>    N        8.65682        -5.62149        -2.84706
| 48>    C        9.22365        -5.66229        -4.17272
| 49>    C        8.28722        -6.33935        -5.17089
| 50>    C        8.59802        -6.65191        -1.94402
| 51>    C        9.13548        -7.94221        -2.18300
| 52>    C        9.00810        -8.95509        -1.28715
| 53>    C        9.48279       -10.27748        -1.48550
| 54>    S        9.13667       -11.48725        -0.27920
| 55>    C        9.93685       -12.71545        -1.19387
| 56>    C       10.45832       -12.19392        -2.38853
| 57>    C       10.19249       -10.82493        -2.53558
| 58>    C       11.15339       -12.97194        -3.40305
| 59>    O       11.36424       -14.16167        -3.38418
| 60>    C        9.98029       -14.07214        -0.80079
| 61>    C        9.33709       -14.59846         0.27159
| 62>    C        9.36152       -15.97522         0.61195
| 63>    C        9.58422       -17.06641        -0.17235
| 64>    C        9.93078       -18.35401         0.51526
| 65>    O        9.83546       -18.57931         1.69777
| 66>    C       10.44200       -19.21707        -0.55338
| 67>    C       11.01344       -20.44955        -0.66192
| 68>    S       11.38365       -20.80700        -2.33224
| 69>    C       10.75209       -19.29072        -2.86381
| 70>    C       10.29128       -18.55667        -1.81675
| 71>    C        9.63992       -17.27445        -1.61056
| 72>    C        9.02713       -16.57130        -2.61348
| 73>    C        9.10613       -16.98706        -3.95983
| 74>    N        9.15388       -17.30571        -5.06066
| 75>    C        8.21849       -15.43320        -2.44505
| 76>    N        7.53010       -14.51716        -2.37224
| 77>   Cl       11.35768       -21.55531         0.57437
| 78>    H       -0.24788         3.41960         2.15450
| 79>    H        4.65762         1.32744        -0.13809
| 80>    H        5.44119        -0.63741        -1.71296
| 81>    H        4.97625        -1.19893         2.52916
| 82>    H        6.07211        -6.41108         2.58413
| 83>    H        5.33842        -4.80308         2.30302
| 84>    H        8.17704        -5.30804         3.32850
| 85>    H        6.80749        -4.79513         4.32038
| 86>    H        7.43632        -3.71797         3.06890
| 87>    H       10.19421        -6.16549        -4.14203
| 88>    H        9.37719        -4.61997        -4.46626
| 89>    H        8.07613        -7.36542        -4.87734
| 90>    H        8.74061        -6.34253        -6.15826
| 91>    H        7.34768        -5.79518        -5.22201
| 92>    H        9.64274        -8.10831        -3.12174
| 93>    H        8.49203        -8.76834        -0.35393
| 94>    H       10.50998       -10.25890        -3.39296
| 95>    H       11.49239       -12.35516        -4.25690
| 96>    H       10.58298       -14.70958        -1.43381
| 97>    H        8.81494       -13.93599         0.95080
| 98>    H        9.22899       -16.20948         1.66483
| 99>    H       10.77761       -19.04687        -3.90717
|100> *
|101>
|102>                          ****END OF INPUT****

CARTESIAN COORDINATES (ANGSTROEM)
---------------------------------
  C      1.100610    1.698500    1.886060
  C     -0.012540    2.380280    2.270180
  S     -1.150190    1.335440    3.039180
  C     -0.107840   -0.053440    2.839870
  Cl    -0.565260   -1.587430    3.392560
  C      1.048380    0.304730    2.212730
  C      2.278460   -0.360850    1.774170
  O      2.556390   -1.534980    1.860960
  C      3.089770    0.725600    1.136570
  C      2.358360    1.983450    1.226690
  C      2.759950    3.225960    0.816370
  C      1.933880    4.357100    0.989280
  N      1.271420    5.284510    1.119150
  C      3.992730    3.532730    0.206680
  N      4.980420    3.845590   -0.287350
  C      4.247210    0.521570    0.458180
  C      4.974730   -0.714940    0.410010
  C      5.536810   -1.193250   -0.789390
  N      6.161360   -2.336980   -0.869710
  C      6.253730   -3.082900    0.234800
  N      5.832500   -2.682450    1.437410
  C      5.229120   -1.524710    1.529740
  C      6.864990   -4.376140    0.073200
  N      6.835280   -5.393040    0.991260
  C      6.271000   -5.368630    2.319860
  C      7.240440   -4.755510    3.325210
  C      7.469370   -6.547110    0.502630
  O      7.554740   -7.585980    1.131380
  C      7.923000   -6.178500   -0.818310
  C      7.535970   -4.834290   -1.052670
  C      8.015170   -4.450990   -2.369410
  O      7.968480   -3.427240   -3.005600
  N      8.656820   -5.621490   -2.847060
  C      9.223650   -5.662290   -4.172720
  C      8.287220   -6.339350   -5.170890
  C      8.598020   -6.651910   -1.944020
  C      9.135480   -7.942210   -2.183000
  C      9.008100   -8.955090   -1.287150
  C      9.482790  -10.277480   -1.485500
  S      9.136670  -11.487250   -0.279200
  C      9.936850  -12.715450   -1.193870
  C     10.458320  -12.193920   -2.388530
  C     10.192490  -10.824930   -2.535580
  C     11.153390  -12.971940   -3.403050
  O     11.364240  -14.161670   -3.384180
  C      9.980290  -14.072140   -0.800790
  C      9.337090  -14.598460    0.271590
  C      9.361520  -15.975220    0.611950
  C      9.584220  -17.066410   -0.172350
  C      9.930780  -18.354010    0.515260
  O      9.835460  -18.579310    1.697770
  C     10.442000  -19.217070   -0.553380
  C     11.013440  -20.449550   -0.661920
  S     11.383650  -20.807000   -2.332240
  C     10.752090  -19.290720   -2.863810
  C     10.291280  -18.556670   -1.816750
  C      9.639920  -17.274450   -1.610560
  C      9.027130  -16.571300   -2.613480
  C      9.106130  -16.987060   -3.959830
  N      9.153880  -17.305710   -5.060660
  C      8.218490  -15.433200   -2.445050
  N      7.530100  -14.517160   -2.372240
  Cl    11.357680  -21.555310    0.574370
  H     -0.247880    3.419600    2.154500
  H      4.657620    1.327440   -0.138090
  H      5.441190   -0.637410   -1.712960
  H      4.976250   -1.198930    2.529160
  H      6.072110   -6.411080    2.584130
  H      5.338420   -4.803080    2.303020
  H      8.177040   -5.308040    3.328500
  H      6.807490   -4.795130    4.320380
  H      7.436320   -3.717970    3.068900
  H     10.194210   -6.165490   -4.142030
  H      9.377190   -4.619970   -4.466260
  H      8.076130   -7.365420   -4.877340
  H      8.740610   -6.342530   -6.158260
  H      7.347680   -5.795180   -5.222010
  H      9.642740   -8.108310   -3.121740
  H      8.492030   -8.768340   -0.353930
  H     10.509980  -10.258900   -3.392960
  H     11.492390  -12.355160   -4.256900
  H     10.582980  -14.709580   -1.433810
  H      8.814940  -13.935990    0.950800
  H      9.228990  -16.209480    1.664830
  H     10.777610  -19.046870   -3.907170

 Total Charge           Charge          ....    0
 Multiplicity           Mult            ....    1
 Number of Electrons    NEL             ....  470
 Basis Dimension        Dim             .... 1012

ORBITAL ENERGIES
----------------

  NO   OCC          E(Eh)            E(eV)
   0   2.0000    -101.624610     -2765.3462
   1   2.0000    -101.614065     -2765.0593
   2   2.0000     -89.001894     -2421.8646
   3   2.0000     -88.989321     -2421.5225
   4   2.0000     -88.981413     -2421.3073
   5   2.0000     -19.231808      -523.3241
   6   2.0000     -19.227824      -523.2157
   7   2.0000     -19.215741      -522.8869
   8   2.0000     -19.191357      -522.2234
   9   2.0000     -19.186040      -522.0787
  10   2.0000     -14.454637      -393.3307
  11   2.0000     -14.449893      -393.2016
  12   2.0000     -14.429283      -392.6408
  13   2.0000     -14.427903      -392.6032
  14   2.0000     -14.424028      -392.4977
  15   2.0000     -14.418624      -392.3507
  16   2.0000     -14.418518      -392.3478
  17   2.0000     -14.415298      -392.2602
  18   2.0000     -10.389033      -282.7000
  19   2.0000     -10.384568      -282.5785
  20   2.0000     -10.375635      -282.3354
  21   2.0000     -10.373297      -282.2717
  22   2.0000     -10.372442      -282.2485
  23   2.0000     -10.371879      -282.2332
  24   2.0000     -10.369177      -282.1596
  25   2.0000     -10.362704      -281.9835
  26   2.0000     -10.357891      -281.8526
  27   2.0000     -10.357293      -281.8363
  28   2.0000     -10.348070      -281.5853
  29   2.0000     -10.346161      -281.5333
  30   2.0000     -10.344227      -281.4807
  31   2.0000     -10.339231      -281.3448
  32   2.0000     -10.337621      -281.3010
  33   2.0000     -10.336068      -281.2587
  34   2.0000     -10.333884      -281.1993
  35   2.0000     -10.332679      -281.1665
  36   2.0000     -10.330950      -281.1194
  37   2.0000     -10.330617      -281.1104
  38   2.0000     -10.329599      -281.0827
  39   2.0000     -10.325871      -280.9812
  40   2.0000     -10.324558      -280.9455
  41   2.0000     -10.321124      -280.8521
  42   2.0000     -10.319751      -280.8147
  43   2.0000     -10.319369      -280.8043
  44   2.0000     -10.317391      -280.7505
  45   2.0000     -10.316896      -280.7370
  46   2.0000     -10.311328      -280.5855
  47   2.0000     -10.308789      -280.5164
  48   2.0000     -10.308362      -280.5048
  49   2.0000     -10.308293      -280.5029
  50   2.0000     -10.307042      -280.4689
  51   2.0000     -10.306506      -280.4543
  52   2.0000     -10.304472      -280.3989
  53   2.0000     -10.303362      -280.3687
  54   2.0000     -10.301036      -280.3054
  55   2.0000     -10.299530      -280.2644
  56   2.0000     -10.299422      -280.2615
  57   2.0000     -10.296400      -280.1793
  58   2.0000     -10.290598      -280.0214
  59   2.0000     -10.268061      -279.4082
  60   2.0000     -10.266852      -279.3753
  61   2.0000     -10.260744      -279.2091
  62   2.0000     -10.245631      -278.7978
  63   2.0000      -9.579360      -260.6676
  64   2.0000      -9.568822      -260.3809
  65   2.0000      -8.097562      -220.3459
  66   2.0000      -8.084999      -220.0040
  67   2.0000      -8.076921      -219.7842
  68   2.0000      -7.349975      -200.0030
  69   2.0000      -7.339458      -199.7168
  70   2.0000      -7.339426      -199.7159
  71   2.0000      -7.338863      -199.7006
  72   2.0000      -7.328854      -199.4282
  73   2.0000      -7.328340      -199.4143
  74   2.0000      -6.066930      -165.0896
  75   2.0000      -6.062303      -164.9637
  76   2.0000      -6.059858      -164.8971
  77   2.0000      -6.054380      -164.7481
  78   2.0000      -6.049799      -164.6234
  79   2.0000      -6.047255      -164.5542
  80   2.0000      -6.045878      -164.5167
  81   2.0000      -6.041810      -164.4060
  82   2.0000      -6.039546      -164.3444
  83   2.0000      -1.149021       -31.2664
  84   2.0000      -1.140121       -31.0243
  85   2.0000      -1.133787       -30.8519
  86   2.0000      -1.132780       -30.8245
  87   2.0000      -1.124753       -30.6061
  88   2.0000      -1.099729       -29.9251
  89   2.0000      -1.063913       -28.9505
  90   2.0000      -1.051283       -28.6069
  91   2.0000      -1.046589       -28.4791
  92   2.0000      -1.034282       -28.1442
  93   2.0000      -1.025808       -27.9137
  94   2.0000      -1.014917       -27.6173
  95   2.0000      -1.010360       -27.4933
  96   2.0000      -1.007012       -27.4022
  97   2.0000      -0.996913       -27.1274
  98   2.0000      -0.995290       -27.0832
  99   2.0000      -0.992669       -27.0119
 100   2.0000      -0.984489       -26.7893
 101   2.0000      -0.964456       -26.2442
 102   2.0000      -0.952339       -25.9145
 103   2.0000      -0.936784       -25.4912
 104   2.0000      -0.933984       -25.4150
 105   2.0000      -0.926005       -25.1979
 106   2.0000      -0.914298       -24.8793
 107   2.0000      -0.913116       -24.8472
 108   2.0000      -0.901554       -24.5325
 109   2.0000      -0.880232       -23.9523
 110   2.0000      -0.873331       -23.7646
 111   2.0000      -0.871581       -23.7169
 112   2.0000      -0.864689       -23.5294
 113   2.0000      -0.841171       -22.8894
 114   2.0000      -0.833011       -22.6674
 115   2.0000      -0.828601       -22.5474
 116   2.0000      -0.825206       -22.4550
 117   2.0000      -0.815818       -22.1995
 118   2.0000      -0.799792       -21.7634
 119   2.0000      -0.781536       -21.2667
 120   2.0000      -0.772241       -21.0137
 121   2.0000      -0.764854       -20.8127
 122   2.0000      -0.760867       -20.7042
 123   2.0000      -0.755309       -20.5530
 124   2.0000      -0.753119       -20.4934
 125   2.0000      -0.739737       -20.1293
 126   2.0000      -0.735034       -20.0013
 127   2.0000      -0.719561       -19.5803
 128   2.0000      -0.704225       -19.1629
 129   2.0000      -0.698594       -19.0097
 130   2.0000      -0.696792       -18.9607
 131   2.0000      -0.687028       -18.6950
 132   2.0000      -0.685271       -18.6472
 133   2.0000      -0.681381       -18.5413
 134   2.0000      -0.672118       -18.2893
 135   2.0000      -0.669865       -18.2280
 136   2.0000      -0.650510       -17.7013
 137   2.0000      -0.646087       -17.5809
 138   2.0000      -0.637529       -17.3481
 139   2.0000      -0.635533       -17.2937
 140   2.0000      -0.627948       -17.0873
 141   2.0000      -0.626034       -17.0352
 142   2.0000      -0.621770       -16.9192
 143   2.0000      -0.615145       -16.7389
 144   2.0000      -0.612570       -16.6689
 145   2.0000      -0.606596       -16.5063
 146   2.0000      -0.600903       -16.3514
 147   2.0000      -0.594079       -16.1657
 148   2.0000      -0.585587       -15.9346
 149   2.0000      -0.583975       -15.8908
 150   2.0000      -0.572004       -15.5650
 151   2.0000      -0.566940       -15.4272
 152   2.0000      -0.564884       -15.3713
 153   2.0000      -0.561433       -15.2774
 154   2.0000      -0.553653       -15.0657
 155   2.0000      -0.552661       -15.0387
 156   2.0000      -0.548936       -14.9373
 157   2.0000      -0.545061       -14.8319
 158   2.0000      -0.544172       -14.8077
 159   2.0000      -0.538608       -14.6563
 160   2.0000      -0.534168       -14.5354
 161   2.0000      -0.533444       -14.5158
 162   2.0000      -0.531302       -14.4575
 163   2.0000      -0.528058       -14.3692
 164   2.0000      -0.527210       -14.3461
 165   2.0000      -0.525329       -14.2949
 166   2.0000      -0.523567       -14.2470
 167   2.0000      -0.521762       -14.1979
 168   2.0000      -0.519191       -14.1279
 169   2.0000      -0.518569       -14.1110
 170   2.0000      -0.514709       -14.0059
 171   2.0000      -0.513590       -13.9755
 172   2.0000      -0.510754       -13.8983
 173   2.0000      -0.506295       -13.7770
 174   2.0000      -0.503521       -13.7015
 175   2.0000      -0.501512       -13.6468
 176   2.0000      -0.500858       -13.6290
 177   2.0000      -0.497763       -13.5448
 178   2.0000      -0.494103       -13.4452
 179   2.0000      -0.494047       -13.4437
 180   2.0000      -0.493499       -13.4288
 181   2.0000      -0.483383       -13.1535
 182   2.0000      -0.477935       -13.0053
 183   2.0000      -0.475173       -12.9301
 184   2.0000      -0.472235       -12.8502
 185   2.0000      -0.468400       -12.7458
 186   2.0000      -0.464574       -12.6417
 187   2.0000      -0.463903       -12.6234
 188   2.0000      -0.460691       -12.5360
 189   2.0000      -0.460486       -12.5305
 190   2.0000      -0.458451       -12.4751
 191   2.0000      -0.455442       -12.3932
 192   2.0000      -0.455067       -12.3830
 193   2.0000      -0.453116       -12.3299
 194   2.0000      -0.452319       -12.3082
 195   2.0000      -0.451673       -12.2906
 196   2.0000      -0.449407       -12.2290
 197   2.0000      -0.443290       -12.0625
 198   2.0000      -0.442040       -12.0285
 199   2.0000      -0.441248       -12.0070
 200   2.0000      -0.440028       -11.9738
 201   2.0000      -0.438961       -11.9447
 202   2.0000      -0.437799       -11.9131
 203   2.0000      -0.435695       -11.8559
 204   2.0000      -0.430277       -11.7084
 205   2.0000      -0.429184       -11.6787
 206   2.0000      -0.425916       -11.5898
 207   2.0000      -0.425598       -11.5811
 208   2.0000      -0.422411       -11.4944
 209   2.0000      -0.418816       -11.3966
 210   2.0000      -0.412947       -11.2369
 211   2.0000      -0.410068       -11.1585
 212   2.0000      -0.409271       -11.1368
 213   2.0000      -0.400361       -10.8944
 214   2.0000      -0.400092       -10.8871
 215   2.0000      -0.395039       -10.7496
 216   2.0000      -0.390516       -10.6265
 217   2.0000      -0.383585       -10.4379
 218   2.0000      -0.374628       -10.1942
 219   2.0000      -0.357265        -9.7217
 220   2.0000      -0.348999        -9.4967
 221   2.0000      -0.346922        -9.4402
 222   2.0000      -0.345228        -9.3941
 223   2.0000      -0.344280        -9.3683
 224   2.0000      -0.340768        -9.2728
 225   2.0000      -0.336208        -9.1487
 226   2.0000      -0.332434        -9.0460
 227   2.0000      -0.331104        -9.0098
 228   2.0000      -0.328374        -8.9355
 229   2.0000      -0.322404        -8.7731
 230   2.0000      -0.314033        -8.5453
 231   2.0000      -0.312515        -8.5040
 232   2.0000      -0.309688        -8.4270
 233   2.0000      -0.281540        -7.6611
 234   2.0000      -0.241349        -6.5674
 235   0.0000      -0.112669        -3.0659
 236   0.0000      -0.102127        -2.7790
 237   0.0000      -0.077104        -2.0981
 238   0.0000      -0.060357        -1.6424
 239   0.0000      -0.052338        -1.4242

MULLIKEN ATOMIC CHARGES
-----------------------
   0 C :    0.031717
   1 C :   -0.127888
   2 S :    0.194414
   3 C :   -0.169554
   4 Cl:    0.005596
   5 C :    0.073290
   6 C :    0.143006
   7 O :   -0.126395
   8 C :   -0.100189
   9 C :    0.292647
  10 C :   -0.323310
  11 C :   -0.190175
  12 N :    0.158657
  13 C :   -0.193512
  14 N :    0.170002
  15 C :   -0.012315
  16 C :   -0.023743
  17 C :    0.059945
  18 N :   -0.006238
  19 C :   -0.169782
  20 N :   -0.069339
  21 C :    0.118185
  22 C :    0.180655
  23 N :   -0.252238
  24 C :    0.140625
  25 C :    0.008257
  26 C :    0.161296
  27 O :   -0.222932
  28 C :   -0.072930
  29 C :   -0.037153
  30 C :    0.146216
  31 O :   -0.151212
  32 N :   -0.267262
  33 C :    0.101122
  34 C :    0.003644
  35 C :    0.141003
  36 C :   -0.028274
  37 C :    0.091784
  38 C :   -0.079781
  39 S :    0.197400
  40 C :   -0.090330
  41 C :    0.034111
  42 C :   -0.000271
  43 C :    0.161259
  44 O :   -0.186847
  45 C :    0.006090
  46 C :    0.020453
  47 C :    0.035793
  48 C :   -0.131047
  49 C :    0.124432
  50 O :   -0.132332
  51 C :    0.100761
  52 C :   -0.173274
  53 S :    0.182307
  54 C :   -0.127083
  55 C :    0.003802
  56 C :    0.281557
  57 C :   -0.314611
  58 C :   -0.178410
  59 N :    0.152971
  60 C :   -0.201011
  61 N :    0.175571
  62 Cl:   -0.003256
  63 H :    0.056862
  64 H :    0.039960
  65 H :    0.016913
  66 H :    0.007036
  67 H :    0.029101
  68 H :    0.028195
  69 H :    0.015757
  70 H :    0.011748
  71 H :    0.014699
  72 H :    0.019798
  73 H :    0.044225
  74 H :    0.014045
  75 H :    0.023215
  76 H :    0.032488
  77 H :   -0.030954
  78 H :    0.012767
  79 H :   -0.009259
  80 H :   -0.009022
  81 H :    0.045733
  82 H :    0.012501
  83 H :    0.032503
  84 H :    0.055812
Sum of atomic charges:   -0.0000000

LOEWDIN ATOMIC CHARGES
----------------------
   0 C :   -0.059643
   1 C :   -0.147420
   2 S :    0.482695
   3 C :   -0.270596
   4 Cl:    0.196151
   5 C :   -0.118405
   6 C :    0.081791
   7 O :   -0.124269
   8 C :   -0.080404
   9 C :    0.072960
  10 C :   -0.130232
  11 C :   -0.015045
  12 N :   -0.045938
  13 C :   -0.024567
  14 N :   -0.038802
  15 C :    0.075895
  16 C :   -0.087422
  17 C :    0.070208
  18 N :   -0.049256
  19 C :    0.032121
  20 N :   -0.070164
  21 C :    0.087305
  22 C :    0.043045
  23 N :    0.014600
  24 C :    0.037690
  25 C :   -0.061288
  26 C :    0.075419
  27 O :   -0.211427
  28 C :   -0.130152
  29 C :   -0.088391
  30 C :    0.086464
  31 O :   -0.159472
  32 N :   -0.007327
  33 C :    0.035387
  34 C :   -0.061128
  35 C :    0.091386
  36 C :   -0.047507
  37 C :    0.021414
  38 C :   -0.165756
  39 S :    0.502697
  40 C :   -0.131603
  41 C :   -0.106176
  42 C :   -0.021937
  43 C :    0.117732
  44 O :   -0.137571
  45 C :    0.010787
  46 C :   -0.029967
  47 C :    0.064249
  48 C :   -0.081830
  49 C :    0.080215
  50 O :   -0.134805
  51 C :   -0.118332
  52 C :   -0.273252
  53 S :    0.472210
  54 C :   -0.151106
  55 C :   -0.055627
  56 C :    0.065553
  57 C :   -0.128708
  58 C :   -0.012455
  59 N :   -0.051210
  60 C :   -0.014287
  61 N :   -0.042477
  62 Cl:    0.189740
  63 H :    0.038728
  64 H :    0.049596
  65 H :    0.032120
  66 H :    0.027355
  67 H :    0.029758
  68 H :    0.025471
  69 H :    0.024744
  70 H :    0.026979
  71 H :    0.018794
  72 H :    0.021310
  73 H :    0.038191
  74 H :    0.021158
  75 H :    0.030561
  76 H :    0.033650
  77 H :    0.027167
  78 H :    0.038557
  79 H :    0.032349
  80 H :    0.002586
  81 H :    0.040837
  82 H :    0.031171
  83 H :    0.049000
  84 H :    0.038157

  Mayer bond orders larger than 0.100000
B(  0-C ,  1-C ) :   1.5419 B(  0-C ,  5-C ) :   1.2199 B(  0-C ,  9-C ) :   1.0052
B(  1-C ,  2-S ) :   1.1657 B(  1-C , 63-H ) :   0.9536 B(  2-S ,  3-C ) :   1.1543
B(  3-C ,  4-Cl) :   1.1332 B(  3-C ,  5-C ) :   1.4742 B(  5-C ,  6-C ) :   0.9525
B(  6-C ,  7-O ) :   2.2387 B(  6-C ,  8-C ) :   0.9224 B(  8-C ,  9-C ) :   1.0473
B(  8-C , 15-C ) :   1.7097 B(  9-C , 10-C ) :   1.6703 B( 10-C , 11-C ) :   1.1431
B( 10-C , 13-C ) :   1.1381 B( 11-C , 12-N ) :   2.9912 B( 13-C , 14-N ) :   2.9789
B( 15-C , 16-C ) :   1.0482 B( 15-C , 64-H ) :   0.9440 B( 16-C , 17-C ) :   1.2848
B( 16-C , 21-C ) :   1.3042 B( 17-C , 18-N ) :   1.5911 B( 17-C , 65-H ) :   0.9918
B( 18-N , 19-C ) :   1.6242 B( 18-N , 22-C ) :  -0.1233 B( 19-C , 20-N ) :   1.4832
B( 19-C , 22-C ) :   0.9943 B( 20-N , 21-C ) :   1.5656 B( 21-C , 66-H ) :   0.9817
B( 22-C , 23-N ) :   1.1990 B( 22-C , 29-C ) :   1.3911 B( 23-N , 24-C ) :   0.9350
B( 23-N , 26-C ) :   1.0746 B( 24-C , 25-C ) :   1.1250 B( 24-C , 67-H ) :   0.9282
B( 24-C , 68-H ) :   0.9383 B( 25-C , 69-H ) :   0.9649 B( 25-C , 70-H ) :   0.9678
B( 25-C , 71-H ) :   0.9637 B( 26-C , 27-O ) :   1.9974 B( 26-C , 28-C ) :   0.9954
B( 27-O , 78-H ) :   0.1273 B( 28-C , 29-C ) :   1.2528 B( 28-C , 35-C ) :   1.3072
B( 29-C , 30-C ) :   0.9398 B( 30-C , 31-O ) :   2.1910 B( 30-C , 32-N ) :   1.0073
B( 32-N , 33-C ) :   0.9463 B( 32-N , 35-C ) :   1.1820 B( 33-C , 34-C ) :   1.1208
B( 33-C , 72-H ) :   0.9500 B( 33-C , 73-H ) :   0.9262 B( 34-C , 74-H ) :   0.9685
B( 34-C , 75-H ) :   0.9680 B( 34-C , 76-H ) :   0.9634 B( 35-C , 36-C ) :   1.1695
B( 36-C , 37-C ) :   1.6218 B( 36-C , 77-H ) :   0.9613 B( 37-C , 38-C ) :   1.1258
B( 37-C , 78-H ) :   0.9304 B( 38-C , 39-S ) :   1.1343 B( 38-C , 42-C ) :   1.4709
B( 39-S , 40-C ) :   1.1691 B( 40-C , 41-C ) :   1.3970 B( 40-C , 45-C ) :   1.2122
B( 41-C , 42-C ) :   1.2555 B( 41-C , 43-C ) :   0.9985 B( 42-C , 79-H ) :   0.9903
B( 43-C , 44-O ) :   2.1057 B( 43-C , 80-H ) :   0.9628 B( 45-C , 46-C ) :   1.6065
B( 45-C , 81-H ) :   0.9442 B( 46-C , 47-C ) :   1.1564 B( 46-C , 82-H ) :   0.9582
B( 47-C , 48-C ) :   1.6862 B( 47-C , 83-H ) :   0.9269 B( 48-C , 49-C ) :   0.9421
B( 48-C , 56-C ) :   1.0285 B( 49-C , 50-O ) :   2.2692 B( 49-C , 51-C ) :   0.9256
B( 51-C , 52-C ) :   1.4801 B( 51-C , 55-C ) :   1.2235 B( 52-C , 53-S ) :   1.1514
B( 52-C , 62-Cl) :   1.1257 B( 53-S , 54-C ) :   1.1570 B( 54-C , 55-C ) :   1.5562
B( 54-C , 84-H ) :   0.9546 B( 55-C , 56-C ) :   1.0068 B( 56-C , 57-C ) :   1.6661
B( 57-C , 58-C ) :   1.1311 B( 57-C , 60-C ) :   1.1727 B( 58-C , 59-N ) :   2.9978
B( 60-C , 61-N ) :   2.9827

-----------------------------------------------------------------------------
         ABSORPTION SPECTRUM VIA TRANSITION ELECTRIC DIPOLE MOMENTS
-----------------------------------------------------------------------------
State   Energy  Wavelength   fosc         T2         TX        TY        TZ
        (cm-1)    (nm)                  (au**2)     (au)      (au)      (au)
-----------------------------------------------------------------------------
   0   13521.5    739.6   1.040871452  25.34247   2.01007  -4.44004  -1.26022
   1   17432.2    573.7   0.092299514   1.74310  -1.00875  -0.69430   0.49345
   2   20938.2    477.6   0.218309554   3.43249   0.44957   1.69662  -0.59316
   3   22357.9    447.3   0.197461005   2.90754   0.20772  -1.61082  -0.51930
   4   24529.5    407.7   0.033318107   0.44716  -0.34925   0.56642   0.06603
   5   25526.4    391.8   0.010260503   0.13233   0.30181  -0.18390  -0.08616
   6   26195.8    381.7   0.023995101   0.30156  -0.41726   0.11945   0.33642
   7   26347.4    379.5   0.006436751   0.08043   0.13591  -0.24021   0.06525
   8   26906.1    371.7   0.294891042   3.60817  -0.57387   1.77212  -0.37204
   9   27240.6    367.1   0.104328347   1.26084   0.31579  -0.87832   0.62424
  10   27425.9    364.6   0.045581085   0.54714   0.34648  -0.56945   0.32065
  11   28270.2    353.7   0.008205375   0.09555   0.01706   0.00808  -0.30854
  12   28373.6    352.4   0.010821664   0.12556   0.08434   0.13504  -0.31656
  13   28754.1    347.8   0.105911509   1.21260  -0.06290  -0.80260   0.75132
  14   29241.0    342.0   0.035588175   0.40067   0.22371   0.56686  -0.17114
  15   30485.4    328.0   0.028712765   0.31007   0.34516  -0.43394  -0.05132
  16   30686.2    325.9   0.035450508   0.38032  -0.18665   0.54287  -0.22534
  17   31324.5    319.2   0.076005955   0.79880   0.44082  -0.72257   0.28702
  18   31827.9    314.2   0.253733559   2.62449  -0.49049   1.45879  -0.50580
  19   32167.6    310.9   0.088294934   0.90363  -0.42229   0.85117  -0.02852
  20   32367.6    309.0   0.099821038   1.01528   0.47938  -0.83411  -0.29957
  21   32646.2    306.3   0.007942217   0.08009   0.01624   0.02717  -0.28123
  22   33116.0    302.0   0.002993195   0.02976  -0.04897   0.11843  -0.11546
  23   33362.4    299.7   0.027189739   0.26830  -0.29892   0.41511  -0.08146
  24   33602.1    297.6   0.022208752   0.21759   0.35314  -0.20019  -0.22979
  25   34099.5    293.3   0.033794607   0.32627  -0.09005  -0.48960  -0.28008
  26   34256.7    291.9   0.064340475   0.61832   0.42686  -0.53559   0.38634
  27   35124.8    284.7   0.296723624   2.78108  -1.10410   0.38809   1.18803
  28   35324.2    283.1   0.084063985   0.78345   0.77609  -0.35214  -0.23903
  29   35664.7    280.4   0.120648715   1.11368  -0.52337   0.79793  -0.45064
  30   36137.5    276.7   0.043404297   0.39541   0.40764   0.33854  -0.33857
  31   36262.9    275.8   0.014483551   0.13149  -0.31634   0.16900  -0.05348
  32   36327.2    275.3   0.018868427   0.17099  -0.24861   0.31574  -0.09745
  33   36491.4    274.0   0.048084467   0.43380  -0.49301  -0.27084   0.34262
  34   37162.6    269.1   0.478310515   4.23721   1.76667   0.64245  -0.83864
  35   37712.4    265.2   0.175456017   1.53165  -0.24385   1.19775  -0.19385
  36   38016.9    263.0   0.314765640   2.72575  -0.73250   1.44933  -0.29771
  37   38338.9    260.8   0.030462365   0.26158  -0.49478  -0.12581   0.03068
  38   38686.6    258.5   0.057365324   0.48816   0.19005  -0.59345   0.31601
  39   38903.1    257.0   0.083899839   0.70999   0.08152   0.68812  -0.47942
  40   39090.2    255.8   0.125659418   1.05829   0.13927   0.98649  -0.25638
  41   39221.4    255.0   0.228832852   1.92075  -0.21774  -1.29185   0.45219
  42   39583.8    252.6   0.011554271   0.09609   0.03369   0.30197  -0.06142
  43   39852.2    250.9   0.000164660   0.00136   0.00913  -0.02811  -0.02205
  44   39900.4    250.6   0.023559366   0.19438  -0.21716   0.38364   0.00691
  45   40045.0    249.7   0.004775787   0.03926   0.05624   0.11370  -0.15222

FINAL SINGLE POINT ENERGY     -4653.195448789015

DIPOLE MOMENT
-------------
                                X             Y             Z
Electronic contribution:    -23.60519     -28.52835      19.62432
Nuclear contribution   :     23.54504      28.47347     -19.04147
                        -----------------------------------------
Total Dipole Moment    :     -0.06015      -0.05488       0.58285
                        -----------------------------------------
Magnitude (a.u.)       :      0.58851
Magnitude (Debye)      :      1.49588

Rotational constants in cm-1:     0.002685     0.000240     0.000228
Rotational constants in MHz :    80.499003     7.194017     6.835760

                             ****ORCA TERMINATED NORMALLY****
TOTAL RUN TIME: 0 days 0 hours 9 minutes 31 seconds 108 msec
