                         Program Version 4.2.0 -  RELEASE  -
|  1> # ORCA input file
|  2> # SCF done       -154.636400803993          0.000599196621
|  3> ! CAM-B3LYP def2-SVP def2/J RIJCOSX Grid4 TightSCF
|  4> %maxcore 5000
|  5> %tddft
|  6>     Mode sTDDFT
|  7>     Ethresh 5.0
|  8>     maxcore 5000
|  9> end
| 10>
| 11> %pal
| 12>   nprocs 6
| 13>   end
| 14> * xyz 0 1
| 15>    C        1.51549         0.17288        -2.23589
| 16>    C        0.43072         0.95860        -2.47493
| 17>    S       -0.76431         0.76459        -1.24492
| 18>    C        0.21415        -0.40031        -0.38507
| 19>   Cl       -0.32076        -1.11635         1.05309
| 20>    C        1.39242        -0.60541        -1.03990
| 21>    C        2.59433        -1.41886        -0.85219
| 22>    O        2.83686        -2.17475         0.06466
| 23>    C        3.45175        -1.12234        -2.03065
| 24>    C        2.79588        -0.11113        -2.85388
| 25>    C        3.26128         0.50157        -3.98475
| 26>    C        2.48502         1.46828        -4.66104
| 27>    N        1.86686         2.25447        -5.22265
| 28>    C        4.51223         0.29164        -4.60130
| 29>    N        5.51053         0.18828        -5.15813
| 30>    C        4.63051        -1.73163        -2.33542
| 31>    C        5.34491        -2.72845        -1.63110
| 32>    S        4.99067        -3.44835        -0.06568
| 33>    C        6.43714        -4.39258        -0.31547
| 34>    N        7.03386        -4.12765        -1.46066
| 35>    N        6.44150        -3.22350        -2.16263
| 36>    C        6.90196        -5.35152         0.62700
| 37>    C        8.01184        -6.08595         0.38015
| 38>    C        8.61259        -7.08034         1.19811
| 39>    S       10.19351        -7.63520         0.71621
| 40>    C       10.29960        -8.68305         2.08892
| 41>    C        9.15362        -8.63204         2.85660
| 42>    C        8.19283        -7.73655         2.34602
| 43>    C        6.85463        -7.56273         2.98912
| 44>    C        6.52322        -8.73838         3.91881
| 45>    C        5.34340        -8.41309         4.68800
| 46>    N        4.41937        -8.10791         5.28621
| 47>    C        7.69736        -9.03962         4.86622
| 48>    O        7.25257       -10.02768         5.76664
| 49>    C        8.06503       -10.21769         6.89830
| 50>    C        8.90319        -9.51124         4.04160
| 51>    C       11.46516        -9.51844         2.26024
| 52>    C       12.15513        -9.66968         3.46972
| 53>    N       13.15655       -10.50736         3.61240
| 54>    C       13.49010       -11.25003         2.56148
| 55>    N       12.98980       -11.09441         1.33413
| 56>    C       12.01575       -10.22764         1.18433
| 57>    C       14.52161       -12.25437         2.75067
| 58>    C       14.58134       -13.45040         2.13930
| 59>    C       15.86420       -14.23787         2.14683
| 60>    O       16.81081       -14.05622         2.86851
| 61>    C       15.69445       -15.20186         1.05556
| 62>    C       16.45630       -16.14225         0.42601
| 63>    S       15.53802       -16.92683        -0.83680
| 64>    C       14.13453       -15.98494        -0.49439
| 65>    C       14.36333       -15.11395         0.52558
| 66>    C       13.61546       -14.12792         1.27880
| 67>    C       12.25433       -14.02953         1.30121
| 68>    C       11.45028       -14.80770         0.43903
| 69>    N       10.78471       -15.42430        -0.26223
| 70>    C       11.49677       -13.23498         2.18624
| 71>    N       10.80146       -12.65625         2.89298
| 72>   Cl       18.06404       -16.56631         0.74286
| 73>    H        0.24521         1.63620        -3.28445
| 74>    H        5.13171        -1.45887        -3.25677
| 75>    H        6.33040        -5.43664         1.53600
| 76>    H        8.52651        -5.88011        -0.54999
| 77>    H        6.08057        -7.48393         2.22233
| 78>    H        6.84665        -6.63397         3.57100
| 79>    H        6.31434        -9.64363         3.33832
| 80>    H        7.96099        -8.11971         5.41829
| 81>    H        7.50928       -10.88182         7.55672
| 82>    H        8.25196        -9.26839         7.41440
| 83>    H        9.02252       -10.68370         6.64234
| 84>    H        8.70547       -10.53219         3.69667
| 85>    H        9.78588        -9.55697         4.67838
| 86>    H       11.91706        -9.06955         4.33789
| 87>    H       11.63382       -10.10106         0.17882
| 88>    H       15.33225       -11.98690         3.41755
| 89>    H       13.24537       -16.13233        -1.07485
| 90> *
| 91>
| 92>                          ****END OF INPUT****

CARTESIAN COORDINATES (ANGSTROEM)
---------------------------------
  C      1.515490    0.172880   -2.235890
  C      0.430720    0.958600   -2.474930
  S     -0.764310    0.764590   -1.244920
  C      0.214150   -0.400310   -0.385070
  Cl    -0.320760   -1.116350    1.053090
  C      1.392420   -0.605410   -1.039900
  C      2.594330   -1.418860   -0.852190
  O      2.836860   -2.174750    0.064660
  C      3.451750   -1.122340   -2.030650
  C      2.795880   -0.111130   -2.853880
  C      3.261280    0.501570   -3.984750
  C      2.485020    1.468280   -4.661040
  N      1.866860    2.254470   -5.222650
  C      4.512230    0.291640   -4.601300
  N      5.510530    0.188280   -5.158130
  C      4.630510   -1.731630   -2.335420
  C      5.344910   -2.728450   -1.631100
  S      4.990670   -3.448350   -0.065680
  C      6.437140   -4.392580   -0.315470
  N      7.033860   -4.127650   -1.460660
  N      6.441500   -3.223500   -2.162630
  C      6.901960   -5.351520    0.627000
  C      8.011840   -6.085950    0.380150
  C      8.612590   -7.080340    1.198110
  S     10.193510   -7.635200    0.716210
  C     10.299600   -8.683050    2.088920
  C      9.153620   -8.632040    2.856600
  C      8.192830   -7.736550    2.346020
  C      6.854630   -7.562730    2.989120
  C      6.523220   -8.738380    3.918810
  C      5.343400   -8.413090    4.688000
  N      4.419370   -8.107910    5.286210
  C      7.697360   -9.039620    4.866220
  O      7.252570  -10.027680    5.766640
  C      8.065030  -10.217690    6.898300
  C      8.903190   -9.511240    4.041600
  C     11.465160   -9.518440    2.260240
  C     12.155130   -9.669680    3.469720
  N     13.156550  -10.507360    3.612400
  C     13.490100  -11.250030    2.561480
  N     12.989800  -11.094410    1.334130
  C     12.015750  -10.227640    1.184330
  C     14.521610  -12.254370    2.750670
  C     14.581340  -13.450400    2.139300
  C     15.864200  -14.237870    2.146830
  O     16.810810  -14.056220    2.868510
  C     15.694450  -15.201860    1.055560
  C     16.456300  -16.142250    0.426010
  S     15.538020  -16.926830   -0.836800
  C     14.134530  -15.984940   -0.494390
  C     14.363330  -15.113950    0.525580
  C     13.615460  -14.127920    1.278800
  C     12.254330  -14.029530    1.301210
  C     11.450280  -14.807700    0.439030
  N     10.784710  -15.424300   -0.262230
  C     11.496770  -13.234980    2.186240
  N     10.801460  -12.656250    2.892980
  Cl    18.064040  -16.566310    0.742860
  H      0.245210    1.636200   -3.284450
  H      5.131710   -1.458870   -3.256770
  H      6.330400   -5.436640    1.536000
  H      8.526510   -5.880110   -0.549990
  H      6.080570   -7.483930    2.222330
  H      6.846650   -6.633970    3.571000
  H      6.314340   -9.643630    3.338320
  H      7.960990   -8.119710    5.418290
  H      7.509280  -10.881820    7.556720
  H      8.251960   -9.268390    7.414400
  H      9.022520  -10.683700    6.642340
  H      8.705470  -10.532190    3.696670
  H      9.785880   -9.556970    4.678380
  H     11.917060   -9.069550    4.337890
  H     11.633820  -10.101060    0.178820
  H     15.332250  -11.986900    3.417550
  H     13.245370  -16.132330   -1.074850

 Total Charge           Charge          ....    0
 Multiplicity           Mult            ....    1
 Number of Electrons    NEL             ....  442
 Basis Dimension        Dim             ....  921

ORBITAL ENERGIES
----------------

  NO   OCC          E(Eh)            E(eV)
   0   2.0000    -101.623032     -2765.3033
   1   2.0000    -101.622224     -2765.2813
   2   2.0000     -89.000233     -2421.8195
   3   2.0000     -88.998547     -2421.7736
   4   2.0000     -88.981297     -2421.3042
   5   2.0000     -88.975599     -2421.1491
   6   2.0000     -19.235159      -523.4153
   7   2.0000     -19.228149      -523.2245
   8   2.0000     -19.226457      -523.1785
   9   2.0000     -14.453092      -393.2886
  10   2.0000     -14.440855      -392.9556
  11   2.0000     -14.433751      -392.7623
  12   2.0000     -14.432291      -392.7226
  13   2.0000     -14.430942      -392.6859
  14   2.0000     -14.428115      -392.6090
  15   2.0000     -14.423709      -392.4891
  16   2.0000     -14.423617      -392.4866
  17   2.0000     -14.397008      -391.7625
  18   2.0000     -10.388974      -282.6984
  19   2.0000     -10.384213      -282.5688
  20   2.0000     -10.382870      -282.5323
  21   2.0000     -10.381952      -282.5073
  22   2.0000     -10.366015      -282.0736
  23   2.0000     -10.357501      -281.8419
  24   2.0000     -10.356680      -281.8196
  25   2.0000     -10.353996      -281.7466
  26   2.0000     -10.353193      -281.7247
  27   2.0000     -10.347511      -281.5701
  28   2.0000     -10.345622      -281.5187
  29   2.0000     -10.343852      -281.4705
  30   2.0000     -10.342248      -281.4269
  31   2.0000     -10.340870      -281.3894
  32   2.0000     -10.335897      -281.2541
  33   2.0000     -10.334201      -281.2079
  34   2.0000     -10.333891      -281.1995
  35   2.0000     -10.333130      -281.1788
  36   2.0000     -10.329588      -281.0824
  37   2.0000     -10.325527      -280.9719
  38   2.0000     -10.324867      -280.9539
  39   2.0000     -10.323404      -280.9141
  40   2.0000     -10.322388      -280.8864
  41   2.0000     -10.320962      -280.8477
  42   2.0000     -10.320403      -280.8324
  43   2.0000     -10.320360      -280.8313
  44   2.0000     -10.320097      -280.8241
  45   2.0000     -10.317702      -280.7589
  46   2.0000     -10.316831      -280.7352
  47   2.0000     -10.316713      -280.7320
  48   2.0000     -10.316397      -280.7234
  49   2.0000     -10.309984      -280.5489
  50   2.0000     -10.307534      -280.4823
  51   2.0000     -10.305731      -280.4332
  52   2.0000     -10.304959      -280.4122
  53   2.0000     -10.303739      -280.3790
  54   2.0000     -10.302336      -280.3408
  55   2.0000     -10.300052      -280.2787
  56   2.0000     -10.297332      -280.2047
  57   2.0000     -10.287563      -279.9388
  58   2.0000      -9.577821      -260.6258
  59   2.0000      -9.576997      -260.6033
  60   2.0000      -8.096023      -220.3040
  61   2.0000      -8.094211      -220.2547
  62   2.0000      -8.075508      -219.7458
  63   2.0000      -8.071195      -219.6284
  64   2.0000      -7.348462      -199.9618
  65   2.0000      -7.347629      -199.9391
  66   2.0000      -7.337855      -199.6732
  67   2.0000      -7.337309      -199.6583
  68   2.0000      -7.337038      -199.6510
  69   2.0000      -7.336491      -199.6361
  70   2.0000      -6.065376      -165.0473
  71   2.0000      -6.063585      -164.9985
  72   2.0000      -6.060759      -164.9216
  73   2.0000      -6.058967      -164.8729
  74   2.0000      -6.058301      -164.8547
  75   2.0000      -6.056502      -164.8058
  76   2.0000      -6.044352      -164.4752
  77   2.0000      -6.040463      -164.3694
  78   2.0000      -6.040313      -164.3653
  79   2.0000      -6.038103      -164.3051
  80   2.0000      -6.036315      -164.2565
  81   2.0000      -6.033494      -164.1797
  82   2.0000      -1.153698       -31.3937
  83   2.0000      -1.150633       -31.3103
  84   2.0000      -1.145624       -31.1740
  85   2.0000      -1.131118       -30.7793
  86   2.0000      -1.108088       -30.1526
  87   2.0000      -1.045019       -28.4364
  88   2.0000      -1.043771       -28.4025
  89   2.0000      -1.026153       -27.9230
  90   2.0000      -1.021371       -27.7929
  91   2.0000      -1.013968       -27.5915
  92   2.0000      -1.008205       -27.4347
  93   2.0000      -1.001925       -27.2638
  94   2.0000      -1.000548       -27.2263
  95   2.0000      -0.995222       -27.0814
  96   2.0000      -0.994117       -27.0513
  97   2.0000      -0.986707       -26.8497
  98   2.0000      -0.963571       -26.2201
  99   2.0000      -0.962130       -26.1809
 100   2.0000      -0.951985       -25.9048
 101   2.0000      -0.943516       -25.6744
 102   2.0000      -0.935745       -25.4629
 103   2.0000      -0.928686       -25.2708
 104   2.0000      -0.915433       -24.9102
 105   2.0000      -0.911387       -24.8001
 106   2.0000      -0.900161       -24.4946
 107   2.0000      -0.878627       -23.9086
 108   2.0000      -0.872655       -23.7462
 109   2.0000      -0.861989       -23.4559
 110   2.0000      -0.855352       -23.2753
 111   2.0000      -0.839818       -22.8526
 112   2.0000      -0.837953       -22.8019
 113   2.0000      -0.824221       -22.4282
 114   2.0000      -0.802313       -21.8321
 115   2.0000      -0.791759       -21.5449
 116   2.0000      -0.779348       -21.2071
 117   2.0000      -0.770162       -20.9572
 118   2.0000      -0.768933       -20.9237
 119   2.0000      -0.761834       -20.7306
 120   2.0000      -0.755050       -20.5459
 121   2.0000      -0.750603       -20.4249
 122   2.0000      -0.729387       -19.8476
 123   2.0000      -0.720061       -19.5939
 124   2.0000      -0.701798       -19.0969
 125   2.0000      -0.697360       -18.9761
 126   2.0000      -0.689880       -18.7726
 127   2.0000      -0.683923       -18.6105
 128   2.0000      -0.682946       -18.5839
 129   2.0000      -0.672259       -18.2931
 130   2.0000      -0.669294       -18.2124
 131   2.0000      -0.661111       -17.9897
 132   2.0000      -0.652094       -17.7444
 133   2.0000      -0.643279       -17.5045
 134   2.0000      -0.631252       -17.1772
 135   2.0000      -0.627088       -17.0639
 136   2.0000      -0.624401       -16.9908
 137   2.0000      -0.618138       -16.8204
 138   2.0000      -0.616976       -16.7888
 139   2.0000      -0.604776       -16.4568
 140   2.0000      -0.600102       -16.3296
 141   2.0000      -0.597044       -16.2464
 142   2.0000      -0.587651       -15.9908
 143   2.0000      -0.576828       -15.6963
 144   2.0000      -0.573955       -15.6181
 145   2.0000      -0.565001       -15.3745
 146   2.0000      -0.561452       -15.2779
 147   2.0000      -0.559957       -15.2372
 148   2.0000      -0.556057       -15.1311
 149   2.0000      -0.554992       -15.1021
 150   2.0000      -0.549055       -14.9406
 151   2.0000      -0.547820       -14.9069
 152   2.0000      -0.546150       -14.8615
 153   2.0000      -0.539760       -14.6876
 154   2.0000      -0.539521       -14.6811
 155   2.0000      -0.533767       -14.5245
 156   2.0000      -0.530038       -14.4231
 157   2.0000      -0.528059       -14.3692
 158   2.0000      -0.525348       -14.2954
 159   2.0000      -0.522242       -14.2109
 160   2.0000      -0.518939       -14.1211
 161   2.0000      -0.517667       -14.0864
 162   2.0000      -0.513039       -13.9605
 163   2.0000      -0.510664       -13.8959
 164   2.0000      -0.510143       -13.8817
 165   2.0000      -0.509422       -13.8621
 166   2.0000      -0.503753       -13.7078
 167   2.0000      -0.499459       -13.5910
 168   2.0000      -0.497141       -13.5279
 169   2.0000      -0.496897       -13.5212
 170   2.0000      -0.494248       -13.4492
 171   2.0000      -0.491930       -13.3861
 172   2.0000      -0.488325       -13.2880
 173   2.0000      -0.481854       -13.1119
 174   2.0000      -0.468811       -12.7570
 175   2.0000      -0.467162       -12.7121
 176   2.0000      -0.463490       -12.6122
 177   2.0000      -0.463153       -12.6030
 178   2.0000      -0.459635       -12.5073
 179   2.0000      -0.455376       -12.3914
 180   2.0000      -0.455190       -12.3864
 181   2.0000      -0.453040       -12.3278
 182   2.0000      -0.450749       -12.2655
 183   2.0000      -0.450373       -12.2553
 184   2.0000      -0.450011       -12.2454
 185   2.0000      -0.447400       -12.1744
 186   2.0000      -0.444413       -12.0931
 187   2.0000      -0.441154       -12.0044
 188   2.0000      -0.439636       -11.9631
 189   2.0000      -0.437229       -11.8976
 190   2.0000      -0.435721       -11.8566
 191   2.0000      -0.433212       -11.7883
 192   2.0000      -0.427796       -11.6409
 193   2.0000      -0.425240       -11.5714
 194   2.0000      -0.419562       -11.4169
 195   2.0000      -0.418568       -11.3898
 196   2.0000      -0.413925       -11.2635
 197   2.0000      -0.409061       -11.1311
 198   2.0000      -0.408559       -11.1175
 199   2.0000      -0.408317       -11.1109
 200   2.0000      -0.406138       -11.0516
 201   2.0000      -0.402150       -10.9430
 202   2.0000      -0.397926       -10.8281
 203   2.0000      -0.396028       -10.7765
 204   2.0000      -0.393601       -10.7104
 205   2.0000      -0.389106       -10.5881
 206   2.0000      -0.385786       -10.4978
 207   2.0000      -0.369858       -10.0644
 208   2.0000      -0.354924        -9.6580
 209   2.0000      -0.352293        -9.5864
 210   2.0000      -0.350343        -9.5333
 211   2.0000      -0.345820        -9.4103
 212   2.0000      -0.343261        -9.3406
 213   2.0000      -0.342164        -9.3107
 214   2.0000      -0.337598        -9.1865
 215   2.0000      -0.331253        -9.0138
 216   2.0000      -0.327623        -8.9151
 217   2.0000      -0.324812        -8.8386
 218   2.0000      -0.315744        -8.5918
 219   2.0000      -0.309766        -8.4292
 220   2.0000      -0.272964        -7.4277
 221   0.0000      -0.108507        -2.9526
 222   0.0000      -0.101228        -2.7546
 223   0.0000      -0.063666        -1.7324
 224   0.0000      -0.057665        -1.5691
 225   0.0000      -0.051946        -1.4135

MULLIKEN ATOMIC CHARGES
-----------------------
   0 C :    0.028174
   1 C :   -0.129728
   2 S :    0.191351
   3 C :   -0.168368
   4 Cl:    0.004544
   5 C :    0.077948
   6 C :    0.173700
   7 O :   -0.157150
   8 C :   -0.104482
   9 C :    0.303891
  10 C :   -0.323244
  11 C :   -0.193418
  12 N :    0.156395
  13 C :   -0.195469
  14 N :    0.175558
  15 C :    0.016725
  16 C :   -0.107346
  17 S :    0.180451
  18 C :   -0.076121
  19 N :   -0.063155
  20 N :   -0.025401
  21 C :    0.015121
  22 C :    0.065181
  23 C :   -0.128083
  24 S :    0.162523
  25 C :   -0.140651
  26 C :   -0.089374
  27 C :   -0.052735
  28 C :    0.123214
  29 C :   -0.065887
  30 C :   -0.251621
  31 N :    0.144527
  32 C :    0.079800
  33 O :   -0.368158
  34 C :    0.188548
  35 C :    0.258274
  36 C :    0.007148
  37 C :    0.041292
  38 N :   -0.037902
  39 C :   -0.098049
  40 N :   -0.066805
  41 C :    0.046664
  42 C :    0.101080
  43 C :   -0.118344
  44 C :    0.134586
  45 O :   -0.116268
  46 C :    0.079597
  47 C :   -0.167449
  48 S :    0.192800
  49 C :   -0.121972
  50 C :    0.016079
  51 C :    0.302229
  52 C :   -0.310303
  53 C :   -0.200392
  54 N :    0.161991
  55 C :   -0.172298
  56 N :    0.161992
  57 Cl:    0.005324
  58 H :    0.056878
  59 H :    0.034941
  60 H :   -0.010737
  61 H :    0.021450
  62 H :    0.042755
  63 H :    0.045211
  64 H :    0.040393
  65 H :   -0.004522
  66 H :    0.039417
  67 H :    0.004119
  68 H :    0.017034
  69 H :    0.037818
  70 H :   -0.001626
  71 H :    0.019290
  72 H :    0.014605
  73 H :    0.040646
  74 H :    0.055790
Sum of atomic charges:    0.0000000

LOEWDIN ATOMIC CHARGES
----------------------
   0 C :   -0.058524
   1 C :   -0.147614
   2 S :    0.480260
   3 C :   -0.270796
   4 Cl:    0.195747
   5 C :   -0.118136
   6 C :    0.083343
   7 O :   -0.150221
   8 C :   -0.088960
   9 C :    0.072803
  10 C :   -0.128946
  11 C :   -0.013900
  12 N :   -0.048096
  13 C :   -0.027823
  14 N :   -0.031460
  15 C :    0.057067
  16 C :   -0.179595
  17 S :    0.471241
  18 C :   -0.145378
  19 N :   -0.088215
  20 N :   -0.039591
  21 C :   -0.070903
  22 C :    0.011170
  23 C :   -0.175925
  24 S :    0.464065
  25 C :   -0.173980
  26 C :   -0.049247
  27 C :   -0.045676
  28 C :   -0.008995
  29 C :   -0.050568
  30 C :   -0.031240
  31 N :   -0.064453
  32 C :    0.080576
  33 O :   -0.158292
  34 C :    0.072489
  35 C :   -0.033107
  36 C :   -0.067973
  37 C :    0.060586
  38 N :   -0.061186
  39 C :    0.010850
  40 N :   -0.070750
  41 C :    0.053933
  42 C :    0.068758
  43 C :   -0.057143
  44 C :    0.082376
  45 O :   -0.121184
  46 C :   -0.119009
  47 C :   -0.271548
  48 S :    0.482585
  49 C :   -0.149868
  50 C :   -0.056012
  51 C :    0.079253
  52 C :   -0.121778
  53 C :   -0.016052
  54 N :   -0.045611
  55 C :   -0.011112
  56 N :   -0.055761
  57 Cl:    0.196350
  58 H :    0.038575
  59 H :    0.060347
  60 H :    0.030266
  61 H :    0.040729
  62 H :    0.043236
  63 H :    0.043062
  64 H :    0.056810
  65 H :    0.011261
  66 H :    0.029604
  67 H :    0.009534
  68 H :    0.008597
  69 H :    0.049074
  70 H :    0.031873
  71 H :    0.028586
  72 H :    0.025655
  73 H :    0.055319
  74 H :    0.038651

  Mayer bond orders larger than 0.100000
B(  0-C ,  1-C ) :   1.5474 B(  0-C ,  5-C ) :   1.2248 B(  0-C ,  9-C ) :   0.9954
B(  1-C ,  2-S ) :   1.1621 B(  1-C , 58-H ) :   0.9530 B(  2-S ,  3-C ) :   1.1536
B(  3-C ,  4-Cl) :   1.1317 B(  3-C ,  5-C ) :   1.4701 B(  5-C ,  6-C ) :   0.9682
B(  6-C ,  7-O ) :   2.1640 B(  6-C ,  8-C ) :   0.9507 B(  8-C ,  9-C ) :   1.0661
B(  8-C , 15-C ) :   1.5815 B(  9-C , 10-C ) :   1.6654 B( 10-C , 11-C ) :   1.1481
B( 10-C , 13-C ) :   1.1317 B( 11-C , 12-N ) :   2.9893 B( 13-C , 14-N ) :   2.9783
B( 15-C , 16-C ) :   1.1651 B( 15-C , 59-H ) :   0.9454 B( 16-C , 17-S ) :   1.0815
B( 16-C , 20-N ) :   1.5988 B( 17-S , 18-C ) :   1.1188 B( 17-S , 20-N ) :   0.1039
B( 18-C , 19-N ) :   1.5739 B( 18-C , 21-C ) :   1.1337 B( 19-N , 20-N ) :   1.2908
B( 21-C , 22-C ) :   1.6967 B( 21-C , 60-H ) :   0.9474 B( 22-C , 23-C ) :   1.1177
B( 22-C , 61-H ) :   0.9484 B( 23-C , 24-S ) :   1.1218 B( 23-C , 25-C ) :   0.1109
B( 23-C , 27-C ) :   1.4972 B( 24-S , 25-C ) :   1.1543 B( 25-C , 26-C ) :   1.5429
B( 25-C , 36-C ) :   0.9871 B( 26-C , 27-C ) :   1.3183 B( 26-C , 35-C ) :   1.0343
B( 27-C , 28-C ) :   1.0594 B( 28-C , 29-C ) :   1.0606 B( 28-C , 62-H ) :   0.9087
B( 28-C , 63-H ) :   0.8943 B( 29-C , 30-C ) :   1.0937 B( 29-C , 32-C ) :   1.0163
B( 29-C , 64-H ) :   0.8586 B( 30-C , 31-N ) :   3.1225 B( 32-C , 33-O ) :   1.0495
B( 32-C , 35-C ) :   1.0578 B( 32-C , 65-H ) :   0.9137 B( 33-O , 34-C ) :   0.9782
B( 34-C , 66-H ) :   0.9821 B( 34-C , 67-H ) :   0.9638 B( 34-C , 68-H ) :   0.9679
B( 35-C , 69-H ) :   0.8723 B( 35-C , 70-H ) :   0.8985 B( 36-C , 37-C ) :   1.3383
B( 36-C , 41-C ) :   1.3356 B( 37-C , 38-N ) :   1.5633 B( 37-C , 71-H ) :   0.9806
B( 38-N , 39-C ) :   1.5033 B( 39-C , 40-N ) :   1.4794 B( 39-C , 42-C ) :   0.9753
B( 40-N , 41-C ) :   1.5516 B( 41-C , 72-H ) :   0.9872 B( 42-C , 43-C ) :   1.7840
B( 42-C , 73-H ) :   0.9472 B( 43-C , 44-C ) :   0.9177 B( 43-C , 51-C ) :   1.0005
B( 44-C , 45-O ) :   2.2998 B( 44-C , 46-C ) :   0.9237 B( 46-C , 47-C ) :   1.4818
B( 46-C , 50-C ) :   1.2187 B( 47-C , 48-S ) :   1.1567 B( 47-C , 57-Cl) :   1.1333
B( 48-S , 49-C ) :   1.1638 B( 49-C , 50-C ) :   1.5456 B( 49-C , 74-H ) :   0.9553
B( 50-C , 51-C ) :   1.0197 B( 51-C , 52-C ) :   1.6989 B( 52-C , 53-C ) :   1.1371
B( 52-C , 55-C ) :   1.1472 B( 53-C , 54-N ) :   3.0037 B( 55-C , 56-N ) :   2.9897

-----------------------------------------------------------------------------
         ABSORPTION SPECTRUM VIA TRANSITION ELECTRIC DIPOLE MOMENTS
-----------------------------------------------------------------------------
State   Energy  Wavelength   fosc         T2         TX        TY        TZ
        (cm-1)    (nm)                  (au**2)     (au)      (au)      (au)
-----------------------------------------------------------------------------
   0   20692.6    483.3   1.698411797  27.02115  -3.19808   3.79765  -1.53990
   1   23543.5    424.7   0.033958915   0.47485  -0.21870  -0.12923  -0.64057
   2   23731.4    421.4   0.010726337   0.14880   0.26012   0.01014   0.28467
   3   27290.7    366.4   0.020333008   0.24528  -0.45240  -0.16632   0.11381
   4   28400.2    352.1   0.019062233   0.22097   0.39490  -0.04301  -0.25135
   5   28778.3    347.5   0.034324440   0.39266   0.61372  -0.11907  -0.04281
   6   29639.7    337.4   0.000051393   0.00057  -0.00080   0.01639  -0.01736
   7   29675.3    337.0   0.016268818   0.18048  -0.32167   0.19962   0.19277
   8   30882.5    323.8   0.163433737   1.74223   1.16590  -0.51667  -0.34051
   9   31777.6    314.7   0.262049702   2.71480  -1.32117   0.59488  -0.78450
  10   32210.8    310.5   0.257182675   2.62855   0.74992  -1.25113   0.70770
  11   32635.6    306.4   0.067246896   0.67835  -0.20551  -0.71479   0.35382
  12   33846.4    295.5   0.016987146   0.16523   0.27487   0.26731  -0.13498
  13   34181.7    292.6   0.040610012   0.39112  -0.42315  -0.34096   0.30954
  14   34229.9    292.1   0.270934614   2.60576  -1.03177   1.22469   0.20334
  15   34802.9    287.3   0.005953838   0.05632   0.03304  -0.21735  -0.08936
  16   35158.7    284.4   0.004204547   0.03937  -0.17349   0.06324   0.07261
  17   35389.8    282.6   0.029448979   0.27395   0.06251   0.20303   0.47835
  18   35840.6    279.0   0.121333731   1.11450   0.77994  -0.55008  -0.45124
  19   36572.3    273.4   0.010092252   0.09085   0.22084  -0.03842  -0.20150
  20   36752.0    272.1   0.015558936   0.13937  -0.08949  -0.08047  -0.35339
  21   37241.0    268.5   0.143458032   1.26818  -0.85168   0.72494   0.13147
  22   37625.1    265.8   0.711087126   6.22186  -1.76028  -0.19496   1.75649
  23   38032.2    262.9   0.076835822   0.66510   0.80265  -0.10433   0.09988
  24   38169.3    262.0   0.038012557   0.32786  -0.57064   0.04004  -0.02505
  25   38583.1    259.2   0.430949948   3.67709   1.40025  -1.08506  -0.73420
  26   39281.4    254.6   0.067211223   0.56329   0.54230  -0.51801  -0.02932
  27   39660.5    252.1   0.079562776   0.66043  -0.60774   0.14220   0.52044
  28   40109.1    249.3   0.000061864   0.00051  -0.00368   0.02222   0.00055

FINAL SINGLE POINT ENERGY     -4762.324791314731

DIPOLE MOMENT
-------------
                                X             Y             Z
Electronic contribution:      0.75275       7.17900     -31.26758
Nuclear contribution   :      0.07722      -8.19659      32.30192
                        -----------------------------------------
Total Dipole Moment    :      0.82997      -1.01759       1.03434
                        -----------------------------------------
Magnitude (a.u.)       :      1.67159
Magnitude (Debye)      :      4.24884

Rotational constants in cm-1:     0.002613     0.000301     0.000281
Rotational constants in MHz :    78.328104     9.012640     8.413856

                             ****ORCA TERMINATED NORMALLY****
TOTAL RUN TIME: 0 days 0 hours 6 minutes 21 seconds 69 msec
