                         Program Version 4.2.0 -  RELEASE  -
|  1> # ORCA input file
|  2> # SCF done       -156.415606149692          0.000521531629
|  3> ! CAM-B3LYP def2-SVP def2/J RIJCOSX Grid4 TightSCF
|  4> %maxcore 5000
|  5> %tddft
|  6>     Mode sTDDFT
|  7>     Ethresh 5.0
|  8>     maxcore 5000
|  9> end
| 10>
| 11> %pal
| 12>   nprocs 6
| 13>   end
| 14> * xyz 0 1
| 15>    C        1.49749         1.71150        -0.55925
| 16>    C        0.58320         2.70840        -0.42177
| 17>    S       -0.64974         2.27212         0.70683
| 18>    C        0.08332         0.71231         1.00563
| 19>   Cl       -0.60303        -0.40281         2.07796
| 20>    C        1.21273         0.56926         0.25681
| 21>    C        2.23182        -0.46259         0.05162
| 22>    O        2.34002        -1.52240         0.63040
| 23>    C        3.17107         0.13228        -0.94690
| 24>    C        2.70310         1.45317        -1.32059
| 25>    C        3.23681         2.29397        -2.26246
| 26>    C        2.66169         3.55225        -2.53294
| 27>    N        2.20682         4.58119        -2.75921
| 28>    C        4.36332         2.00443        -3.05592
| 29>    N        5.26633         1.81066        -3.73851
| 30>    C        4.39262        -0.40312        -1.24734
| 31>    C        4.75779        -1.73652        -0.94758
| 32>    S        6.35841        -2.07678        -0.31543
| 33>    C        5.93846        -3.73341         0.02026
| 34>    C        4.67569        -4.01058        -0.45157
| 35>    C        4.01377        -2.89777        -0.99878
| 36>    C        2.67830        -3.11945        -1.62042
| 37>    C        1.80304        -3.92819        -0.67881
| 38>    O        0.61420        -3.80061        -0.59601
| 39>    C        2.56473        -5.00610         0.11645
| 40>    O        2.10155        -5.52927         1.09157
| 41>    C        3.94330        -5.31527        -0.43748
| 42>    C        6.84280        -4.57690         0.75243
| 43>    C        6.55620        -5.31527         1.90095
| 44>    C        5.26387        -5.28336         2.63579
| 45>    C        7.74196        -5.97447         2.36002
| 46>    C        8.76042        -5.61457         1.49537
| 47>    C        8.22866        -4.72630         0.46997
| 48>    C        9.07503        -4.26283        -0.50253
| 49>    C       10.42165        -4.67172        -0.44683
| 50>    C       10.83628        -5.51515         0.54543
| 51>    O       10.04413        -5.98627         1.49534
| 52>    C        7.88076        -6.82750         3.52776
| 53>    C        6.86062        -7.66602         3.96893
| 54>    C        7.05891        -8.47176         5.08818
| 55>    C        8.28060        -8.34549         5.76478
| 56>    N        9.25385        -7.56937         5.34498
| 57>    C        9.08014        -6.85670         4.25100
| 58>    C        6.02730        -9.35162         5.58500
| 59>    C        6.19230       -10.58403         6.11100
| 60>    C        5.09420       -11.19602         6.92838
| 61>    O        3.95341       -10.81075         6.99828
| 62>    C        5.74639       -12.30222         7.63853
| 63>    C        5.40998       -13.21505         8.59315
| 64>    S        6.77082       -14.25016         8.95736
| 65>    C        7.77480       -13.44371         7.80870
| 66>    C        7.10266       -12.43614         7.19011
| 67>    C        7.35664       -11.46026         6.14812
| 68>    C        8.39891       -11.51455         5.26465
| 69>    C        9.43118       -12.46579         5.40811
| 70>    N       10.27977       -13.22804         5.52889
| 71>    C        8.51870       -10.72518         4.10319
| 72>    N        8.63443       -10.16520         3.10807
| 73>   Cl        3.92098       -13.40738         9.37734
| 74>    H        0.54598         3.66785        -0.89834
| 75>    H        5.16594         0.23484        -1.65694
| 76>    H        2.80638        -3.73546        -2.52064
| 77>    H        2.17500        -2.20028        -1.91381
| 78>    H        3.83786        -5.68903        -1.46128
| 79>    H        4.44880        -6.06930         0.16102
| 80>    H        4.69705        -4.39426         2.36700
| 81>    H        5.44679        -5.27620         3.70894
| 82>    H        4.63884        -6.14804         2.41375
| 83>    H        8.73550        -3.60239        -1.28543
| 84>    H       11.12916        -4.32905        -1.18184
| 85>    H       11.85208        -5.86935         0.63995
| 86>    H        5.94048        -7.75198         3.41393
| 87>    H        8.45833        -8.87577         6.69179
| 88>    H        9.92949        -6.26415         3.94329
| 89>    H        5.01820        -8.95282         5.61855
| 90>    H        8.78948       -13.76385         7.67833
| 91> *
| 92>
| 93>                          ****END OF INPUT****

CARTESIAN COORDINATES (ANGSTROEM)
---------------------------------
  C      1.497490    1.711500   -0.559250
  C      0.583200    2.708400   -0.421770
  S     -0.649740    2.272120    0.706830
  C      0.083320    0.712310    1.005630
  Cl    -0.603030   -0.402810    2.077960
  C      1.212730    0.569260    0.256810
  C      2.231820   -0.462590    0.051620
  O      2.340020   -1.522400    0.630400
  C      3.171070    0.132280   -0.946900
  C      2.703100    1.453170   -1.320590
  C      3.236810    2.293970   -2.262460
  C      2.661690    3.552250   -2.532940
  N      2.206820    4.581190   -2.759210
  C      4.363320    2.004430   -3.055920
  N      5.266330    1.810660   -3.738510
  C      4.392620   -0.403120   -1.247340
  C      4.757790   -1.736520   -0.947580
  S      6.358410   -2.076780   -0.315430
  C      5.938460   -3.733410    0.020260
  C      4.675690   -4.010580   -0.451570
  C      4.013770   -2.897770   -0.998780
  C      2.678300   -3.119450   -1.620420
  C      1.803040   -3.928190   -0.678810
  O      0.614200   -3.800610   -0.596010
  C      2.564730   -5.006100    0.116450
  O      2.101550   -5.529270    1.091570
  C      3.943300   -5.315270   -0.437480
  C      6.842800   -4.576900    0.752430
  C      6.556200   -5.315270    1.900950
  C      5.263870   -5.283360    2.635790
  C      7.741960   -5.974470    2.360020
  C      8.760420   -5.614570    1.495370
  C      8.228660   -4.726300    0.469970
  C      9.075030   -4.262830   -0.502530
  C     10.421650   -4.671720   -0.446830
  C     10.836280   -5.515150    0.545430
  O     10.044130   -5.986270    1.495340
  C      7.880760   -6.827500    3.527760
  C      6.860620   -7.666020    3.968930
  C      7.058910   -8.471760    5.088180
  C      8.280600   -8.345490    5.764780
  N      9.253850   -7.569370    5.344980
  C      9.080140   -6.856700    4.251000
  C      6.027300   -9.351620    5.585000
  C      6.192300  -10.584030    6.111000
  C      5.094200  -11.196020    6.928380
  O      3.953410  -10.810750    6.998280
  C      5.746390  -12.302220    7.638530
  C      5.409980  -13.215050    8.593150
  S      6.770820  -14.250160    8.957360
  C      7.774800  -13.443710    7.808700
  C      7.102660  -12.436140    7.190110
  C      7.356640  -11.460260    6.148120
  C      8.398910  -11.514550    5.264650
  C      9.431180  -12.465790    5.408110
  N     10.279770  -13.228040    5.528890
  C      8.518700  -10.725180    4.103190
  N      8.634430  -10.165200    3.108070
  Cl     3.920980  -13.407380    9.377340
  H      0.545980    3.667850   -0.898340
  H      5.165940    0.234840   -1.656940
  H      2.806380   -3.735460   -2.520640
  H      2.175000   -2.200280   -1.913810
  H      3.837860   -5.689030   -1.461280
  H      4.448800   -6.069300    0.161020
  H      4.697050   -4.394260    2.367000
  H      5.446790   -5.276200    3.708940
  H      4.638840   -6.148040    2.413750
  H      8.735500   -3.602390   -1.285430
  H     11.129160   -4.329050   -1.181840
  H     11.852080   -5.869350    0.639950
  H      5.940480   -7.751980    3.413930
  H      8.458330   -8.875770    6.691790
  H      9.929490   -6.264150    3.943290
  H      5.018200   -8.952820    5.618550
  H      8.789480  -13.763850    7.678330

 Total Charge           Charge          ....    0
 Multiplicity           Mult            ....    1
 Number of Electrons    NEL             ....  438
 Basis Dimension        Dim             ....  931

ORBITAL ENERGIES
----------------

  NO   OCC          E(Eh)            E(eV)
   0   2.0000    -101.618865     -2765.1899
   1   2.0000    -101.612793     -2765.0247
   2   2.0000     -88.995653     -2421.6948
   3   2.0000     -88.990174     -2421.5457
   4   2.0000     -88.969331     -2420.9786
   5   2.0000     -19.333756      -526.0982
   6   2.0000     -19.228708      -523.2397
   7   2.0000     -19.224513      -523.1256
   8   2.0000     -19.221923      -523.0551
   9   2.0000     -19.219837      -522.9983
  10   2.0000     -14.422393      -392.4533
  11   2.0000     -14.419173      -392.3656
  12   2.0000     -14.418194      -392.3390
  13   2.0000     -14.416756      -392.2999
  14   2.0000     -14.406128      -392.0107
  15   2.0000     -10.378269      -282.4071
  16   2.0000     -10.378214      -282.4056
  17   2.0000     -10.377280      -282.3801
  18   2.0000     -10.374388      -282.3015
  19   2.0000     -10.373132      -282.2673
  20   2.0000     -10.369570      -282.1704
  21   2.0000     -10.368863      -282.1511
  22   2.0000     -10.352594      -281.7084
  23   2.0000     -10.351766      -281.6859
  24   2.0000     -10.350933      -281.6632
  25   2.0000     -10.345870      -281.5254
  26   2.0000     -10.343691      -281.4661
  27   2.0000     -10.331463      -281.1334
  28   2.0000     -10.327940      -281.0375
  29   2.0000     -10.327009      -281.0122
  30   2.0000     -10.325670      -280.9758
  31   2.0000     -10.324154      -280.9345
  32   2.0000     -10.322412      -280.8871
  33   2.0000     -10.321778      -280.8699
  34   2.0000     -10.321217      -280.8546
  35   2.0000     -10.320944      -280.8472
  36   2.0000     -10.319204      -280.7998
  37   2.0000     -10.315577      -280.7011
  38   2.0000     -10.313884      -280.6551
  39   2.0000     -10.310861      -280.5728
  40   2.0000     -10.309785      -280.5435
  41   2.0000     -10.307943      -280.4934
  42   2.0000     -10.307217      -280.4736
  43   2.0000     -10.306205      -280.4461
  44   2.0000     -10.304579      -280.4019
  45   2.0000     -10.304129      -280.3896
  46   2.0000     -10.302692      -280.3505
  47   2.0000     -10.299412      -280.2612
  48   2.0000     -10.297540      -280.2103
  49   2.0000     -10.296917      -280.1934
  50   2.0000     -10.295942      -280.1668
  51   2.0000     -10.295269      -280.1485
  52   2.0000     -10.295227      -280.1474
  53   2.0000     -10.294898      -280.1384
  54   2.0000     -10.294642      -280.1315
  55   2.0000     -10.294496      -280.1275
  56   2.0000     -10.276781      -279.6454
  57   2.0000     -10.275843      -279.6199
  58   2.0000     -10.270565      -279.4763
  59   2.0000      -9.573647      -260.5122
  60   2.0000      -9.567527      -260.3456
  61   2.0000      -8.091392      -220.1780
  62   2.0000      -8.085892      -220.0283
  63   2.0000      -8.064749      -219.4530
  64   2.0000      -7.344306      -199.8487
  65   2.0000      -7.338188      -199.6823
  66   2.0000      -7.333666      -199.5592
  67   2.0000      -7.333134      -199.5447
  68   2.0000      -7.327566      -199.3932
  69   2.0000      -7.326994      -199.3777
  70   2.0000      -6.060762      -164.9217
  71   2.0000      -6.056161      -164.7965
  72   2.0000      -6.055296      -164.7730
  73   2.0000      -6.053652      -164.7283
  74   2.0000      -6.050683      -164.6474
  75   2.0000      -6.048102      -164.5772
  76   2.0000      -6.034154      -164.1977
  77   2.0000      -6.029868      -164.0810
  78   2.0000      -6.026778      -163.9970
  79   2.0000      -1.244289       -33.8588
  80   2.0000      -1.154038       -31.4030
  81   2.0000      -1.139020       -30.9943
  82   2.0000      -1.137108       -30.9423
  83   2.0000      -1.127167       -30.6718
  84   2.0000      -1.044579       -28.4244
  85   2.0000      -1.039799       -28.2944
  86   2.0000      -1.035075       -28.1658
  87   2.0000      -1.018118       -27.7044
  88   2.0000      -1.015045       -27.6208
  89   2.0000      -1.011566       -27.5261
  90   2.0000      -0.998993       -27.1840
  91   2.0000      -0.996185       -27.1076
  92   2.0000      -0.990009       -26.9395
  93   2.0000      -0.988929       -26.9101
  94   2.0000      -0.984323       -26.7848
  95   2.0000      -0.957521       -26.0555
  96   2.0000      -0.951830       -25.9006
  97   2.0000      -0.939786       -25.5729
  98   2.0000      -0.925025       -25.1712
  99   2.0000      -0.924637       -25.1607
 100   2.0000      -0.911209       -24.7953
 101   2.0000      -0.906628       -24.6706
 102   2.0000      -0.899851       -24.4862
 103   2.0000      -0.891014       -24.2457
 104   2.0000      -0.876577       -23.8529
 105   2.0000      -0.858008       -23.3476
 106   2.0000      -0.850792       -23.1512
 107   2.0000      -0.834677       -22.7127
 108   2.0000      -0.830308       -22.5938
 109   2.0000      -0.828293       -22.5390
 110   2.0000      -0.812826       -22.1181
 111   2.0000      -0.811083       -22.0707
 112   2.0000      -0.801995       -21.8234
 113   2.0000      -0.787602       -21.4317
 114   2.0000      -0.773399       -21.0453
 115   2.0000      -0.756794       -20.5934
 116   2.0000      -0.751974       -20.4622
 117   2.0000      -0.748831       -20.3767
 118   2.0000      -0.727630       -19.7998
 119   2.0000      -0.721619       -19.6363
 120   2.0000      -0.717923       -19.5357
 121   2.0000      -0.712525       -19.3888
 122   2.0000      -0.696057       -18.9407
 123   2.0000      -0.691283       -18.8108
 124   2.0000      -0.678024       -18.4500
 125   2.0000      -0.675095       -18.3703
 126   2.0000      -0.674070       -18.3424
 127   2.0000      -0.670181       -18.2366
 128   2.0000      -0.657300       -17.8860
 129   2.0000      -0.647923       -17.6309
 130   2.0000      -0.628990       -17.1157
 131   2.0000      -0.623292       -16.9606
 132   2.0000      -0.621040       -16.8994
 133   2.0000      -0.614940       -16.7334
 134   2.0000      -0.613346       -16.6900
 135   2.0000      -0.607243       -16.5239
 136   2.0000      -0.604071       -16.4376
 137   2.0000      -0.598625       -16.2894
 138   2.0000      -0.595102       -16.1935
 139   2.0000      -0.589182       -16.0325
 140   2.0000      -0.585620       -15.9355
 141   2.0000      -0.581512       -15.8237
 142   2.0000      -0.572429       -15.5766
 143   2.0000      -0.571978       -15.5643
 144   2.0000      -0.563773       -15.3410
 145   2.0000      -0.560227       -15.2445
 146   2.0000      -0.555862       -15.1258
 147   2.0000      -0.550044       -14.9675
 148   2.0000      -0.548036       -14.9128
 149   2.0000      -0.544908       -14.8277
 150   2.0000      -0.540509       -14.7080
 151   2.0000      -0.534855       -14.5541
 152   2.0000      -0.533900       -14.5282
 153   2.0000      -0.531857       -14.4726
 154   2.0000      -0.527747       -14.3607
 155   2.0000      -0.526013       -14.3136
 156   2.0000      -0.523943       -14.2572
 157   2.0000      -0.520297       -14.1580
 158   2.0000      -0.519024       -14.1234
 159   2.0000      -0.513785       -13.9808
 160   2.0000      -0.512741       -13.9524
 161   2.0000      -0.507437       -13.8081
 162   2.0000      -0.505870       -13.7654
 163   2.0000      -0.502231       -13.6664
 164   2.0000      -0.501477       -13.6459
 165   2.0000      -0.499351       -13.5880
 166   2.0000      -0.495448       -13.4818
 167   2.0000      -0.494135       -13.4461
 168   2.0000      -0.493191       -13.4204
 169   2.0000      -0.491065       -13.3626
 170   2.0000      -0.488560       -13.2944
 171   2.0000      -0.484302       -13.1785
 172   2.0000      -0.482070       -13.1178
 173   2.0000      -0.479096       -13.0369
 174   2.0000      -0.476257       -12.9596
 175   2.0000      -0.467419       -12.7191
 176   2.0000      -0.464913       -12.6509
 177   2.0000      -0.457779       -12.4568
 178   2.0000      -0.454926       -12.3792
 179   2.0000      -0.453701       -12.3458
 180   2.0000      -0.451096       -12.2749
 181   2.0000      -0.448574       -12.2063
 182   2.0000      -0.448138       -12.1944
 183   2.0000      -0.446625       -12.1533
 184   2.0000      -0.445463       -12.1217
 185   2.0000      -0.444594       -12.0980
 186   2.0000      -0.443384       -12.0651
 187   2.0000      -0.440600       -11.9893
 188   2.0000      -0.436305       -11.8725
 189   2.0000      -0.433352       -11.7921
 190   2.0000      -0.430818       -11.7231
 191   2.0000      -0.430099       -11.7036
 192   2.0000      -0.429375       -11.6839
 193   2.0000      -0.428466       -11.6591
 194   2.0000      -0.425424       -11.5764
 195   2.0000      -0.421663       -11.4740
 196   2.0000      -0.416827       -11.3424
 197   2.0000      -0.415834       -11.3154
 198   2.0000      -0.410865       -11.1802
 199   2.0000      -0.407082       -11.0773
 200   2.0000      -0.404813       -11.0155
 201   2.0000      -0.398773       -10.8512
 202   2.0000      -0.380522       -10.3545
 203   2.0000      -0.377851       -10.2819
 204   2.0000      -0.368742       -10.0340
 205   2.0000      -0.361943        -9.8490
 206   2.0000      -0.350941        -9.5496
 207   2.0000      -0.346207        -9.4208
 208   2.0000      -0.337266        -9.1775
 209   2.0000      -0.334951        -9.1145
 210   2.0000      -0.333723        -9.0811
 211   2.0000      -0.332416        -9.0455
 212   2.0000      -0.323657        -8.8072
 213   2.0000      -0.317240        -8.6325
 214   2.0000      -0.307282        -8.3616
 215   2.0000      -0.305126        -8.3029
 216   2.0000      -0.302595        -8.2340
 217   2.0000      -0.288135        -7.8405
 218   2.0000      -0.256339        -6.9753
 219   0.0000      -0.093614        -2.5474
 220   0.0000      -0.092532        -2.5179
 221   0.0000      -0.058318        -1.5869
 222   0.0000      -0.054375        -1.4796
 223   0.0000      -0.049968        -1.3597

MULLIKEN ATOMIC CHARGES
-----------------------
   0 C :    0.037863
   1 C :   -0.132336
   2 S :    0.182632
   3 C :   -0.168245
   4 Cl:    0.007642
   5 C :    0.081445
   6 C :    0.152182
   7 O :   -0.150093
   8 C :   -0.136646
   9 C :    0.281927
  10 C :   -0.322733
  11 C :   -0.194379
  12 N :    0.154817
  13 C :   -0.204467
  14 N :    0.159457
  15 C :    0.014792
  16 C :   -0.172903
  17 S :    0.156840
  18 C :   -0.208907
  19 C :   -0.111980
  20 C :   -0.012900
  21 C :    0.245992
  22 C :   -0.018317
  23 O :   -0.120912
  24 C :   -0.020631
  25 O :   -0.124709
  26 C :    0.255643
  27 C :    0.018379
  28 C :   -0.154004
  29 C :    0.099308
  30 C :    0.007582
  31 C :    0.081290
  32 C :    0.013710
  33 C :    0.036066
  34 C :   -0.047729
  35 C :    0.184440
  36 O :   -0.139850
  37 C :    0.053587
  38 C :    0.001831
  39 C :   -0.010842
  40 C :    0.009485
  41 N :   -0.041352
  42 C :   -0.009040
  43 C :    0.038740
  44 C :   -0.128571
  45 C :    0.134606
  46 O :   -0.123410
  47 C :    0.086395
  48 C :   -0.170434
  49 S :    0.187817
  50 C :   -0.125512
  51 C :    0.014772
  52 C :    0.266017
  53 C :   -0.312053
  54 C :   -0.192542
  55 N :    0.156483
  56 C :   -0.179602
  57 N :    0.171578
  58 Cl:    0.001642
  59 H :    0.053050
  60 H :    0.030998
  61 H :    0.042234
  62 H :    0.023054
  63 H :    0.036876
  64 H :    0.011550
  65 H :    0.035978
  66 H :    0.033210
  67 H :    0.046977
  68 H :   -0.000745
  69 H :    0.018181
  70 H :    0.038994
  71 H :   -0.020931
  72 H :    0.004448
  73 H :   -0.003767
  74 H :    0.035682
  75 H :    0.054354
Sum of atomic charges:   -0.0000000

LOEWDIN ATOMIC CHARGES
----------------------
   0 C :   -0.059173
   1 C :   -0.148774
   2 S :    0.472190
   3 C :   -0.269844
   4 Cl:    0.199102
   5 C :   -0.115739
   6 C :    0.084213
   7 O :   -0.136518
   8 C :   -0.103212
   9 C :    0.073843
  10 C :   -0.142472
  11 C :   -0.016897
  12 N :   -0.054537
  13 C :   -0.025132
  14 N :   -0.052465
  15 C :    0.053974
  16 C :   -0.193129
  17 S :    0.441354
  18 C :   -0.130322
  19 C :   -0.070781
  20 C :   -0.011555
  21 C :   -0.048047
  22 C :    0.060141
  23 O :   -0.083655
  24 C :    0.059938
  25 O :   -0.086908
  26 C :   -0.043333
  27 C :   -0.122654
  28 C :    0.021492
  29 C :   -0.051790
  30 C :   -0.098940
  31 C :    0.058608
  32 C :   -0.030868
  33 C :    0.041101
  34 C :   -0.081585
  35 C :    0.095277
  36 O :    0.064051
  37 C :   -0.025016
  38 C :    0.027180
  39 C :   -0.064613
  40 C :    0.024139
  41 N :   -0.057907
  42 C :    0.036778
  43 C :    0.083409
  44 C :   -0.080874
  45 C :    0.081254
  46 O :   -0.128088
  47 C :   -0.118883
  48 C :   -0.271876
  49 S :    0.477501
  50 C :   -0.150841
  51 C :   -0.057850
  52 C :    0.067434
  53 C :   -0.127100
  54 C :   -0.015177
  55 N :   -0.048478
  56 C :   -0.018855
  57 N :   -0.041171
  58 Cl:    0.193312
  59 H :    0.037666
  60 H :    0.045358
  61 H :    0.056688
  62 H :    0.043282
  63 H :    0.047913
  64 H :    0.043291
  65 H :    0.040641
  66 H :    0.039716
  67 H :    0.037545
  68 H :    0.034295
  69 H :    0.043788
  70 H :    0.037939
  71 H :    0.033056
  72 H :    0.020235
  73 H :    0.019101
  74 H :    0.050170
  75 H :    0.038080

  Mayer bond orders larger than 0.100000
B(  0-C ,  1-C ) :   1.5458 B(  0-C ,  5-C ) :   1.2240 B(  0-C ,  9-C ) :   0.9998
B(  1-C ,  2-S ) :   1.1586 B(  1-C , 59-H ) :   0.9544 B(  2-S ,  3-C ) :   1.1474
B(  3-C ,  4-Cl) :   1.1359 B(  3-C ,  5-C ) :   1.4759 B(  5-C ,  6-C ) :   0.9563
B(  6-C ,  7-O ) :   2.1711 B(  6-C ,  8-C ) :   0.9534 B(  8-C ,  9-C ) :   1.0765
B(  8-C , 15-C ) :   1.6022 B(  9-C , 10-C ) :   1.6555 B( 10-C , 11-C ) :   1.1433
B( 10-C , 13-C ) :   1.1368 B( 11-C , 12-N ) :   2.9931 B( 13-C , 14-N ) :   2.9946
B( 15-C , 16-C ) :   1.1593 B( 15-C , 60-H ) :   0.9396 B( 16-C , 17-S ) :   1.0720
B( 16-C , 18-C ) :   0.1040 B( 16-C , 20-C ) :   1.5047 B( 17-S , 18-C ) :   1.1719
B( 18-C , 19-C ) :   1.5556 B( 18-C , 27-C ) :   0.9918 B( 19-C , 20-C ) :   1.2732
B( 19-C , 26-C ) :   1.0331 B( 20-C , 21-C ) :   1.0478 B( 21-C , 22-C ) :   0.9599
B( 21-C , 61-H ) :   0.8660 B( 21-C , 62-H ) :   0.8878 B( 22-C , 23-O ) :   2.2572
B( 22-C , 24-C ) :   0.8082 B( 24-C , 25-O ) :   2.2356 B( 24-C , 26-C ) :   0.9947
B( 26-C , 63-H ) :   0.8857 B( 26-C , 64-H ) :   0.8837 B( 27-C , 28-C ) :   1.5098
B( 27-C , 32-C ) :   1.1583 B( 28-C , 29-C ) :   1.1230 B( 28-C , 30-C ) :   1.2307
B( 29-C , 65-H ) :   0.9361 B( 29-C , 66-H ) :   0.9350 B( 29-C , 67-H ) :   0.9213
B( 30-C , 31-C ) :   1.4941 B( 30-C , 37-C ) :   0.9521 B( 31-C , 32-C ) :   1.0737
B( 31-C , 36-O ) :   1.1344 B( 32-C , 33-C ) :   1.5050 B( 33-C , 34-C ) :   1.2231
B( 33-C , 68-H ) :   0.9789 B( 34-C , 35-C ) :   1.5707 B( 34-C , 69-H ) :   0.9678
B( 35-C , 36-O ) :   1.1854 B( 35-C , 70-H ) :   0.9816 B( 37-C , 38-C ) :   1.3811
B( 37-C , 42-C ) :   1.3382 B( 38-C , 39-C ) :   1.3645 B( 38-C , 71-H ) :   0.9973
B( 39-C , 40-C ) :   1.3237 B( 39-C , 43-C ) :   0.9906 B( 40-C , 41-N ) :   1.5733
B( 40-C , 72-H ) :   0.9846 B( 41-N , 42-C ) :   1.5569 B( 42-C , 73-H ) :   0.9856
B( 43-C , 44-C ) :   1.7710 B( 43-C , 74-H ) :   0.9456 B( 44-C , 45-C ) :   0.9262
B( 44-C , 52-C ) :   1.0079 B( 45-C , 46-O ) :   2.2909 B( 45-C , 47-C ) :   0.9227
B( 47-C , 48-C ) :   1.4826 B( 47-C , 51-C ) :   1.2211 B( 48-C , 49-S ) :   1.1537
B( 48-C , 58-Cl) :   1.1299 B( 49-S , 50-C ) :   1.1611 B( 50-C , 51-C ) :   1.5510
B( 50-C , 75-H ) :   0.9554 B( 51-C , 52-C ) :   1.0138 B( 52-C , 53-C ) :   1.6919
B( 53-C , 54-C ) :   1.1345 B( 53-C , 56-C ) :   1.1498 B( 54-C , 55-N ) :   3.0006
B( 56-C , 57-N ) :   2.9924

-----------------------------------------------------------------------------
         ABSORPTION SPECTRUM VIA TRANSITION ELECTRIC DIPOLE MOMENTS
-----------------------------------------------------------------------------
State   Energy  Wavelength   fosc         T2         TX        TY        TZ
        (cm-1)    (nm)                  (au**2)     (au)      (au)      (au)
-----------------------------------------------------------------------------
   0   19237.1    519.8   0.842474152  14.41761  -2.05479   3.01108  -1.06247
   1   21244.1    470.7   0.010991379   0.17033  -0.14037  -0.38391  -0.05693
   2   21903.2    456.6   0.018397944   0.27653   0.03486   0.51841  -0.08100
   3   25176.5    397.2   0.023983181   0.31361   0.49303   0.07367   0.25516
   4   26203.3    381.6   0.017129122   0.21521   0.13610  -0.32167   0.30531
   5   27176.3    368.0   0.026227512   0.31772  -0.50513  -0.18681   0.16633
   6   27430.4    364.6   0.179127013   2.14983   0.05316   1.44788  -0.22507
   7   27921.3    358.1   0.011628216   0.13710   0.29449  -0.14816   0.16861
   8   28880.3    346.3   0.004281736   0.04881   0.05927  -0.19924  -0.07482
   9   29343.1    340.8   0.038704673   0.43424   0.12156  -0.54517   0.34966
  10   29505.5    338.9   0.039337346   0.43891   0.32699   0.32416  -0.47636
  11   29530.3    338.6   0.019919763   0.22207  -0.45126   0.10407   0.08720
  12   30350.8    329.5   0.013396861   0.14531   0.20425  -0.11031  -0.30237
  13   30639.3    326.4   0.024331674   0.26144  -0.02220  -0.32898   0.39079
  14   31376.8    318.7   0.101007165   1.05979  -0.29429   0.86072  -0.48201
  15   31971.0    312.8   0.123793414   1.27472   0.43208  -1.03295   0.14506
  16   32174.5    310.8   0.081815001   0.83714   0.45712   0.63290  -0.47709
  17   33024.1    302.8   0.057515896   0.57337   0.62710   0.01276  -0.42420
  18   33421.5    299.2   0.115648994   1.13918  -0.87712   0.46895   0.38720
  19   33982.5    294.3   0.016760021   0.16237  -0.29764   0.03061   0.26989
  20   34074.4    293.5   0.105113138   1.01556   0.37804   0.57157  -0.73889
  21   34964.8    286.0   0.025622954   0.24125   0.39132  -0.02014  -0.29617
  22   35376.5    282.7   0.000186692   0.00174  -0.00712  -0.03669   0.01846
  23   35770.6    279.6   0.128076843   1.17874  -0.07809   0.33631  -1.02934
  24   35985.7    277.9   0.004929657   0.04510   0.09951   0.02873  -0.18539
  25   36353.8    275.1   0.338825039   3.06832   1.01198   0.74646  -1.21944
  26   36460.5    274.3   0.196924558   1.77809   0.24074  -1.01178   0.83453
  27   36496.2    274.0   0.140560871   1.26792  -0.89947   0.65611   0.16852
  28   36606.2    273.2   0.017856536   0.16059   0.20625  -0.05608  -0.33898
  29   37198.6    268.8   0.236905484   2.09664  -0.77227  -0.67155   1.02433
  30   37301.9    268.1   1.313401353  11.59157   2.12180   1.07165  -2.43744
  31   37558.1    266.3   0.217491598   1.90640   0.96467   0.58651  -0.79487
  32   37905.1    263.8   0.033351539   0.28966   0.48568  -0.21661   0.08285
  33   38570.6    259.3   0.124568755   1.06323   0.50205   0.52605  -0.73106
  34   38925.4    256.9   0.012751713   0.10785   0.24435  -0.19944   0.09147
  35   39020.9    256.3   0.047025987   0.39675   0.52875  -0.02394  -0.34147
  36   39126.3    255.6   0.048032184   0.40415   0.43963   0.14282  -0.43644
  37   39640.2    252.3   0.054180557   0.44997  -0.26011   0.14499   0.60107
  38   39885.2    250.7   0.005031747   0.04153  -0.12163  -0.12504   0.10537
  39   40231.1    248.6   0.005684110   0.04651  -0.10533  -0.17920  -0.05748

FINAL SINGLE POINT ENERGY     -4448.032130416145

DIPOLE MOMENT
-------------
                                X             Y             Z
Electronic contribution:    -24.17601      -5.89134      23.22031
Nuclear contribution   :     25.35784       5.04451     -22.58257
                        -----------------------------------------
Total Dipole Moment    :      1.18183      -0.84682       0.63775
                        -----------------------------------------
Magnitude (a.u.)       :      1.58762
Magnitude (Debye)      :      4.03542

Rotational constants in cm-1:     0.002296     0.000447     0.000390
Rotational constants in MHz :    68.831587    13.387826    11.700895

                             ****ORCA TERMINATED NORMALLY****
TOTAL RUN TIME: 0 days 0 hours 6 minutes 51 seconds 82 msec
