                         Program Version 4.2.0 -  RELEASE  -
|  1> # ORCA input file
|  2> # SCF done       -174.241203481281          0.000927229682
|  3> ! CAM-B3LYP def2-SVP def2/J RIJCOSX Grid4 TightSCF
|  4> %maxcore 5000
|  5> %tddft
|  6>     Mode sTDDFT
|  7>     Ethresh 5.0
|  8>     maxcore 5000
|  9> end
| 10>
| 11> %pal
| 12>   nprocs 6
| 13>   end
| 14> * xyz 0 1
| 15>    C        0.70550         0.38804        -4.14180
| 16>    C       -0.45763         1.08203        -4.28045
| 17>    S       -1.76661         0.26825        -3.50682
| 18>    C       -0.73091        -1.04072        -2.98548
| 19>   Cl       -1.33573        -2.34269        -2.08815
| 20>    C        0.54978        -0.82591        -3.39912
| 21>    C        1.83694        -1.51962        -3.29134
| 22>    O        2.04696        -2.60178        -2.79698
| 23>    C        2.81018        -0.63109        -4.01114
| 24>    C        2.09018         0.52197        -4.54477
| 25>    C        2.57828         1.57156        -5.27429
| 26>    C        1.73444         2.62239        -5.69788
| 27>    N        1.06854         3.48799        -6.04880
| 28>    C        3.89971         1.76550        -5.71682
| 29>    N        4.93461         2.02064        -6.14452
| 30>    C        4.10996        -0.92837        -4.25436
| 31>    C        4.85967        -2.03080        -3.69891
| 32>    C        4.71313        -2.46309        -2.38282
| 33>    C        5.40358        -3.57212        -1.92302
| 34>    N        5.14225        -3.97106        -0.56343
| 35>    O        4.77884        -3.10814         0.20681
| 36>    O        5.29263        -5.13767        -0.26562
| 37>    C        6.28387        -4.29544        -2.75074
| 38>    C        6.48311        -3.78885        -4.04477
| 39>    C        5.79971        -2.68974        -4.50621
| 40>    C        7.02006        -5.45705        -2.30670
| 41>    C        7.39675        -6.43595        -3.14949
| 42>    C        8.14205        -7.59775        -2.78151
| 43>    S        8.28246        -8.12317        -1.13086
| 44>    C        9.13368        -9.53773        -1.58889
| 45>    C        9.32886        -9.61598        -2.93790
| 46>    C        8.77561        -8.49673        -3.62487
| 47>    N        8.88526        -8.38226        -5.00590
| 48>    C        9.07017        -9.64911        -5.67084
| 49>    C       10.26942       -10.37141        -5.04349
| 50>    N       10.02885       -10.61823        -3.63110
| 51>    C       10.40688       -11.78459        -2.99510
| 52>    O        9.99137       -12.12065        -1.92426
| 53>    O       11.29406       -12.54615        -3.66338
| 54>    C        8.94453        -7.18125        -5.61946
| 55>    C        8.83967        -6.90308        -6.94230
| 56>    C        8.85356        -5.54600        -7.35502
| 57>    S        8.74401        -5.04248        -9.03336
| 58>    C        8.78912        -3.38764        -8.40291
| 59>    N        8.87471        -3.36207        -7.10527
| 60>    N        8.90792        -4.52800        -6.53032
| 61>    C        8.72055        -2.24143        -9.23581
| 62>    C        8.76996        -0.98891        -8.71935
| 63>    C        8.70718         0.18738        -9.50292
| 64>    C        8.60588         1.46192        -9.03315
| 65>    C        8.95678         2.61688        -9.91548
| 66>    O        9.08824         2.59322       -11.11568
| 67>    C        9.15751         3.73448        -8.98290
| 68>    C        9.54830         5.03800        -9.04997
| 69>    S        9.54624         5.76242        -7.45837
| 70>    C        9.00558         4.29733        -6.72216
| 71>    C        8.84707         3.31414        -7.64645
| 72>    C        8.37642         1.94314        -7.68391
| 73>    C        7.68489         1.32329        -6.67835
| 74>    C        7.59165         1.88113        -5.38526
| 75>    N        7.56532         2.28770        -4.31294
| 76>    C        6.91239         0.15976        -6.84690
| 77>    N        6.20862        -0.74291        -6.94418
| 78>   Cl        9.99115         5.92822       -10.42157
| 79>    H       -0.64129         2.01075        -4.78299
| 80>    H        4.64994        -0.33079        -4.98000
| 81>    H        4.07019        -1.94152        -1.69160
| 82>    H        7.21856        -4.25129        -4.68553
| 83>    H        5.97331        -2.33246        -5.51075
| 84>    H        7.26278        -5.54538        -1.25700
| 85>    H        7.08454        -6.39064        -4.18449
| 86>    H        9.44133       -10.23928        -0.84248
| 87>    H        8.17174       -10.26516        -5.55223
| 88>    H        9.25990        -9.48907        -6.73090
| 89>    H       11.16671        -9.75032        -5.17855
| 90>    H       10.39901       -11.32151        -5.56826
| 91>    H       11.77219       -12.08322        -4.36129
| 92>    H        9.08431        -6.34142        -4.95396
| 93>    H        8.70323        -7.65132        -7.70604
| 94>    H        8.59479        -2.40439       -10.29679
| 95>    H        8.89426        -0.89935        -7.64985
| 96>    H        8.82600         0.08602       -10.57632
| 97>    H        8.84821         4.26390        -5.66232
| 98> *
| 99>
|100>                          ****END OF INPUT****

CARTESIAN COORDINATES (ANGSTROEM)
---------------------------------
  C      0.705500    0.388040   -4.141800
  C     -0.457630    1.082030   -4.280450
  S     -1.766610    0.268250   -3.506820
  C     -0.730910   -1.040720   -2.985480
  Cl    -1.335730   -2.342690   -2.088150
  C      0.549780   -0.825910   -3.399120
  C      1.836940   -1.519620   -3.291340
  O      2.046960   -2.601780   -2.796980
  C      2.810180   -0.631090   -4.011140
  C      2.090180    0.521970   -4.544770
  C      2.578280    1.571560   -5.274290
  C      1.734440    2.622390   -5.697880
  N      1.068540    3.487990   -6.048800
  C      3.899710    1.765500   -5.716820
  N      4.934610    2.020640   -6.144520
  C      4.109960   -0.928370   -4.254360
  C      4.859670   -2.030800   -3.698910
  C      4.713130   -2.463090   -2.382820
  C      5.403580   -3.572120   -1.923020
  N      5.142250   -3.971060   -0.563430
  O      4.778840   -3.108140    0.206810
  O      5.292630   -5.137670   -0.265620
  C      6.283870   -4.295440   -2.750740
  C      6.483110   -3.788850   -4.044770
  C      5.799710   -2.689740   -4.506210
  C      7.020060   -5.457050   -2.306700
  C      7.396750   -6.435950   -3.149490
  C      8.142050   -7.597750   -2.781510
  S      8.282460   -8.123170   -1.130860
  C      9.133680   -9.537730   -1.588890
  C      9.328860   -9.615980   -2.937900
  C      8.775610   -8.496730   -3.624870
  N      8.885260   -8.382260   -5.005900
  C      9.070170   -9.649110   -5.670840
  C     10.269420  -10.371410   -5.043490
  N     10.028850  -10.618230   -3.631100
  C     10.406880  -11.784590   -2.995100
  O      9.991370  -12.120650   -1.924260
  O     11.294060  -12.546150   -3.663380
  C      8.944530   -7.181250   -5.619460
  C      8.839670   -6.903080   -6.942300
  C      8.853560   -5.546000   -7.355020
  S      8.744010   -5.042480   -9.033360
  C      8.789120   -3.387640   -8.402910
  N      8.874710   -3.362070   -7.105270
  N      8.907920   -4.528000   -6.530320
  C      8.720550   -2.241430   -9.235810
  C      8.769960   -0.988910   -8.719350
  C      8.707180    0.187380   -9.502920
  C      8.605880    1.461920   -9.033150
  C      8.956780    2.616880   -9.915480
  O      9.088240    2.593220  -11.115680
  C      9.157510    3.734480   -8.982900
  C      9.548300    5.038000   -9.049970
  S      9.546240    5.762420   -7.458370
  C      9.005580    4.297330   -6.722160
  C      8.847070    3.314140   -7.646450
  C      8.376420    1.943140   -7.683910
  C      7.684890    1.323290   -6.678350
  C      7.591650    1.881130   -5.385260
  N      7.565320    2.287700   -4.312940
  C      6.912390    0.159760   -6.846900
  N      6.208620   -0.742910   -6.944180
  Cl     9.991150    5.928220  -10.421570
  H     -0.641290    2.010750   -4.782990
  H      4.649940   -0.330790   -4.980000
  H      4.070190   -1.941520   -1.691600
  H      7.218560   -4.251290   -4.685530
  H      5.973310   -2.332460   -5.510750
  H      7.262780   -5.545380   -1.257000
  H      7.084540   -6.390640   -4.184490
  H      9.441330  -10.239280   -0.842480
  H      8.171740  -10.265160   -5.552230
  H      9.259900   -9.489070   -6.730900
  H     11.166710   -9.750320   -5.178550
  H     10.399010  -11.321510   -5.568260
  H     11.772190  -12.083220   -4.361290
  H      9.084310   -6.341420   -4.953960
  H      8.703230   -7.651320   -7.706040
  H      8.594790   -2.404390  -10.296790
  H      8.894260   -0.899350   -7.649850
  H      8.826000    0.086020  -10.576320
  H      8.848210    4.263900   -5.662320

 Total Charge           Charge          ....    0
 Multiplicity           Mult            ....    1
 Number of Electrons    NEL             ....  486
 Basis Dimension        Dim             .... 1015

ORBITAL ENERGIES
----------------

  NO   OCC          E(Eh)            E(eV)
   0   2.0000    -101.613525     -2765.0446
   1   2.0000    -101.612497     -2765.0166
   2   2.0000     -88.990711     -2421.5604
   3   2.0000     -88.987439     -2421.4713
   4   2.0000     -88.977742     -2421.2074
   5   2.0000     -88.959116     -2420.7006
   6   2.0000     -19.273928      -524.4702
   7   2.0000     -19.233586      -523.3725
   8   2.0000     -19.231681      -523.3207
   9   2.0000     -19.216678      -522.9124
  10   2.0000     -19.214697      -522.8585
  11   2.0000     -19.198360      -522.4139
  12   2.0000     -14.638230      -398.3265
  13   2.0000     -14.484752      -394.1501
  14   2.0000     -14.474670      -393.8758
  15   2.0000     -14.447071      -393.1248
  16   2.0000     -14.438746      -392.8983
  17   2.0000     -14.421195      -392.4207
  18   2.0000     -14.418342      -392.3430
  19   2.0000     -14.417049      -392.3079
  20   2.0000     -14.410804      -392.1379
  21   2.0000     -10.436068      -283.9798
  22   2.0000     -10.374541      -282.3056
  23   2.0000     -10.372600      -282.2528
  24   2.0000     -10.371160      -282.2136
  25   2.0000     -10.370691      -282.2008
  26   2.0000     -10.353328      -281.7284
  27   2.0000     -10.352908      -281.7170
  28   2.0000     -10.348481      -281.5965
  29   2.0000     -10.346582      -281.5448
  30   2.0000     -10.344467      -281.4873
  31   2.0000     -10.343163      -281.4518
  32   2.0000     -10.342936      -281.4456
  33   2.0000     -10.342877      -281.4440
  34   2.0000     -10.342087      -281.4225
  35   2.0000     -10.330370      -281.1037
  36   2.0000     -10.328763      -281.0599
  37   2.0000     -10.326814      -281.0069
  38   2.0000     -10.325308      -280.9659
  39   2.0000     -10.324597      -280.9466
  40   2.0000     -10.322960      -280.9020
  41   2.0000     -10.319602      -280.8106
  42   2.0000     -10.319475      -280.8072
  43   2.0000     -10.317119      -280.7431
  44   2.0000     -10.315937      -280.7109
  45   2.0000     -10.314052      -280.6596
  46   2.0000     -10.313250      -280.6378
  47   2.0000     -10.309468      -280.5349
  48   2.0000     -10.308334      -280.5040
  49   2.0000     -10.307046      -280.4690
  50   2.0000     -10.305228      -280.4195
  51   2.0000     -10.302061      -280.3333
  52   2.0000     -10.300889      -280.3014
  53   2.0000     -10.296800      -280.1902
  54   2.0000     -10.296058      -280.1700
  55   2.0000     -10.295029      -280.1420
  56   2.0000     -10.293904      -280.1114
  57   2.0000     -10.291808      -280.0543
  58   2.0000     -10.290898      -280.0296
  59   2.0000     -10.290062      -280.0068
  60   2.0000     -10.288116      -279.9539
  61   2.0000     -10.280777      -279.7542
  62   2.0000     -10.280137      -279.7368
  63   2.0000     -10.274440      -279.5817
  64   2.0000      -9.568324      -260.3673
  65   2.0000      -9.567300      -260.3395
  66   2.0000      -8.086450      -220.0435
  67   2.0000      -8.083194      -219.9549
  68   2.0000      -8.074281      -219.7124
  69   2.0000      -8.054747      -219.1808
  70   2.0000      -7.338969      -199.7035
  71   2.0000      -7.337939      -199.6755
  72   2.0000      -7.328351      -199.4146
  73   2.0000      -7.327808      -199.3998
  74   2.0000      -7.327331      -199.3868
  75   2.0000      -7.326802      -199.3724
  76   2.0000      -6.055814      -164.7871
  77   2.0000      -6.052573      -164.6989
  78   2.0000      -6.051209      -164.6618
  79   2.0000      -6.048728      -164.5943
  80   2.0000      -6.048005      -164.5746
  81   2.0000      -6.045406      -164.5039
  82   2.0000      -6.043054      -164.4399
  83   2.0000      -6.039770      -164.3505
  84   2.0000      -6.036336      -164.2571
  85   2.0000      -6.024087      -163.9237
  86   2.0000      -6.019885      -163.8094
  87   2.0000      -6.016763      -163.7245
  88   2.0000      -1.313952       -35.7544
  89   2.0000      -1.206203       -32.8225
  90   2.0000      -1.146871       -31.2079
  91   2.0000      -1.134907       -30.8824
  92   2.0000      -1.132275       -30.8108
  93   2.0000      -1.131226       -30.7822
  94   2.0000      -1.114806       -30.3354
  95   2.0000      -1.107701       -30.1421
  96   2.0000      -1.055745       -28.7283
  97   2.0000      -1.034962       -28.1628
  98   2.0000      -1.032563       -28.0975
  99   2.0000      -1.017907       -27.6987
 100   2.0000      -1.012803       -27.5598
 101   2.0000      -0.997679       -27.1482
 102   2.0000      -0.993795       -27.0425
 103   2.0000      -0.987570       -26.8731
 104   2.0000      -0.985680       -26.8217
 105   2.0000      -0.983193       -26.7540
 106   2.0000      -0.979378       -26.6502
 107   2.0000      -0.958382       -26.0789
 108   2.0000      -0.951279       -25.8856
 109   2.0000      -0.949052       -25.8250
 110   2.0000      -0.932956       -25.3870
 111   2.0000      -0.919054       -25.0087
 112   2.0000      -0.907532       -24.6952
 113   2.0000      -0.903269       -24.5792
 114   2.0000      -0.898069       -24.4377
 115   2.0000      -0.897179       -24.4135
 116   2.0000      -0.893387       -24.3103
 117   2.0000      -0.874530       -23.7972
 118   2.0000      -0.871538       -23.7158
 119   2.0000      -0.848832       -23.0979
 120   2.0000      -0.847016       -23.0485
 121   2.0000      -0.829869       -22.5819
 122   2.0000      -0.827118       -22.5070
 123   2.0000      -0.820067       -22.3152
 124   2.0000      -0.814164       -22.1545
 125   2.0000      -0.786888       -21.4123
 126   2.0000      -0.784191       -21.3389
 127   2.0000      -0.779715       -21.2171
 128   2.0000      -0.768137       -20.9021
 129   2.0000      -0.752813       -20.4851
 130   2.0000      -0.751712       -20.4551
 131   2.0000      -0.740622       -20.1533
 132   2.0000      -0.730878       -19.8882
 133   2.0000      -0.723889       -19.6980
 134   2.0000      -0.718744       -19.5580
 135   2.0000      -0.711494       -19.3607
 136   2.0000      -0.695081       -18.9141
 137   2.0000      -0.690266       -18.7831
 138   2.0000      -0.688612       -18.7381
 139   2.0000      -0.679756       -18.4971
 140   2.0000      -0.674513       -18.3544
 141   2.0000      -0.670413       -18.2429
 142   2.0000      -0.665756       -18.1161
 143   2.0000      -0.659806       -17.9542
 144   2.0000      -0.647714       -17.6252
 145   2.0000      -0.644365       -17.5341
 146   2.0000      -0.635537       -17.2938
 147   2.0000      -0.627044       -17.0627
 148   2.0000      -0.626723       -17.0540
 149   2.0000      -0.621607       -16.9148
 150   2.0000      -0.618681       -16.8352
 151   2.0000      -0.612768       -16.6743
 152   2.0000      -0.609248       -16.5785
 153   2.0000      -0.604120       -16.4390
 154   2.0000      -0.602428       -16.3929
 155   2.0000      -0.598447       -16.2846
 156   2.0000      -0.595941       -16.2164
 157   2.0000      -0.589826       -16.0500
 158   2.0000      -0.582148       -15.8411
 159   2.0000      -0.577289       -15.7088
 160   2.0000      -0.566838       -15.4245
 161   2.0000      -0.566750       -15.4220
 162   2.0000      -0.561205       -15.2712
 163   2.0000      -0.557080       -15.1589
 164   2.0000      -0.548496       -14.9253
 165   2.0000      -0.546836       -14.8802
 166   2.0000      -0.544899       -14.8275
 167   2.0000      -0.540007       -14.6943
 168   2.0000      -0.539256       -14.6739
 169   2.0000      -0.536525       -14.5996
 170   2.0000      -0.529840       -14.4177
 171   2.0000      -0.529415       -14.4061
 172   2.0000      -0.527741       -14.3606
 173   2.0000      -0.524439       -14.2707
 174   2.0000      -0.523063       -14.2333
 175   2.0000      -0.521770       -14.1981
 176   2.0000      -0.519147       -14.1267
 177   2.0000      -0.515329       -14.0228
 178   2.0000      -0.514241       -13.9932
 179   2.0000      -0.509575       -13.8662
 180   2.0000      -0.507761       -13.8169
 181   2.0000      -0.505703       -13.7609
 182   2.0000      -0.503858       -13.7107
 183   2.0000      -0.500642       -13.6232
 184   2.0000      -0.496902       -13.5214
 185   2.0000      -0.493017       -13.4157
 186   2.0000      -0.490782       -13.3549
 187   2.0000      -0.488787       -13.3006
 188   2.0000      -0.487537       -13.2665
 189   2.0000      -0.484847       -13.1933
 190   2.0000      -0.483271       -13.1505
 191   2.0000      -0.481751       -13.1091
 192   2.0000      -0.477697       -12.9988
 193   2.0000      -0.475716       -12.9449
 194   2.0000      -0.468966       -12.7612
 195   2.0000      -0.465359       -12.6631
 196   2.0000      -0.460353       -12.5268
 197   2.0000      -0.458024       -12.4635
 198   2.0000      -0.454110       -12.3570
 199   2.0000      -0.451573       -12.2879
 200   2.0000      -0.449975       -12.2444
 201   2.0000      -0.448142       -12.1946
 202   2.0000      -0.444901       -12.1064
 203   2.0000      -0.440770       -11.9940
 204   2.0000      -0.440211       -11.9787
 205   2.0000      -0.439225       -11.9519
 206   2.0000      -0.438002       -11.9186
 207   2.0000      -0.435589       -11.8530
 208   2.0000      -0.432045       -11.7565
 209   2.0000      -0.430188       -11.7060
 210   2.0000      -0.427612       -11.6359
 211   2.0000      -0.422585       -11.4991
 212   2.0000      -0.420913       -11.4536
 213   2.0000      -0.418428       -11.3860
 214   2.0000      -0.413645       -11.2558
 215   2.0000      -0.410134       -11.1603
 216   2.0000      -0.409814       -11.1516
 217   2.0000      -0.402555       -10.9541
 218   2.0000      -0.399819       -10.8796
 219   2.0000      -0.398351       -10.8397
 220   2.0000      -0.397904       -10.8275
 221   2.0000      -0.396765       -10.7965
 222   2.0000      -0.386533       -10.5181
 223   2.0000      -0.383125       -10.4254
 224   2.0000      -0.375478       -10.2173
 225   2.0000      -0.371821       -10.1178
 226   2.0000      -0.370738       -10.0883
 227   2.0000      -0.365892        -9.9564
 228   2.0000      -0.360576        -9.8118
 229   2.0000      -0.356988        -9.7141
 230   2.0000      -0.345543        -9.4027
 231   2.0000      -0.339507        -9.2385
 232   2.0000      -0.336464        -9.1556
 233   2.0000      -0.332496        -9.0477
 234   2.0000      -0.331401        -9.0179
 235   2.0000      -0.328086        -8.9277
 236   2.0000      -0.326861        -8.8943
 237   2.0000      -0.315236        -8.5780
 238   2.0000      -0.309487        -8.4216
 239   2.0000      -0.300076        -8.1655
 240   2.0000      -0.295579        -8.0431
 241   2.0000      -0.271566        -7.3897
 242   2.0000      -0.253863        -6.9080
 243   0.0000      -0.098249        -2.6735
 244   0.0000      -0.090425        -2.4606
 245   0.0000      -0.051813        -1.4099
 246   0.0000      -0.049123        -1.3367
 247   0.0000      -0.041200        -1.1211

MULLIKEN ATOMIC CHARGES
-----------------------
   0 C :    0.025756
   1 C :   -0.127819
   2 S :    0.186698
   3 C :   -0.170678
   4 Cl:    0.001734
   5 C :    0.082172
   6 C :    0.135322
   7 O :   -0.123542
   8 C :   -0.089684
   9 C :    0.300288
  10 C :   -0.336523
  11 C :   -0.202591
  12 N :    0.152595
  13 C :   -0.149949
  14 N :    0.147029
  15 C :    0.001219
  16 C :    0.048495
  17 C :    0.030579
  18 C :    0.104988
  19 N :    0.248152
  20 O :   -0.234505
  21 O :   -0.238840
  22 C :    0.081621
  23 C :   -0.053722
  24 C :    0.047594
  25 C :   -0.012679
  26 C :   -0.028495
  27 C :   -0.198017
  28 S :    0.154828
  29 C :   -0.161367
  30 C :    0.172223
  31 C :    0.155444
  32 N :   -0.195177
  33 C :    0.144640
  34 C :    0.098797
  35 N :   -0.277192
  36 C :    0.224696
  37 O :   -0.205400
  38 O :   -0.176696
  39 C :    0.100750
  40 C :   -0.030479
  41 C :   -0.066077
  42 S :    0.092606
  43 C :   -0.110230
  44 N :   -0.031135
  45 N :   -0.098241
  46 C :    0.067523
  47 C :    0.016404
  48 C :    0.027704
  49 C :   -0.113151
  50 C :    0.142057
  51 O :   -0.130436
  52 C :    0.077928
  53 C :   -0.170349
  54 S :    0.181920
  55 C :   -0.126038
  56 C :    0.026939
  57 C :    0.261741
  58 C :   -0.291795
  59 C :   -0.197174
  60 N :    0.158999
  61 C :   -0.131719
  62 N :    0.121791
  63 Cl:   -0.004064
  64 H :    0.053564
  65 H :    0.023741
  66 H :    0.002874
  67 H :   -0.014626
  68 H :   -0.013616
  69 H :    0.016564
  70 H :    0.026883
  71 H :    0.045100
  72 H :    0.049238
  73 H :    0.039163
  74 H :    0.039370
  75 H :    0.032076
  76 H :    0.184619
  77 H :    0.074101
  78 H :   -0.018310
  79 H :    0.002708
  80 H :    0.046661
  81 H :    0.018190
  82 H :    0.054229
Sum of atomic charges:   -0.0000000

LOEWDIN ATOMIC CHARGES
----------------------
   0 C :   -0.060094
   1 C :   -0.148850
   2 S :    0.476339
   3 C :   -0.272507
   4 Cl:    0.193704
   5 C :   -0.115996
   6 C :    0.080696
   7 O :   -0.122487
   8 C :   -0.090268
   9 C :    0.079721
  10 C :   -0.137412
  11 C :   -0.013642
  12 N :   -0.054247
  13 C :   -0.001911
  14 N :   -0.039398
  15 C :    0.094892
  16 C :   -0.045724
  17 C :    0.046100
  18 C :   -0.034504
  19 N :    0.287071
  20 O :   -0.200678
  21 O :   -0.198120
  22 C :    0.011063
  23 C :   -0.015731
  24 C :    0.030806
  25 C :   -0.020056
  26 C :   -0.032809
  27 C :   -0.196134
  28 S :    0.470353
  29 C :   -0.190582
  30 C :   -0.027299
  31 C :   -0.032345
  32 N :    0.011613
  33 C :    0.052656
  34 C :    0.031271
  35 N :   -0.062031
  36 C :    0.085723
  37 O :   -0.173101
  38 O :   -0.036210
  39 C :    0.080369
  40 C :   -0.158579
  41 C :   -0.122805
  42 S :    0.375008
  43 C :   -0.165837
  44 N :   -0.057234
  45 N :   -0.107054
  46 C :   -0.007258
  47 C :   -0.004582
  48 C :    0.061961
  49 C :   -0.078964
  50 C :    0.079729
  51 O :   -0.135408
  52 C :   -0.117787
  53 C :   -0.272769
  54 S :    0.471630
  55 C :   -0.149984
  56 C :   -0.054348
  57 C :    0.069509
  58 C :   -0.125560
  59 C :   -0.017166
  60 N :   -0.054810
  61 C :    0.006937
  62 N :   -0.064120
  63 Cl:    0.189007
  64 H :    0.037339
  65 H :    0.046779
  66 H :    0.039064
  67 H :    0.030827
  68 H :    0.032837
  69 H :    0.025304
  70 H :    0.037277
  71 H :    0.031945
  72 H :    0.036868
  73 H :    0.037546
  74 H :    0.025253
  75 H :    0.031331
  76 H :    0.088009
  77 H :    0.045301
  78 H :    0.023998
  79 H :    0.036902
  80 H :    0.040186
  81 H :    0.045028
  82 H :    0.038449

  Mayer bond orders larger than 0.100000
B(  0-C ,  1-C ) :   1.5399 B(  0-C ,  5-C ) :   1.2211 B(  0-C ,  9-C ) :   1.0036
B(  1-C ,  2-S ) :   1.1664 B(  1-C , 64-H ) :   0.9524 B(  2-S ,  3-C ) :   1.1491
B(  3-C ,  4-Cl) :   1.1304 B(  3-C ,  5-C ) :   1.4768 B(  5-C ,  6-C ) :   0.9509
B(  6-C ,  7-O ) :   2.2464 B(  6-C ,  8-C ) :   0.9171 B(  8-C ,  9-C ) :   1.0575
B(  8-C , 15-C ) :   1.6805 B(  9-C , 10-C ) :   1.6521 B( 10-C , 11-C ) :   1.1452
B( 10-C , 13-C ) :   1.1444 B( 11-C , 12-N ) :   2.9910 B( 13-C , 14-N ) :   2.9259
B( 15-C , 16-C ) :   1.0674 B( 15-C , 65-H ) :   0.9435 B( 16-C , 17-C ) :   1.2997
B( 16-C , 24-C ) :   1.3069 B( 17-C , 18-C ) :   1.4102 B( 17-C , 66-H ) :   0.9758
B( 18-C , 19-N ) :   0.8802 B( 18-C , 22-C ) :   1.3251 B( 19-N , 20-O ) :   1.5573
B( 19-N , 21-O ) :   1.5185 B( 20-O , 21-O ) :   0.2620 B( 22-C , 23-C ) :   1.3293
B( 22-C , 25-C ) :   1.0688 B( 23-C , 24-C ) :   1.4060 B( 23-C , 67-H ) :   0.9839
B( 24-C , 68-H ) :   0.9788 B( 25-C , 26-C ) :   1.7233 B( 25-C , 69-H ) :   0.9523
B( 26-C , 27-C ) :   1.1248 B( 26-C , 70-H ) :   0.9665 B( 27-C , 28-S ) :   1.1414
B( 27-C , 31-C ) :   1.4673 B( 28-S , 29-C ) :   1.1407 B( 29-C , 30-C ) :   1.5465
B( 29-C , 71-H ) :   0.9614 B( 30-C , 31-C ) :   1.2554 B( 30-C , 35-N ) :   1.0150
B( 31-C , 32-N ) :   1.0399 B( 32-N , 33-C ) :   0.9703 B( 32-N , 39-C ) :   1.1813
B( 33-C , 34-C ) :   1.0854 B( 33-C , 72-H ) :   0.9411 B( 33-C , 73-H ) :   0.9396
B( 34-C , 35-N ) :   0.9626 B( 34-C , 74-H ) :   0.9406 B( 34-C , 75-H ) :   0.9377
B( 35-N , 36-C ) :   1.0566 B( 36-C , 37-O ) :   2.0899 B( 36-C , 38-O ) :   1.1867
B( 38-O , 76-H ) :   0.9529 B( 39-C , 40-C ) :   1.6123 B( 39-C , 77-H ) :   0.9464
B( 40-C , 41-C ) :   1.1611 B( 40-C , 78-H ) :   0.9462 B( 41-C , 42-S ) :   1.1074
B( 41-C , 45-N ) :   1.5987 B( 42-S , 43-C ) :   1.0519 B( 43-C , 44-N ) :   1.6827
B( 43-C , 46-C ) :   1.1031 B( 44-N , 45-N ) :   1.2342 B( 46-C , 47-C ) :   1.7057
B( 46-C , 79-H ) :   0.9620 B( 47-C , 48-C ) :   1.1101 B( 47-C , 80-H ) :   0.9510
B( 48-C , 49-C ) :   1.6379 B( 48-C , 81-H ) :   0.9605 B( 49-C , 50-C ) :   0.9348
B( 49-C , 57-C ) :   1.0367 B( 50-C , 51-O ) :   2.2800 B( 50-C , 52-C ) :   0.9274
B( 52-C , 53-C ) :   1.4858 B( 52-C , 56-C ) :   1.2206 B( 53-C , 54-S ) :   1.1516
B( 53-C , 63-Cl) :   1.1246 B( 54-S , 55-C ) :   1.1563 B( 55-C , 56-C ) :   1.5573
B( 55-C , 82-H ) :   0.9544 B( 56-C , 57-C ) :   1.0194 B( 57-C , 58-C ) :   1.6631
B( 58-C , 59-C ) :   1.1311 B( 58-C , 61-C ) :   1.1780 B( 59-C , 60-N ) :   3.0010
B( 61-C , 62-N ) :   2.8420

-----------------------------------------------------------------------------
         ABSORPTION SPECTRUM VIA TRANSITION ELECTRIC DIPOLE MOMENTS
-----------------------------------------------------------------------------
State   Energy  Wavelength   fosc         T2         TX        TY        TZ
        (cm-1)    (nm)                  (au**2)     (au)      (au)      (au)
-----------------------------------------------------------------------------
   0   18883.6    529.6   0.277928837   4.84535   0.57039   1.97172  -0.79520
   1   21691.4    461.0   0.847607710  12.86418  -1.74721   3.09999  -0.44884
   2   24102.4    414.9   0.294119613   4.01735  -0.60400   1.91111  -0.01444
   3   25265.1    395.8   0.146874761   1.91383   0.68572  -0.83443   0.86450
   4   27273.4    366.7   0.043039388   0.51952  -0.40836  -0.32945   0.49419
   5   27879.9    358.7   0.226414863   2.67355  -0.99541   0.75841   1.05239
   6   28260.1    353.9   0.013526159   0.15757  -0.17770   0.18370  -0.30372
   7   28339.9    352.9   0.126836190   1.47340   0.06098   0.45078  -1.12538
   8   28987.0    345.0   0.004458667   0.05064  -0.16691   0.11947  -0.09222
   9   29397.6    340.2   0.245239740   2.74634  -0.20088  -0.76873   1.45432
  10   29940.1    334.0   0.005290181   0.05817  -0.15245  -0.13819   0.12582
  11   30368.0    329.3   0.031017544   0.33625   0.00657  -0.56736  -0.11962
  12   30441.0    328.5   0.017474751   0.18898  -0.21171  -0.36198   0.11460
  13   30834.3    324.3   0.152756480   1.63095  -0.01971   1.26555  -0.17016
  14   31230.1    320.2   0.021589222   0.22758   0.31178   0.35243  -0.07852
  15   32133.3    311.2   0.163693429   1.67707   0.78993  -1.01206  -0.16978
  16   32588.4    306.9   0.115830636   1.17014  -0.14150   0.98306  -0.42860
  17   33111.5    302.0   0.050221257   0.49933   0.34180   0.49461   0.37129
  18   33368.0    299.7   0.225862463   2.22838  -0.20615  -1.42495   0.39421
  19   33946.7    294.6   0.063777336   0.61851   0.57064  -0.48113  -0.24778
  20   34499.3    289.9   0.092859878   0.88612   0.24276  -0.87526   0.24720
  21   34521.9    289.7   0.081456766   0.77680   0.82613  -0.23898   0.19284
  22   34736.2    287.9   0.019877439   0.18839   0.07801   0.30967   0.29395
  23   35388.0    282.6   0.189892300   1.76655  -1.08369  -0.52097   0.56635
  24   35547.6    281.3   0.077132076   0.71433  -0.12780   0.59201  -0.58952
  25   35761.9    279.6   0.124090333   1.14233  -0.22170  -0.85899   0.59609
  26   36093.8    277.1   0.192481143   1.75562  -0.26304   1.28001  -0.21911
  27   36207.4    276.2   0.215035924   1.95519   0.21621  -1.32721   0.38333
  28   36498.2    274.0   0.188124049   1.69687  -1.24510   0.35213   0.15031
  29   37148.2    269.2   0.027737863   0.24582  -0.25159   0.26379   0.33606
  30   37450.3    267.0   0.382654805   3.36378  -0.60601  -1.33903   1.09706
  31   37795.9    264.6   0.573159946   4.99237  -1.53006  -1.29585   0.98592
  32   37903.4    263.8   0.267452330   2.32297  -1.13795  -1.00754   0.11361
  33   38122.1    262.3   0.011644919   0.10056   0.19601  -0.20196  -0.14613
  34   38191.4    261.8   0.114153411   0.98401  -0.10144  -0.95004  -0.26674
  35   39057.5    256.0   0.051639896   0.43527   0.22146   0.16939   0.59794
  36   39461.4    253.4   0.000728410   0.00608   0.00912   0.02208   0.07420
  37   39679.3    252.0   0.010906695   0.09049   0.17840   0.00425  -0.24217
  38   39815.7    251.2   0.030936901   0.25580  -0.23101   0.44097   0.08933
  39   40005.4    250.0   0.163601912   1.34631  -0.30441   0.65564  -0.90763
  40   40132.3    249.2   0.001965046   0.01612   0.11215   0.05843   0.01126

FINAL SINGLE POINT ENERGY     -5103.061440077729

DIPOLE MOMENT
-------------
                                X             Y             Z
Electronic contribution:    -29.30879      57.57030      -2.45785
Nuclear contribution   :     30.90393     -59.38028      -0.44944
                        -----------------------------------------
Total Dipole Moment    :      1.59514      -1.80999      -2.90729
                        -----------------------------------------
Magnitude (a.u.)       :      3.77795
Magnitude (Debye)      :      9.60278

Rotational constants in cm-1:     0.000984     0.000595     0.000408
Rotational constants in MHz :    29.488216    17.844399    12.242523

                             ****ORCA TERMINATED NORMALLY****
TOTAL RUN TIME: 0 days 0 hours 7 minutes 11 seconds 549 msec
