                         Program Version 4.2.0 -  RELEASE  -
|  1> # ORCA input file
|  2> # SCF done       -185.119161990371          0.000919800246
|  3> ! CAM-B3LYP def2-SVP def2/J RIJCOSX Grid4 TightSCF
|  4> %maxcore 5000
|  5> %tddft
|  6>     Mode sTDDFT
|  7>     Ethresh 5.0
|  8>     maxcore 5000
|  9> end
| 10>
| 11> %pal
| 12>   nprocs 6
| 13>   end
| 14> * xyz 0 1
| 15>    C        1.36131         1.82980         0.84089
| 16>    C        0.51505         2.70087         1.45485
| 17>    S       -0.23926         1.97530         2.82614
| 18>    C        0.59957         0.46378         2.57030
| 19>   Cl        0.36346        -0.86167         3.59743
| 20>    C        1.41021         0.54726         1.47682
| 21>    C        2.33330        -0.33906         0.76153
| 22>    O        2.61247        -1.48419         1.02839
| 23>    C        2.90387         0.51693        -0.33185
| 24>    C        2.24608         1.82146        -0.30415
| 25>    C        2.36811         2.83818        -1.20957
| 26>    C        1.64773         4.04318        -1.05952
| 27>    N        1.06868         5.02688        -0.94915
| 28>    C        3.16435         2.80600        -2.37314
| 29>    N        3.78242         2.83820        -3.33959
| 30>    C        3.99210         0.20643        -1.07458
| 31>    C        4.64219        -1.08312        -1.14959
| 32>    C        6.03550        -1.13973        -1.17371
| 33>    C        6.69003        -2.35768        -1.19530
| 34>    N        8.12570        -2.33890        -1.05113
| 35>    O        8.70466        -1.33349        -1.39954
| 36>    O        8.65445        -3.30766        -0.54991
| 37>    C        5.98595        -3.57441        -1.26863
| 38>    C        4.58713        -3.49254        -1.29429
| 39>    C        3.92901        -2.28692        -1.22358
| 40>    C        6.66321        -4.84142        -1.39362
| 41>    C        6.20410        -5.99317        -0.85684
| 42>    C        6.91047        -7.22002        -0.99202
| 43>    N        6.55178        -8.38774        -0.35831
| 44>    C        5.37751        -8.60550         0.45070
| 45>    C        4.12284        -8.77608        -0.40258
| 46>    C        7.46639        -9.42400        -0.60923
| 47>    O        7.35044       -10.54698        -0.15396
| 48>    C        8.46019        -8.82388        -1.46826
| 49>    C        8.08048        -7.47787        -1.69899
| 50>    C        9.07397        -6.87745        -2.56410
| 51>    O        9.15506        -5.77483        -3.06496
| 52>    N       10.02074        -7.89640        -2.76434
| 53>    C       11.16896        -7.69471        -3.61548
| 54>    C       10.99023        -8.35274        -4.98110
| 55>    C        9.67061        -9.05928        -2.12074
| 56>    C       10.46507       -10.23069        -2.11843
| 57>    C       10.06892       -11.38175        -1.51586
| 58>    C       10.85155       -12.56003        -1.46987
| 59>    S       12.48257       -12.63052        -2.08361
| 60>    C       12.63700       -14.30260        -1.64472
| 61>    C       11.45413       -14.77543        -1.05343
| 62>    C       10.46936       -13.78409        -0.95580
| 63>    C       11.24586       -16.13879        -0.58016
| 64>    O       12.04890       -17.03841        -0.60299
| 65>    C       13.81698       -15.03257        -1.89583
| 66>    C       14.95934       -14.47673        -2.38821
| 67>    C       16.11240       -15.23726        -2.65960
| 68>    C       17.29728       -14.82126        -3.19721
| 69>    C       18.47776       -15.73318        -3.07775
| 70>    O       18.45405       -16.89600        -2.75267
| 71>    C       19.63308       -14.88596        -3.39362
| 72>    C       20.98979       -15.00431        -3.40510
| 73>    S       21.73126       -13.49607        -3.88785
| 74>    C       20.19578       -12.72948        -4.07645
| 75>    C       19.17919       -13.58252        -3.78032
| 76>    C       17.72474       -13.56318        -3.77653
| 77>    C       16.98548       -12.57625        -4.37763
| 78>    C       17.60485       -11.42544        -4.91163
| 79>    N       18.07840       -10.47106        -5.33797
| 80>    C       15.59996       -12.57703        -4.62829
| 81>    N       14.48818       -12.50171        -4.90697
| 82>   Cl       21.92506       -16.36463        -3.02524
| 83>    H        0.28507         3.71722         1.20344
| 84>    H        4.47320         0.99541        -1.64069
| 85>    H        6.62525        -0.23579        -1.12058
| 86>    H        4.01680        -4.40242        -1.39670
| 87>    H        2.85228        -2.26546        -1.26214
| 88>    H        7.59844        -4.85670        -1.93898
| 89>    H        5.31179        -5.99048        -0.24663
| 90>    H        5.25980        -7.77904         1.15728
| 91>    H        5.56517        -9.52454         1.01299
| 92>    H        3.93650        -7.89062        -1.00628
| 93>    H        3.26301        -8.95072         0.23819
| 94>    H        4.23950        -9.62810        -1.06774
| 95>    H       12.06595        -8.07287        -3.11714
| 96>    H       11.26448        -6.61228        -3.73778
| 97>    H       10.86471        -9.42883        -4.88496
| 98>    H       11.86327        -8.15866        -5.59751
| 99>    H       10.11473        -7.94360        -5.47945
|100>    H       11.42687       -10.19585        -2.61225
|101>    H        9.10004       -11.43227        -1.03525
|102>    H        9.49636       -13.94731        -0.52713
|103>    H       10.22821       -16.29551        -0.17463
|104>    H       13.77372       -16.09285        -1.68168
|105>    H       14.98362       -13.40955        -2.55564
|106>    H       16.09628       -16.27820        -2.35172
|107>    H       20.15895       -11.70326        -4.38331
|108> *
|109>
|110>                          ****END OF INPUT****

CARTESIAN COORDINATES (ANGSTROEM)
---------------------------------
  C      1.361310    1.829800    0.840890
  C      0.515050    2.700870    1.454850
  S     -0.239260    1.975300    2.826140
  C      0.599570    0.463780    2.570300
  Cl     0.363460   -0.861670    3.597430
  C      1.410210    0.547260    1.476820
  C      2.333300   -0.339060    0.761530
  O      2.612470   -1.484190    1.028390
  C      2.903870    0.516930   -0.331850
  C      2.246080    1.821460   -0.304150
  C      2.368110    2.838180   -1.209570
  C      1.647730    4.043180   -1.059520
  N      1.068680    5.026880   -0.949150
  C      3.164350    2.806000   -2.373140
  N      3.782420    2.838200   -3.339590
  C      3.992100    0.206430   -1.074580
  C      4.642190   -1.083120   -1.149590
  C      6.035500   -1.139730   -1.173710
  C      6.690030   -2.357680   -1.195300
  N      8.125700   -2.338900   -1.051130
  O      8.704660   -1.333490   -1.399540
  O      8.654450   -3.307660   -0.549910
  C      5.985950   -3.574410   -1.268630
  C      4.587130   -3.492540   -1.294290
  C      3.929010   -2.286920   -1.223580
  C      6.663210   -4.841420   -1.393620
  C      6.204100   -5.993170   -0.856840
  C      6.910470   -7.220020   -0.992020
  N      6.551780   -8.387740   -0.358310
  C      5.377510   -8.605500    0.450700
  C      4.122840   -8.776080   -0.402580
  C      7.466390   -9.424000   -0.609230
  O      7.350440  -10.546980   -0.153960
  C      8.460190   -8.823880   -1.468260
  C      8.080480   -7.477870   -1.698990
  C      9.073970   -6.877450   -2.564100
  O      9.155060   -5.774830   -3.064960
  N     10.020740   -7.896400   -2.764340
  C     11.168960   -7.694710   -3.615480
  C     10.990230   -8.352740   -4.981100
  C      9.670610   -9.059280   -2.120740
  C     10.465070  -10.230690   -2.118430
  C     10.068920  -11.381750   -1.515860
  C     10.851550  -12.560030   -1.469870
  S     12.482570  -12.630520   -2.083610
  C     12.637000  -14.302600   -1.644720
  C     11.454130  -14.775430   -1.053430
  C     10.469360  -13.784090   -0.955800
  C     11.245860  -16.138790   -0.580160
  O     12.048900  -17.038410   -0.602990
  C     13.816980  -15.032570   -1.895830
  C     14.959340  -14.476730   -2.388210
  C     16.112400  -15.237260   -2.659600
  C     17.297280  -14.821260   -3.197210
  C     18.477760  -15.733180   -3.077750
  O     18.454050  -16.896000   -2.752670
  C     19.633080  -14.885960   -3.393620
  C     20.989790  -15.004310   -3.405100
  S     21.731260  -13.496070   -3.887850
  C     20.195780  -12.729480   -4.076450
  C     19.179190  -13.582520   -3.780320
  C     17.724740  -13.563180   -3.776530
  C     16.985480  -12.576250   -4.377630
  C     17.604850  -11.425440   -4.911630
  N     18.078400  -10.471060   -5.337970
  C     15.599960  -12.577030   -4.628290
  N     14.488180  -12.501710   -4.906970
  Cl    21.925060  -16.364630   -3.025240
  H      0.285070    3.717220    1.203440
  H      4.473200    0.995410   -1.640690
  H      6.625250   -0.235790   -1.120580
  H      4.016800   -4.402420   -1.396700
  H      2.852280   -2.265460   -1.262140
  H      7.598440   -4.856700   -1.938980
  H      5.311790   -5.990480   -0.246630
  H      5.259800   -7.779040    1.157280
  H      5.565170   -9.524540    1.012990
  H      3.936500   -7.890620   -1.006280
  H      3.263010   -8.950720    0.238190
  H      4.239500   -9.628100   -1.067740
  H     12.065950   -8.072870   -3.117140
  H     11.264480   -6.612280   -3.737780
  H     10.864710   -9.428830   -4.884960
  H     11.863270   -8.158660   -5.597510
  H     10.114730   -7.943600   -5.479450
  H     11.426870  -10.195850   -2.612250
  H      9.100040  -11.432270   -1.035250
  H      9.496360  -13.947310   -0.527130
  H     10.228210  -16.295510   -0.174630
  H     13.773720  -16.092850   -1.681680
  H     14.983620  -13.409550   -2.555640
  H     16.096280  -16.278200   -2.351720
  H     20.158950  -11.703260   -4.383310

 Total Charge           Charge          ....    0
 Multiplicity           Mult            ....    1
 Number of Electrons    NEL             ....  506
 Basis Dimension        Dim             .... 1097

ORBITAL ENERGIES
----------------

  NO   OCC          E(Eh)            E(eV)
   0   2.0000    -101.626324     -2765.3929
   1   2.0000    -101.614604     -2765.0739
   2   2.0000     -89.002927     -2421.8928
   3   2.0000     -88.990499     -2421.5546
   4   2.0000     -88.979566     -2421.2571
   5   2.0000     -19.246293      -523.7183
   6   2.0000     -19.244162      -523.6603
   7   2.0000     -19.232887      -523.3534
   8   2.0000     -19.226012      -523.1664
   9   2.0000     -19.215341      -522.8760
  10   2.0000     -19.194470      -522.3081
  11   2.0000     -19.192452      -522.2532
  12   2.0000     -14.650871      -398.6705
  13   2.0000     -14.456752      -393.3882
  14   2.0000     -14.454937      -393.3388
  15   2.0000     -14.428687      -392.6245
  16   2.0000     -14.428580      -392.6216
  17   2.0000     -14.421141      -392.4192
  18   2.0000     -14.419914      -392.3858
  19   2.0000     -10.390541      -282.7410
  20   2.0000     -10.385741      -282.6104
  21   2.0000     -10.376742      -282.3655
  22   2.0000     -10.375319      -282.3268
  23   2.0000     -10.373237      -282.2701
  24   2.0000     -10.371501      -282.2229
  25   2.0000     -10.371009      -282.2095
  26   2.0000     -10.358516      -281.8695
  27   2.0000     -10.357727      -281.8481
  28   2.0000     -10.349965      -281.6369
  29   2.0000     -10.348296      -281.5915
  30   2.0000     -10.342311      -281.4286
  31   2.0000     -10.340269      -281.3730
  32   2.0000     -10.338738      -281.3314
  33   2.0000     -10.338532      -281.3258
  34   2.0000     -10.333527      -281.1896
  35   2.0000     -10.332676      -281.1664
  36   2.0000     -10.330262      -281.1007
  37   2.0000     -10.330167      -281.0981
  38   2.0000     -10.326845      -281.0077
  39   2.0000     -10.325625      -280.9745
  40   2.0000     -10.324215      -280.9362
  41   2.0000     -10.322260      -280.8830
  42   2.0000     -10.322042      -280.8770
  43   2.0000     -10.321565      -280.8641
  44   2.0000     -10.319726      -280.8140
  45   2.0000     -10.317590      -280.7559
  46   2.0000     -10.312933      -280.6292
  47   2.0000     -10.312860      -280.6272
  48   2.0000     -10.311883      -280.6006
  49   2.0000     -10.311346      -280.5860
  50   2.0000     -10.310918      -280.5743
  51   2.0000     -10.309714      -280.5416
  52   2.0000     -10.307302      -280.4759
  53   2.0000     -10.306832      -280.4632
  54   2.0000     -10.302227      -280.3378
  55   2.0000     -10.302210      -280.3374
  56   2.0000     -10.301445      -280.3166
  57   2.0000     -10.301432      -280.3162
  58   2.0000     -10.299818      -280.2723
  59   2.0000     -10.299019      -280.2506
  60   2.0000     -10.298331      -280.2318
  61   2.0000     -10.297230      -280.2019
  62   2.0000     -10.296758      -280.1890
  63   2.0000     -10.295793      -280.1628
  64   2.0000     -10.269734      -279.4537
  65   2.0000     -10.263428      -279.2821
  66   2.0000     -10.262911      -279.2680
  67   2.0000     -10.261096      -279.2186
  68   2.0000      -9.581084      -260.7146
  69   2.0000      -9.569388      -260.3963
  70   2.0000      -8.098697      -220.3767
  71   2.0000      -8.086233      -220.0376
  72   2.0000      -8.074815      -219.7269
  73   2.0000      -7.351721      -200.0505
  74   2.0000      -7.341122      -199.7621
  75   2.0000      -7.340580      -199.7473
  76   2.0000      -7.340040      -199.7326
  77   2.0000      -7.329413      -199.4435
  78   2.0000      -7.328881      -199.4290
  79   2.0000      -6.068063      -165.1204
  80   2.0000      -6.063438      -164.9945
  81   2.0000      -6.060960      -164.9271
  82   2.0000      -6.055643      -164.7824
  83   2.0000      -6.051020      -164.6566
  84   2.0000      -6.048445      -164.5865
  85   2.0000      -6.043781      -164.4596
  86   2.0000      -6.039788      -164.3510
  87   2.0000      -6.037362      -164.2850
  88   2.0000      -1.326854       -36.1055
  89   2.0000      -1.150498       -31.3066
  90   2.0000      -1.146088       -31.1867
  91   2.0000      -1.138992       -30.9936
  92   2.0000      -1.136124       -30.9155
  93   2.0000      -1.132427       -30.8149
  94   2.0000      -1.129423       -30.7332
  95   2.0000      -1.066459       -29.0198
  96   2.0000      -1.058286       -28.7974
  97   2.0000      -1.047742       -28.5105
  98   2.0000      -1.035729       -28.1836
  99   2.0000      -1.026096       -27.9215
 100   2.0000      -1.017732       -27.6939
 101   2.0000      -1.010101       -27.4863
 102   2.0000      -1.007042       -27.4030
 103   2.0000      -1.002509       -27.2797
 104   2.0000      -0.999100       -27.1869
 105   2.0000      -0.996125       -27.1059
 106   2.0000      -0.986225       -26.8366
 107   2.0000      -0.964619       -26.2486
 108   2.0000      -0.953399       -25.9433
 109   2.0000      -0.936501       -25.4835
 110   2.0000      -0.935215       -25.4485
 111   2.0000      -0.929604       -25.2958
 112   2.0000      -0.916798       -24.9473
 113   2.0000      -0.914555       -24.8863
 114   2.0000      -0.910579       -24.7781
 115   2.0000      -0.903932       -24.5972
 116   2.0000      -0.889593       -24.2071
 117   2.0000      -0.877498       -23.8779
 118   2.0000      -0.874076       -23.7848
 119   2.0000      -0.865276       -23.5454
 120   2.0000      -0.858797       -23.3691
 121   2.0000      -0.842001       -22.9120
 122   2.0000      -0.835385       -22.7320
 123   2.0000      -0.830285       -22.5932
 124   2.0000      -0.822477       -22.3807
 125   2.0000      -0.814704       -22.1692
 126   2.0000      -0.798076       -21.7168
 127   2.0000      -0.797482       -21.7006
 128   2.0000      -0.777878       -21.1671
 129   2.0000      -0.767281       -20.8788
 130   2.0000      -0.763688       -20.7810
 131   2.0000      -0.762758       -20.7557
 132   2.0000      -0.756264       -20.5790
 133   2.0000      -0.736072       -20.0295
 134   2.0000      -0.735101       -20.0031
 135   2.0000      -0.717477       -19.5235
 136   2.0000      -0.711242       -19.3539
 137   2.0000      -0.707103       -19.2412
 138   2.0000      -0.698784       -19.0149
 139   2.0000      -0.693833       -18.8802
 140   2.0000      -0.692347       -18.8397
 141   2.0000      -0.686235       -18.6734
 142   2.0000      -0.680416       -18.5151
 143   2.0000      -0.674743       -18.3607
 144   2.0000      -0.668780       -18.1984
 145   2.0000      -0.657911       -17.9027
 146   2.0000      -0.655156       -17.8277
 147   2.0000      -0.651665       -17.7327
 148   2.0000      -0.637869       -17.3573
 149   2.0000      -0.633575       -17.2404
 150   2.0000      -0.632087       -17.2000
 151   2.0000      -0.624409       -16.9910
 152   2.0000      -0.621295       -16.9063
 153   2.0000      -0.615563       -16.7503
 154   2.0000      -0.611850       -16.6493
 155   2.0000      -0.609398       -16.5826
 156   2.0000      -0.606723       -16.5098
 157   2.0000      -0.601777       -16.3752
 158   2.0000      -0.597846       -16.2682
 159   2.0000      -0.595668       -16.2089
 160   2.0000      -0.590642       -16.0722
 161   2.0000      -0.587079       -15.9752
 162   2.0000      -0.581454       -15.8222
 163   2.0000      -0.570846       -15.5335
 164   2.0000      -0.567851       -15.4520
 165   2.0000      -0.562620       -15.3097
 166   2.0000      -0.559838       -15.2340
 167   2.0000      -0.555293       -15.1103
 168   2.0000      -0.551631       -15.0106
 169   2.0000      -0.549410       -14.9502
 170   2.0000      -0.545054       -14.8317
 171   2.0000      -0.544457       -14.8154
 172   2.0000      -0.543678       -14.7942
 173   2.0000      -0.541235       -14.7278
 174   2.0000      -0.538275       -14.6472
 175   2.0000      -0.533972       -14.5301
 176   2.0000      -0.533222       -14.5097
 177   2.0000      -0.531095       -14.4518
 178   2.0000      -0.527535       -14.3550
 179   2.0000      -0.525555       -14.3011
 180   2.0000      -0.521786       -14.1985
 181   2.0000      -0.520429       -14.1616
 182   2.0000      -0.519081       -14.1249
 183   2.0000      -0.517778       -14.0895
 184   2.0000      -0.515606       -14.0303
 185   2.0000      -0.514177       -13.9915
 186   2.0000      -0.510673       -13.8961
 187   2.0000      -0.505775       -13.7628
 188   2.0000      -0.504963       -13.7407
 189   2.0000      -0.502221       -13.6661
 190   2.0000      -0.498517       -13.5653
 191   2.0000      -0.494247       -13.4492
 192   2.0000      -0.493927       -13.4404
 193   2.0000      -0.493015       -13.4156
 194   2.0000      -0.485930       -13.2228
 195   2.0000      -0.484532       -13.1848
 196   2.0000      -0.482615       -13.1326
 197   2.0000      -0.478697       -13.0260
 198   2.0000      -0.476888       -12.9768
 199   2.0000      -0.473812       -12.8931
 200   2.0000      -0.467937       -12.7332
 201   2.0000      -0.467324       -12.7165
 202   2.0000      -0.463659       -12.6168
 203   2.0000      -0.461552       -12.5595
 204   2.0000      -0.460799       -12.5390
 205   2.0000      -0.459258       -12.4971
 206   2.0000      -0.459068       -12.4919
 207   2.0000      -0.455983       -12.4079
 208   2.0000      -0.455484       -12.3944
 209   2.0000      -0.454434       -12.3658
 210   2.0000      -0.453835       -12.3495
 211   2.0000      -0.452336       -12.3087
 212   2.0000      -0.449442       -12.2299
 213   2.0000      -0.447725       -12.1832
 214   2.0000      -0.446073       -12.1383
 215   2.0000      -0.441796       -12.0219
 216   2.0000      -0.441391       -12.0109
 217   2.0000      -0.440427       -11.9846
 218   2.0000      -0.439207       -11.9514
 219   2.0000      -0.435578       -11.8527
 220   2.0000      -0.431298       -11.7362
 221   2.0000      -0.430877       -11.7248
 222   2.0000      -0.430648       -11.7185
 223   2.0000      -0.428220       -11.6525
 224   2.0000      -0.426159       -11.5964
 225   2.0000      -0.422800       -11.5050
 226   2.0000      -0.420474       -11.4417
 227   2.0000      -0.413729       -11.2581
 228   2.0000      -0.412262       -11.2182
 229   2.0000      -0.403518       -10.9803
 230   2.0000      -0.400772       -10.9055
 231   2.0000      -0.399807       -10.8793
 232   2.0000      -0.386084       -10.5059
 233   2.0000      -0.382488       -10.4080
 234   2.0000      -0.378423       -10.2974
 235   2.0000      -0.373720       -10.1694
 236   2.0000      -0.361370        -9.8334
 237   2.0000      -0.359031        -9.7697
 238   2.0000      -0.350448        -9.5362
 239   2.0000      -0.348385        -9.4800
 240   2.0000      -0.345615        -9.4047
 241   2.0000      -0.343192        -9.3387
 242   2.0000      -0.341891        -9.3033
 243   2.0000      -0.340774        -9.2729
 244   2.0000      -0.337692        -9.1891
 245   2.0000      -0.334570        -9.1041
 246   2.0000      -0.328590        -8.9414
 247   2.0000      -0.325233        -8.8501
 248   2.0000      -0.317595        -8.6422
 249   2.0000      -0.311319        -8.4714
 250   2.0000      -0.309406        -8.4194
 251   2.0000      -0.282862        -7.6971
 252   2.0000      -0.238342        -6.4856
 253   0.0000      -0.115196        -3.1346
 254   0.0000      -0.103677        -2.8212
 255   0.0000      -0.078164        -2.1269
 256   0.0000      -0.061436        -1.6717
 257   0.0000      -0.055426        -1.5082

MULLIKEN ATOMIC CHARGES
-----------------------
   0 C :    0.031436
   1 C :   -0.125080
   2 S :    0.193767
   3 C :   -0.166702
   4 Cl:    0.002475
   5 C :    0.072321
   6 C :    0.142206
   7 O :   -0.126236
   8 C :   -0.091327
   9 C :    0.280218
  10 C :   -0.317149
  11 C :   -0.191807
  12 N :    0.160165
  13 C :   -0.199108
  14 N :    0.174551
  15 C :   -0.030941
  16 C :    0.053258
  17 C :   -0.048881
  18 C :    0.146492
  19 N :    0.243899
  20 O :   -0.229946
  21 O :   -0.218789
  22 C :    0.070712
  23 C :   -0.048744
  24 C :    0.112943
  25 C :    0.012858
  26 C :   -0.033698
  27 C :    0.126493
  28 N :   -0.257132
  29 C :    0.097728
  30 C :    0.004322
  31 C :    0.164122
  32 O :   -0.218744
  33 C :   -0.068886
  34 C :   -0.064049
  35 C :    0.175267
  36 O :   -0.202911
  37 N :   -0.256269
  38 C :    0.096897
  39 C :    0.000225
  40 C :    0.137144
  41 C :   -0.035831
  42 C :    0.033744
  43 C :   -0.036065
  44 S :    0.162577
  45 C :   -0.088829
  46 C :    0.044060
  47 C :   -0.003911
  48 C :    0.157035
  49 O :   -0.176884
  50 C :    0.016569
  51 C :    0.006758
  52 C :    0.023566
  53 C :   -0.125523
  54 C :    0.135400
  55 O :   -0.128861
  56 C :    0.090748
  57 C :   -0.173488
  58 S :    0.182826
  59 C :   -0.127042
  60 C :    0.011175
  61 C :    0.300638
  62 C :   -0.332035
  63 C :   -0.193507
  64 N :    0.150235
  65 C :   -0.214750
  66 N :    0.169999
  67 Cl:   -0.001694
  68 H :    0.056068
  69 H :    0.044329
  70 H :    0.009369
  71 H :   -0.009619
  72 H :   -0.003964
  73 H :    0.042026
  74 H :   -0.020760
  75 H :    0.026988
  76 H :    0.043568
  77 H :    0.011020
  78 H :    0.024286
  79 H :    0.030495
  80 H :    0.025127
  81 H :    0.048575
  82 H :    0.021084
  83 H :    0.030457
  84 H :    0.027779
  85 H :   -0.008152
  86 H :    0.019923
  87 H :    0.005795
  88 H :   -0.008947
  89 H :    0.033025
  90 H :    0.023699
  91 H :    0.024758
  92 H :    0.053061
Sum of atomic charges:   -0.0000000

LOEWDIN ATOMIC CHARGES
----------------------
   0 C :   -0.059837
   1 C :   -0.147256
   2 S :    0.482654
   3 C :   -0.271314
   4 Cl:    0.194359
   5 C :   -0.118183
   6 C :    0.081098
   7 O :   -0.124022
   8 C :   -0.080827
   9 C :    0.072481
  10 C :   -0.128690
  11 C :   -0.015441
  12 N :   -0.044773
  13 C :   -0.026926
  14 N :   -0.036579
  15 C :    0.080030
  16 C :   -0.039458
  17 C :    0.024949
  18 C :   -0.024521
  19 N :    0.284618
  20 O :   -0.197972
  21 O :   -0.180618
  22 C :    0.008602
  23 C :   -0.009448
  24 C :    0.042522
  25 C :    0.033095
  26 C :   -0.040280
  27 C :    0.073800
  28 N :    0.000884
  29 C :    0.036417
  30 C :   -0.061131
  31 C :    0.079797
  32 O :   -0.208078
  33 C :   -0.121344
  34 C :   -0.116282
  35 C :    0.083396
  36 O :   -0.191208
  37 N :    0.001919
  38 C :    0.036994
  39 C :   -0.060414
  40 C :    0.076944
  41 C :   -0.046948
  42 C :    0.010682
  43 C :   -0.155875
  44 S :    0.489247
  45 C :   -0.138021
  46 C :   -0.103452
  47 C :   -0.022722
  48 C :    0.112960
  49 O :   -0.129400
  50 C :    0.019506
  51 C :   -0.031523
  52 C :    0.070582
  53 C :   -0.091249
  54 C :    0.078576
  55 O :   -0.134486
  56 C :   -0.117176
  57 C :   -0.273068
  58 S :    0.471830
  59 C :   -0.151939
  60 C :   -0.057495
  61 C :    0.072207
  62 C :   -0.141268
  63 C :   -0.015591
  64 N :   -0.053512
  65 C :   -0.025842
  66 N :   -0.054662
  67 Cl:    0.190663
  68 H :    0.038787
  69 H :    0.050152
  70 H :    0.044183
  71 H :    0.035193
  72 H :    0.036599
  73 H :    0.037670
  74 H :    0.028719
  75 H :    0.024082
  76 H :    0.037659
  77 H :    0.020186
  78 H :    0.030920
  79 H :    0.032568
  80 H :    0.023784
  81 H :    0.039708
  82 H :    0.023735
  83 H :    0.033927
  84 H :    0.031489
  85 H :    0.025618
  86 H :    0.043875
  87 H :    0.040269
  88 H :    0.002400
  89 H :    0.045641
  90 H :    0.024915
  91 H :    0.049136
  92 H :    0.036804

  Mayer bond orders larger than 0.100000
B(  0-C ,  1-C ) :   1.5439 B(  0-C ,  5-C ) :   1.2194 B(  0-C ,  9-C ) :   1.0050
B(  1-C ,  2-S ) :   1.1650 B(  1-C , 68-H ) :   0.9542 B(  2-S ,  3-C ) :   1.1549
B(  3-C ,  4-Cl) :   1.1298 B(  3-C ,  5-C ) :   1.4748 B(  5-C ,  6-C ) :   0.9552
B(  6-C ,  7-O ) :   2.2421 B(  6-C ,  8-C ) :   0.9215 B(  8-C ,  9-C ) :   1.0386
B(  8-C , 15-C ) :   1.7063 B(  9-C , 10-C ) :   1.6822 B( 10-C , 11-C ) :   1.1407
B( 10-C , 13-C ) :   1.1324 B( 11-C , 12-N ) :   2.9945 B( 13-C , 14-N ) :   2.9948
B( 15-C , 16-C ) :   1.0473 B( 15-C , 69-H ) :   0.9513 B( 16-C , 17-C ) :   1.2883
B( 16-C , 24-C ) :   1.3322 B( 17-C , 18-C ) :   1.3888 B( 17-C , 70-H ) :   0.9994
B( 18-C , 19-N ) :   0.8762 B( 18-C , 22-C ) :   1.3383 B( 19-N , 20-O ) :   1.5554
B( 19-N , 21-O ) :   1.5359 B( 20-O , 21-O ) :   0.2690 B( 22-C , 23-C ) :   1.3400
B( 22-C , 25-C ) :   1.0528 B( 23-C , 24-C ) :   1.4064 B( 23-C , 71-H ) :   0.9934
B( 24-C , 72-H ) :   0.9834 B( 25-C , 26-C ) :   1.6835 B( 25-C , 73-H ) :   0.9146
B( 26-C , 27-C ) :   1.1440 B( 26-C , 74-H ) :   0.9639 B( 27-C , 28-N ) :   1.1561
B( 27-C , 34-C ) :   1.3604 B( 28-N , 29-C ) :   0.9467 B( 28-N , 31-C ) :   1.0648
B( 29-C , 30-C ) :   1.1191 B( 29-C , 75-H ) :   0.9504 B( 29-C , 76-H ) :   0.9286
B( 30-C , 77-H ) :   0.9689 B( 30-C , 78-H ) :   0.9680 B( 30-C , 79-H ) :   0.9639
B( 31-C , 32-O ) :   2.0129 B( 31-C , 33-C ) :   0.9931 B( 32-O , 86-H ) :   0.1152
B( 33-C , 34-C ) :   1.2504 B( 33-C , 40-C ) :   1.3369 B( 34-C , 35-C ) :   0.9798
B( 35-C , 36-O ) :   2.0305 B( 35-C , 37-N ) :   1.0585 B( 36-O , 73-H ) :   0.1124
B( 37-N , 38-C ) :   0.9419 B( 37-N , 40-C ) :   1.1651 B( 38-C , 39-C ) :   1.1193
B( 38-C , 80-H ) :   0.9498 B( 38-C , 81-H ) :   0.9284 B( 39-C , 82-H ) :   0.9687
B( 39-C , 83-H ) :   0.9681 B( 39-C , 84-H ) :   0.9638 B( 40-C , 41-C ) :   1.1727
B( 41-C , 42-C ) :   1.5783 B( 41-C , 85-H ) :   0.9591 B( 42-C , 43-C ) :   1.1611
B( 42-C , 86-H ) :   0.9533 B( 43-C , 44-S ) :   1.1178 B( 43-C , 47-C ) :   1.4503
B( 44-S , 45-C ) :   1.1586 B( 45-C , 46-C ) :   1.3889 B( 45-C , 50-C ) :   1.1823
B( 46-C , 47-C ) :   1.2353 B( 46-C , 48-C ) :   0.9910 B( 47-C , 87-H ) :   1.0029
B( 48-C , 49-O ) :   2.1319 B( 48-C , 88-H ) :   0.9633 B( 50-C , 51-C ) :   1.5752
B( 50-C , 89-H ) :   0.9703 B( 51-C , 52-C ) :   1.1560 B( 51-C , 90-H ) :   0.9590
B( 52-C , 53-C ) :   1.5962 B( 52-C , 91-H ) :   0.9557 B( 53-C , 54-C ) :   0.9408
B( 53-C , 61-C ) :   1.0450 B( 54-C , 55-O ) :   2.2709 B( 54-C , 56-C ) :   0.9280
B( 56-C , 57-C ) :   1.4870 B( 56-C , 60-C ) :   1.2207 B( 57-C , 58-S ) :   1.1477
B( 57-C , 67-Cl) :   1.1274 B( 58-S , 59-C ) :   1.1590 B( 59-C , 60-C ) :   1.5536
B( 59-C , 92-H ) :   0.9529 B( 60-C , 61-C ) :   1.0072 B( 61-C , 62-C ) :   1.6369
B( 62-C , 63-C ) :   1.1354 B( 62-C , 65-C ) :   1.1585 B( 63-C , 64-N ) :   2.9942
B( 65-C , 66-N ) :   3.0061

-----------------------------------------------------------------------------
         ABSORPTION SPECTRUM VIA TRANSITION ELECTRIC DIPOLE MOMENTS
-----------------------------------------------------------------------------
State   Energy  Wavelength   fosc         T2         TX        TY        TZ
        (cm-1)    (nm)                  (au**2)     (au)      (au)      (au)
-----------------------------------------------------------------------------
   0   13118.1    762.3   1.042807507  26.17029   3.98158  -3.01396  -1.11055
   1   17426.5    573.8   0.168907422   3.19091  -0.21217   1.77363   0.01071
   2   20983.2    476.6   0.204453662   3.20774  -1.66104  -0.20042   0.63917
   3   21508.2    464.9   0.169952198   2.60135  -1.44972   0.27328   0.65189
   4   24676.2    405.2   0.055467225   0.74000  -0.72190   0.46562   0.04542
   5   26093.2    383.2   0.242172911   3.05544  -0.80115   1.55356  -0.00539
   6   26414.1    378.6   0.056247780   0.70104  -0.82425   0.14693   0.00848
   7   26595.8    376.0   0.003727363   0.04614  -0.21269  -0.02807  -0.01058
   8   27716.1    360.8   0.065737568   0.78083  -0.27028   0.77742  -0.32155
   9   27916.4    358.2   0.052550175   0.61971   0.46439  -0.59411   0.22603
  10   28065.8    356.3   0.000377801   0.00443  -0.03431  -0.01106   0.05597
  11   28269.7    353.7   0.022578946   0.26294   0.45307  -0.22206   0.09143
  12   28770.9    347.6   0.009543709   0.10920   0.10243  -0.29339   0.11241
  13   28898.7    346.0   0.282705876   3.22056  -0.03234   1.66924  -0.65814
  14   29612.9    337.7   0.074289318   0.82589  -0.21644   0.78924  -0.39515
  15   30548.5    327.3   0.076619400   0.82571  -0.62526   0.63163  -0.18922
  16   30787.2    324.8   0.351263361   3.75611   0.93957  -1.68863  -0.14787
  17   31041.6    322.1   0.150190677   1.59285   0.69519  -1.00548  -0.31395
  18   32102.0    311.5   0.012572838   0.12894   0.06611  -0.33381   0.11463
  19   32382.5    308.8   0.004651032   0.04728   0.15464   0.13087  -0.07901
  20   32759.3    305.3   0.028661157   0.28803   0.50395   0.07392   0.16911
  21   33181.1    301.4   0.022598869   0.22422   0.06537  -0.45751   0.10310
  22   33463.4    298.8   0.026711249   0.26278  -0.07856  -0.45745  -0.21761
  23   33679.2    296.9   0.105821708   1.03440  -0.98561   0.21885   0.12280
  24   34039.1    293.8   0.042901997   0.41493  -0.04136  -0.39378   0.50809
  25   34223.4    292.2   0.065512359   0.63020  -0.19509  -0.66207   0.39217
  26   34416.1    290.6   0.063787882   0.61017   0.38155   0.36306  -0.57687
  27   34953.4    286.1   0.355270400   3.34615   1.65699   0.62030  -0.46450
  28   35333.7    283.0   0.092048367   0.85764  -0.55474   0.35405   0.65157
  29   36144.0    276.7   0.080826032   0.73619   0.71986  -0.45798   0.09083
  30   36868.3    271.2   0.064278771   0.57397  -0.03388  -0.24308   0.71675
  31   37097.4    269.6   0.106097772   0.94154  -0.54080   0.24837   0.76642
  32   37248.3    268.5   0.132871516   1.17436   0.16282   0.77710  -0.73754
  33   37304.9    268.1   0.049066220   0.43300   0.44766  -0.44488  -0.18626
  34   37438.0    267.1   0.197347800   1.73538  -0.90758  -0.78192   0.54798
  35   37646.6    265.6   0.046518466   0.40679  -0.31136   0.11049  -0.54557
  36   38088.9    262.5   0.523741637   4.52683  -0.55039  -1.53364   1.36815
  37   38295.5    261.1   0.340405969   2.92634   1.63061  -0.51195   0.07329
  38   38919.4    256.9   0.008107038   0.06858  -0.10137  -0.05929  -0.23406
  39   39035.9    256.2   0.048842518   0.41192   0.25698   0.22989  -0.54132
  40   39256.5    254.7   0.068636873   0.57560   0.23983   0.58485  -0.41957
  41   39745.9    251.6   0.030743120   0.25464  -0.14221   0.47741   0.08063
  42   40052.5    249.7   0.006645603   0.05462   0.02206  -0.22863  -0.04319
  43   40154.6    249.0   0.005326474   0.04367  -0.12698  -0.06089   0.15440

FINAL SINGLE POINT ENERGY     -4902.738347169276

DIPOLE MOMENT
-------------
                                X             Y             Z
Electronic contribution:     25.39458      15.98565      13.23102
Nuclear contribution   :    -27.54649     -16.44804     -11.07971
                        -----------------------------------------
Total Dipole Moment    :     -2.15191      -0.46239       2.15132
                        -----------------------------------------
Magnitude (a.u.)       :      3.07777
Magnitude (Debye)      :      7.82307

Rotational constants in cm-1:     0.002232     0.000202     0.000190
Rotational constants in MHz :    66.917384     6.060710     5.701789

                             ****ORCA TERMINATED NORMALLY****
TOTAL RUN TIME: 0 days 0 hours 8 minutes 41 seconds 972 msec
