                         Program Version 4.2.0 -  RELEASE  -
|  1> # ORCA input file
|  2> # SCF done       -169.709133894889          0.000629029352
|  3> ! CAM-B3LYP def2-SVP def2/J RIJCOSX Grid4 TightSCF
|  4> %maxcore 5000
|  5> %tddft
|  6>     Mode sTDDFT
|  7>     Ethresh 5.0
|  8>     maxcore 5000
|  9> end
| 10>
| 11> %pal
| 12>   nprocs 6
| 13>   end
| 14> * xyz 0 1
| 15>    C        7.36319         4.44080        -1.10456
| 16>    C        7.81654         5.71751        -1.23470
| 17>    S        9.44976         5.74636        -1.78938
| 18>    C        9.53077         4.00085        -1.84520
| 19>   Cl       10.93658         3.19672        -2.33913
| 20>    C        8.34348         3.45635        -1.45529
| 21>    C        7.78632         2.11096        -1.28531
| 22>    O        8.34848         1.04895        -1.41395
| 23>    C        6.37489         2.34092        -0.83498
| 24>    C        6.14203         3.77436        -0.70196
| 25>    C        5.00000         4.41306        -0.30051
| 26>    C        4.93015         5.82142        -0.23671
| 27>    N        4.85654         6.96471        -0.17757
| 28>    C        3.79997         3.78649         0.09019
| 29>    N        2.79752         3.33398         0.41971
| 30>    C        5.50870         1.35108        -0.50992
| 31>    C        5.72535        -0.05284        -0.73177
| 32>    C        5.40187        -1.01119         0.23967
| 33>    N        5.56684        -2.29911         0.05583
| 34>    C        6.08992        -2.70142        -1.10610
| 35>    N        6.38682        -1.87277        -2.10910
| 36>    C        6.19511        -0.59422        -1.94579
| 37>    C        6.34813        -4.09791        -1.34616
| 38>    N        6.22662        -5.10648        -0.42415
| 39>    C        5.74920        -5.01393         0.93541
| 40>    C        4.22550        -4.98238         0.99332
| 41>    C        6.58545        -6.34774        -0.97005
| 42>    O        6.56006        -7.39398        -0.34737
| 43>    C        6.95779        -6.05054        -2.33341
| 44>    C        6.79729        -4.65415        -2.53574
| 45>    C        7.16797        -4.35664        -3.90898
| 46>    O        7.18639        -3.34704        -4.56739
| 47>    N        7.55985        -5.61820        -4.43226
| 48>    C        7.95444        -5.75759        -5.81260
| 49>    C        6.82939        -6.33253        -6.66986
| 50>    C        7.43200        -6.62182        -3.51121
| 51>    C        7.77349        -7.98350        -3.75872
| 52>    C        7.56779        -8.94051        -2.82936
| 53>    C        7.90941       -10.32238        -2.98410
| 54>    C        8.64372       -10.94622        -3.97398
| 55>    O        8.74371       -12.24847        -3.75779
| 56>    C        8.04745       -12.52795        -2.63848
| 57>    N        8.07853       -13.86494        -2.19106
| 58>    O        7.42524       -14.13741        -1.19525
| 59>    O        8.74658       -14.65333        -2.82269
| 60>    C        7.49887       -11.37178        -2.09662
| 61>    C        6.71853       -11.19992        -0.89996
| 62>    C        5.70985       -11.97377        -0.45740
| 63>    C        5.26929       -11.87112         0.98024
| 64>    O        5.51674       -10.97430         1.74270
| 65>    C        4.55345       -13.12802         1.21686
| 66>    C        4.00221       -13.77844         2.28142
| 67>    S        3.32680       -15.30973         1.77861
| 68>    C        3.78677       -15.05180         0.13755
| 69>    C        4.42758       -13.86144        -0.01012
| 70>    C        5.01547       -13.09282        -1.08481
| 71>    C        4.77822       -13.29101        -2.41659
| 72>    C        4.02454       -14.39459        -2.87305
| 73>    N        3.41712       -15.28669        -3.25991
| 74>    C        5.19150       -12.41982        -3.44229
| 75>    N        5.48519       -11.72217        -4.30599
| 76>   Cl        3.92740       -13.26696         3.89295
| 77>    H        7.30964         6.64245        -1.04347
| 78>    H        4.57010         1.60535        -0.03259
| 79>    H        5.01757        -0.71723         1.20845
| 80>    H        6.37722         0.03069        -2.80853
| 81>    H        6.16261        -4.11746         1.39909
| 82>    H        6.12015        -5.90649         1.44693
| 83>    H        3.84890        -4.09488         0.49205
| 84>    H        3.90050        -4.96393         2.02935
| 85>    H        3.81338        -5.86710         0.51405
| 86>    H        8.85146        -6.38014        -5.87711
| 87>    H        8.20031        -4.74939        -6.15764
| 88>    H        6.53188        -7.31772        -6.31741
| 89>    H        7.15806        -6.41349        -7.70220
| 90>    H        5.96378        -5.67607        -6.63209
| 91>    H        8.20191        -8.23230        -4.71800
| 92>    H        7.10772        -8.67136        -1.88825
| 93>    H        9.13954       -10.55626        -4.84137
| 94>    H        6.99297       -10.35953        -0.26889
| 95>    H        3.56923       -15.80118        -0.59742
| 96> *
| 97>
| 98>                          ****END OF INPUT****

CARTESIAN COORDINATES (ANGSTROEM)
---------------------------------
  C      7.363190    4.440800   -1.104560
  C      7.816540    5.717510   -1.234700
  S      9.449760    5.746360   -1.789380
  C      9.530770    4.000850   -1.845200
  Cl    10.936580    3.196720   -2.339130
  C      8.343480    3.456350   -1.455290
  C      7.786320    2.110960   -1.285310
  O      8.348480    1.048950   -1.413950
  C      6.374890    2.340920   -0.834980
  C      6.142030    3.774360   -0.701960
  C      5.000000    4.413060   -0.300510
  C      4.930150    5.821420   -0.236710
  N      4.856540    6.964710   -0.177570
  C      3.799970    3.786490    0.090190
  N      2.797520    3.333980    0.419710
  C      5.508700    1.351080   -0.509920
  C      5.725350   -0.052840   -0.731770
  C      5.401870   -1.011190    0.239670
  N      5.566840   -2.299110    0.055830
  C      6.089920   -2.701420   -1.106100
  N      6.386820   -1.872770   -2.109100
  C      6.195110   -0.594220   -1.945790
  C      6.348130   -4.097910   -1.346160
  N      6.226620   -5.106480   -0.424150
  C      5.749200   -5.013930    0.935410
  C      4.225500   -4.982380    0.993320
  C      6.585450   -6.347740   -0.970050
  O      6.560060   -7.393980   -0.347370
  C      6.957790   -6.050540   -2.333410
  C      6.797290   -4.654150   -2.535740
  C      7.167970   -4.356640   -3.908980
  O      7.186390   -3.347040   -4.567390
  N      7.559850   -5.618200   -4.432260
  C      7.954440   -5.757590   -5.812600
  C      6.829390   -6.332530   -6.669860
  C      7.432000   -6.621820   -3.511210
  C      7.773490   -7.983500   -3.758720
  C      7.567790   -8.940510   -2.829360
  C      7.909410  -10.322380   -2.984100
  C      8.643720  -10.946220   -3.973980
  O      8.743710  -12.248470   -3.757790
  C      8.047450  -12.527950   -2.638480
  N      8.078530  -13.864940   -2.191060
  O      7.425240  -14.137410   -1.195250
  O      8.746580  -14.653330   -2.822690
  C      7.498870  -11.371780   -2.096620
  C      6.718530  -11.199920   -0.899960
  C      5.709850  -11.973770   -0.457400
  C      5.269290  -11.871120    0.980240
  O      5.516740  -10.974300    1.742700
  C      4.553450  -13.128020    1.216860
  C      4.002210  -13.778440    2.281420
  S      3.326800  -15.309730    1.778610
  C      3.786770  -15.051800    0.137550
  C      4.427580  -13.861440   -0.010120
  C      5.015470  -13.092820   -1.084810
  C      4.778220  -13.291010   -2.416590
  C      4.024540  -14.394590   -2.873050
  N      3.417120  -15.286690   -3.259910
  C      5.191500  -12.419820   -3.442290
  N      5.485190  -11.722170   -4.305990
  Cl     3.927400  -13.266960    3.892950
  H      7.309640    6.642450   -1.043470
  H      4.570100    1.605350   -0.032590
  H      5.017570   -0.717230    1.208450
  H      6.377220    0.030690   -2.808530
  H      6.162610   -4.117460    1.399090
  H      6.120150   -5.906490    1.446930
  H      3.848900   -4.094880    0.492050
  H      3.900500   -4.963930    2.029350
  H      3.813380   -5.867100    0.514050
  H      8.851460   -6.380140   -5.877110
  H      8.200310   -4.749390   -6.157640
  H      6.531880   -7.317720   -6.317410
  H      7.158060   -6.413490   -7.702200
  H      5.963780   -5.676070   -6.632090
  H      8.201910   -8.232300   -4.718000
  H      7.107720   -8.671360   -1.888250
  H      9.139540  -10.556260   -4.841370
  H      6.992970  -10.359530   -0.268890
  H      3.569230  -15.801180   -0.597420

 Total Charge           Charge          ....    0
 Multiplicity           Mult            ....    1
 Number of Electrons    NEL             ....  456
 Basis Dimension        Dim             ....  979

ORBITAL ENERGIES
----------------

  NO   OCC          E(Eh)            E(eV)
   0   2.0000    -101.624059     -2765.3312
   1   2.0000    -101.617540     -2765.1539
   2   2.0000     -89.001946     -2421.8661
   3   2.0000     -88.994753     -2421.6703
   4   2.0000     -19.338772      -526.2347
   5   2.0000     -19.253568      -523.9162
   6   2.0000     -19.253261      -523.9079
   7   2.0000     -19.230737      -523.2950
   8   2.0000     -19.222787      -523.0786
   9   2.0000     -19.193374      -522.2783
  10   2.0000     -19.188489      -522.1453
  11   2.0000     -14.667036      -399.1103
  12   2.0000     -14.456655      -393.3856
  13   2.0000     -14.451544      -393.2465
  14   2.0000     -14.430881      -392.6842
  15   2.0000     -14.428683      -392.6244
  16   2.0000     -14.426382      -392.5618
  17   2.0000     -14.426054      -392.5529
  18   2.0000     -14.422492      -392.4560
  19   2.0000     -14.418191      -392.3389
  20   2.0000     -10.395524      -282.8766
  21   2.0000     -10.387916      -282.6696
  22   2.0000     -10.384257      -282.5700
  23   2.0000     -10.379011      -282.4272
  24   2.0000     -10.377510      -282.3864
  25   2.0000     -10.376814      -282.3675
  26   2.0000     -10.371245      -282.2159
  27   2.0000     -10.371063      -282.2110
  28   2.0000     -10.363336      -282.0007
  29   2.0000     -10.358853      -281.8787
  30   2.0000     -10.358252      -281.8624
  31   2.0000     -10.353656      -281.7373
  32   2.0000     -10.352144      -281.6962
  33   2.0000     -10.350026      -281.6385
  34   2.0000     -10.339763      -281.3593
  35   2.0000     -10.337825      -281.3065
  36   2.0000     -10.336238      -281.2633
  37   2.0000     -10.333888      -281.1994
  38   2.0000     -10.333861      -281.1987
  39   2.0000     -10.332592      -281.1641
  40   2.0000     -10.332460      -281.1605
  41   2.0000     -10.330386      -281.1041
  42   2.0000     -10.330008      -281.0938
  43   2.0000     -10.328594      -281.0553
  44   2.0000     -10.325802      -280.9793
  45   2.0000     -10.324044      -280.9315
  46   2.0000     -10.321442      -280.8607
  47   2.0000     -10.319833      -280.8169
  48   2.0000     -10.314912      -280.6830
  49   2.0000     -10.313817      -280.6532
  50   2.0000     -10.313367      -280.6410
  51   2.0000     -10.312343      -280.6131
  52   2.0000     -10.309937      -280.5477
  53   2.0000     -10.308229      -280.5012
  54   2.0000     -10.306788      -280.4620
  55   2.0000     -10.302366      -280.3416
  56   2.0000     -10.301815      -280.3266
  57   2.0000     -10.290776      -280.0262
  58   2.0000     -10.269823      -279.4561
  59   2.0000     -10.266767      -279.3729
  60   2.0000     -10.261784      -279.2373
  61   2.0000     -10.247066      -278.8368
  62   2.0000      -9.578840      -260.6535
  63   2.0000      -9.572373      -260.4775
  64   2.0000      -8.097629      -220.3477
  65   2.0000      -8.090407      -220.1512
  66   2.0000      -7.349491      -199.9898
  67   2.0000      -7.343030      -199.8140
  68   2.0000      -7.338880      -199.7011
  69   2.0000      -7.338306      -199.6855
  70   2.0000      -7.332386      -199.5244
  71   2.0000      -7.331852      -199.5098
  72   2.0000      -6.066969      -165.0906
  73   2.0000      -6.062377      -164.9657
  74   2.0000      -6.059947      -164.8995
  75   2.0000      -6.059730      -164.8936
  76   2.0000      -6.055160      -164.7693
  77   2.0000      -6.052756      -164.7039
  78   2.0000      -1.337998       -36.4088
  79   2.0000      -1.260286       -34.2941
  80   2.0000      -1.153433       -31.3865
  81   2.0000      -1.148256       -31.2456
  82   2.0000      -1.140778       -31.0421
  83   2.0000      -1.135660       -30.9029
  84   2.0000      -1.126827       -30.6625
  85   2.0000      -1.100671       -29.9508
  86   2.0000      -1.066000       -29.0073
  87   2.0000      -1.052953       -28.6523
  88   2.0000      -1.046575       -28.4788
  89   2.0000      -1.039800       -28.2944
  90   2.0000      -1.026672       -27.9372
  91   2.0000      -1.021442       -27.7948
  92   2.0000      -1.008062       -27.4308
  93   2.0000      -1.003013       -27.2934
  94   2.0000      -0.997037       -27.1307
  95   2.0000      -0.993362       -27.0308
  96   2.0000      -0.991314       -26.9750
  97   2.0000      -0.969974       -26.3943
  98   2.0000      -0.964508       -26.2456
  99   2.0000      -0.953456       -25.9448
 100   2.0000      -0.941575       -25.6216
 101   2.0000      -0.937533       -25.5116
 102   2.0000      -0.927554       -25.2400
 103   2.0000      -0.913929       -24.8693
 104   2.0000      -0.911903       -24.8141
 105   2.0000      -0.902675       -24.5630
 106   2.0000      -0.880207       -23.9516
 107   2.0000      -0.874599       -23.7991
 108   2.0000      -0.866464       -23.5777
 109   2.0000      -0.841352       -22.8944
 110   2.0000      -0.834321       -22.7030
 111   2.0000      -0.829137       -22.5620
 112   2.0000      -0.817841       -22.2546
 113   2.0000      -0.816697       -22.2235
 114   2.0000      -0.799461       -21.7544
 115   2.0000      -0.791104       -21.5270
 116   2.0000      -0.780383       -21.2353
 117   2.0000      -0.764464       -20.8021
 118   2.0000      -0.761759       -20.7285
 119   2.0000      -0.757905       -20.6236
 120   2.0000      -0.756208       -20.5775
 121   2.0000      -0.741393       -20.1743
 122   2.0000      -0.724666       -19.7192
 123   2.0000      -0.715738       -19.4762
 124   2.0000      -0.705194       -19.1893
 125   2.0000      -0.698975       -19.0201
 126   2.0000      -0.697138       -18.9701
 127   2.0000      -0.686953       -18.6929
 128   2.0000      -0.685491       -18.6532
 129   2.0000      -0.678185       -18.4544
 130   2.0000      -0.671561       -18.2741
 131   2.0000      -0.660612       -17.9762
 132   2.0000      -0.654404       -17.8072
 133   2.0000      -0.652671       -17.7601
 134   2.0000      -0.650131       -17.6910
 135   2.0000      -0.640379       -17.4256
 136   2.0000      -0.630549       -17.1581
 137   2.0000      -0.625913       -17.0320
 138   2.0000      -0.621465       -16.9109
 139   2.0000      -0.620524       -16.8853
 140   2.0000      -0.616866       -16.7858
 141   2.0000      -0.615183       -16.7400
 142   2.0000      -0.603726       -16.4282
 143   2.0000      -0.595733       -16.2107
 144   2.0000      -0.593375       -16.1466
 145   2.0000      -0.587383       -15.9835
 146   2.0000      -0.584548       -15.9064
 147   2.0000      -0.583938       -15.8898
 148   2.0000      -0.578021       -15.7287
 149   2.0000      -0.571925       -15.5629
 150   2.0000      -0.560585       -15.2543
 151   2.0000      -0.554944       -15.1008
 152   2.0000      -0.551040       -14.9946
 153   2.0000      -0.549669       -14.9573
 154   2.0000      -0.547875       -14.9084
 155   2.0000      -0.544626       -14.8200
 156   2.0000      -0.541676       -14.7398
 157   2.0000      -0.541074       -14.7234
 158   2.0000      -0.535093       -14.5606
 159   2.0000      -0.533534       -14.5182
 160   2.0000      -0.530343       -14.4314
 161   2.0000      -0.529666       -14.4129
 162   2.0000      -0.525027       -14.2867
 163   2.0000      -0.523548       -14.2465
 164   2.0000      -0.520886       -14.1740
 165   2.0000      -0.519106       -14.1256
 166   2.0000      -0.514927       -14.0119
 167   2.0000      -0.514086       -13.9890
 168   2.0000      -0.507881       -13.8201
 169   2.0000      -0.507796       -13.8178
 170   2.0000      -0.504532       -13.7290
 171   2.0000      -0.502808       -13.6821
 172   2.0000      -0.502582       -13.6760
 173   2.0000      -0.499751       -13.5989
 174   2.0000      -0.497671       -13.5423
 175   2.0000      -0.494292       -13.4504
 176   2.0000      -0.489783       -13.3277
 177   2.0000      -0.486914       -13.2496
 178   2.0000      -0.474953       -12.9241
 179   2.0000      -0.467625       -12.7247
 180   2.0000      -0.464172       -12.6308
 181   2.0000      -0.463576       -12.6145
 182   2.0000      -0.461925       -12.5696
 183   2.0000      -0.460259       -12.5243
 184   2.0000      -0.459260       -12.4971
 185   2.0000      -0.457887       -12.4597
 186   2.0000      -0.456089       -12.4108
 187   2.0000      -0.455185       -12.3862
 188   2.0000      -0.452888       -12.3237
 189   2.0000      -0.452164       -12.3040
 190   2.0000      -0.447621       -12.1804
 191   2.0000      -0.445736       -12.1291
 192   2.0000      -0.442684       -12.0460
 193   2.0000      -0.441917       -12.0252
 194   2.0000      -0.441028       -12.0010
 195   2.0000      -0.438697       -11.9376
 196   2.0000      -0.435696       -11.8559
 197   2.0000      -0.431488       -11.7414
 198   2.0000      -0.430303       -11.7091
 199   2.0000      -0.427893       -11.6436
 200   2.0000      -0.426323       -11.6008
 201   2.0000      -0.418952       -11.4003
 202   2.0000      -0.418615       -11.3911
 203   2.0000      -0.413665       -11.2564
 204   2.0000      -0.410279       -11.1642
 205   2.0000      -0.406490       -11.0612
 206   2.0000      -0.403769       -10.9871
 207   2.0000      -0.403159       -10.9705
 208   2.0000      -0.399655       -10.8752
 209   2.0000      -0.392345       -10.6762
 210   2.0000      -0.389507       -10.5990
 211   2.0000      -0.383305       -10.4303
 212   2.0000      -0.379452       -10.3254
 213   2.0000      -0.372571       -10.1382
 214   2.0000      -0.357130        -9.7180
 215   2.0000      -0.348492        -9.4829
 216   2.0000      -0.345261        -9.3950
 217   2.0000      -0.345057        -9.3895
 218   2.0000      -0.337492        -9.1836
 219   2.0000      -0.335825        -9.1383
 220   2.0000      -0.331232        -9.0133
 221   2.0000      -0.330947        -9.0055
 222   2.0000      -0.323277        -8.7968
 223   2.0000      -0.322414        -8.7733
 224   2.0000      -0.314982        -8.5711
 225   2.0000      -0.313198        -8.5225
 226   2.0000      -0.311292        -8.4707
 227   2.0000      -0.247180        -6.7261
 228   0.0000      -0.109114        -2.9691
 229   0.0000      -0.101278        -2.7559
 230   0.0000      -0.078667        -2.1406
 231   0.0000      -0.058907        -1.6030
 232   0.0000      -0.054746        -1.4897

MULLIKEN ATOMIC CHARGES
-----------------------
   0 C :    0.028443
   1 C :   -0.126099
   2 S :    0.194716
   3 C :   -0.169554
   4 Cl:    0.006451
   5 C :    0.077100
   6 C :    0.136427
   7 O :   -0.118937
   8 C :   -0.095510
   9 C :    0.295262
  10 C :   -0.322556
  11 C :   -0.193780
  12 N :    0.159758
  13 C :   -0.187655
  14 N :    0.165838
  15 C :   -0.018531
  16 C :   -0.013920
  17 C :    0.059782
  18 N :   -0.061008
  19 C :   -0.173967
  20 N :   -0.003348
  21 C :    0.105639
  22 C :    0.188515
  23 N :   -0.254100
  24 C :    0.141006
  25 C :    0.006530
  26 C :    0.168940
  27 O :   -0.225825
  28 C :   -0.077281
  29 C :   -0.048278
  30 C :    0.153252
  31 O :   -0.146586
  32 N :   -0.267556
  33 C :    0.098836
  34 C :   -0.000041
  35 C :    0.130996
  36 C :   -0.005929
  37 C :    0.020946
  38 C :    0.092288
  39 C :    0.111970
  40 O :   -0.120324
  41 C :    0.142625
  42 N :    0.280396
  43 O :   -0.256783
  44 O :   -0.222365
  45 C :   -0.010913
  46 C :   -0.012809
  47 C :   -0.093605
  48 C :    0.126630
  49 O :   -0.109079
  50 C :    0.097582
  51 C :   -0.172702
  52 S :    0.191234
  53 C :   -0.118663
  54 C :    0.010056
  55 C :    0.320586
  56 C :   -0.341703
  57 C :   -0.184262
  58 N :    0.163432
  59 C :   -0.181277
  60 N :    0.160074
  61 Cl:    0.002066
  62 H :    0.056028
  63 H :    0.039869
  64 H :    0.009685
  65 H :    0.014522
  66 H :    0.023078
  67 H :    0.034121
  68 H :    0.013417
  69 H :    0.014516
  70 H :    0.017340
  71 H :    0.018986
  72 H :    0.045548
  73 H :    0.020649
  74 H :    0.024332
  75 H :    0.032495
  76 H :   -0.034236
  77 H :    0.020415
  78 H :    0.027806
  79 H :    0.063063
  80 H :    0.055932
Sum of atomic charges:    0.0000000

LOEWDIN ATOMIC CHARGES
----------------------
   0 C :   -0.060014
   1 C :   -0.147244
   2 S :    0.483039
   3 C :   -0.270440
   4 Cl:    0.197179
   5 C :   -0.118270
   6 C :    0.080140
   7 O :   -0.120206
   8 C :   -0.077229
   9 C :    0.073396
  10 C :   -0.129890
  11 C :   -0.015272
  12 N :   -0.045313
  13 C :   -0.022872
  14 N :   -0.040087
  15 C :    0.073588
  16 C :   -0.082846
  17 C :    0.063342
  18 N :   -0.072534
  19 C :    0.030101
  20 N :   -0.042947
  21 C :    0.088896
  22 C :    0.044154
  23 N :    0.014500
  24 C :    0.036816
  25 C :   -0.060540
  26 C :    0.076935
  27 O :   -0.212118
  28 C :   -0.131509
  29 C :   -0.088000
  30 C :    0.088051
  31 O :   -0.154632
  32 N :   -0.006283
  33 C :    0.035103
  34 C :   -0.061080
  35 C :    0.092981
  36 C :   -0.040675
  37 C :    0.042437
  38 C :   -0.059139
  39 C :    0.098694
  40 O :    0.071752
  41 C :    0.003820
  42 N :    0.273710
  43 O :   -0.210390
  44 O :   -0.185393
  45 C :   -0.023802
  46 C :    0.056650
  47 C :   -0.046858
  48 C :    0.083812
  49 O :   -0.114278
  50 C :   -0.115520
  51 C :   -0.272103
  52 S :    0.482681
  53 C :   -0.145262
  54 C :   -0.052178
  55 C :    0.078323
  56 C :   -0.133262
  57 C :   -0.016086
  58 N :   -0.043374
  59 C :   -0.019162
  60 N :   -0.050944
  61 Cl:    0.194464
  62 H :    0.038633
  63 H :    0.049316
  64 H :    0.029022
  65 H :    0.030593
  66 H :    0.022817
  67 H :    0.031372
  68 H :    0.018382
  69 H :    0.028275
  70 H :    0.025693
  71 H :    0.020805
  72 H :    0.038265
  73 H :    0.023488
  74 H :    0.031038
  75 H :    0.033489
  76 H :    0.027508
  77 H :    0.039860
  78 H :    0.034168
  79 H :    0.060932
  80 H :    0.039533

  Mayer bond orders larger than 0.100000
B(  0-C ,  1-C ) :   1.5389 B(  0-C ,  5-C ) :   1.2214 B(  0-C ,  9-C ) :   1.0060
B(  1-C ,  2-S ) :   1.1674 B(  1-C , 62-H ) :   0.9540 B(  2-S ,  3-C ) :   1.1541
B(  3-C ,  4-Cl) :   1.1350 B(  3-C ,  5-C ) :   1.4723 B(  5-C ,  6-C ) :   0.9479
B(  6-C ,  7-O ) :   2.2524 B(  6-C ,  8-C ) :   0.9182 B(  8-C ,  9-C ) :   1.0444
B(  8-C , 15-C ) :   1.7361 B(  9-C , 10-C ) :   1.6696 B( 10-C , 11-C ) :   1.1425
B( 10-C , 13-C ) :   1.1387 B( 11-C , 12-N ) :   2.9920 B( 13-C , 14-N ) :   2.9714
B( 15-C , 16-C ) :   1.0308 B( 15-C , 63-H ) :   0.9393 B( 16-C , 17-C ) :   1.3248
B( 16-C , 21-C ) :   1.2738 B( 17-C , 18-N ) :   1.5470 B( 17-C , 64-H ) :   0.9900
B( 18-N , 19-C ) :   1.4944 B( 19-C , 20-N ) :   1.6311 B( 19-C , 22-C ) :   0.9912
B( 20-N , 21-C ) :   1.6096 B( 20-N , 22-C ) :  -0.1291 B( 21-C , 65-H ) :   0.9859
B( 22-C , 23-N ) :   1.1937 B( 22-C , 29-C ) :   1.3976 B( 23-N , 24-C ) :   0.9347
B( 23-N , 26-C ) :   1.0800 B( 24-C , 25-C ) :   1.1250 B( 24-C , 66-H ) :   0.9364
B( 24-C , 67-H ) :   0.9279 B( 25-C , 68-H ) :   0.9649 B( 25-C , 69-H ) :   0.9679
B( 25-C , 70-H ) :   0.9653 B( 26-C , 27-O ) :   1.9880 B( 26-C , 28-C ) :   0.9960
B( 27-O , 77-H ) :   0.1207 B( 28-C , 29-C ) :   1.2468 B( 28-C , 35-C ) :   1.3282
B( 29-C , 30-C ) :   0.9391 B( 30-C , 31-O ) :   2.1933 B( 30-C , 32-N ) :   1.0014
B( 32-N , 33-C ) :   0.9455 B( 32-N , 35-C ) :   1.1893 B( 33-C , 34-C ) :   1.1202
B( 33-C , 71-H ) :   0.9501 B( 33-C , 72-H ) :   0.9269 B( 34-C , 73-H ) :   0.9689
B( 34-C , 74-H ) :   0.9677 B( 34-C , 75-H ) :   0.9635 B( 35-C , 36-C ) :   1.1366
B( 36-C , 37-C ) :   1.6582 B( 36-C , 76-H ) :   0.9694 B( 37-C , 38-C ) :   1.0801
B( 37-C , 77-H ) :   0.9335 B( 38-C , 39-C ) :   1.4184 B( 38-C , 45-C ) :   1.2563
B( 39-C , 40-O ) :   1.2027 B( 39-C , 78-H ) :   1.0043 B( 40-O , 41-C ) :   1.1772
B( 41-C , 42-N ) :   0.9503 B( 41-C , 45-C ) :   1.4315 B( 42-N , 43-O ) :   1.4863
B( 42-N , 44-O ) :   1.5119 B( 43-O , 44-O ) :   0.2638 B( 45-C , 46-C ) :   1.0033
B( 46-C , 47-C ) :   1.8208 B( 46-C , 79-H ) :   0.9265 B( 47-C , 48-C ) :   0.9212
B( 47-C , 55-C ) :   0.9920 B( 48-C , 49-O ) :   2.2986 B( 48-C , 50-C ) :   0.9211
B( 50-C , 51-C ) :   1.4764 B( 50-C , 54-C ) :   1.2249 B( 51-C , 52-S ) :   1.1562
B( 51-C , 61-Cl) :   1.1302 B( 52-S , 53-C ) :   1.1638 B( 53-C , 54-C ) :   1.5477
B( 53-C , 80-H ) :   0.9559 B( 54-C , 55-C ) :   1.0212 B( 55-C , 56-C ) :   1.6827
B( 56-C , 57-C ) :   1.1299 B( 56-C , 59-C ) :   1.1648 B( 57-C , 58-N ) :   3.0065
B( 59-C , 60-N ) :   2.9890

-----------------------------------------------------------------------------
         ABSORPTION SPECTRUM VIA TRANSITION ELECTRIC DIPOLE MOMENTS
-----------------------------------------------------------------------------
State   Energy  Wavelength   fosc         T2         TX        TY        TZ
        (cm-1)    (nm)                  (au**2)     (au)      (au)      (au)
-----------------------------------------------------------------------------
   0   15212.5    657.4   0.622282317  13.46677   0.43935  -3.44549  -1.18420
   1   17697.8    565.0   0.037120198   0.69050   0.31771  -0.53726  -0.54855
   2   21609.5    462.8   0.083257105   1.26839   0.48345  -0.07166  -1.01466
   3   24407.3    409.7   0.061556015   0.83028   0.02592   0.90569   0.09660
   4   25925.3    385.7   0.017636841   0.22396   0.03054  -0.47092  -0.03549
   5   26658.2    375.1   0.061377668   0.75797  -0.03500   0.86972  -0.01816
   6   26856.7    372.3   0.057835166   0.70895   0.57399  -0.05583   0.61348
   7   27450.3    364.3   0.026411536   0.31675  -0.32125   0.43957   0.14258
   8   28034.8    356.7   0.018061362   0.21209   0.08978  -0.43252   0.13025
   9   28211.8    354.5   0.010733531   0.12525  -0.12898   0.31661  -0.09152
  10   28379.3    352.4   0.007829610   0.09083   0.03954  -0.27492  -0.11698
  11   29024.3    344.5   0.093368057   1.05904  -0.92119   0.31026   0.33793
  12   29120.3    343.4   0.024571058   0.27778  -0.47304   0.16998   0.15849
  13   29897.3    334.5   0.149329152   1.64433  -0.36896  -1.19867   0.26719
  14   30362.3    329.4   0.152136139   1.64958  -0.46843  -1.07448   0.52503
  15   30938.3    323.2   0.054024205   0.57487   0.16592   0.73826  -0.04810
  16   31158.5    320.9   0.043970530   0.46458   0.43407  -0.35472   0.38773
  17   31442.4    318.0   0.035697137   0.37376  -0.25723   0.01707   0.55435
  18   32011.4    312.4   0.270042238   2.77717   0.45236  -1.58000  -0.27594
  19   32559.4    307.1   0.003704032   0.03745  -0.05226   0.02086  -0.18516
  20   33131.4    301.8   0.001771719   0.01760   0.12851  -0.01355  -0.03011
  21   33233.8    300.9   0.010487709   0.10389   0.23531   0.09691  -0.19781
  22   33302.8    300.3   0.225849088   2.23261  -0.48963  -1.22312   0.70488
  23   33673.0    297.0   0.174716034   1.70815  -0.05885  -1.30407   0.06406
  24   34102.1    293.2   0.094621836   0.91345  -0.26850   0.91117  -0.10549
  25   34480.2    290.0   0.032440199   0.30973  -0.09773   0.54506  -0.05566
  26   34535.2    289.6   0.002087302   0.01990   0.03318   0.12714   0.05131
  27   34760.5    287.7   0.027809161   0.26338   0.06702  -0.50881  -0.00153
  28   35319.3    283.1   0.113065311   1.05389  -0.59427  -0.83068  -0.10345
  29   35945.7    278.2   0.003209959   0.02940  -0.05167  -0.05162  -0.15513
  30   36420.0    274.6   0.251740449   2.27556   0.26873  -0.11448  -1.47995
  31   36706.4    272.4   0.498276229   4.46894  -1.96526  -0.50634   0.59188
  32   37470.5    266.9   0.112655963   0.98978   0.96994   0.04805  -0.21609
  33   37669.0    265.5   0.045147544   0.39457  -0.58473  -0.09197   0.21024
  34   37737.4    265.0   0.374530483   3.26731  -0.39537  -0.33386   1.73192
  35   37862.8    264.1   0.014682700   0.12766   0.05097  -0.07136  -0.34637
  36   38112.4    262.4   0.008167996   0.07055   0.05865   0.20686   0.15597
  37   38357.1    260.7   0.131430517   1.12805   0.96779  -0.13822  -0.41512
  38   38769.2    257.9   0.013461220   0.11431  -0.19896   0.25359  -0.10203
  39   38825.8    257.6   0.078419130   0.66493   0.49659   0.36075  -0.53684
  40   39304.2    254.4   0.030980260   0.25949   0.16325   0.44797  -0.17933
  41   39690.6    251.9   0.061759531   0.51226   0.20340   0.46080  -0.50848
  42   39806.7    251.2   0.026466761   0.21889  -0.34958  -0.30762   0.04524
  43   40021.2    249.9   0.011018591   0.09064   0.23972  -0.00140  -0.18212
  44   40305.4    248.1   0.132251527   1.08022  -0.12260   0.93234  -0.44264

FINAL SINGLE POINT ENERGY     -4344.023921745035

DIPOLE MOMENT
-------------
                                X             Y             Z
Electronic contribution:      7.24699      -2.41591      21.64645
Nuclear contribution   :     -5.66260       3.58980     -21.66297
                        -----------------------------------------
Total Dipole Moment    :      1.58439       1.17389      -0.01652
                        -----------------------------------------
Magnitude (a.u.)       :      1.97195
Magnitude (Debye)      :      5.01229

Rotational constants in cm-1:     0.002416     0.000354     0.000326
Rotational constants in MHz :    72.441114    10.623118     9.773506

                             ****ORCA TERMINATED NORMALLY****
TOTAL RUN TIME: 0 days 0 hours 7 minutes 35 seconds 417 msec
