                         Program Version 4.2.0 -  RELEASE  -
|  1> # ORCA input file
|  2> # SCF done       -158.846756298452          0.000516446067
|  3> ! CAM-B3LYP def2-SVP def2/J RIJCOSX Grid4 TightSCF
|  4> %maxcore 5000
|  5> %tddft
|  6>     Mode sTDDFT
|  7>     Ethresh 5.0
|  8>     maxcore 5000
|  9> end
| 10>
| 11> %pal
| 12>   nprocs 6
| 13>   end
| 14> * xyz 0 1
| 15>    C        5.36779         1.96158        -5.85992
| 16>    C        5.83051         2.92044        -6.70730
| 17>    S        7.30601         2.43009        -7.45760
| 18>    C        7.31073         0.90274        -6.60928
| 19>   Cl        8.53891        -0.24078        -6.83406
| 20>    C        6.21391         0.80964        -5.80282
| 21>    C        5.67353        -0.16924        -4.86318
| 22>    O        6.20406        -1.20700        -4.52757
| 23>    C        4.36391         0.40383        -4.41997
| 24>    C        4.24599         1.75681        -4.96691
| 25>    C        3.30444         2.70787        -4.68406
| 26>    C        3.34249         3.97632        -5.30436
| 27>    N        3.35688         5.01087        -5.79916
| 28>    C        2.24263         2.59130        -3.76320
| 29>    N        1.36851         2.57749        -3.01937
| 30>    C        3.34555        -0.20666        -3.74811
| 31>    C        3.25526        -1.50911        -3.19312
| 32>    S        1.68799        -2.09162        -2.69150
| 33>    C        2.35614        -3.61734        -2.23068
| 34>    C        1.48121        -4.66159        -1.74393
| 35>    O        0.28972        -4.54357        -1.59829
| 36>    C        3.73207        -3.66718        -2.44809
| 37>    C        4.22634        -2.46173        -2.96584
| 38>    C        4.63112        -4.77508        -2.21745
| 39>    S        4.63345        -5.70850        -0.75100
| 40>    C        6.06346        -6.57641        -1.24362
| 41>    C        6.48355        -6.16445        -2.48170
| 42>    C        5.66722        -5.14955        -3.03371
| 43>    C        5.98861        -4.69120        -4.41594
| 44>    C        7.46878        -4.27325        -4.49237
| 45>    C        7.89813        -4.28029        -5.95044
| 46>    F        7.09084        -3.54796        -6.73214
| 47>    F        9.13551        -3.78402        -6.12028
| 48>    F        7.91458        -5.51535        -6.48022
| 49>    C        8.39448        -5.18297        -3.65838
| 50>    C        7.72832        -6.50195        -3.23448
| 51>    C        6.62977        -7.57600        -0.36407
| 52>    C        6.55697        -7.43908         1.02028
| 53>    C        7.09913        -8.42175         1.84248
| 54>    C        7.77077        -9.48198         1.21559
| 55>    N        7.82330        -9.62703        -0.08854
| 56>    C        7.24345        -8.73221        -0.86152
| 57>    C        7.04580        -8.32472         3.28413
| 58>    C        6.83107        -9.32714         4.15990
| 59>    C        7.17650        -9.13283         5.60800
| 60>    O        7.42596        -8.08353         6.14748
| 61>    C        7.19129       -10.49074         6.16041
| 62>    C        7.49899       -11.08368         7.34918
| 63>    S        7.27133       -12.81356         7.24698
| 64>    C        6.75278       -12.71465         5.60463
| 65>    C        6.76284       -11.42837         5.16224
| 66>    C        6.41128       -10.70910         3.95357
| 67>    C        5.65801       -11.21713         2.93267
| 68>    C        5.29154       -12.58015         2.90338
| 69>    N        5.00133       -13.68897         2.86652
| 70>    C        5.10456       -10.46139         1.87915
| 71>    N        4.57645        -9.89010         1.03566
| 72>   Cl        8.03264       -10.34674         8.77720
| 73>    H        5.41051         3.87637        -6.94960
| 74>    H        2.42630         0.35973        -3.65390
| 75>    H        2.00477        -5.60816        -1.51317
| 76>    H        5.26899        -2.28043        -3.13742
| 77>    H        5.35159        -3.87190        -4.74345
| 78>    H        5.82735        -5.53659        -5.09379
| 79>    H        7.56150        -3.23433        -4.16250
| 80>    H        8.69249        -4.64852        -2.75512
| 81>    H        9.30139        -5.40423        -4.22323
| 82>    H        8.42314        -7.07356        -2.61983
| 83>    H        7.48513        -7.09341        -4.12092
| 84>    H        6.04772        -6.58993         1.45329
| 85>    H        8.29638       -10.22643         1.79969
| 86>    H        7.25076        -8.95067        -1.91928
| 87>    H        7.27646        -7.35646         3.71711
| 88>    H        6.48624       -13.61092         5.08039
| 89> *
| 90>
| 91>                          ****END OF INPUT****

CARTESIAN COORDINATES (ANGSTROEM)
---------------------------------
  C      5.367790    1.961580   -5.859920
  C      5.830510    2.920440   -6.707300
  S      7.306010    2.430090   -7.457600
  C      7.310730    0.902740   -6.609280
  Cl     8.538910   -0.240780   -6.834060
  C      6.213910    0.809640   -5.802820
  C      5.673530   -0.169240   -4.863180
  O      6.204060   -1.207000   -4.527570
  C      4.363910    0.403830   -4.419970
  C      4.245990    1.756810   -4.966910
  C      3.304440    2.707870   -4.684060
  C      3.342490    3.976320   -5.304360
  N      3.356880    5.010870   -5.799160
  C      2.242630    2.591300   -3.763200
  N      1.368510    2.577490   -3.019370
  C      3.345550   -0.206660   -3.748110
  C      3.255260   -1.509110   -3.193120
  S      1.687990   -2.091620   -2.691500
  C      2.356140   -3.617340   -2.230680
  C      1.481210   -4.661590   -1.743930
  O      0.289720   -4.543570   -1.598290
  C      3.732070   -3.667180   -2.448090
  C      4.226340   -2.461730   -2.965840
  C      4.631120   -4.775080   -2.217450
  S      4.633450   -5.708500   -0.751000
  C      6.063460   -6.576410   -1.243620
  C      6.483550   -6.164450   -2.481700
  C      5.667220   -5.149550   -3.033710
  C      5.988610   -4.691200   -4.415940
  C      7.468780   -4.273250   -4.492370
  C      7.898130   -4.280290   -5.950440
  F      7.090840   -3.547960   -6.732140
  F      9.135510   -3.784020   -6.120280
  F      7.914580   -5.515350   -6.480220
  C      8.394480   -5.182970   -3.658380
  C      7.728320   -6.501950   -3.234480
  C      6.629770   -7.576000   -0.364070
  C      6.556970   -7.439080    1.020280
  C      7.099130   -8.421750    1.842480
  C      7.770770   -9.481980    1.215590
  N      7.823300   -9.627030   -0.088540
  C      7.243450   -8.732210   -0.861520
  C      7.045800   -8.324720    3.284130
  C      6.831070   -9.327140    4.159900
  C      7.176500   -9.132830    5.608000
  O      7.425960   -8.083530    6.147480
  C      7.191290  -10.490740    6.160410
  C      7.498990  -11.083680    7.349180
  S      7.271330  -12.813560    7.246980
  C      6.752780  -12.714650    5.604630
  C      6.762840  -11.428370    5.162240
  C      6.411280  -10.709100    3.953570
  C      5.658010  -11.217130    2.932670
  C      5.291540  -12.580150    2.903380
  N      5.001330  -13.688970    2.866520
  C      5.104560  -10.461390    1.879150
  N      4.576450   -9.890100    1.035660
  Cl     8.032640  -10.346740    8.777200
  H      5.410510    3.876370   -6.949600
  H      2.426300    0.359730   -3.653900
  H      2.004770   -5.608160   -1.513170
  H      5.268990   -2.280430   -3.137420
  H      5.351590   -3.871900   -4.743450
  H      5.827350   -5.536590   -5.093790
  H      7.561500   -3.234330   -4.162500
  H      8.692490   -4.648520   -2.755120
  H      9.301390   -5.404230   -4.223230
  H      8.423140   -7.073560   -2.619830
  H      7.485130   -7.093410   -4.120920
  H      6.047720   -6.589930    1.453290
  H      8.296380  -10.226430    1.799690
  H      7.250760   -8.950670   -1.919280
  H      7.276460   -7.356460    3.717110
  H      6.486240  -13.610920    5.080390

 Total Charge           Charge          ....    0
 Multiplicity           Mult            ....    1
 Number of Electrons    NEL             ....  446
 Basis Dimension        Dim             ....  916

ORBITAL ENERGIES
----------------

  NO   OCC          E(Eh)            E(eV)
   0   2.0000    -101.624916     -2765.3546
   1   2.0000    -101.622939     -2765.3008
   2   2.0000     -89.001405     -2421.8514
   3   2.0000     -89.000046     -2421.8144
   4   2.0000     -88.982825     -2421.3458
   5   2.0000     -88.967548     -2420.9300
   6   2.0000     -24.797544      -674.7755
   7   2.0000     -24.794104      -674.6819
   8   2.0000     -24.793889      -674.6760
   9   2.0000     -19.238792      -523.5142
  10   2.0000     -19.227476      -523.2062
  11   2.0000     -19.219716      -522.9951
  12   2.0000     -14.428587      -392.6218
  13   2.0000     -14.426835      -392.5741
  14   2.0000     -14.426598      -392.5677
  15   2.0000     -14.424172      -392.5017
  16   2.0000     -14.416406      -392.2903
  17   2.0000     -10.505445      -285.8677
  18   2.0000     -10.395053      -282.8638
  19   2.0000     -10.384758      -282.5836
  20   2.0000     -10.383631      -282.5530
  21   2.0000     -10.382684      -282.5272
  22   2.0000     -10.367194      -282.1057
  23   2.0000     -10.358031      -281.8564
  24   2.0000     -10.357048      -281.8296
  25   2.0000     -10.356810      -281.8231
  26   2.0000     -10.356424      -281.8126
  27   2.0000     -10.340765      -281.3865
  28   2.0000     -10.337436      -281.2959
  29   2.0000     -10.335565      -281.2450
  30   2.0000     -10.333149      -281.1793
  31   2.0000     -10.330305      -281.1019
  32   2.0000     -10.328725      -281.0589
  33   2.0000     -10.328464      -281.0518
  34   2.0000     -10.328023      -281.0398
  35   2.0000     -10.326114      -280.9879
  36   2.0000     -10.323086      -280.9054
  37   2.0000     -10.323035      -280.9041
  38   2.0000     -10.321518      -280.8628
  39   2.0000     -10.320767      -280.8424
  40   2.0000     -10.320123      -280.8248
  41   2.0000     -10.319656      -280.8121
  42   2.0000     -10.317793      -280.7614
  43   2.0000     -10.314678      -280.6766
  44   2.0000     -10.314368      -280.6682
  45   2.0000     -10.312691      -280.6226
  46   2.0000     -10.308230      -280.5012
  47   2.0000     -10.307686      -280.4864
  48   2.0000     -10.307396      -280.4785
  49   2.0000     -10.307215      -280.4736
  50   2.0000     -10.306837      -280.4633
  51   2.0000     -10.297541      -280.2103
  52   2.0000     -10.297285      -280.2034
  53   2.0000     -10.289114      -279.9810
  54   2.0000     -10.287123      -279.9268
  55   2.0000     -10.286899      -279.9208
  56   2.0000     -10.284781      -279.8631
  57   2.0000     -10.283274      -279.8221
  58   2.0000      -9.579475      -260.6708
  59   2.0000      -9.577743      -260.6236
  60   2.0000      -8.097096      -220.3332
  61   2.0000      -8.095715      -220.2956
  62   2.0000      -8.077964      -219.8126
  63   2.0000      -8.062762      -219.3989
  64   2.0000      -7.350126      -200.0071
  65   2.0000      -7.348376      -199.9595
  66   2.0000      -7.339512      -199.7183
  67   2.0000      -7.338978      -199.7038
  68   2.0000      -7.337784      -199.6713
  69   2.0000      -7.337229      -199.6561
  70   2.0000      -6.066490      -165.0776
  71   2.0000      -6.065054      -165.0385
  72   2.0000      -6.061823      -164.9506
  73   2.0000      -6.060485      -164.9142
  74   2.0000      -6.059375      -164.8840
  75   2.0000      -6.058013      -164.8469
  76   2.0000      -6.047034      -164.5482
  77   2.0000      -6.042865      -164.4347
  78   2.0000      -6.040532      -164.3712
  79   2.0000      -6.032129      -164.1426
  80   2.0000      -6.027893      -164.0273
  81   2.0000      -6.024841      -163.9443
  82   2.0000      -1.384712       -37.6799
  83   2.0000      -1.287568       -35.0365
  84   2.0000      -1.285606       -34.9831
  85   2.0000      -1.155007       -31.4293
  86   2.0000      -1.144585       -31.1457
  87   2.0000      -1.133850       -30.8536
  88   2.0000      -1.055320       -28.7167
  89   2.0000      -1.046909       -28.4878
  90   2.0000      -1.044552       -28.4237
  91   2.0000      -1.025614       -27.9084
  92   2.0000      -1.022784       -27.8314
  93   2.0000      -1.017495       -27.6874
  94   2.0000      -1.006239       -27.3812
  95   2.0000      -1.003690       -27.3118
  96   2.0000      -1.000439       -27.2233
  97   2.0000      -0.995372       -27.0855
  98   2.0000      -0.994752       -27.0686
  99   2.0000      -0.963111       -26.2076
 100   2.0000      -0.962402       -26.1883
 101   2.0000      -0.942709       -25.6524
 102   2.0000      -0.933246       -25.3949
 103   2.0000      -0.923322       -25.1249
 104   2.0000      -0.915128       -24.9019
 105   2.0000      -0.910719       -24.7819
 106   2.0000      -0.903339       -24.5811
 107   2.0000      -0.880019       -23.9465
 108   2.0000      -0.860571       -23.4173
 109   2.0000      -0.856937       -23.3184
 110   2.0000      -0.852908       -23.2088
 111   2.0000      -0.843832       -22.9618
 112   2.0000      -0.841019       -22.8853
 113   2.0000      -0.839074       -22.8324
 114   2.0000      -0.806290       -21.9403
 115   2.0000      -0.794392       -21.6165
 116   2.0000      -0.793756       -21.5992
 117   2.0000      -0.774433       -21.0734
 118   2.0000      -0.765461       -20.8292
 119   2.0000      -0.761581       -20.7237
 120   2.0000      -0.749267       -20.3886
 121   2.0000      -0.737632       -20.0720
 122   2.0000      -0.731868       -19.9151
 123   2.0000      -0.728422       -19.8214
 124   2.0000      -0.710793       -19.3417
 125   2.0000      -0.701470       -19.0880
 126   2.0000      -0.692614       -18.8470
 127   2.0000      -0.690655       -18.7937
 128   2.0000      -0.686368       -18.6770
 129   2.0000      -0.682764       -18.5789
 130   2.0000      -0.677199       -18.4275
 131   2.0000      -0.670913       -18.2565
 132   2.0000      -0.665461       -18.1081
 133   2.0000      -0.649965       -17.6864
 134   2.0000      -0.644921       -17.5492
 135   2.0000      -0.636071       -17.3084
 136   2.0000      -0.627978       -17.0881
 137   2.0000      -0.626658       -17.0522
 138   2.0000      -0.625852       -17.0303
 139   2.0000      -0.622777       -16.9466
 140   2.0000      -0.615239       -16.7415
 141   2.0000      -0.611899       -16.6506
 142   2.0000      -0.604371       -16.4458
 143   2.0000      -0.600140       -16.3306
 144   2.0000      -0.584928       -15.9167
 145   2.0000      -0.579360       -15.7652
 146   2.0000      -0.572991       -15.5919
 147   2.0000      -0.567467       -15.4416
 148   2.0000      -0.563459       -15.3325
 149   2.0000      -0.560524       -15.2526
 150   2.0000      -0.555321       -15.1110
 151   2.0000      -0.553736       -15.0679
 152   2.0000      -0.549182       -14.9440
 153   2.0000      -0.546918       -14.8824
 154   2.0000      -0.544998       -14.8302
 155   2.0000      -0.539285       -14.6747
 156   2.0000      -0.537006       -14.6127
 157   2.0000      -0.533696       -14.5226
 158   2.0000      -0.531489       -14.4626
 159   2.0000      -0.529969       -14.4212
 160   2.0000      -0.525370       -14.2960
 161   2.0000      -0.522355       -14.2140
 162   2.0000      -0.520844       -14.1729
 163   2.0000      -0.513812       -13.9815
 164   2.0000      -0.513470       -13.9722
 165   2.0000      -0.511657       -13.9229
 166   2.0000      -0.509539       -13.8653
 167   2.0000      -0.507109       -13.7991
 168   2.0000      -0.503494       -13.7008
 169   2.0000      -0.501555       -13.6480
 170   2.0000      -0.499874       -13.6023
 171   2.0000      -0.499603       -13.5949
 172   2.0000      -0.497398       -13.5349
 173   2.0000      -0.495449       -13.4819
 174   2.0000      -0.493931       -13.4405
 175   2.0000      -0.491443       -13.3728
 176   2.0000      -0.489440       -13.3184
 177   2.0000      -0.484030       -13.1711
 178   2.0000      -0.480772       -13.0825
 179   2.0000      -0.476581       -12.9684
 180   2.0000      -0.471631       -12.8337
 181   2.0000      -0.469853       -12.7853
 182   2.0000      -0.468091       -12.7374
 183   2.0000      -0.462225       -12.5778
 184   2.0000      -0.461993       -12.5715
 185   2.0000      -0.459461       -12.5026
 186   2.0000      -0.459142       -12.4939
 187   2.0000      -0.455965       -12.4074
 188   2.0000      -0.454052       -12.3554
 189   2.0000      -0.452471       -12.3123
 190   2.0000      -0.452029       -12.3003
 191   2.0000      -0.448879       -12.2146
 192   2.0000      -0.444899       -12.1063
 193   2.0000      -0.441168       -12.0048
 194   2.0000      -0.438914       -11.9434
 195   2.0000      -0.437695       -11.9103
 196   2.0000      -0.434378       -11.8200
 197   2.0000      -0.430320       -11.7096
 198   2.0000      -0.427610       -11.6359
 199   2.0000      -0.424690       -11.5564
 200   2.0000      -0.423301       -11.5186
 201   2.0000      -0.420997       -11.4559
 202   2.0000      -0.416163       -11.3244
 203   2.0000      -0.411894       -11.2082
 204   2.0000      -0.410565       -11.1720
 205   2.0000      -0.409925       -11.1546
 206   2.0000      -0.408936       -11.1277
 207   2.0000      -0.390153       -10.6166
 208   2.0000      -0.383598       -10.4382
 209   2.0000      -0.376465       -10.2441
 210   2.0000      -0.359005        -9.7690
 211   2.0000      -0.351455        -9.5636
 212   2.0000      -0.348671        -9.4878
 213   2.0000      -0.345002        -9.3880
 214   2.0000      -0.344209        -9.3664
 215   2.0000      -0.341531        -9.2935
 216   2.0000      -0.340450        -9.2641
 217   2.0000      -0.330314        -8.9883
 218   2.0000      -0.326607        -8.8874
 219   2.0000      -0.320039        -8.7087
 220   2.0000      -0.313301        -8.5254
 221   2.0000      -0.305546        -8.3143
 222   2.0000      -0.283123        -7.7042
 223   0.0000      -0.109906        -2.9907
 224   0.0000      -0.097896        -2.6639
 225   0.0000      -0.065933        -1.7941
 226   0.0000      -0.055136        -1.5003
 227   0.0000      -0.047712        -1.2983

MULLIKEN ATOMIC CHARGES
-----------------------
   0 C :    0.037073
   1 C :   -0.127601
   2 S :    0.193187
   3 C :   -0.164586
   4 Cl:    0.012823
   5 C :    0.076255
   6 C :    0.168693
   7 O :   -0.150231
   8 C :   -0.094450
   9 C :    0.284726
  10 C :   -0.331539
  11 C :   -0.192815
  12 N :    0.159384
  13 C :   -0.189812
  14 N :    0.172059
  15 C :    0.058069
  16 C :   -0.117496
  17 S :    0.214812
  18 C :   -0.195582
  19 C :    0.161223
  20 O :   -0.178041
  21 C :    0.127344
  22 C :   -0.013139
  23 C :   -0.192771
  24 S :    0.154537
  25 C :   -0.150739
  26 C :   -0.072983
  27 C :   -0.053654
  28 C :    0.200869
  29 C :   -0.208336
  30 C :    0.476782
  31 F :   -0.166974
  32 F :   -0.171499
  33 F :   -0.174997
  34 C :    0.064894
  35 C :    0.161345
  36 C :    0.064506
  37 C :    0.009580
  38 C :   -0.011551
  39 C :    0.009733
  40 N :   -0.039405
  41 C :   -0.005540
  42 C :    0.037071
  43 C :   -0.126199
  44 C :    0.133565
  45 O :   -0.121958
  46 C :    0.089389
  47 C :   -0.171985
  48 S :    0.192685
  49 C :   -0.124872
  50 C :    0.013889
  51 C :    0.269204
  52 C :   -0.314338
  53 C :   -0.190714
  54 N :    0.160839
  55 C :   -0.178363
  56 N :    0.173433
  57 Cl:    0.004441
  58 H :    0.056108
  59 H :    0.014275
  60 H :   -0.001144
  61 H :    0.019695
  62 H :    0.020329
  63 H :    0.022663
  64 H :    0.044612
  65 H :    0.012553
  66 H :    0.023827
  67 H :    0.011914
  68 H :    0.013231
  69 H :   -0.002308
  70 H :    0.010513
  71 H :    0.012085
  72 H :    0.036048
  73 H :    0.055362
Sum of atomic charges:    0.0000000

LOEWDIN ATOMIC CHARGES
----------------------
   0 C :   -0.059303
   1 C :   -0.146422
   2 S :    0.482440
   3 C :   -0.269554
   4 Cl:    0.201836
   5 C :   -0.118387
   6 C :    0.093851
   7 O :   -0.135844
   8 C :   -0.080541
   9 C :    0.074320
  10 C :   -0.132207
  11 C :   -0.014802
  12 N :   -0.046380
  13 C :   -0.028260
  14 N :   -0.037388
  15 C :    0.053421
  16 C :   -0.173080
  17 S :    0.506082
  18 C :   -0.213743
  19 C :    0.078123
  20 O :   -0.130890
  21 C :   -0.050028
  22 C :   -0.010361
  23 C :   -0.185874
  24 S :    0.446248
  25 C :   -0.169444
  26 C :   -0.050960
  27 C :   -0.046052
  28 C :   -0.016788
  29 C :   -0.061670
  30 C :    0.159343
  31 F :   -0.061540
  32 F :   -0.068111
  33 F :   -0.068829
  34 C :   -0.017496
  35 C :   -0.023337
  36 C :   -0.047927
  37 C :    0.027426
  38 C :   -0.061517
  39 C :    0.029731
  40 N :   -0.053859
  41 C :    0.039974
  42 C :    0.079210
  43 C :   -0.076531
  44 C :    0.081627
  45 O :   -0.127318
  46 C :   -0.119552
  47 C :   -0.271393
  48 S :    0.481237
  49 C :   -0.149890
  50 C :   -0.058044
  51 C :    0.066213
  52 C :   -0.124496
  53 C :   -0.015364
  54 N :   -0.043750
  55 C :   -0.018741
  56 N :   -0.038765
  57 Cl:    0.195396
  58 H :    0.038621
  59 H :    0.046570
  60 H :   -0.001383
  61 H :    0.032180
  62 H :    0.033454
  63 H :    0.039033
  64 H :    0.041475
  65 H :    0.031440
  66 H :    0.030334
  67 H :    0.033449
  68 H :    0.034927
  69 H :    0.029529
  70 H :    0.022720
  71 H :    0.026661
  72 H :    0.050328
  73 H :    0.038626

  Mayer bond orders larger than 0.100000
B(  0-C ,  1-C ) :   1.5450 B(  0-C ,  5-C ) :   1.2217 B(  0-C ,  9-C ) :   0.9956
B(  1-C ,  2-S ) :   1.1633 B(  1-C , 58-H ) :   0.9544 B(  2-S ,  3-C ) :   1.1541
B(  3-C ,  4-Cl) :   1.1364 B(  3-C ,  5-C ) :   1.4669 B(  5-C ,  6-C ) :   0.9800
B(  6-C ,  7-O ) :   2.1317 B(  6-C ,  8-C ) :   0.9308 B(  8-C ,  9-C ) :   1.0663
B(  8-C , 15-C ) :   1.6438 B(  9-C , 10-C ) :   1.6612 B( 10-C , 11-C ) :   1.1490
B( 10-C , 13-C ) :   1.1290 B( 11-C , 12-N ) :   2.9921 B( 13-C , 14-N ) :   2.9874
B( 15-C , 16-C ) :   1.1718 B( 15-C , 59-H ) :   0.9238 B( 16-C , 17-S ) :   1.1395
B( 16-C , 22-C ) :   1.4379 B( 17-S , 18-C ) :   1.1381 B( 18-C , 19-C ) :   1.0084
B( 18-C , 21-C ) :   1.4137 B( 19-C , 20-O ) :   2.1758 B( 19-C , 60-H ) :   0.9539
B( 21-C , 22-C ) :   1.2900 B( 21-C , 23-C ) :   0.9903 B( 22-C , 61-H ) :   0.9822
B( 23-C , 24-S ) :   1.1251 B( 23-C , 25-C ) :   0.1180 B( 23-C , 27-C ) :   1.5871
B( 24-S , 25-C ) :   1.1270 B( 25-C , 26-C ) :   1.5899 B( 25-C , 36-C ) :   1.0005
B( 26-C , 27-C ) :   1.2520 B( 26-C , 35-C ) :   1.0731 B( 27-C , 28-C ) :   1.0822
B( 28-C , 29-C ) :   1.0313 B( 28-C , 62-H ) :   0.8982 B( 28-C , 63-H ) :   0.8926
B( 29-C , 30-C ) :   0.9953 B( 29-C , 34-C ) :   1.0244 B( 29-C , 64-H ) :   0.8887
B( 30-C , 31-F ) :   1.1426 B( 30-C , 32-F ) :   1.1434 B( 30-C , 33-F ) :   1.1393
B( 34-C , 35-C ) :   1.1164 B( 34-C , 65-H ) :   0.9264 B( 34-C , 66-H ) :   0.9310
B( 35-C , 67-H ) :   0.9141 B( 35-C , 68-H ) :   0.8808 B( 36-C , 37-C ) :   1.3752
B( 36-C , 41-C ) :   1.3411 B( 37-C , 38-C ) :   1.3802 B( 37-C , 69-H ) :   0.9905
B( 38-C , 39-C ) :   1.3202 B( 38-C , 42-C ) :   0.9842 B( 39-C , 40-N ) :   1.5788
B( 39-C , 70-H ) :   0.9860 B( 40-N , 41-C ) :   1.5483 B( 41-C , 71-H ) :   0.9859
B( 42-C , 43-C ) :   1.7862 B( 42-C , 72-H ) :   0.9450 B( 43-C , 44-C ) :   0.9224
B( 43-C , 51-C ) :   1.0039 B( 44-C , 45-O ) :   2.2911 B( 44-C , 46-C ) :   0.9254
B( 46-C , 47-C ) :   1.4763 B( 46-C , 50-C ) :   1.2227 B( 47-C , 48-S ) :   1.1562
B( 47-C , 57-Cl) :   1.1335 B( 48-S , 49-C ) :   1.1635 B( 49-C , 50-C ) :   1.5479
B( 49-C , 73-H ) :   0.9556 B( 50-C , 51-C ) :   1.0139 B( 51-C , 52-C ) :   1.6943
B( 52-C , 53-C ) :   1.1331 B( 52-C , 55-C ) :   1.1519 B( 53-C , 54-N ) :   3.0008
B( 55-C , 56-N ) :   2.9909

-----------------------------------------------------------------------------
         ABSORPTION SPECTRUM VIA TRANSITION ELECTRIC DIPOLE MOMENTS
-----------------------------------------------------------------------------
State   Energy  Wavelength   fosc         T2         TX        TY        TZ
        (cm-1)    (nm)                  (au**2)     (au)      (au)      (au)
-----------------------------------------------------------------------------
   0   22213.1    450.2   0.102737378   1.52263  -0.85549  -0.77231   0.44081
   1   24682.8    405.1   0.047966121   0.63976  -0.46146  -0.34652   0.55384
   2   25398.3    393.7   0.671104146   8.69884  -0.23365  -2.68364   1.20096
   3   27392.4    365.1   0.018010483   0.21646   0.07114  -0.44863   0.10064
   4   28947.6    345.5   0.182530518   2.07586   0.58441   1.19528  -0.55284
   5   28971.2    345.2   0.008366561   0.09507  -0.14988  -0.11447  -0.24394
   6   29384.1    340.3   0.342621285   3.83864   0.03486   1.64625  -1.06173
   7   29797.2    335.6   0.019863022   0.21946  -0.00344  -0.21917   0.41401
   8   30765.4    325.0   0.022318103   0.23882   0.02032   0.37065  -0.31785
   9   30913.9    323.5   0.117594987   1.25231   0.04279  -0.81642   0.76416
  10   31013.6    322.4   0.034279358   0.36388  -0.11932   0.48668  -0.33584
  11   32036.6    312.1   0.021217285   0.21803   0.43759   0.05531  -0.15325
  12   32917.6    303.8   0.209165717   2.09189  -1.34165  -0.04127   0.53865
  13   33301.7    300.3   0.213151065   2.10716  -0.11776   0.76206  -1.22986
  14   33732.2    296.5   0.025546361   0.24932  -0.21157   0.26269  -0.36818
  15   34050.4    293.7   0.003154970   0.03050  -0.10605   0.11150  -0.08261
  16   34186.8    292.5   0.091991643   0.88586  -0.06909   0.46605  -0.81479
  17   34868.1    286.8   0.377603052   3.56519   1.74282  -0.68523   0.24129
  18   35025.4    285.5   0.046451857   0.43661   0.62239   0.08789   0.20376
  19   35834.4    279.1   0.180010372   1.65376   0.40226  -0.11342   1.21618
  20   36063.6    277.3   0.012809549   0.11693  -0.15433   0.25864  -0.16193
  21   36208.5    276.2   0.098234516   0.89316  -0.33599   0.23910  -0.85035
  22   36426.1    274.5   0.314948976   2.84645   1.30803  -0.38060  -0.99532
  23   36990.6    270.3   0.348750473   3.10384   1.44183  -0.53882  -0.85712
  24   38091.2    262.5   0.793649182   6.85930   0.98587  -0.25167   2.41330
  25   38994.8    256.4   0.048750476   0.41157  -0.08170   0.51857  -0.36876
  26   39440.9    253.5   0.118106595   0.98583  -0.61466  -0.69396   0.35559
  27   39713.7    251.8   0.016804937   0.13931   0.18769   0.25113  -0.20252
  28   39813.8    251.2   0.002877246   0.02379  -0.13647  -0.06817  -0.02279
  29   39997.9    250.0   0.006491208   0.05343   0.07726   0.03216  -0.21546
  30   40241.6    248.5   0.169794678   1.38907  -0.14976   0.93913  -0.69618

FINAL SINGLE POINT ENERGY     -4880.354098028903

DIPOLE MOMENT
-------------
                                X             Y             Z
Electronic contribution:      6.54341       8.48739       4.01280
Nuclear contribution   :     -3.68807      -8.92065      -3.61744
                        -----------------------------------------
Total Dipole Moment    :      2.85534      -0.43326       0.39536
                        -----------------------------------------
Magnitude (a.u.)       :      2.91496
Magnitude (Debye)      :      7.40923

Rotational constants in cm-1:     0.002403     0.000413     0.000390
Rotational constants in MHz :    72.031166    12.373538    11.683380

                             ****ORCA TERMINATED NORMALLY****
TOTAL RUN TIME: 0 days 0 hours 6 minutes 9 seconds 300 msec
