                         Program Version 4.2.0 -  RELEASE  -
|  1> # ORCA input file
|  2> # SCF done       -154.822229062251          0.000710297469
|  3> ! CAM-B3LYP def2-SVP def2/J RIJCOSX Grid4 TightSCF
|  4> %maxcore 5000
|  5> %tddft
|  6>     Mode sTDDFT
|  7>     Ethresh 5.0
|  8>     maxcore 5000
|  9> end
| 10>
| 11> %pal
| 12>   nprocs 6
| 13>   end
| 14> * xyz 0 1
| 15>    C        7.99454        -6.14947         4.10852
| 16>    C        8.61274        -7.05181         4.91799
| 17>    S        8.07721        -8.65848         4.58351
| 18>    C        6.99380        -8.11513         3.32479
| 19>   Cl        6.05182        -9.19490         2.43130
| 20>    C        7.06797        -6.75517         3.19877
| 21>    C        6.45326        -5.73933         2.35751
| 22>    O        5.62166        -5.91002         1.48748
| 23>    C        7.03541        -4.43981         2.82454
| 24>    C        8.00996        -4.72085         3.88205
| 25>    C        8.83241        -3.83947         4.52638
| 26>    C        9.73123        -4.27478         5.52552
| 27>    N       10.46450        -4.60949         6.34084
| 28>    C        8.91155        -2.45111         4.29285
| 29>    N        9.03289        -1.31883         4.14856
| 30>    C        6.63342        -3.19906         2.45796
| 31>    C        5.66366        -2.85886         1.44324
| 32>    C        5.54039        -3.54200         0.23678
| 33>    C        4.50778        -3.21103        -0.64225
| 34>    C        3.71315        -2.10531        -0.31152
| 35>    N        3.86236        -1.41785         0.80123
| 36>    C        4.78431        -1.78486         1.66466
| 37>    C        4.27912        -3.99833        -1.82441
| 38>    S        3.51631        -3.35669        -3.25464
| 39>    C        3.59772        -4.86277        -4.12493
| 40>    C        4.18081        -5.83704        -3.31637
| 41>    C        4.55712        -5.33569        -2.02527
| 42>    N        5.07846        -6.36154        -1.30123
| 43>    C        5.03072        -7.48403        -2.09066
| 44>    N        5.50146        -8.71506        -1.60204
| 45>    O        5.95735        -8.72426        -0.46892
| 46>    O        5.42432        -9.68536        -2.32927
| 47>    C        4.50223        -7.21085        -3.33592
| 48>    C        3.10822        -4.97329        -5.44578
| 49>    S        3.24419        -6.46544        -6.33648
| 50>    C        2.45775        -5.77401        -7.71911
| 51>    C        2.11406        -4.43646        -7.48274
| 52>    C        2.48834        -4.00160        -6.20258
| 53>    C        1.47727        -3.55898        -8.45496
| 54>    O        1.16451        -3.84300        -9.58653
| 55>    C        2.25967        -6.48277        -8.92276
| 56>    C        2.73275        -7.72824        -9.18579
| 57>    C        2.54144        -8.41233       -10.41146
| 58>    C        2.26220        -7.93314       -11.65673
| 59>    C        1.72765        -8.90799       -12.66376
| 60>    O        1.70940       -10.11032       -12.55287
| 61>    C        1.20793        -8.07093       -13.74868
| 62>    C        0.51702        -8.24729       -14.90993
| 63>    S        0.23510        -6.71027       -15.69286
| 64>    C        1.06521        -5.85054       -14.44661
| 65>    C        1.52291        -6.69723       -13.48708
| 66>    C        2.29147        -6.60998       -12.25677
| 67>    C        3.04983        -5.52053       -11.91737
| 68>    C        3.02460        -4.33737       -12.68592
| 69>    N        3.02317        -3.36878       -13.30018
| 70>    C        3.96205        -5.45938       -10.84926
| 71>    N        4.73785        -5.36392       -10.00817
| 72>   Cl       -0.03606        -9.69773       -15.58805
| 73>    H        9.34182        -6.88833         5.68666
| 74>    H        7.01458        -2.35422         3.01852
| 75>    H        6.26982        -4.28217        -0.04642
| 76>    H        2.93292        -1.76802        -0.98127
| 77>    H        4.82960        -1.21296         2.58125
| 78>    H        5.31677        -6.36672        -0.31359
| 79>    H        4.37135        -7.91582        -4.13060
| 80>    H        2.31665        -3.00509        -5.83484
| 81>    H        1.29053        -2.54464        -8.05574
| 82>    H        1.67216        -5.95923        -9.66466
| 83>    H        3.24033        -8.27288        -8.39904
| 84>    H        2.56790        -9.49750       -10.35776
| 85>    H        1.14409        -4.78344       -14.50703
| 86> *
| 87>
| 88>                          ****END OF INPUT****

CARTESIAN COORDINATES (ANGSTROEM)
---------------------------------
  C      7.994540   -6.149470    4.108520
  C      8.612740   -7.051810    4.917990
  S      8.077210   -8.658480    4.583510
  C      6.993800   -8.115130    3.324790
  Cl     6.051820   -9.194900    2.431300
  C      7.067970   -6.755170    3.198770
  C      6.453260   -5.739330    2.357510
  O      5.621660   -5.910020    1.487480
  C      7.035410   -4.439810    2.824540
  C      8.009960   -4.720850    3.882050
  C      8.832410   -3.839470    4.526380
  C      9.731230   -4.274780    5.525520
  N     10.464500   -4.609490    6.340840
  C      8.911550   -2.451110    4.292850
  N      9.032890   -1.318830    4.148560
  C      6.633420   -3.199060    2.457960
  C      5.663660   -2.858860    1.443240
  C      5.540390   -3.542000    0.236780
  C      4.507780   -3.211030   -0.642250
  C      3.713150   -2.105310   -0.311520
  N      3.862360   -1.417850    0.801230
  C      4.784310   -1.784860    1.664660
  C      4.279120   -3.998330   -1.824410
  S      3.516310   -3.356690   -3.254640
  C      3.597720   -4.862770   -4.124930
  C      4.180810   -5.837040   -3.316370
  C      4.557120   -5.335690   -2.025270
  N      5.078460   -6.361540   -1.301230
  C      5.030720   -7.484030   -2.090660
  N      5.501460   -8.715060   -1.602040
  O      5.957350   -8.724260   -0.468920
  O      5.424320   -9.685360   -2.329270
  C      4.502230   -7.210850   -3.335920
  C      3.108220   -4.973290   -5.445780
  S      3.244190   -6.465440   -6.336480
  C      2.457750   -5.774010   -7.719110
  C      2.114060   -4.436460   -7.482740
  C      2.488340   -4.001600   -6.202580
  C      1.477270   -3.558980   -8.454960
  O      1.164510   -3.843000   -9.586530
  C      2.259670   -6.482770   -8.922760
  C      2.732750   -7.728240   -9.185790
  C      2.541440   -8.412330  -10.411460
  C      2.262200   -7.933140  -11.656730
  C      1.727650   -8.907990  -12.663760
  O      1.709400  -10.110320  -12.552870
  C      1.207930   -8.070930  -13.748680
  C      0.517020   -8.247290  -14.909930
  S      0.235100   -6.710270  -15.692860
  C      1.065210   -5.850540  -14.446610
  C      1.522910   -6.697230  -13.487080
  C      2.291470   -6.609980  -12.256770
  C      3.049830   -5.520530  -11.917370
  C      3.024600   -4.337370  -12.685920
  N      3.023170   -3.368780  -13.300180
  C      3.962050   -5.459380  -10.849260
  N      4.737850   -5.363920  -10.008170
  Cl    -0.036060   -9.697730  -15.588050
  H      9.341820   -6.888330    5.686660
  H      7.014580   -2.354220    3.018520
  H      6.269820   -4.282170   -0.046420
  H      2.932920   -1.768020   -0.981270
  H      4.829600   -1.212960    2.581250
  H      5.316770   -6.366720   -0.313590
  H      4.371350   -7.915820   -4.130600
  H      2.316650   -3.005090   -5.834840
  H      1.290530   -2.544640   -8.055740
  H      1.672160   -5.959230   -9.664660
  H      3.240330   -8.272880   -8.399040
  H      2.567900   -9.497500  -10.357760
  H      1.144090   -4.783440  -14.507030

 Total Charge           Charge          ....    0
 Multiplicity           Mult            ....    1
 Number of Electrons    NEL             ....  440
 Basis Dimension        Dim             ....  901

ORBITAL ENERGIES
----------------

  NO   OCC          E(Eh)            E(eV)
   0   2.0000    -101.625674     -2765.3752
   1   2.0000    -101.612504     -2765.0168
   2   2.0000     -89.006564     -2421.9917
   3   2.0000     -88.987265     -2421.4666
   4   2.0000     -88.985886     -2421.4291
   5   2.0000     -88.984224     -2421.3838
   6   2.0000     -19.251625      -523.8633
   7   2.0000     -19.251504      -523.8601
   8   2.0000     -19.247476      -523.7505
   9   2.0000     -19.227411      -523.2044
  10   2.0000     -19.213394      -522.8230
  11   2.0000     -14.661472      -398.9589
  12   2.0000     -14.477586      -393.9551
  13   2.0000     -14.434527      -392.7834
  14   2.0000     -14.432590      -392.7307
  15   2.0000     -14.421554      -392.4304
  16   2.0000     -14.416724      -392.2990
  17   2.0000     -14.413116      -392.2008
  18   2.0000     -10.404725      -283.1270
  19   2.0000     -10.390920      -282.7513
  20   2.0000     -10.372542      -282.2512
  21   2.0000     -10.370585      -282.1980
  22   2.0000     -10.369999      -282.1820
  23   2.0000     -10.369638      -282.1722
  24   2.0000     -10.363817      -282.0138
  25   2.0000     -10.363202      -281.9971
  26   2.0000     -10.343977      -281.4739
  27   2.0000     -10.342217      -281.4260
  28   2.0000     -10.341814      -281.4151
  29   2.0000     -10.340780      -281.3869
  30   2.0000     -10.336660      -281.2748
  31   2.0000     -10.336045      -281.2581
  32   2.0000     -10.335814      -281.2518
  33   2.0000     -10.334301      -281.2106
  34   2.0000     -10.334046      -281.2037
  35   2.0000     -10.330314      -281.1021
  36   2.0000     -10.327994      -281.0390
  37   2.0000     -10.327924      -281.0371
  38   2.0000     -10.327801      -281.0337
  39   2.0000     -10.326436      -280.9966
  40   2.0000     -10.324096      -280.9329
  41   2.0000     -10.322778      -280.8971
  42   2.0000     -10.317798      -280.7615
  43   2.0000     -10.315324      -280.6942
  44   2.0000     -10.315310      -280.6939
  45   2.0000     -10.314586      -280.6742
  46   2.0000     -10.314106      -280.6611
  47   2.0000     -10.313948      -280.6568
  48   2.0000     -10.313094      -280.6335
  49   2.0000     -10.306851      -280.4637
  50   2.0000     -10.306490      -280.4539
  51   2.0000     -10.305243      -280.4199
  52   2.0000     -10.303808      -280.3809
  53   2.0000     -10.301876      -280.3283
  54   2.0000     -10.301168      -280.3090
  55   2.0000     -10.300303      -280.2855
  56   2.0000     -10.296518      -280.1825
  57   2.0000     -10.294435      -280.1258
  58   2.0000      -9.580188      -260.6902
  59   2.0000      -9.567305      -260.3396
  60   2.0000      -8.102221      -220.4726
  61   2.0000      -8.083030      -219.9504
  62   2.0000      -8.080287      -219.8758
  63   2.0000      -8.079314      -219.8493
  64   2.0000      -7.350884      -200.0277
  65   2.0000      -7.340241      -199.7381
  66   2.0000      -7.339562      -199.7196
  67   2.0000      -7.337912      -199.6747
  68   2.0000      -7.327357      -199.3875
  69   2.0000      -7.326828      -199.3731
  70   2.0000      -6.071582      -165.2161
  71   2.0000      -6.066901      -165.0888
  72   2.0000      -6.064574      -165.0254
  73   2.0000      -6.052447      -164.6955
  74   2.0000      -6.049702      -164.6208
  75   2.0000      -6.048533      -164.5890
  76   2.0000      -6.047820      -164.5696
  77   2.0000      -6.045441      -164.5048
  78   2.0000      -6.045220      -164.4988
  79   2.0000      -6.044394      -164.4763
  80   2.0000      -6.042479      -164.4242
  81   2.0000      -6.041599      -164.4003
  82   2.0000      -1.331976       -36.2449
  83   2.0000      -1.163502       -31.6605
  84   2.0000      -1.150456       -31.3055
  85   2.0000      -1.139746       -31.0141
  86   2.0000      -1.130607       -30.7654
  87   2.0000      -1.108454       -30.1626
  88   2.0000      -1.060182       -28.8490
  89   2.0000      -1.051845       -28.6222
  90   2.0000      -1.032405       -28.0932
  91   2.0000      -1.030729       -28.0476
  92   2.0000      -1.017699       -27.6930
  93   2.0000      -1.012045       -27.5392
  94   2.0000      -1.011882       -27.5347
  95   2.0000      -1.001928       -27.2638
  96   2.0000      -0.994603       -27.0645
  97   2.0000      -0.992731       -27.0136
  98   2.0000      -0.982506       -26.7353
  99   2.0000      -0.968587       -26.3566
 100   2.0000      -0.950306       -25.8591
 101   2.0000      -0.943766       -25.6812
 102   2.0000      -0.933191       -25.3934
 103   2.0000      -0.923458       -25.1286
 104   2.0000      -0.918803       -25.0019
 105   2.0000      -0.910875       -24.7862
 106   2.0000      -0.900810       -24.5123
 107   2.0000      -0.888208       -24.1694
 108   2.0000      -0.882052       -24.0019
 109   2.0000      -0.872031       -23.7292
 110   2.0000      -0.864785       -23.5320
 111   2.0000      -0.846489       -23.0341
 112   2.0000      -0.840077       -22.8596
 113   2.0000      -0.826908       -22.5013
 114   2.0000      -0.811657       -22.0863
 115   2.0000      -0.802461       -21.8361
 116   2.0000      -0.792506       -21.5652
 117   2.0000      -0.780770       -21.2458
 118   2.0000      -0.771903       -21.0046
 119   2.0000      -0.754693       -20.5363
 120   2.0000      -0.752439       -20.4749
 121   2.0000      -0.744039       -20.2463
 122   2.0000      -0.733752       -19.9664
 123   2.0000      -0.715625       -19.4732
 124   2.0000      -0.707460       -19.2510
 125   2.0000      -0.699481       -19.0338
 126   2.0000      -0.693381       -18.8678
 127   2.0000      -0.691149       -18.8071
 128   2.0000      -0.679896       -18.5009
 129   2.0000      -0.676690       -18.4137
 130   2.0000      -0.670148       -18.2356
 131   2.0000      -0.667448       -18.1622
 132   2.0000      -0.654849       -17.8193
 133   2.0000      -0.645534       -17.5659
 134   2.0000      -0.644125       -17.5275
 135   2.0000      -0.631324       -17.1792
 136   2.0000      -0.629704       -17.1351
 137   2.0000      -0.626153       -17.0385
 138   2.0000      -0.624652       -16.9976
 139   2.0000      -0.614394       -16.7185
 140   2.0000      -0.610320       -16.6076
 141   2.0000      -0.605680       -16.4814
 142   2.0000      -0.603141       -16.4123
 143   2.0000      -0.601215       -16.3599
 144   2.0000      -0.593069       -16.1382
 145   2.0000      -0.590600       -16.0710
 146   2.0000      -0.581087       -15.8122
 147   2.0000      -0.570608       -15.5270
 148   2.0000      -0.567953       -15.4548
 149   2.0000      -0.564671       -15.3655
 150   2.0000      -0.554133       -15.0787
 151   2.0000      -0.549403       -14.9500
 152   2.0000      -0.548692       -14.9307
 153   2.0000      -0.548087       -14.9142
 154   2.0000      -0.542991       -14.7755
 155   2.0000      -0.540666       -14.7123
 156   2.0000      -0.537233       -14.6189
 157   2.0000      -0.536241       -14.5919
 158   2.0000      -0.528946       -14.3933
 159   2.0000      -0.525427       -14.2976
 160   2.0000      -0.523235       -14.2380
 161   2.0000      -0.522209       -14.2100
 162   2.0000      -0.519151       -14.1268
 163   2.0000      -0.518186       -14.1005
 164   2.0000      -0.514564       -14.0020
 165   2.0000      -0.510483       -13.8909
 166   2.0000      -0.507814       -13.8183
 167   2.0000      -0.505300       -13.7499
 168   2.0000      -0.499430       -13.5902
 169   2.0000      -0.498643       -13.5688
 170   2.0000      -0.497364       -13.5340
 171   2.0000      -0.491899       -13.3853
 172   2.0000      -0.484712       -13.1897
 173   2.0000      -0.483055       -13.1446
 174   2.0000      -0.481535       -13.1032
 175   2.0000      -0.479676       -13.0526
 176   2.0000      -0.471371       -12.8267
 177   2.0000      -0.469075       -12.7642
 178   2.0000      -0.465731       -12.6732
 179   2.0000      -0.464358       -12.6358
 180   2.0000      -0.460672       -12.5355
 181   2.0000      -0.459323       -12.4988
 182   2.0000      -0.456778       -12.4296
 183   2.0000      -0.450557       -12.2603
 184   2.0000      -0.449890       -12.2421
 185   2.0000      -0.446656       -12.1541
 186   2.0000      -0.445564       -12.1244
 187   2.0000      -0.444769       -12.1028
 188   2.0000      -0.442525       -12.0417
 189   2.0000      -0.440376       -11.9832
 190   2.0000      -0.435981       -11.8636
 191   2.0000      -0.435223       -11.8430
 192   2.0000      -0.430543       -11.7157
 193   2.0000      -0.429040       -11.6748
 194   2.0000      -0.426971       -11.6185
 195   2.0000      -0.420982       -11.4555
 196   2.0000      -0.412578       -11.2268
 197   2.0000      -0.410824       -11.1791
 198   2.0000      -0.406789       -11.0693
 199   2.0000      -0.400992       -10.9115
 200   2.0000      -0.398539       -10.8448
 201   2.0000      -0.396892       -10.8000
 202   2.0000      -0.389433       -10.5970
 203   2.0000      -0.383696       -10.4409
 204   2.0000      -0.380309       -10.3487
 205   2.0000      -0.374147       -10.1810
 206   2.0000      -0.359077        -9.7710
 207   2.0000      -0.355567        -9.6755
 208   2.0000      -0.351150        -9.5553
 209   2.0000      -0.347665        -9.4604
 210   2.0000      -0.347445        -9.4545
 211   2.0000      -0.343776        -9.3546
 212   2.0000      -0.338660        -9.2154
 213   2.0000      -0.335434        -9.1276
 214   2.0000      -0.328787        -8.9467
 215   2.0000      -0.324676        -8.8349
 216   2.0000      -0.317410        -8.6372
 217   2.0000      -0.311245        -8.4694
 218   2.0000      -0.296509        -8.0684
 219   2.0000      -0.250592        -6.8190
 220   0.0000      -0.107741        -2.9318
 221   0.0000      -0.106422        -2.8959
 222   0.0000      -0.077998        -2.1224
 223   0.0000      -0.072713        -1.9786
 224   0.0000      -0.051838        -1.4106

MULLIKEN ATOMIC CHARGES
-----------------------
   0 C :    0.038955
   1 C :   -0.129995
   2 S :    0.200187
   3 C :   -0.157173
   4 Cl:    0.037444
   5 C :    0.068083
   6 C :    0.182430
   7 O :   -0.181260
   8 C :   -0.084870
   9 C :    0.280751
  10 C :   -0.318275
  11 C :   -0.191856
  12 N :    0.161633
  13 C :   -0.189368
  14 N :    0.169909
  15 C :   -0.011208
  16 C :    0.009206
  17 C :    0.053637
  18 C :    0.019022
  19 C :   -0.003594
  20 N :   -0.047919
  21 C :    0.008021
  22 C :   -0.174275
  23 S :    0.161703
  24 C :   -0.084372
  25 C :    0.069361
  26 C :    0.133792
  27 N :   -0.042806
  28 C :    0.138740
  29 N :    0.286052
  30 O :   -0.266076
  31 O :   -0.237599
  32 C :   -0.096852
  33 C :   -0.043665
  34 S :    0.148645
  35 C :   -0.079085
  36 C :    0.046453
  37 C :   -0.038156
  38 C :    0.160360
  39 O :   -0.183726
  40 C :    0.011443
  41 C :    0.015978
  42 C :    0.034173
  43 C :   -0.132413
  44 C :    0.124291
  45 O :   -0.134305
  46 C :    0.098223
  47 C :   -0.173723
  48 S :    0.180133
  49 C :   -0.127066
  50 C :    0.005150
  51 C :    0.280391
  52 C :   -0.315672
  53 C :   -0.177288
  54 N :    0.152143
  55 C :   -0.200411
  56 N :    0.173128
  57 Cl:   -0.003470
  58 H :    0.058656
  59 H :    0.035150
  60 H :   -0.009207
  61 H :    0.007877
  62 H :    0.010333
  63 H :    0.147037
  64 H :    0.002426
  65 H :   -0.003220
  66 H :   -0.008469
  67 H :    0.043786
  68 H :    0.005676
  69 H :    0.031490
  70 H :    0.055505
Sum of atomic charges:   -0.0000000

LOEWDIN ATOMIC CHARGES
----------------------
   0 C :   -0.058688
   1 C :   -0.146636
   2 S :    0.489187
   3 C :   -0.263952
   4 Cl:    0.227335
   5 C :   -0.123712
   6 C :    0.105726
   7 O :   -0.144991
   8 C :   -0.080065
   9 C :    0.073477
  10 C :   -0.126981
  11 C :   -0.015113
  12 N :   -0.042135
  13 C :   -0.025727
  14 N :   -0.035701
  15 C :    0.086371
  16 C :   -0.061552
  17 C :    0.041353
  18 C :   -0.058348
  19 C :    0.033490
  20 N :   -0.059002
  21 C :    0.037896
  22 C :   -0.208280
  23 S :    0.474701
  24 C :   -0.188987
  25 C :   -0.068020
  26 C :    0.004269
  27 N :    0.065542
  28 C :    0.004422
  29 N :    0.279959
  30 O :   -0.228703
  31 O :   -0.199916
  32 C :   -0.038957
  33 C :   -0.167338
  34 S :    0.479550
  35 C :   -0.135100
  36 C :   -0.100485
  37 C :   -0.044090
  38 C :    0.118896
  39 O :   -0.135041
  40 C :    0.014861
  41 C :   -0.038923
  42 C :    0.063568
  43 C :   -0.085354
  44 C :    0.079920
  45 O :   -0.136649
  46 C :   -0.118280
  47 C :   -0.273705
  48 S :    0.470372
  49 C :   -0.151644
  50 C :   -0.055588
  51 C :    0.065449
  52 C :   -0.130637
  53 C :   -0.012383
  54 N :   -0.052270
  55 C :   -0.013522
  56 N :   -0.043965
  57 Cl:    0.188959
  58 H :    0.039493
  59 H :    0.049770
  60 H :    0.030172
  61 H :    0.020410
  62 H :    0.026483
  63 H :    0.075519
  64 H :    0.034025
  65 H :    0.030091
  66 H :    0.003171
  67 H :    0.041398
  68 H :    0.028258
  69 H :    0.048461
  70 H :    0.037885

  Mayer bond orders larger than 0.100000
B(  0-C ,  1-C ) :   1.5415 B(  0-C ,  5-C ) :   1.2157 B(  0-C ,  9-C ) :   1.0070
B(  1-C ,  2-S ) :   1.1622 B(  1-C , 58-H ) :   0.9547 B(  2-S ,  3-C ) :   1.1615
B(  3-C ,  4-Cl) :   1.1628 B(  3-C ,  5-C ) :   1.4453 B(  5-C ,  6-C ) :   0.9930
B(  6-C ,  7-O ) :   2.0685 B(  6-C ,  8-C ) :   0.9431 B(  8-C ,  9-C ) :   1.0414
B(  8-C , 15-C ) :   1.6976 B(  9-C , 10-C ) :   1.6796 B( 10-C , 11-C ) :   1.1418
B( 10-C , 13-C ) :   1.1326 B( 11-C , 12-N ) :   2.9931 B( 13-C , 14-N ) :   2.9790
B( 15-C , 16-C ) :   1.0400 B( 15-C , 59-H ) :   0.9430 B( 16-C , 17-C ) :   1.3822
B( 16-C , 21-C ) :   1.3041 B( 17-C , 18-C ) :   1.4063 B( 17-C , 60-H ) :   0.9717
B( 18-C , 19-C ) :   1.3185 B( 18-C , 22-C ) :   1.0281 B( 19-C , 20-N ) :   1.5671
B( 19-C , 61-H ) :   0.9856 B( 20-N , 21-C ) :   1.5665 B( 21-C , 62-H ) :   0.9899
B( 22-C , 23-S ) :   1.1151 B( 22-C , 24-C ) :   0.1220 B( 22-C , 26-C ) :   1.4532
B( 23-S , 24-C ) :   1.1525 B( 24-C , 25-C ) :   1.3501 B( 24-C , 33-C ) :   1.1935
B( 25-C , 26-C ) :   1.2152 B( 25-C , 32-C ) :   1.1403 B( 26-C , 27-N ) :   1.1961
B( 27-N , 28-C ) :   1.1920 B( 27-N , 63-H ) :   0.8624 B( 28-C , 29-N ) :   0.9272
B( 28-C , 32-C ) :   1.5229 B( 29-N , 30-O ) :   1.4773 B( 29-N , 31-O ) :   1.5407
B( 30-O , 31-O ) :   0.2703 B( 32-C , 64-H ) :   1.0118 B( 33-C , 34-S ) :   1.1305
B( 33-C , 37-C ) :   1.4690 B( 34-S , 35-C ) :   1.1346 B( 35-C , 36-C ) :   1.4151
B( 35-C , 40-C ) :   1.2251 B( 36-C , 37-C ) :   1.2392 B( 36-C , 38-C ) :   0.9941
B( 37-C , 65-H ) :   0.9919 B( 38-C , 39-O ) :   2.1100 B( 38-C , 66-H ) :   0.9636
B( 40-C , 41-C ) :   1.5855 B( 40-C , 67-H ) :   0.9425 B( 41-C , 42-C ) :   1.1714
B( 41-C , 68-H ) :   0.9576 B( 42-C , 43-C ) :   1.6696 B( 42-C , 69-H ) :   0.9275
B( 43-C , 44-C ) :   0.9440 B( 43-C , 51-C ) :   1.0336 B( 44-C , 45-O ) :   2.2661
B( 44-C , 46-C ) :   0.9262 B( 46-C , 47-C ) :   1.4837 B( 46-C , 50-C ) :   1.2207
B( 47-C , 48-S ) :   1.1490 B( 47-C , 57-Cl) :   1.1258 B( 48-S , 49-C ) :   1.1559
B( 49-C , 50-C ) :   1.5594 B( 49-C , 70-H ) :   0.9541 B( 50-C , 51-C ) :   1.0060
B( 51-C , 52-C ) :   1.6642 B( 52-C , 53-C ) :   1.1293 B( 52-C , 55-C ) :   1.1735
B( 53-C , 54-N ) :   2.9985 B( 55-C , 56-N ) :   2.9837

-----------------------------------------------------------------------------
         ABSORPTION SPECTRUM VIA TRANSITION ELECTRIC DIPOLE MOMENTS
-----------------------------------------------------------------------------
State   Energy  Wavelength   fosc         T2         TX        TY        TZ
        (cm-1)    (nm)                  (au**2)     (au)      (au)      (au)
-----------------------------------------------------------------------------
   0   15723.4    636.0   0.986646838  20.65806   0.85619   0.82720   4.38643
   1   17279.9    578.7   0.010087311   0.19218   0.29296  -0.26191   0.19432
   2   21423.2    466.8   0.145801159   2.24053  -0.93874   0.21095  -1.14665
   3   24949.8    400.8   0.000667290   0.00880  -0.07304  -0.04230  -0.04099
   4   25223.3    396.5   0.042252751   0.55148  -0.71188  -0.19538   0.08078
   5   26403.8    378.7   0.094162033   1.17405   0.60133   0.51912   0.73686
   6   26889.0    371.9   0.220535566   2.70010   0.98817  -0.41574   1.24530
   7   28399.4    352.1   0.057770570   0.66969  -0.16619  -0.59204  -0.53997
   8   28464.8    351.3   0.069556444   0.80446  -0.17058  -0.52351  -0.70803
   9   28669.4    348.8   0.176885722   2.03119   0.37286   0.60692   1.23443
  10   29460.9    339.4   0.023763357   0.26554   0.10374  -0.44627   0.23584
  11   30345.9    329.5   0.228546480   2.47942  -0.76964   0.01820  -1.37359
  12   30529.4    327.6   0.002285087   0.02464  -0.00972   0.14678  -0.05479
  13   31055.6    322.0   0.017164967   0.18196   0.13228  -0.20328  -0.35091
  14   31888.7    313.6   0.094177638   0.97227  -0.28868  -0.58996  -0.73544
  15   31990.4    312.6   0.002733864   0.02813   0.15053   0.01801  -0.07177
  16   32086.9    311.7   0.043700458   0.44837  -0.46704   0.47807   0.04119
  17   32499.5    307.7   0.134621615   1.36368  -0.26013  -0.81739  -0.79239
  18   32663.7    306.2   0.063176429   0.63675   0.73215  -0.22060   0.22810
  19   33000.8    303.0   0.095197028   0.94967  -0.08330  -0.96684   0.08920
  20   33128.4    301.9   0.035538379   0.35316   0.48893  -0.24670   0.23075
  21   34347.9    291.1   0.006125985   0.05872  -0.06037  -0.17186  -0.15980
  22   35021.2    285.5   0.013304385   0.12507  -0.22290  -0.23747  -0.13781
  23   35334.0    283.0   0.088853095   0.82786  -0.52526   0.48594  -0.56198
  24   35551.4    281.3   0.079336961   0.73467  -0.41251  -0.64552  -0.38446
  25   35773.7    279.5   0.257782972   2.37228   0.34602  -1.46922   0.30650
  26   36207.4    276.2   0.304446911   2.76815  -0.85187  -1.34377  -0.48657
  27   36759.7    272.0   0.700449190   6.27306  -0.67603  -2.15329  -1.08599
  28   36903.6    271.0   0.319878327   2.85359  -0.65881   1.32221  -0.81935
  29   37286.6    268.2   0.014453789   0.12762   0.06574   0.35085  -0.01397
  30   37527.7    266.5   0.127705098   1.12029  -0.49765   0.75302  -0.55281
  31   37734.1    265.0   0.117248119   1.02293   0.67801  -0.05836   0.74822
  32   37801.5    264.5   0.007268052   0.06330  -0.05417   0.23201  -0.08084
  33   38072.9    262.7   0.232655373   2.01174   0.07516   1.41635  -0.00579
  34   38496.2    259.8   0.038366385   0.32810   0.11432  -0.55494  -0.08411
  35   39002.5    256.4   0.279214710   2.35679  -0.49774   1.00005  -1.05307
  36   39336.0    254.2   0.060787912   0.50875  -0.46173   0.10560  -0.53329
  37   39452.6    253.5   0.004760335   0.03972  -0.10401   0.12828  -0.11157
  38   39580.4    252.7   0.027279176   0.22690  -0.04346   0.47352   0.02797
  39   39783.6    251.4   0.003561146   0.02947   0.09715  -0.08858   0.11038
  40   40058.4    249.6   0.043032303   0.35365   0.02354   0.59416   0.00834
  41   40306.0    248.1   0.003294966   0.02691  -0.02667   0.02592   0.15978

FINAL SINGLE POINT ENERGY     -4800.776324504722

DIPOLE MOMENT
-------------
                                X             Y             Z
Electronic contribution:     -1.15969     -22.08385      -9.50845
Nuclear contribution   :     -0.08839      21.39689      10.94844
                        -----------------------------------------
Total Dipole Moment    :     -1.24808      -0.68696       1.43999
                        -----------------------------------------
Magnitude (a.u.)       :      2.02563
Magnitude (Debye)      :      5.14874

Rotational constants in cm-1:     0.003243     0.000352     0.000327
Rotational constants in MHz :    97.207778    10.551817     9.807247

                             ****ORCA TERMINATED NORMALLY****
TOTAL RUN TIME: 0 days 0 hours 7 minutes 16 seconds 878 msec
