                         Program Version 4.2.0 -  RELEASE  -
|  1> # ORCA input file
|  2> # SCF done       -194.608183575825          0.000429557905
|  3> ! CAM-B3LYP def2-SVP def2/J RIJCOSX Grid4 TightSCF
|  4> %maxcore 5000
|  5> %tddft
|  6>     Mode sTDDFT
|  7>     Ethresh 5.0
|  8>     maxcore 5000
|  9> end
| 10>
| 11> %pal
| 12>   nprocs 6
| 13>   end
| 14> * xyz 0 1
| 15>    C        0.58966         0.78337         0.22206
| 16>    C       -0.63816         1.35040         0.37585
| 17>    S       -1.83467         0.15983         0.73039
| 18>    C       -0.66118        -1.13377         0.66930
| 19>   Cl       -1.10775        -2.74510         0.93559
| 20>    C        0.57862        -0.63942         0.38834
| 21>    C        1.92752        -1.18228         0.20439
| 22>    O        2.27904        -2.33517         0.28637
| 23>    C        2.78825         0.02434        -0.03934
| 24>    C        1.93881         1.21363        -0.07517
| 25>    C        2.30327         2.49331        -0.38824
| 26>    C        1.35777         3.54209        -0.40353
| 27>    N        0.60005         4.40272        -0.41632
| 28>    C        3.60147         2.91233        -0.74609
| 29>    N        4.63213         3.31045        -1.05650
| 30>    C        4.14068         0.02839        -0.02603
| 31>    C        5.00655        -1.13129        -0.03321
| 32>    C        6.15092        -1.12359         0.75988
| 33>    C        6.99454        -2.22208         0.80095
| 34>    N        8.16106        -2.11168         1.63680
| 35>    O        8.14148        -1.27445         2.51324
| 36>    O        9.10181        -2.85039         1.41888
| 37>    C        6.74555        -3.36904         0.01996
| 38>    C        5.62107        -3.33121        -0.81564
| 39>    C        4.77159        -2.25004        -0.84425
| 40>    C        7.57526        -4.54967         0.10013
| 41>    C        7.80357        -5.36645        -0.94893
| 42>    C        8.61563        -6.53542        -1.00972
| 43>    N        9.53752        -7.01815        -0.11338
| 44>    C        9.95230        -6.46094         1.15338
| 45>    C        9.05771        -6.93379         2.29802
| 46>    C       10.13867        -8.20697        -0.57756
| 47>    O       10.99096        -8.81007         0.04326
| 48>    C        9.52256        -8.45343        -1.86198
| 49>    C        8.60492        -7.40422        -2.09763
| 50>    C        7.98849        -7.62041        -3.38915
| 51>    O        7.15316        -6.99285        -4.00457
| 52>    N        8.59929        -8.79771        -3.86409
| 53>    C        8.21320        -9.38941        -5.12329
| 54>    C        7.24795       -10.55554        -4.92897
| 55>    C        9.50664        -9.30672        -2.96548
| 56>    C       10.27106       -10.47631        -3.19771
| 57>    C       11.13823       -10.97799        -2.27926
| 58>    C       11.90263       -12.14232        -2.53541
| 59>    O       12.73663       -12.62721        -1.58071
| 60>    C       11.99859       -12.96336        -3.65131
| 61>    C       11.50405       -13.19784        -5.01070
| 62>    O       10.70435       -12.58821        -5.67583
| 63>    N       12.18314       -14.34129        -5.41952
| 64>    C       13.06206       -14.88014        -4.48059
| 65>    O       13.73867       -15.86097        -4.63976
| 66>    C       12.93530       -13.97176        -3.33579
| 67>    C       13.36539       -13.73601        -2.04304
| 68>    C       14.24966       -14.49655        -1.23688
| 69>    C       14.52113       -14.21801         0.06076
| 70>    C       15.39836       -14.97171         0.88575
| 71>    C       15.77625       -16.27673         0.81846
| 72>    C       16.99722       -16.68215         1.59437
| 73>    O       17.56325       -16.01786         2.42792
| 74>    C       17.34237       -18.00701         1.07348
| 75>    C       18.34522       -18.91683         1.23076
| 76>    S       18.06120       -20.31843         0.22619
| 77>    C       16.58561       -19.66288        -0.38372
| 78>    C       16.33435       -18.43759         0.14957
| 79>    C       15.29108       -17.42889         0.07645
| 80>    C       14.03906       -17.67078        -0.42403
| 81>    C       13.71691       -18.90520        -1.02895
| 82>    N       13.43709       -19.90279        -1.52075
| 83>    C       12.93738       -16.80022        -0.34119
| 84>    N       11.99614       -16.14557        -0.28465
| 85>   Cl       19.71137       -18.80538         2.22527
| 86>    H       -0.92380         2.38162         0.31166
| 87>    H        4.65363         0.98046         0.04170
| 88>    H        6.39039        -0.26632         1.37259
| 89>    H        5.40111        -4.19222        -1.42673
| 90>    H        3.92683        -2.25573        -1.51315
| 91>    H        8.02857        -4.74707         1.05683
| 92>    H        7.34304        -5.14418        -1.90392
| 93>    H        9.98304        -5.37189         1.08344
| 94>    H       10.96867        -6.82752         1.32611
| 95>    H        8.01103        -6.70749         2.10459
| 96>    H        9.35838        -6.44833         3.22216
| 97>    H        9.15625        -8.00951         2.42179
| 98>    H        9.10373        -9.71716        -5.66501
| 99>    H        7.72186        -8.59452        -5.69126
|100>    H        7.71378       -11.35258        -4.35458
|101>    H        6.95642       -10.95173        -5.89715
|102>    H        6.35589       -10.22013        -4.40517
|103>    H       10.15565       -10.97905        -4.14765
|104>    H       11.27553       -10.50345        -1.31693
|105>    H       12.04167       -14.75791        -6.32902
|106>    H       14.71557       -15.32839        -1.74610
|107>    H       14.09908       -13.32060         0.49306
|108>    H       15.89384       -14.41421         1.67670
|109>    H       16.01783       -20.22419        -1.09881
|110> *
|111>
|112>                          ****END OF INPUT****

CARTESIAN COORDINATES (ANGSTROEM)
---------------------------------
  C      0.589660    0.783370    0.222060
  C     -0.638160    1.350400    0.375850
  S     -1.834670    0.159830    0.730390
  C     -0.661180   -1.133770    0.669300
  Cl    -1.107750   -2.745100    0.935590
  C      0.578620   -0.639420    0.388340
  C      1.927520   -1.182280    0.204390
  O      2.279040   -2.335170    0.286370
  C      2.788250    0.024340   -0.039340
  C      1.938810    1.213630   -0.075170
  C      2.303270    2.493310   -0.388240
  C      1.357770    3.542090   -0.403530
  N      0.600050    4.402720   -0.416320
  C      3.601470    2.912330   -0.746090
  N      4.632130    3.310450   -1.056500
  C      4.140680    0.028390   -0.026030
  C      5.006550   -1.131290   -0.033210
  C      6.150920   -1.123590    0.759880
  C      6.994540   -2.222080    0.800950
  N      8.161060   -2.111680    1.636800
  O      8.141480   -1.274450    2.513240
  O      9.101810   -2.850390    1.418880
  C      6.745550   -3.369040    0.019960
  C      5.621070   -3.331210   -0.815640
  C      4.771590   -2.250040   -0.844250
  C      7.575260   -4.549670    0.100130
  C      7.803570   -5.366450   -0.948930
  C      8.615630   -6.535420   -1.009720
  N      9.537520   -7.018150   -0.113380
  C      9.952300   -6.460940    1.153380
  C      9.057710   -6.933790    2.298020
  C     10.138670   -8.206970   -0.577560
  O     10.990960   -8.810070    0.043260
  C      9.522560   -8.453430   -1.861980
  C      8.604920   -7.404220   -2.097630
  C      7.988490   -7.620410   -3.389150
  O      7.153160   -6.992850   -4.004570
  N      8.599290   -8.797710   -3.864090
  C      8.213200   -9.389410   -5.123290
  C      7.247950  -10.555540   -4.928970
  C      9.506640   -9.306720   -2.965480
  C     10.271060  -10.476310   -3.197710
  C     11.138230  -10.977990   -2.279260
  C     11.902630  -12.142320   -2.535410
  O     12.736630  -12.627210   -1.580710
  C     11.998590  -12.963360   -3.651310
  C     11.504050  -13.197840   -5.010700
  O     10.704350  -12.588210   -5.675830
  N     12.183140  -14.341290   -5.419520
  C     13.062060  -14.880140   -4.480590
  O     13.738670  -15.860970   -4.639760
  C     12.935300  -13.971760   -3.335790
  C     13.365390  -13.736010   -2.043040
  C     14.249660  -14.496550   -1.236880
  C     14.521130  -14.218010    0.060760
  C     15.398360  -14.971710    0.885750
  C     15.776250  -16.276730    0.818460
  C     16.997220  -16.682150    1.594370
  O     17.563250  -16.017860    2.427920
  C     17.342370  -18.007010    1.073480
  C     18.345220  -18.916830    1.230760
  S     18.061200  -20.318430    0.226190
  C     16.585610  -19.662880   -0.383720
  C     16.334350  -18.437590    0.149570
  C     15.291080  -17.428890    0.076450
  C     14.039060  -17.670780   -0.424030
  C     13.716910  -18.905200   -1.028950
  N     13.437090  -19.902790   -1.520750
  C     12.937380  -16.800220   -0.341190
  N     11.996140  -16.145570   -0.284650
  Cl    19.711370  -18.805380    2.225270
  H     -0.923800    2.381620    0.311660
  H      4.653630    0.980460    0.041700
  H      6.390390   -0.266320    1.372590
  H      5.401110   -4.192220   -1.426730
  H      3.926830   -2.255730   -1.513150
  H      8.028570   -4.747070    1.056830
  H      7.343040   -5.144180   -1.903920
  H      9.983040   -5.371890    1.083440
  H     10.968670   -6.827520    1.326110
  H      8.011030   -6.707490    2.104590
  H      9.358380   -6.448330    3.222160
  H      9.156250   -8.009510    2.421790
  H      9.103730   -9.717160   -5.665010
  H      7.721860   -8.594520   -5.691260
  H      7.713780  -11.352580   -4.354580
  H      6.956420  -10.951730   -5.897150
  H      6.355890  -10.220130   -4.405170
  H     10.155650  -10.979050   -4.147650
  H     11.275530  -10.503450   -1.316930
  H     12.041670  -14.757910   -6.329020
  H     14.715570  -15.328390   -1.746100
  H     14.099080  -13.320600    0.493060
  H     15.893840  -14.414210    1.676700
  H     16.017830  -20.224190   -1.098810

 Total Charge           Charge          ....    0
 Multiplicity           Mult            ....    1
 Number of Electrons    NEL             ....  518
 Basis Dimension        Dim             .... 1130

ORBITAL ENERGIES
----------------

  NO   OCC          E(Eh)            E(eV)
   0   2.0000    -101.625447     -2765.3690
   1   2.0000    -101.617789     -2765.1606
   2   2.0000     -89.002862     -2421.8910
   3   2.0000     -88.993658     -2421.6405
   4   2.0000     -19.322122      -525.7817
   5   2.0000     -19.255088      -523.9576
   6   2.0000     -19.253953      -523.9267
   7   2.0000     -19.232576      -523.3450
   8   2.0000     -19.225795      -523.1605
   9   2.0000     -19.221766      -523.0509
  10   2.0000     -19.220542      -523.0175
  11   2.0000     -19.196624      -522.3667
  12   2.0000     -19.192009      -522.2411
  13   2.0000     -14.660758      -398.9395
  14   2.0000     -14.465365      -393.6226
  15   2.0000     -14.457156      -393.3992
  16   2.0000     -14.454871      -393.3370
  17   2.0000     -14.429572      -392.6486
  18   2.0000     -14.428683      -392.6244
  19   2.0000     -14.423952      -392.4957
  20   2.0000     -14.420967      -392.4145
  21   2.0000     -10.413222      -283.3582
  22   2.0000     -10.410546      -283.2854
  23   2.0000     -10.390077      -282.7284
  24   2.0000     -10.385455      -282.6026
  25   2.0000     -10.377892      -282.3968
  26   2.0000     -10.376740      -282.3655
  27   2.0000     -10.376465      -282.3580
  28   2.0000     -10.376083      -282.3476
  29   2.0000     -10.373892      -282.2879
  30   2.0000     -10.371025      -282.2099
  31   2.0000     -10.358810      -281.8776
  32   2.0000     -10.358139      -281.8593
  33   2.0000     -10.352652      -281.7100
  34   2.0000     -10.350863      -281.6613
  35   2.0000     -10.344250      -281.4814
  36   2.0000     -10.343233      -281.4537
  37   2.0000     -10.342442      -281.4322
  38   2.0000     -10.338517      -281.3254
  39   2.0000     -10.333857      -281.1985
  40   2.0000     -10.331250      -281.1276
  41   2.0000     -10.330271      -281.1010
  42   2.0000     -10.329623      -281.0833
  43   2.0000     -10.326666      -281.0029
  44   2.0000     -10.324931      -280.9557
  45   2.0000     -10.322956      -280.9019
  46   2.0000     -10.321942      -280.8743
  47   2.0000     -10.321627      -280.8657
  48   2.0000     -10.320038      -280.8225
  49   2.0000     -10.317720      -280.7594
  50   2.0000     -10.314778      -280.6794
  51   2.0000     -10.314322      -280.6670
  52   2.0000     -10.313836      -280.6537
  53   2.0000     -10.309288      -280.5300
  54   2.0000     -10.308776      -280.5160
  55   2.0000     -10.308776      -280.5160
  56   2.0000     -10.305585      -280.4292
  57   2.0000     -10.305166      -280.4178
  58   2.0000     -10.304183      -280.3911
  59   2.0000     -10.303828      -280.3814
  60   2.0000     -10.302976      -280.3582
  61   2.0000     -10.302388      -280.3422
  62   2.0000     -10.301568      -280.3199
  63   2.0000     -10.301307      -280.3128
  64   2.0000     -10.300810      -280.2993
  65   2.0000     -10.300538      -280.2919
  66   2.0000     -10.299931      -280.2754
  67   2.0000     -10.265656      -279.3427
  68   2.0000     -10.264865      -279.3212
  69   2.0000     -10.262272      -279.2506
  70   2.0000     -10.260084      -279.1911
  71   2.0000      -9.580235      -260.6915
  72   2.0000      -9.572577      -260.4831
  73   2.0000      -8.098515      -220.3718
  74   2.0000      -8.089419      -220.1243
  75   2.0000      -7.350874      -200.0275
  76   2.0000      -7.343208      -199.8188
  77   2.0000      -7.340272      -199.7389
  78   2.0000      -7.339717      -199.7239
  79   2.0000      -7.332610      -199.5305
  80   2.0000      -7.332081      -199.5161
  81   2.0000      -6.067866      -165.1150
  82   2.0000      -6.063255      -164.9896
  83   2.0000      -6.060839      -164.9238
  84   2.0000      -6.058810      -164.8686
  85   2.0000      -6.054191      -164.7429
  86   2.0000      -6.051656      -164.6739
  87   2.0000      -1.335532       -36.3417
  88   2.0000      -1.239192       -33.7201
  89   2.0000      -1.167395       -31.7664
  90   2.0000      -1.153620       -31.3916
  91   2.0000      -1.150337       -31.3023
  92   2.0000      -1.147062       -31.2131
  93   2.0000      -1.137763       -30.9601
  94   2.0000      -1.136754       -30.9326
  95   2.0000      -1.129295       -30.7297
  96   2.0000      -1.066375       -29.0175
  97   2.0000      -1.057532       -28.7769
  98   2.0000      -1.054436       -28.6927
  99   2.0000      -1.047453       -28.5027
 100   2.0000      -1.039001       -28.2727
 101   2.0000      -1.026477       -27.9319
 102   2.0000      -1.019686       -27.7471
 103   2.0000      -1.007661       -27.4199
 104   2.0000      -1.005148       -27.3515
 105   2.0000      -1.001024       -27.2393
 106   2.0000      -0.996552       -27.1176
 107   2.0000      -0.989358       -26.9218
 108   2.0000      -0.964558       -26.2469
 109   2.0000      -0.957837       -26.0641
 110   2.0000      -0.946037       -25.7430
 111   2.0000      -0.937728       -25.5169
 112   2.0000      -0.937355       -25.5067
 113   2.0000      -0.930185       -25.3116
 114   2.0000      -0.920614       -25.0512
 115   2.0000      -0.916726       -24.9454
 116   2.0000      -0.914123       -24.8746
 117   2.0000      -0.907483       -24.6939
 118   2.0000      -0.891180       -24.2502
 119   2.0000      -0.885030       -24.0829
 120   2.0000      -0.872647       -23.7459
 121   2.0000      -0.858822       -23.3697
 122   2.0000      -0.845834       -23.0163
 123   2.0000      -0.841819       -22.9071
 124   2.0000      -0.833540       -22.6818
 125   2.0000      -0.820473       -22.3262
 126   2.0000      -0.819322       -22.2949
 127   2.0000      -0.808481       -21.9999
 128   2.0000      -0.800112       -21.7722
 129   2.0000      -0.786190       -21.3933
 130   2.0000      -0.776896       -21.1404
 131   2.0000      -0.774846       -21.0846
 132   2.0000      -0.765729       -20.8365
 133   2.0000      -0.763692       -20.7811
 134   2.0000      -0.760025       -20.6813
 135   2.0000      -0.753729       -20.5100
 136   2.0000      -0.736088       -20.0300
 137   2.0000      -0.728232       -19.8162
 138   2.0000      -0.710875       -19.3439
 139   2.0000      -0.709812       -19.3150
 140   2.0000      -0.708480       -19.2787
 141   2.0000      -0.699837       -19.0435
 142   2.0000      -0.694169       -18.8893
 143   2.0000      -0.693224       -18.8636
 144   2.0000      -0.686678       -18.6855
 145   2.0000      -0.685965       -18.6661
 146   2.0000      -0.677361       -18.4319
 147   2.0000      -0.673046       -18.3145
 148   2.0000      -0.660918       -17.9845
 149   2.0000      -0.650298       -17.6955
 150   2.0000      -0.644449       -17.5363
 151   2.0000      -0.641174       -17.4472
 152   2.0000      -0.638633       -17.3781
 153   2.0000      -0.626047       -17.0356
 154   2.0000      -0.624185       -16.9850
 155   2.0000      -0.620362       -16.8809
 156   2.0000      -0.615062       -16.7367
 157   2.0000      -0.613554       -16.6956
 158   2.0000      -0.609154       -16.5759
 159   2.0000      -0.608218       -16.5504
 160   2.0000      -0.605604       -16.4793
 161   2.0000      -0.603494       -16.4219
 162   2.0000      -0.595840       -16.2136
 163   2.0000      -0.595309       -16.1992
 164   2.0000      -0.590809       -16.0767
 165   2.0000      -0.584615       -15.9082
 166   2.0000      -0.578558       -15.7434
 167   2.0000      -0.574681       -15.6379
 168   2.0000      -0.572251       -15.5717
 169   2.0000      -0.566228       -15.4078
 170   2.0000      -0.562511       -15.3067
 171   2.0000      -0.560572       -15.2539
 172   2.0000      -0.554662       -15.0931
 173   2.0000      -0.551783       -15.0148
 174   2.0000      -0.551148       -14.9975
 175   2.0000      -0.549219       -14.9450
 176   2.0000      -0.546364       -14.8673
 177   2.0000      -0.545372       -14.8403
 178   2.0000      -0.544538       -14.8176
 179   2.0000      -0.542646       -14.7662
 180   2.0000      -0.540072       -14.6961
 181   2.0000      -0.535369       -14.5681
 182   2.0000      -0.532352       -14.4860
 183   2.0000      -0.531256       -14.4562
 184   2.0000      -0.529256       -14.4018
 185   2.0000      -0.524299       -14.2669
 186   2.0000      -0.523812       -14.2536
 187   2.0000      -0.518888       -14.1197
 188   2.0000      -0.516941       -14.0667
 189   2.0000      -0.515105       -14.0167
 190   2.0000      -0.512697       -13.9512
 191   2.0000      -0.508797       -13.8451
 192   2.0000      -0.508094       -13.8260
 193   2.0000      -0.505143       -13.7456
 194   2.0000      -0.502279       -13.6677
 195   2.0000      -0.501180       -13.6378
 196   2.0000      -0.499469       -13.5913
 197   2.0000      -0.495422       -13.4811
 198   2.0000      -0.494131       -13.4460
 199   2.0000      -0.492329       -13.3970
 200   2.0000      -0.490850       -13.3567
 201   2.0000      -0.489003       -13.3065
 202   2.0000      -0.480026       -13.0622
 203   2.0000      -0.478237       -13.0135
 204   2.0000      -0.474947       -12.9240
 205   2.0000      -0.468654       -12.7527
 206   2.0000      -0.468224       -12.7410
 207   2.0000      -0.463910       -12.6236
 208   2.0000      -0.462515       -12.5857
 209   2.0000      -0.460844       -12.5402
 210   2.0000      -0.460193       -12.5225
 211   2.0000      -0.459626       -12.5071
 212   2.0000      -0.456488       -12.4217
 213   2.0000      -0.455730       -12.4010
 214   2.0000      -0.454837       -12.3768
 215   2.0000      -0.454052       -12.3554
 216   2.0000      -0.453461       -12.3393
 217   2.0000      -0.452583       -12.3154
 218   2.0000      -0.447567       -12.1789
 219   2.0000      -0.447254       -12.1704
 220   2.0000      -0.443421       -12.0661
 221   2.0000      -0.441882       -12.0242
 222   2.0000      -0.441209       -12.0059
 223   2.0000      -0.440196       -11.9783
 224   2.0000      -0.437128       -11.8948
 225   2.0000      -0.434452       -11.8221
 226   2.0000      -0.428383       -11.6569
 227   2.0000      -0.426501       -11.6057
 228   2.0000      -0.425993       -11.5919
 229   2.0000      -0.422975       -11.5097
 230   2.0000      -0.420224       -11.4349
 231   2.0000      -0.414578       -11.2812
 232   2.0000      -0.411460       -11.1964
 233   2.0000      -0.404753       -11.0139
 234   2.0000      -0.404026       -10.9941
 235   2.0000      -0.399230       -10.8636
 236   2.0000      -0.395190       -10.7537
 237   2.0000      -0.392166       -10.6714
 238   2.0000      -0.391288       -10.6475
 239   2.0000      -0.381049       -10.3689
 240   2.0000      -0.380093       -10.3429
 241   2.0000      -0.379451       -10.3254
 242   2.0000      -0.372573       -10.1382
 243   2.0000      -0.364294        -9.9129
 244   2.0000      -0.361300        -9.8315
 245   2.0000      -0.357995        -9.7415
 246   2.0000      -0.351754        -9.5717
 247   2.0000      -0.346215        -9.4210
 248   2.0000      -0.345345        -9.3973
 249   2.0000      -0.343381        -9.3439
 250   2.0000      -0.341367        -9.2891
 251   2.0000      -0.334744        -9.1088
 252   2.0000      -0.333378        -9.0717
 253   2.0000      -0.325802        -8.8655
 254   2.0000      -0.318032        -8.6541
 255   2.0000      -0.314584        -8.5603
 256   2.0000      -0.310508        -8.4493
 257   2.0000      -0.287034        -7.8106
 258   2.0000      -0.241683        -6.5765
 259   0.0000      -0.111705        -3.0396
 260   0.0000      -0.103131        -2.8063
 261   0.0000      -0.088300        -2.4028
 262   0.0000      -0.063257        -1.7213
 263   0.0000      -0.058246        -1.5850

MULLIKEN ATOMIC CHARGES
-----------------------
   0 C :    0.032406
   1 C :   -0.126311
   2 S :    0.195063
   3 C :   -0.169632
   4 Cl:    0.005236
   5 C :    0.073405
   6 C :    0.144360
   7 O :   -0.125296
   8 C :   -0.089028
   9 C :    0.280119
  10 C :   -0.318024
  11 C :   -0.194443
  12 N :    0.164124
  13 C :   -0.197963
  14 N :    0.172392
  15 C :   -0.031475
  16 C :    0.061571
  17 C :   -0.054011
  18 C :    0.139256
  19 N :    0.249549
  20 O :   -0.225950
  21 O :   -0.239824
  22 C :    0.067448
  23 C :   -0.050907
  24 C :    0.111433
  25 C :    0.010635
  26 C :   -0.031468
  27 C :    0.103293
  28 N :   -0.263902
  29 C :    0.091366
  30 C :    0.001229
  31 C :    0.161436
  32 O :   -0.208213
  33 C :   -0.055806
  34 C :   -0.041757
  35 C :    0.149366
  36 O :   -0.195727
  37 N :   -0.264237
  38 C :    0.095222
  39 C :    0.012211
  40 C :    0.138064
  41 C :   -0.028623
  42 C :    0.018166
  43 C :    0.137965
  44 O :   -0.186970
  45 C :   -0.082833
  46 C :    0.196269
  47 O :   -0.158536
  48 N :   -0.162314
  49 C :    0.171192
  50 O :   -0.134613
  51 C :   -0.014634
  52 C :    0.076345
  53 C :   -0.002195
  54 C :    0.028566
  55 C :    0.037334
  56 C :   -0.128687
  57 C :    0.127261
  58 O :   -0.129566
  59 C :    0.096080
  60 C :   -0.170984
  61 S :    0.186547
  62 C :   -0.128412
  63 C :    0.008542
  64 C :    0.277710
  65 C :   -0.327013
  66 C :   -0.181566
  67 N :    0.159168
  68 C :   -0.193463
  69 N :    0.177092
  70 Cl:    0.000615
  71 H :    0.056986
  72 H :    0.041436
  73 H :    0.011410
  74 H :    0.008051
  75 H :   -0.000192
  76 H :    0.012804
  77 H :    0.017078
  78 H :    0.046641
  79 H :    0.038854
  80 H :    0.017946
  81 H :    0.025869
  82 H :    0.029314
  83 H :    0.036864
  84 H :    0.040552
  85 H :    0.017349
  86 H :    0.025227
  87 H :    0.023686
  88 H :   -0.003807
  89 H :    0.013649
  90 H :    0.142612
  91 H :    0.032569
  92 H :    0.027232
  93 H :    0.037886
  94 H :    0.056335
Sum of atomic charges:   -0.0000000

LOEWDIN ATOMIC CHARGES
----------------------
   0 C :   -0.059988
   1 C :   -0.147336
   2 S :    0.483807
   3 C :   -0.271102
   4 Cl:    0.196302
   5 C :   -0.118247
   6 C :    0.081091
   7 O :   -0.122535
   8 C :   -0.079633
   9 C :    0.072995
  10 C :   -0.129020
  11 C :   -0.015569
  12 N :   -0.044484
  13 C :   -0.025737
  14 N :   -0.038063
  15 C :    0.078925
  16 C :   -0.038561
  17 C :    0.025552
  18 C :   -0.033457
  19 N :    0.287926
  20 O :   -0.194165
  21 O :   -0.198744
  22 C :    0.012177
  23 C :   -0.003964
  24 C :    0.047398
  25 C :   -0.001552
  26 C :   -0.017431
  27 C :    0.072061
  28 N :    0.002084
  29 C :    0.034845
  30 C :   -0.063091
  31 C :    0.082918
  32 O :   -0.195746
  33 C :   -0.118464
  34 C :   -0.112531
  35 C :    0.079028
  36 O :   -0.197200
  37 N :   -0.000937
  38 C :    0.036951
  39 C :   -0.058425
  40 C :    0.076401
  41 C :   -0.012815
  42 C :    0.003433
  43 C :    0.076327
  44 O :    0.033348
  45 C :   -0.096003
  46 C :    0.091606
  47 O :   -0.162320
  48 N :   -0.001185
  49 C :    0.087726
  50 O :   -0.150759
  51 C :   -0.078560
  52 C :    0.065064
  53 C :    0.012655
  54 C :   -0.017881
  55 C :    0.064605
  56 C :   -0.081652
  57 C :    0.080745
  58 O :   -0.131308
  59 C :   -0.118818
  60 C :   -0.272364
  61 S :    0.475827
  62 C :   -0.150427
  63 C :   -0.057314
  64 C :    0.064853
  65 C :   -0.133930
  66 C :   -0.015220
  67 N :   -0.047289
  68 C :   -0.016298
  69 N :   -0.039645
  70 Cl:    0.192624
  71 H :    0.038913
  72 H :    0.049574
  73 H :    0.044309
  74 H :    0.042463
  75 H :    0.038426
  76 H :    0.029957
  77 H :    0.045527
  78 H :    0.029554
  79 H :    0.036800
  80 H :    0.020172
  81 H :    0.032350
  82 H :    0.032557
  83 H :    0.028688
  84 H :    0.036895
  85 H :    0.023467
  86 H :    0.032443
  87 H :    0.029418
  88 H :    0.034686
  89 H :    0.045333
  90 H :    0.097602
  91 H :    0.048479
  92 H :    0.043803
  93 H :    0.050945
  94 H :    0.038136

  Mayer bond orders larger than 0.100000
B(  0-C ,  1-C ) :   1.5410 B(  0-C ,  5-C ) :   1.2200 B(  0-C ,  9-C ) :   1.0069
B(  1-C ,  2-S ) :   1.1654 B(  1-C , 71-H ) :   0.9544 B(  2-S ,  3-C ) :   1.1560
B(  3-C ,  4-Cl) :   1.1326 B(  3-C ,  5-C ) :   1.4722 B(  5-C ,  6-C ) :   0.9555
B(  6-C ,  7-O ) :   2.2417 B(  6-C ,  8-C ) :   0.9195 B(  8-C ,  9-C ) :   1.0397
B(  8-C , 15-C ) :   1.7149 B(  9-C , 10-C ) :   1.6787 B( 10-C , 11-C ) :   1.1424
B( 10-C , 13-C ) :   1.1347 B( 11-C , 12-N ) :   2.9965 B( 13-C , 14-N ) :   2.9904
B( 15-C , 16-C ) :   1.0384 B( 15-C , 72-H ) :   0.9503 B( 16-C , 17-C ) :   1.2975
B( 16-C , 24-C ) :   1.3273 B( 17-C , 18-C ) :   1.3705 B( 17-C , 73-H ) :   0.9970
B( 18-C , 19-N ) :   0.8863 B( 18-C , 22-C ) :   1.3352 B( 19-N , 20-O ) :   1.5647
B( 19-N , 21-O ) :   1.5022 B( 20-O , 21-O ) :   0.2614 B( 22-C , 23-C ) :   1.3395
B( 22-C , 25-C ) :   1.0602 B( 23-C , 24-C ) :   1.4152 B( 23-C , 74-H ) :   0.9915
B( 24-C , 75-H ) :   0.9829 B( 25-C , 26-C ) :   1.6709 B( 25-C , 76-H ) :   0.9430
B( 26-C , 27-C ) :   1.1666 B( 26-C , 77-H ) :   0.9458 B( 27-C , 28-N ) :   1.1765
B( 27-C , 34-C ) :   1.3541 B( 28-N , 29-C ) :   0.9349 B( 28-N , 31-C ) :   1.0579
B( 29-C , 30-C ) :   1.1152 B( 29-C , 78-H ) :   0.9499 B( 29-C , 79-H ) :   0.9265
B( 30-C , 80-H ) :   0.9669 B( 30-C , 81-H ) :   0.9693 B( 30-C , 82-H ) :   0.9606
B( 31-C , 32-O ) :   2.0315 B( 31-C , 33-C ) :   0.9875 B( 32-O , 89-H ) :   0.1001
B( 33-C , 34-C ) :   1.2454 B( 33-C , 40-C ) :   1.3306 B( 34-C , 35-C ) :   0.9735
B( 35-C , 36-O ) :   2.1322 B( 35-C , 37-N ) :   1.0374 B( 37-N , 38-C ) :   0.9395
B( 37-N , 40-C ) :   1.1695 B( 38-C , 39-C ) :   1.1240 B( 38-C , 83-H ) :   0.9483
B( 38-C , 84-H ) :   0.9282 B( 39-C , 85-H ) :   0.9672 B( 39-C , 86-H ) :   0.9674
B( 39-C , 87-H ) :   0.9641 B( 40-C , 41-C ) :   1.1621 B( 41-C , 42-C ) :   1.5630
B( 41-C , 88-H ) :   0.9480 B( 42-C , 43-C ) :   1.1604 B( 42-C , 89-H ) :   0.9502
B( 43-C , 44-O ) :   1.1585 B( 43-C , 45-C ) :   1.3888 B( 44-O , 52-C ) :   1.1600
B( 45-C , 46-C ) :   0.8869 B( 45-C , 51-C ) :   1.3032 B( 46-C , 47-O ) :   2.1631
B( 46-C , 48-N ) :   1.1055 B( 48-N , 49-C ) :   1.0741 B( 48-N , 90-H ) :   0.9144
B( 49-C , 50-O ) :   2.2700 B( 49-C , 51-C ) :   0.8740 B( 51-C , 52-C ) :   1.3932
B( 52-C , 53-C ) :   1.2130 B( 53-C , 54-C ) :   1.6186 B( 53-C , 91-H ) :   0.9439
B( 54-C , 55-C ) :   1.1237 B( 54-C , 92-H ) :   0.9649 B( 55-C , 56-C ) :   1.6936
B( 55-C , 93-H ) :   0.9257 B( 56-C , 57-C ) :   0.9386 B( 56-C , 64-C ) :   1.0293
B( 57-C , 58-O ) :   2.2705 B( 57-C , 59-C ) :   0.9275 B( 59-C , 60-C ) :   1.4813
B( 59-C , 63-C ) :   1.2219 B( 60-C , 61-S ) :   1.1513 B( 60-C , 70-Cl) :   1.1292
B( 61-S , 62-C ) :   1.1601 B( 62-C , 63-C ) :   1.5530 B( 62-C , 94-H ) :   0.9550
B( 63-C , 64-C ) :   1.0085 B( 64-C , 65-C ) :   1.6609 B( 65-C , 66-C ) :   1.1300
B( 65-C , 68-C ) :   1.1697 B( 66-C , 67-N ) :   2.9993 B( 68-C , 69-N ) :   2.9847

-----------------------------------------------------------------------------
         ABSORPTION SPECTRUM VIA TRANSITION ELECTRIC DIPOLE MOMENTS
-----------------------------------------------------------------------------
State   Energy  Wavelength   fosc         T2         TX        TY        TZ
        (cm-1)    (nm)                  (au**2)     (au)      (au)      (au)
-----------------------------------------------------------------------------
   0   14046.3    711.9   1.068912376  25.05283   2.43783  -4.28448  -0.86778
   1   18058.7    553.8   0.146312668   2.66730   0.09920  -0.25527  -1.61006
   2   20342.4    491.6   0.112647123   1.82303   0.71727  -0.31915   1.09849
   3   22950.0    435.7   0.321512205   4.61201   0.82015  -1.81049   0.81333
   4   24098.2    415.0   0.047887186   0.65420   0.58026  -0.40937   0.38719
   5   25840.5    387.0   0.004123464   0.05253  -0.03283   0.17166  -0.14829
   6   26391.1    378.9   0.245394467   3.06114   1.07744  -1.37820   0.02840
   7   26665.2    375.0   0.112751238   1.39204   0.97032  -0.64041   0.20099
   8   27195.5    367.7   0.072928038   0.88282   0.69709  -0.44290  -0.44803
   9   28023.8    356.8   0.003365641   0.03954   0.14890  -0.13176   0.00228
  10   28391.5    352.2   0.026335508   0.30537  -0.20591  -0.39300  -0.32944
  11   28553.6    350.2   0.138432302   1.59607   0.81381  -0.46280   0.84829
  12   28930.5    345.7   0.027642928   0.31456   0.34306  -0.39017   0.21126
  13   29472.2    339.3   0.127221412   1.42109  -0.63945   0.93332  -0.37565
  14   29808.8    335.5   0.081823009   0.90366   0.76254   0.09427   0.55974
  15   30812.1    324.5   0.404121410   4.31783  -1.54416   1.33227   0.39807
  16   31769.8    314.8   0.000594370   0.00616   0.02412  -0.07394  -0.01051
  17   32093.5    311.6   0.022110942   0.22681   0.46968  -0.06606  -0.04302
  18   32574.3    307.0   0.114116422   1.15332   0.77213  -0.52209   0.53344
  19   32910.0    303.9   0.042590296   0.42605   0.63469  -0.12960   0.08016
  20   33125.4    301.9   0.016669462   0.16567  -0.14297   0.12807  -0.35892
  21   33734.4    296.4   0.024627233   0.24034   0.45663   0.06446  -0.16635
  22   34277.7    291.7   0.169365239   1.62663  -0.84673  -0.08672  -0.94982
  23   34632.1    288.7   0.060313345   0.57334   0.60932   0.44062   0.08901
  24   35247.9    283.7   0.101896005   0.95170  -0.86466   0.31802   0.32081
  25   35317.2    283.1   0.012452030   0.11607   0.10885   0.08828  -0.31053
  26   35578.6    281.1   0.209886733   1.94210   1.07045  -0.42431   0.78498
  27   35849.6    278.9   0.012287870   0.11284   0.29637  -0.09928   0.12307
  28   36154.3    276.6   0.205492985   1.87117  -1.24226   0.40896  -0.40090
  29   36498.2    274.0   0.022122405   0.19954  -0.10906  -0.42309  -0.09298
  30   36637.0    272.9   0.015421490   0.13857   0.20308  -0.26986   0.15655
  31   36870.6    271.2   0.096272554   0.85960   0.81260  -0.41976   0.15192
  32   37078.0    269.7   0.298801278   2.65303   1.42271  -0.50639   0.61033
  33   37343.1    267.8   0.506602043   4.46614   1.25750   1.52201  -0.75388
  34   38053.4    262.8   0.242050785   2.09406   0.28293   1.40516   0.19881
  35   38193.7    261.8   0.133184225   1.14799  -0.99563   0.31800  -0.23576
  36   38440.1    260.1   0.123077830   1.05407   0.86082  -0.55859   0.03219
  37   38485.3    259.8   0.011127910   0.09519  -0.29086  -0.07745  -0.06777
  38   38692.7    258.4   0.121581281   1.03446   0.92822   0.36956  -0.19052
  39   39259.9    254.7   0.006607790   0.05541   0.12955  -0.03297   0.19375
  40   39343.6    254.2   0.032330439   0.27053   0.40449  -0.32531   0.03303
  41   39478.0    253.3   0.022961404   0.19148   0.02408  -0.34232   0.27150
  42   39644.0    252.2   0.017409545   0.14457   0.12006   0.34969   0.08875
  43   39776.1    251.4   0.044885468   0.37150  -0.08049  -0.53852  -0.27389
  44   39925.9    250.5   0.001696320   0.01399  -0.00283   0.11487  -0.02799

FINAL SINGLE POINT ENERGY     -4747.126137078816

DIPOLE MOMENT
-------------
                                X             Y             Z
Electronic contribution:      4.53977     -16.22598      18.85355
Nuclear contribution   :     -5.44294      15.40758     -19.02000
                        -----------------------------------------
Total Dipole Moment    :     -0.90317      -0.81840      -0.16645
                        -----------------------------------------
Magnitude (a.u.)       :      1.23012
Magnitude (Debye)      :      3.12672

Rotational constants in cm-1:     0.002121     0.000191     0.000185
Rotational constants in MHz :    63.595051     5.713465     5.553647

                             ****ORCA TERMINATED NORMALLY****
TOTAL RUN TIME: 0 days 0 hours 9 minutes 5 seconds 891 msec
