                         Program Version 4.2.0 -  RELEASE  -
|  1> # ORCA input file
|  2> # SCF done       -177.610289379220          0.000849232751
|  3> ! CAM-B3LYP def2-SVP def2/J RIJCOSX Grid4 TightSCF
|  4> %maxcore 5000
|  5> %tddft
|  6>     Mode sTDDFT
|  7>     Ethresh 5.0
|  8>     maxcore 5000
|  9> end
| 10>
| 11> %pal
| 12>   nprocs 6
| 13>   end
| 14> * xyz 0 1
| 15>    C        2.41766         3.26922         4.53800
| 16>    C        2.60331         4.23071         5.48217
| 17>    S        3.76516         5.39811         4.96754
| 18>    C        3.99137         4.58930         3.43523
| 19>   Cl        5.04976         5.20608         2.26628
| 20>    C        3.21115         3.47327         3.36372
| 21>    C        2.95527         2.40077         2.39866
| 22>    O        3.38929         2.29752         1.27210
| 23>    C        1.99420         1.48315         3.08463
| 24>    C        1.64907         2.05073         4.39088
| 25>    C        0.79256         1.56561         5.33686
| 26>    C        0.55067         2.27455         6.53536
| 27>    N        0.30954         2.86113         7.49107
| 28>    C        0.05163         0.36966         5.25251
| 29>    N       -0.58716        -0.58426         5.23945
| 30>    C        1.46752         0.35433         2.55452
| 31>    C        1.75015        -0.27607         1.28658
| 32>    C        0.72450        -0.84585         0.57123
| 33>    S        1.21848        -1.47009        -0.93959
| 34>    C        2.84046        -1.02994        -0.62701
| 35>    C        2.99380        -0.41490         0.58096
| 36>    C        4.32529        -0.02627         1.06909
| 37>    O        5.28784         0.21081         0.39471
| 38>    O        4.35017        -0.04035         2.43423
| 39>    C        5.30778         0.68384         3.06439
| 40>    C        5.13703         0.93891         4.36969
| 41>    C        5.82500         1.85380         5.21600
| 42>    N        7.02737         2.49002         5.05277
| 43>    C        8.03476         2.24386         4.04754
| 44>    C        7.91586         3.19816         2.86302
| 45>    C        7.26479         3.42177         6.09117
| 46>    O        8.27267         4.09521         6.15879
| 47>    C        6.09866         3.32982         6.94089
| 48>    C        5.25188         2.33990         6.38088
| 49>    C        4.07438         2.22291         7.20203
| 50>    O        3.09442         1.50766         7.11082
| 51>    N        4.26945         3.17585         8.21440
| 52>    C        3.30592         3.34877         9.27646
| 53>    C        3.72353         2.61635        10.54874
| 54>    C        5.47544         3.83293         8.07974
| 55>    C        5.93003         4.82817         8.98202
| 56>    C        7.14525         5.41821         8.86159
| 57>    C        7.65865         6.37957         9.77455
| 58>    S        9.28621         6.94124         9.59920
| 59>    C        9.16772         7.91311        11.02823
| 60>    C       10.29515         8.72638        11.39954
| 61>    O       10.39360         9.40926        12.39711
| 62>    C        7.89256         7.81712        11.59777
| 63>    C        7.04915         6.97365        10.86452
| 64>    C        7.43354         8.52884        12.76971
| 65>    C        8.06643         8.70762        13.94246
| 66>    C        7.57688         9.76025        14.89598
| 67>    O        6.49361        10.28946        14.88179
| 68>    C        8.72614        10.00565        15.77142
| 69>    C        9.05977        10.87963        16.76349
| 70>    S       10.67989        10.56396        17.33734
| 71>    C       10.88497         9.24905        16.24066
| 72>    C        9.77562         9.07219        15.47506
| 73>    C        9.32721         8.16702        14.43959
| 74>    C        9.88464         6.95378        14.15265
| 75>    C       11.09523         6.54147        14.74940
| 76>    N       12.08201         6.19734        15.22158
| 77>    C        9.30158         5.98805        13.30985
| 78>    N        8.83945         5.15108        12.67406
| 79>   Cl        8.11865        12.12475        17.41976
| 80>    H        2.13408         4.34235         6.43866
| 81>    H        0.67677        -0.13599         3.10995
| 82>    H       -0.31074        -0.88032         0.85058
| 83>    H        3.61704        -1.25524        -1.33084
| 84>    H        6.08977         1.07167         2.42557
| 85>    H        4.27433         0.49216         4.84920
| 86>    H        7.96416         1.20222         3.72770
| 87>    H        9.00246         2.40402         4.53323
| 88>    H        6.95046         3.10307         2.37261
| 89>    H        8.69650         2.98096         2.13934
| 90>    H        8.03418         4.22320         3.20537
| 91>    H        2.36338         2.93290         8.90716
| 92>    H        3.16503         4.41631         9.46840
| 93>    H        3.80586         1.55074        10.35082
| 94>    H        2.97435         2.76808        11.32052
| 95>    H        4.68382         2.97571        10.91293
| 96>    H        5.27989         5.09336         9.80170
| 97>    H        7.79533         5.13289         8.04517
| 98>    H       11.12053         8.67444        10.66477
| 99>    H        6.03250         6.78080        11.15502
|100>    H        6.46190         9.00508        12.67664
|101>    H       11.81179         8.71083        16.22629
|102> *
|103>
|104>                          ****END OF INPUT****

CARTESIAN COORDINATES (ANGSTROEM)
---------------------------------
  C      2.417660    3.269220    4.538000
  C      2.603310    4.230710    5.482170
  S      3.765160    5.398110    4.967540
  C      3.991370    4.589300    3.435230
  Cl     5.049760    5.206080    2.266280
  C      3.211150    3.473270    3.363720
  C      2.955270    2.400770    2.398660
  O      3.389290    2.297520    1.272100
  C      1.994200    1.483150    3.084630
  C      1.649070    2.050730    4.390880
  C      0.792560    1.565610    5.336860
  C      0.550670    2.274550    6.535360
  N      0.309540    2.861130    7.491070
  C      0.051630    0.369660    5.252510
  N     -0.587160   -0.584260    5.239450
  C      1.467520    0.354330    2.554520
  C      1.750150   -0.276070    1.286580
  C      0.724500   -0.845850    0.571230
  S      1.218480   -1.470090   -0.939590
  C      2.840460   -1.029940   -0.627010
  C      2.993800   -0.414900    0.580960
  C      4.325290   -0.026270    1.069090
  O      5.287840    0.210810    0.394710
  O      4.350170   -0.040350    2.434230
  C      5.307780    0.683840    3.064390
  C      5.137030    0.938910    4.369690
  C      5.825000    1.853800    5.216000
  N      7.027370    2.490020    5.052770
  C      8.034760    2.243860    4.047540
  C      7.915860    3.198160    2.863020
  C      7.264790    3.421770    6.091170
  O      8.272670    4.095210    6.158790
  C      6.098660    3.329820    6.940890
  C      5.251880    2.339900    6.380880
  C      4.074380    2.222910    7.202030
  O      3.094420    1.507660    7.110820
  N      4.269450    3.175850    8.214400
  C      3.305920    3.348770    9.276460
  C      3.723530    2.616350   10.548740
  C      5.475440    3.832930    8.079740
  C      5.930030    4.828170    8.982020
  C      7.145250    5.418210    8.861590
  C      7.658650    6.379570    9.774550
  S      9.286210    6.941240    9.599200
  C      9.167720    7.913110   11.028230
  C     10.295150    8.726380   11.399540
  O     10.393600    9.409260   12.397110
  C      7.892560    7.817120   11.597770
  C      7.049150    6.973650   10.864520
  C      7.433540    8.528840   12.769710
  C      8.066430    8.707620   13.942460
  C      7.576880    9.760250   14.895980
  O      6.493610   10.289460   14.881790
  C      8.726140   10.005650   15.771420
  C      9.059770   10.879630   16.763490
  S     10.679890   10.563960   17.337340
  C     10.884970    9.249050   16.240660
  C      9.775620    9.072190   15.475060
  C      9.327210    8.167020   14.439590
  C      9.884640    6.953780   14.152650
  C     11.095230    6.541470   14.749400
  N     12.082010    6.197340   15.221580
  C      9.301580    5.988050   13.309850
  N      8.839450    5.151080   12.674060
  Cl     8.118650   12.124750   17.419760
  H      2.134080    4.342350    6.438660
  H      0.676770   -0.135990    3.109950
  H     -0.310740   -0.880320    0.850580
  H      3.617040   -1.255240   -1.330840
  H      6.089770    1.071670    2.425570
  H      4.274330    0.492160    4.849200
  H      7.964160    1.202220    3.727700
  H      9.002460    2.404020    4.533230
  H      6.950460    3.103070    2.372610
  H      8.696500    2.980960    2.139340
  H      8.034180    4.223200    3.205370
  H      2.363380    2.932900    8.907160
  H      3.165030    4.416310    9.468400
  H      3.805860    1.550740   10.350820
  H      2.974350    2.768080   11.320520
  H      4.683820    2.975710   10.912930
  H      5.279890    5.093360    9.801700
  H      7.795330    5.132890    8.045170
  H     11.120530    8.674440   10.664770
  H      6.032500    6.780800   11.155020
  H      6.461900    9.005080   12.676640
  H     11.811790    8.710830   16.226290

 Total Charge           Charge          ....    0
 Multiplicity           Mult            ....    1
 Number of Electrons    NEL             ....  494
 Basis Dimension        Dim             .... 1044

ORBITAL ENERGIES
----------------

  NO   OCC          E(Eh)            E(eV)
   0   2.0000    -101.622511     -2765.2891
   1   2.0000    -101.615368     -2765.0947
   2   2.0000     -88.995323     -2421.6858
   3   2.0000     -88.991369     -2421.5783
   4   2.0000     -88.984137     -2421.3815
   5   2.0000     -88.981759     -2421.3168
   6   2.0000     -19.291406      -524.9458
   7   2.0000     -19.227566      -523.2087
   8   2.0000     -19.223348      -523.0939
   9   2.0000     -19.222548      -523.0721
  10   2.0000     -19.220133      -523.0064
  11   2.0000     -19.200841      -522.4814
  12   2.0000     -19.192001      -522.2409
  13   2.0000     -14.461551      -393.5188
  14   2.0000     -14.458949      -393.4480
  15   2.0000     -14.419888      -392.3851
  16   2.0000     -14.418473      -392.3466
  17   2.0000     -14.417239      -392.3130
  18   2.0000     -14.413746      -392.2180
  19   2.0000     -10.423260      -283.6313
  20   2.0000     -10.383515      -282.5498
  21   2.0000     -10.382230      -282.5148
  22   2.0000     -10.377444      -282.3846
  23   2.0000     -10.377195      -282.3778
  24   2.0000     -10.376148      -282.3493
  25   2.0000     -10.373881      -282.2876
  26   2.0000     -10.372288      -282.2443
  27   2.0000     -10.360210      -281.9156
  28   2.0000     -10.347904      -281.5808
  29   2.0000     -10.347681      -281.5747
  30   2.0000     -10.345550      -281.5167
  31   2.0000     -10.345462      -281.5143
  32   2.0000     -10.344860      -281.4980
  33   2.0000     -10.344230      -281.4808
  34   2.0000     -10.330240      -281.1001
  35   2.0000     -10.328635      -281.0565
  36   2.0000     -10.326660      -281.0027
  37   2.0000     -10.325908      -280.9822
  38   2.0000     -10.321945      -280.8744
  39   2.0000     -10.321329      -280.8576
  40   2.0000     -10.320305      -280.8298
  41   2.0000     -10.320020      -280.8220
  42   2.0000     -10.319665      -280.8124
  43   2.0000     -10.319262      -280.8014
  44   2.0000     -10.318712      -280.7864
  45   2.0000     -10.318195      -280.7724
  46   2.0000     -10.316542      -280.7274
  47   2.0000     -10.313025      -280.6317
  48   2.0000     -10.311572      -280.5921
  49   2.0000     -10.311193      -280.5818
  50   2.0000     -10.309665      -280.5403
  51   2.0000     -10.309443      -280.5342
  52   2.0000     -10.307932      -280.4931
  53   2.0000     -10.307304      -280.4760
  54   2.0000     -10.304999      -280.4133
  55   2.0000     -10.304913      -280.4109
  56   2.0000     -10.302572      -280.3472
  57   2.0000     -10.302021      -280.3323
  58   2.0000     -10.298588      -280.2388
  59   2.0000     -10.298325      -280.2317
  60   2.0000     -10.295487      -280.1544
  61   2.0000     -10.267078      -279.3814
  62   2.0000     -10.262730      -279.2631
  63   2.0000     -10.262504      -279.2569
  64   2.0000     -10.262493      -279.2566
  65   2.0000      -9.576898      -260.6006
  66   2.0000      -9.570180      -260.4178
  67   2.0000      -8.090455      -220.1525
  68   2.0000      -8.087011      -220.0588
  69   2.0000      -8.080437      -219.8799
  70   2.0000      -8.077342      -219.7956
  71   2.0000      -7.347495      -199.9355
  72   2.0000      -7.340816      -199.7538
  73   2.0000      -7.336953      -199.6486
  74   2.0000      -7.336458      -199.6352
  75   2.0000      -7.330201      -199.4649
  76   2.0000      -7.329686      -199.4509
  77   2.0000      -6.059866      -164.8973
  78   2.0000      -6.056357      -164.8018
  79   2.0000      -6.055234      -164.7713
  80   2.0000      -6.052780      -164.7045
  81   2.0000      -6.051781      -164.6773
  82   2.0000      -6.049508      -164.6155
  83   2.0000      -6.049333      -164.6107
  84   2.0000      -6.046276      -164.5275
  85   2.0000      -6.045063      -164.4945
  86   2.0000      -6.043187      -164.4435
  87   2.0000      -6.042281      -164.4188
  88   2.0000      -6.039954      -164.3555
  89   2.0000      -1.222991       -33.2793
  90   2.0000      -1.144801       -31.1516
  91   2.0000      -1.140185       -31.0260
  92   2.0000      -1.137334       -30.9484
  93   2.0000      -1.135242       -30.8915
  94   2.0000      -1.131585       -30.7920
  95   2.0000      -1.125558       -30.6280
  96   2.0000      -1.069730       -29.1088
  97   2.0000      -1.060852       -28.8673
  98   2.0000      -1.039010       -28.2729
  99   2.0000      -1.035910       -28.1886
 100   2.0000      -1.017359       -27.6838
 101   2.0000      -1.015599       -27.6359
 102   2.0000      -1.010531       -27.4979
 103   2.0000      -1.009165       -27.4608
 104   2.0000      -0.995903       -27.0999
 105   2.0000      -0.995759       -27.0960
 106   2.0000      -0.988237       -26.8913
 107   2.0000      -0.986059       -26.8320
 108   2.0000      -0.955325       -25.9957
 109   2.0000      -0.952838       -25.9281
 110   2.0000      -0.934382       -25.4258
 111   2.0000      -0.924540       -25.1580
 112   2.0000      -0.914557       -24.8864
 113   2.0000      -0.909990       -24.7621
 114   2.0000      -0.908010       -24.7082
 115   2.0000      -0.897206       -24.4142
 116   2.0000      -0.895199       -24.3596
 117   2.0000      -0.878245       -23.8983
 118   2.0000      -0.865367       -23.5478
 119   2.0000      -0.860723       -23.4215
 120   2.0000      -0.845286       -23.0014
 121   2.0000      -0.840437       -22.8695
 122   2.0000      -0.832789       -22.6613
 123   2.0000      -0.830245       -22.5921
 124   2.0000      -0.823127       -22.3984
 125   2.0000      -0.816779       -22.2257
 126   2.0000      -0.794407       -21.6169
 127   2.0000      -0.780549       -21.2398
 128   2.0000      -0.777321       -21.1520
 129   2.0000      -0.763037       -20.7633
 130   2.0000      -0.754839       -20.5402
 131   2.0000      -0.753072       -20.4921
 132   2.0000      -0.745096       -20.2751
 133   2.0000      -0.728668       -19.8281
 134   2.0000      -0.713686       -19.4204
 135   2.0000      -0.712432       -19.3863
 136   2.0000      -0.697165       -18.9708
 137   2.0000      -0.696681       -18.9577
 138   2.0000      -0.691426       -18.8147
 139   2.0000      -0.685145       -18.6437
 140   2.0000      -0.677197       -18.4275
 141   2.0000      -0.676587       -18.4109
 142   2.0000      -0.675748       -18.3880
 143   2.0000      -0.673738       -18.3333
 144   2.0000      -0.672043       -18.2872
 145   2.0000      -0.660330       -17.9685
 146   2.0000      -0.654253       -17.8031
 147   2.0000      -0.633266       -17.2320
 148   2.0000      -0.629631       -17.1331
 149   2.0000      -0.620118       -16.8743
 150   2.0000      -0.615879       -16.7589
 151   2.0000      -0.613361       -16.6904
 152   2.0000      -0.611561       -16.6414
 153   2.0000      -0.607475       -16.5302
 154   2.0000      -0.603048       -16.4098
 155   2.0000      -0.594000       -16.1636
 156   2.0000      -0.590838       -16.0775
 157   2.0000      -0.583001       -15.8643
 158   2.0000      -0.579788       -15.7768
 159   2.0000      -0.576243       -15.6804
 160   2.0000      -0.570992       -15.5375
 161   2.0000      -0.569780       -15.5045
 162   2.0000      -0.567475       -15.4418
 163   2.0000      -0.553286       -15.0557
 164   2.0000      -0.549561       -14.9543
 165   2.0000      -0.548197       -14.9172
 166   2.0000      -0.543066       -14.7776
 167   2.0000      -0.542542       -14.7633
 168   2.0000      -0.537896       -14.6369
 169   2.0000      -0.536870       -14.6090
 170   2.0000      -0.535780       -14.5793
 171   2.0000      -0.533301       -14.5118
 172   2.0000      -0.532298       -14.4846
 173   2.0000      -0.531624       -14.4662
 174   2.0000      -0.529337       -14.4040
 175   2.0000      -0.527282       -14.3481
 176   2.0000      -0.523177       -14.2364
 177   2.0000      -0.521721       -14.1968
 178   2.0000      -0.520665       -14.1680
 179   2.0000      -0.517428       -14.0799
 180   2.0000      -0.514002       -13.9867
 181   2.0000      -0.511057       -13.9066
 182   2.0000      -0.506916       -13.7939
 183   2.0000      -0.502935       -13.6856
 184   2.0000      -0.502364       -13.6700
 185   2.0000      -0.501046       -13.6341
 186   2.0000      -0.500135       -13.6094
 187   2.0000      -0.495743       -13.4899
 188   2.0000      -0.493815       -13.4374
 189   2.0000      -0.492737       -13.4081
 190   2.0000      -0.488699       -13.2982
 191   2.0000      -0.483343       -13.1524
 192   2.0000      -0.482158       -13.1202
 193   2.0000      -0.478156       -13.0113
 194   2.0000      -0.476125       -12.9560
 195   2.0000      -0.473037       -12.8720
 196   2.0000      -0.469519       -12.7763
 197   2.0000      -0.467901       -12.7322
 198   2.0000      -0.464509       -12.6399
 199   2.0000      -0.461563       -12.5598
 200   2.0000      -0.459307       -12.4984
 201   2.0000      -0.455789       -12.4027
 202   2.0000      -0.454321       -12.3627
 203   2.0000      -0.453594       -12.3429
 204   2.0000      -0.452259       -12.3066
 205   2.0000      -0.450282       -12.2528
 206   2.0000      -0.448616       -12.2075
 207   2.0000      -0.447817       -12.1857
 208   2.0000      -0.445546       -12.1239
 209   2.0000      -0.444941       -12.1074
 210   2.0000      -0.443251       -12.0615
 211   2.0000      -0.441430       -12.0119
 212   2.0000      -0.439494       -11.9592
 213   2.0000      -0.438614       -11.9353
 214   2.0000      -0.433229       -11.7888
 215   2.0000      -0.431548       -11.7430
 216   2.0000      -0.431097       -11.7307
 217   2.0000      -0.428943       -11.6721
 218   2.0000      -0.426229       -11.5983
 219   2.0000      -0.422693       -11.5020
 220   2.0000      -0.420814       -11.4509
 221   2.0000      -0.417696       -11.3661
 222   2.0000      -0.413969       -11.2647
 223   2.0000      -0.412278       -11.2187
 224   2.0000      -0.408305       -11.1105
 225   2.0000      -0.406055       -11.0493
 226   2.0000      -0.401508       -10.9256
 227   2.0000      -0.381507       -10.3813
 228   2.0000      -0.377425       -10.2703
 229   2.0000      -0.374436       -10.1889
 230   2.0000      -0.367659       -10.0045
 231   2.0000      -0.355927        -9.6853
 232   2.0000      -0.355102        -9.6628
 233   2.0000      -0.349007        -9.4970
 234   2.0000      -0.344604        -9.3772
 235   2.0000      -0.340383        -9.2623
 236   2.0000      -0.337982        -9.1969
 237   2.0000      -0.333135        -9.0651
 238   2.0000      -0.332006        -9.0343
 239   2.0000      -0.330782        -9.0010
 240   2.0000      -0.324100        -8.8192
 241   2.0000      -0.321475        -8.7478
 242   2.0000      -0.319536        -8.6950
 243   2.0000      -0.310828        -8.4581
 244   2.0000      -0.304586        -8.2882
 245   2.0000      -0.300098        -8.1661
 246   2.0000      -0.244952        -6.6655
 247   0.0000      -0.099202        -2.6994
 248   0.0000      -0.090585        -2.4649
 249   0.0000      -0.084794        -2.3074
 250   0.0000      -0.054680        -1.4879
 251   0.0000      -0.044542        -1.2120

MULLIKEN ATOMIC CHARGES
-----------------------
   0 C :    0.032653
   1 C :   -0.109133
   2 S :    0.187467
   3 C :   -0.185307
   4 Cl:    0.004979
   5 C :    0.085905
   6 C :    0.144857
   7 O :   -0.142983
   8 C :   -0.062975
   9 C :    0.300228
  10 C :   -0.312632
  11 C :   -0.143720
  12 N :    0.127608
  13 C :   -0.195711
  14 N :    0.157975
  15 C :   -0.055383
  16 C :    0.107457
  17 C :   -0.116474
  18 S :    0.165628
  19 C :   -0.106478
  20 C :    0.063788
  21 C :    0.184720
  22 O :   -0.165273
  23 O :   -0.259508
  24 C :    0.147208
  25 C :   -0.045461
  26 C :    0.105742
  27 N :   -0.260841
  28 C :    0.107017
  29 C :    0.000219
  30 C :    0.158749
  31 O :   -0.205193
  32 C :   -0.048556
  33 C :   -0.050894
  34 C :    0.160039
  35 O :   -0.216015
  36 N :   -0.269938
  37 C :    0.080809
  38 C :    0.007578
  39 C :    0.122198
  40 C :   -0.019004
  41 C :    0.086487
  42 C :   -0.057841
  43 S :    0.196848
  44 C :   -0.191521
  45 C :    0.203070
  46 O :   -0.201524
  47 C :    0.085897
  48 C :   -0.001650
  49 C :   -0.002341
  50 C :   -0.101582
  51 C :    0.130240
  52 O :   -0.125756
  53 C :    0.094588
  54 C :   -0.171587
  55 S :    0.185288
  56 C :   -0.121988
  57 C :    0.021802
  58 C :    0.308386
  59 C :   -0.327990
  60 C :   -0.193958
  61 N :    0.164106
  62 C :   -0.193932
  63 N :    0.172629
  64 Cl:   -0.001673
  65 H :    0.043523
  66 H :    0.023979
  67 H :    0.043767
  68 H :    0.045533
  69 H :    0.037970
  70 H :    0.036366
  71 H :    0.024161
  72 H :    0.036306
  73 H :    0.016592
  74 H :    0.025363
  75 H :    0.025523
  76 H :    0.057198
  77 H :    0.017919
  78 H :    0.032292
  79 H :    0.028239
  80 H :    0.018267
  81 H :   -0.024290
  82 H :    0.009024
  83 H :   -0.008176
  84 H :   -0.011119
  85 H :    0.031079
  86 H :    0.053140
Sum of atomic charges:    0.0000000

LOEWDIN ATOMIC CHARGES
----------------------
   0 C :   -0.053112
   1 C :   -0.145832
   2 S :    0.483282
   3 C :   -0.278015
   4 Cl:    0.206034
   5 C :   -0.114668
   6 C :    0.083536
   7 O :   -0.130421
   8 C :   -0.079608
   9 C :    0.073446
  10 C :   -0.118425
  11 C :    0.002055
  12 N :   -0.064409
  13 C :   -0.018515
  14 N :   -0.048168
  15 C :    0.077048
  16 C :   -0.056883
  17 C :   -0.156809
  18 S :    0.488803
  19 C :   -0.141533
  20 C :   -0.090190
  21 C :    0.101819
  22 O :   -0.144279
  23 O :   -0.040487
  24 C :    0.090210
  25 C :   -0.073826
  26 C :    0.078242
  27 N :    0.000013
  28 C :    0.037342
  29 C :   -0.065345
  30 C :    0.083807
  31 O :   -0.195514
  32 C :   -0.124139
  33 C :   -0.128741
  34 C :    0.076622
  35 O :   -0.206496
  36 N :    0.000518
  37 C :    0.031918
  38 C :   -0.059637
  39 C :    0.070937
  40 C :   -0.031650
  41 C :    0.008362
  42 C :   -0.143558
  43 S :    0.504281
  44 C :   -0.232452
  45 C :    0.085086
  46 O :   -0.144571
  47 C :   -0.031370
  48 C :   -0.029246
  49 C :    0.059967
  50 C :   -0.056144
  51 C :    0.084982
  52 O :   -0.129169
  53 C :   -0.115011
  54 C :   -0.272724
  55 S :    0.478094
  56 C :   -0.147310
  57 C :   -0.048154
  58 C :    0.082251
  59 C :   -0.131519
  60 C :   -0.015830
  61 N :   -0.048845
  62 C :   -0.020785
  63 N :   -0.050305
  64 Cl:    0.191284
  65 H :    0.034609
  66 H :    0.049835
  67 H :    0.032313
  68 H :    0.036879
  69 H :    0.026305
  70 H :    0.052698
  71 H :    0.025064
  72 H :    0.036349
  73 H :    0.010812
  74 H :    0.032550
  75 H :    0.028496
  76 H :    0.039319
  77 H :    0.020051
  78 H :    0.033816
  79 H :    0.032951
  80 H :    0.022295
  81 H :    0.030097
  82 H :    0.037708
  83 H :    0.000014
  84 H :    0.032837
  85 H :    0.050260
  86 H :    0.038499

  Mayer bond orders larger than 0.100000
B(  0-C ,  1-C ) :   1.5539 B(  0-C ,  5-C ) :   1.2346 B(  0-C ,  9-C ) :   0.9957
B(  1-C ,  2-S ) :   1.1635 B(  1-C , 65-H ) :   0.9360 B(  2-S ,  3-C ) :   1.1533
B(  3-C ,  4-Cl) :   1.1193 B(  3-C ,  5-C ) :   1.4625 B(  5-C ,  6-C ) :   0.9514
B(  6-C ,  7-O ) :   2.1898 B(  6-C ,  8-C ) :   0.9247 B(  8-C ,  9-C ) :   1.0491
B(  8-C , 15-C ) :   1.6996 B(  9-C , 10-C ) :   1.6820 B( 10-C , 11-C ) :   1.1504
B( 10-C , 13-C ) :   1.1451 B( 11-C , 12-N ) :   2.9040 B( 13-C , 14-N ) :   2.9646
B( 15-C , 16-C ) :   1.0656 B( 15-C , 66-H ) :   0.9367 B( 16-C , 17-C ) :   1.5063
B( 16-C , 20-C ) :   1.2199 B( 17-C , 18-S ) :   1.1973 B( 17-C , 67-H ) :   0.9694
B( 18-S , 19-C ) :   1.1865 B( 19-C , 20-C ) :   1.5742 B( 19-C , 68-H ) :   0.9673
B( 20-C , 21-C ) :   0.9321 B( 21-C , 22-O ) :   2.1883 B( 21-C , 23-O ) :   1.0753
B( 23-O , 24-C ) :   1.0419 B( 24-C , 25-C ) :   1.6425 B( 24-C , 69-H ) :   0.9776
B( 25-C , 26-C ) :   1.1642 B( 25-C , 70-H ) :   0.9386 B( 26-C , 27-N ) :   1.1828
B( 26-C , 33-C ) :   1.3703 B( 27-N , 28-C ) :   0.9362 B( 27-N , 30-C ) :   1.0504
B( 28-C , 29-C ) :   1.1186 B( 28-C , 71-H ) :   0.9489 B( 28-C , 72-H ) :   0.9312
B( 29-C , 73-H ) :   0.9611 B( 29-C , 74-H ) :   0.9652 B( 29-C , 75-H ) :   0.9613
B( 30-C , 31-O ) :   2.0323 B( 30-C , 32-C ) :   0.9819 B( 31-O , 82-H ) :   0.1076
B( 32-C , 33-C ) :   1.2332 B( 32-C , 39-C ) :   1.3516 B( 33-C , 34-C ) :   0.9892
B( 34-C , 35-O ) :   2.0479 B( 34-C , 36-N ) :   1.0523 B( 36-N , 37-C ) :   0.9336
B( 36-N , 39-C ) :   1.1518 B( 37-C , 38-C ) :   1.1217 B( 37-C , 76-H ) :   0.9205
B( 37-C , 77-H ) :   0.9473 B( 38-C , 78-H ) :   0.9628 B( 38-C , 79-H ) :   0.9673
B( 38-C , 80-H ) :   0.9680 B( 39-C , 40-C ) :   1.1564 B( 40-C , 41-C ) :   1.6368
B( 40-C , 81-H ) :   0.9633 B( 41-C , 42-C ) :   1.1105 B( 41-C , 82-H ) :   0.9406
B( 42-C , 43-S ) :   1.1717 B( 42-C , 48-C ) :   1.4381 B( 43-S , 44-C ) :   1.1191
B( 44-C , 45-C ) :   1.0428 B( 44-C , 47-C ) :   1.4165 B( 45-C , 46-O ) :   2.0829
B( 45-C , 83-H ) :   0.9548 B( 47-C , 48-C ) :   1.3149 B( 47-C , 49-C ) :   1.0018
B( 48-C , 84-H ) :   0.9984 B( 49-C , 50-C ) :   1.8148 B( 49-C , 85-H ) :   0.9416
B( 50-C , 51-C ) :   0.9285 B( 50-C , 58-C ) :   0.9854 B( 51-C , 52-O ) :   2.2866
B( 51-C , 53-C ) :   0.9262 B( 53-C , 54-C ) :   1.4761 B( 53-C , 57-C ) :   1.2250
B( 54-C , 55-S ) :   1.1560 B( 54-C , 64-Cl) :   1.1264 B( 55-S , 56-C ) :   1.1585
B( 56-C , 57-C ) :   1.5518 B( 56-C , 86-H ) :   0.9559 B( 57-C , 58-C ) :   1.0197
B( 58-C , 59-C ) :   1.6921 B( 59-C , 60-C ) :   1.1333 B( 59-C , 62-C ) :   1.1623
B( 60-C , 61-N ) :   3.0094 B( 62-C , 63-N ) :   3.0101

-----------------------------------------------------------------------------
         ABSORPTION SPECTRUM VIA TRANSITION ELECTRIC DIPOLE MOMENTS
-----------------------------------------------------------------------------
State   Energy  Wavelength   fosc         T2         TX        TY        TZ
        (cm-1)    (nm)                  (au**2)     (au)      (au)      (au)
-----------------------------------------------------------------------------
   0   16144.7    619.4   0.149923288   3.05713  -0.74651  -0.84688  -1.33516
   1   17240.4    580.0   0.446954754   8.53478   0.33407   1.78228   2.29056
   2   20454.4    488.9   0.117936869   1.89819  -0.32302   0.49518   1.24445
   3   23309.4    429.0   0.018654103   0.26346   0.02649  -0.49156  -0.14534
   4   26091.8    383.3   0.024961862   0.31495   0.09901  -0.08502   0.54582
   5   27090.4    369.1   0.106339242   1.29227  -0.12454  -0.33594  -1.07885
   6   27253.4    366.9   0.128578520   1.55319  -0.07674   1.08506   0.60822
   7   27414.5    364.8   0.104531907   1.25529  -0.01602  -0.39340  -1.04893
   8   28310.5    353.2   0.013357035   0.15532   0.05410   0.16524   0.35368
   9   28864.4    346.4   0.023186091   0.26445  -0.45321  -0.23028  -0.07762
  10   29311.8    341.2   0.070775447   0.79491  -0.17802   0.26797   0.83151
  11   29522.7    338.7   0.019080258   0.21277  -0.33831  -0.21574   0.22752
  12   30104.5    332.2   0.033011807   0.36100   0.08246   0.24586  -0.54199
  13   30340.6    329.6   0.085633076   0.92917  -0.76288  -0.55944  -0.18496
  14   30722.2    325.5   0.818522326   8.77109   1.61121   1.63510   1.87125
  15   30998.4    322.6   0.200171984   2.12588   0.85239   1.07617   0.49111
  16   31604.9    316.4   0.047837539   0.49830   0.46866  -0.10094  -0.51814
  17   31964.5    312.8   0.061161467   0.62992   0.60935  -0.16088  -0.48243
  18   32151.4    311.0   0.004767242   0.04881  -0.02417  -0.20429   0.08058
  19   32650.0    306.3   0.012722393   0.12828   0.02337  -0.33359  -0.12826
  20   33078.9    302.3   0.042268077   0.42067   0.53386   0.30659  -0.20411
  21   33187.5    301.3   0.017800838   0.17658  -0.11292  -0.15528   0.37379
  22   33495.6    298.5   0.006777141   0.06661  -0.21284   0.01980  -0.14463
  23   33742.2    296.4   0.028108982   0.27425  -0.01369   0.10873   0.51209
  24   33780.0    296.0   0.184300829   1.79615   0.13237   1.05772   0.81231
  25   34106.1    293.2   0.022134838   0.21366  -0.30085  -0.33272   0.11157
  26   34621.3    288.8   0.013377832   0.12721   0.00180   0.12855   0.33269
  27   34650.4    288.6   0.019513825   0.18540  -0.14900  -0.40288  -0.02981
  28   34868.5    286.8   0.092543948   0.87376  -0.60079  -0.12311   0.70544
  29   34928.9    286.3   0.013709808   0.12922   0.28343   0.11071   0.19138
  30   35524.5    281.5   0.109096479   1.01102  -0.09035  -1.00135  -0.01191
  31   35873.8    278.8   0.028873991   0.26497  -0.50117   0.11584   0.01961
  32   36042.6    277.4   0.101114781   0.92358   0.51532   0.73776   0.33724
  33   36579.1    273.4   0.261157331   2.35042   1.11052   0.98733  -0.37727
  34   37040.2    270.0   0.006815936   0.06058  -0.12666  -0.17865   0.11235
  35   37198.0    268.8   0.134812138   1.19312  -0.13786  -0.77878  -0.75341
  36   37488.4    266.7   0.039858935   0.35003  -0.30969   0.01374  -0.50392
  37   37791.3    264.6   0.169631841   1.47772  -0.40550  -1.10074  -0.31883
  38   37889.4    263.9   0.555324857   4.82509   0.21027  -1.69808  -1.37746
  39   37908.0    263.8   0.268331310   2.33032  -1.23927  -0.67640   0.58053
  40   38092.2    262.5   0.025731296   0.22238  -0.26779   0.38419   0.05543
  41   38782.0    257.9   0.046644259   0.39595  -0.06640  -0.58397   0.22478
  42   38914.2    257.0   0.038131715   0.32259   0.31599   0.41175   0.23066
  43   39215.7    255.0   0.023980828   0.20132   0.29359   0.06452  -0.33311
  44   39347.1    254.1   0.008204785   0.06865   0.14170  -0.11797  -0.18615
  45   39443.8    253.5   0.017807002   0.14862  -0.19852  -0.26342  -0.19956
  46   39595.1    252.6   0.147411416   1.22565   0.02800   0.70023   0.85705

FINAL SINGLE POINT ENERGY     -5130.241955879559

DIPOLE MOMENT
-------------
                                X             Y             Z
Electronic contribution:      6.24431      35.46982      23.39543
Nuclear contribution   :     -6.30942     -34.73121     -25.08113
                        -----------------------------------------
Total Dipole Moment    :     -0.06511       0.73861      -1.68570
                        -----------------------------------------
Magnitude (a.u.)       :      1.84157
Magnitude (Debye)      :      4.68089

Rotational constants in cm-1:     0.003015     0.000350     0.000336
Rotational constants in MHz :    90.397963    10.490883    10.087152

                             ****ORCA TERMINATED NORMALLY****
TOTAL RUN TIME: 0 days 0 hours 9 minutes 9 seconds 796 msec
