                         Program Version 4.2.0 -  RELEASE  -
|  1> # ORCA input file
|  2> # SCF done       -154.066222488261          0.000534098252
|  3> ! CAM-B3LYP def2-SVP def2/J RIJCOSX Grid4 TightSCF
|  4> %maxcore 5000
|  5> %tddft
|  6>     Mode sTDDFT
|  7>     Ethresh 5.0
|  8>     maxcore 5000
|  9> end
| 10>
| 11> %pal
| 12>   nprocs 6
| 13>   end
| 14> * xyz 0 1
| 15>    C       -0.81175        -2.75399         3.46447
| 16>    C       -2.02050        -2.60020         4.06781
| 17>    S       -2.09076        -3.47259         5.55658
| 18>    C       -0.45367        -4.05893         5.36351
| 19>   Cl        0.26485        -5.06735         6.51961
| 20>    C        0.08544        -3.58888         4.20504
| 21>    C        1.35708        -3.70003         3.48312
| 22>    O        2.34421        -4.32360         3.82214
| 23>    C        1.18372        -2.89009         2.26356
| 24>    C       -0.14312        -2.30344         2.25757
| 25>    C       -0.71562        -1.46402         1.33394
| 26>    C       -2.02990        -0.97979         1.49901
| 27>    N       -3.09720        -0.57324         1.61115
| 28>    C       -0.10924        -0.97720         0.16355
| 29>    N        0.33157        -0.53229        -0.80114
| 30>    C        2.12702        -2.69691         1.28306
| 31>    C        3.41741        -3.22273         1.13974
| 32>    S        4.14969        -4.42462         2.16661
| 33>    C        5.50082        -4.59079         1.10394
| 34>    C        5.42541        -3.72308         0.01358
| 35>    C        4.26000        -2.92792         0.04671
| 36>    O        4.00025        -2.01185        -0.91958
| 37>    C        3.61375        -0.69054        -0.55926
| 38>    O        6.40320        -3.72882        -0.92046
| 39>    C        6.34380        -2.85920        -2.03253
| 40>    C        6.54936        -5.52938         1.43499
| 41>    C        7.77063        -5.57344         0.76007
| 42>    C        8.74146        -6.49639         1.15031
| 43>    C        8.42580        -7.35337         2.21328
| 44>    N        7.26869        -7.33371         2.84126
| 45>    C        6.35876        -6.45710         2.47233
| 46>    C       10.03296        -6.57103         0.50670
| 47>    S       11.04428        -7.95144         0.76438
| 48>    C       12.30092        -7.31946        -0.27525
| 49>    C       11.93260        -6.08055        -0.78121
| 50>    C       10.64991        -5.64978        -0.31747
| 51>    O       10.03536        -4.48699        -0.64050
| 52>    C       10.82744        -3.32617        -0.82795
| 53>    O       12.64227        -5.25260        -1.57104
| 54>    C       13.99211        -5.52078        -1.88003
| 55>    C       13.43953        -8.13043        -0.53392
| 56>    C       14.01613        -9.02361         0.31618
| 57>    C       14.87302       -10.11523        -0.23292
| 58>    O       15.29644       -10.19807        -1.36200
| 59>    C       15.02863       -11.05132         0.88841
| 60>    C       15.58757       -12.27459         1.10453
| 61>    S       15.36122       -12.76841         2.76704
| 62>    C       14.52221       -11.30933         3.15265
| 63>    C       14.41871       -10.50164         2.06510
| 64>    C       13.90013        -9.18415         1.75230
| 65>    C       13.61106        -8.21392         2.67677
| 66>    C       13.60285        -8.48899         4.05837
| 67>    N       13.58582        -8.70594         5.18489
| 68>    C       13.40902        -6.86259         2.34068
| 69>    N       13.31162        -5.74867         2.07729
| 70>   Cl       16.41113       -13.25951        -0.00086
| 71>    H       -2.87625        -2.03915         3.74890
| 72>    H        1.81896        -2.06672         0.46000
| 73>    H        4.29776        -0.00987        -1.07243
| 74>    H        3.68205        -0.52680         0.51708
| 75>    H        2.59628        -0.48864        -0.90355
| 76>    H        5.42037        -2.98904        -2.59872
| 77>    H        7.19808        -3.13817        -2.64857
| 78>    H        6.44103        -1.81370        -1.72999
| 79>    H        7.96741        -4.90192        -0.05478
| 80>    H        9.14546        -8.08063         2.56858
| 81>    H        5.42528        -6.49014         3.01864
| 82>    H       11.59596        -3.24269        -0.05731
| 83>    H       10.13234        -2.49160        -0.74215
| 84>    H       11.29486        -3.31579        -1.81433
| 85>    H       14.41532        -4.56450        -2.18785
| 86>    H       14.07716        -6.22934        -2.70728
| 87>    H       14.53244        -5.89766        -1.00811
| 88>    H       13.83242        -8.14818        -1.54393
| 89>    H       14.15787       -11.15646         4.14912
| 90> *
| 91>
| 92>                          ****END OF INPUT****

CARTESIAN COORDINATES (ANGSTROEM)
---------------------------------
  C     -0.811750   -2.753990    3.464470
  C     -2.020500   -2.600200    4.067810
  S     -2.090760   -3.472590    5.556580
  C     -0.453670   -4.058930    5.363510
  Cl     0.264850   -5.067350    6.519610
  C      0.085440   -3.588880    4.205040
  C      1.357080   -3.700030    3.483120
  O      2.344210   -4.323600    3.822140
  C      1.183720   -2.890090    2.263560
  C     -0.143120   -2.303440    2.257570
  C     -0.715620   -1.464020    1.333940
  C     -2.029900   -0.979790    1.499010
  N     -3.097200   -0.573240    1.611150
  C     -0.109240   -0.977200    0.163550
  N      0.331570   -0.532290   -0.801140
  C      2.127020   -2.696910    1.283060
  C      3.417410   -3.222730    1.139740
  S      4.149690   -4.424620    2.166610
  C      5.500820   -4.590790    1.103940
  C      5.425410   -3.723080    0.013580
  C      4.260000   -2.927920    0.046710
  O      4.000250   -2.011850   -0.919580
  C      3.613750   -0.690540   -0.559260
  O      6.403200   -3.728820   -0.920460
  C      6.343800   -2.859200   -2.032530
  C      6.549360   -5.529380    1.434990
  C      7.770630   -5.573440    0.760070
  C      8.741460   -6.496390    1.150310
  C      8.425800   -7.353370    2.213280
  N      7.268690   -7.333710    2.841260
  C      6.358760   -6.457100    2.472330
  C     10.032960   -6.571030    0.506700
  S     11.044280   -7.951440    0.764380
  C     12.300920   -7.319460   -0.275250
  C     11.932600   -6.080550   -0.781210
  C     10.649910   -5.649780   -0.317470
  O     10.035360   -4.486990   -0.640500
  C     10.827440   -3.326170   -0.827950
  O     12.642270   -5.252600   -1.571040
  C     13.992110   -5.520780   -1.880030
  C     13.439530   -8.130430   -0.533920
  C     14.016130   -9.023610    0.316180
  C     14.873020  -10.115230   -0.232920
  O     15.296440  -10.198070   -1.362000
  C     15.028630  -11.051320    0.888410
  C     15.587570  -12.274590    1.104530
  S     15.361220  -12.768410    2.767040
  C     14.522210  -11.309330    3.152650
  C     14.418710  -10.501640    2.065100
  C     13.900130   -9.184150    1.752300
  C     13.611060   -8.213920    2.676770
  C     13.602850   -8.488990    4.058370
  N     13.585820   -8.705940    5.184890
  C     13.409020   -6.862590    2.340680
  N     13.311620   -5.748670    2.077290
  Cl    16.411130  -13.259510   -0.000860
  H     -2.876250   -2.039150    3.748900
  H      1.818960   -2.066720    0.460000
  H      4.297760   -0.009870   -1.072430
  H      3.682050   -0.526800    0.517080
  H      2.596280   -0.488640   -0.903550
  H      5.420370   -2.989040   -2.598720
  H      7.198080   -3.138170   -2.648570
  H      6.441030   -1.813700   -1.729990
  H      7.967410   -4.901920   -0.054780
  H      9.145460   -8.080630    2.568580
  H      5.425280   -6.490140    3.018640
  H     11.595960   -3.242690   -0.057310
  H     10.132340   -2.491600   -0.742150
  H     11.294860   -3.315790   -1.814330
  H     14.415320   -4.564500   -2.187850
  H     14.077160   -6.229340   -2.707280
  H     14.532440   -5.897660   -1.008110
  H     13.832420   -8.148180   -1.543930
  H     14.157870  -11.156460    4.149120

 Total Charge           Charge          ....    0
 Multiplicity           Mult            ....    1
 Number of Electrons    NEL             ....  434
 Basis Dimension        Dim             ....  903

ORBITAL ENERGIES
----------------

  NO   OCC          E(Eh)            E(eV)
   0   2.0000    -101.615031     -2765.0856
   1   2.0000    -101.612928     -2765.0283
   2   2.0000     -88.989671     -2421.5321
   3   2.0000     -88.987685     -2421.4780
   4   2.0000     -88.965387     -2420.8713
   5   2.0000     -88.962419     -2420.7905
   6   2.0000     -19.276145      -524.5306
   7   2.0000     -19.262319      -524.1543
   8   2.0000     -19.256897      -524.0068
   9   2.0000     -19.253317      -523.9094
  10   2.0000     -19.218831      -522.9710
  11   2.0000     -19.216224      -522.9000
  12   2.0000     -14.422722      -392.4622
  13   2.0000     -14.416605      -392.2958
  14   2.0000     -14.416207      -392.2849
  15   2.0000     -14.413327      -392.2066
  16   2.0000     -14.402549      -391.9133
  17   2.0000     -10.373403      -282.2747
  18   2.0000     -10.373254      -282.2706
  19   2.0000     -10.373026      -282.2644
  20   2.0000     -10.371077      -282.2114
  21   2.0000     -10.365123      -282.0493
  22   2.0000     -10.360471      -281.9228
  23   2.0000     -10.346314      -281.5375
  24   2.0000     -10.345320      -281.5105
  25   2.0000     -10.345030      -281.5026
  26   2.0000     -10.344869      -281.4982
  27   2.0000     -10.342997      -281.4473
  28   2.0000     -10.341686      -281.4116
  29   2.0000     -10.339335      -281.3476
  30   2.0000     -10.328000      -281.0392
  31   2.0000     -10.326931      -281.0101
  32   2.0000     -10.326319      -280.9934
  33   2.0000     -10.325925      -280.9827
  34   2.0000     -10.325716      -280.9770
  35   2.0000     -10.325062      -280.9592
  36   2.0000     -10.324583      -280.9462
  37   2.0000     -10.321561      -280.8640
  38   2.0000     -10.319518      -280.8083
  39   2.0000     -10.318399      -280.7779
  40   2.0000     -10.316760      -280.7333
  41   2.0000     -10.315438      -280.6973
  42   2.0000     -10.315404      -280.6964
  43   2.0000     -10.315115      -280.6885
  44   2.0000     -10.312809      -280.6258
  45   2.0000     -10.309610      -280.5388
  46   2.0000     -10.307190      -280.4729
  47   2.0000     -10.307189      -280.4729
  48   2.0000     -10.305851      -280.4365
  49   2.0000     -10.299459      -280.2625
  50   2.0000     -10.297730      -280.2155
  51   2.0000     -10.297363      -280.2055
  52   2.0000     -10.295133      -280.1448
  53   2.0000     -10.294816      -280.1362
  54   2.0000     -10.294527      -280.1283
  55   2.0000     -10.282840      -279.8103
  56   2.0000      -9.569782      -260.4070
  57   2.0000      -9.567694      -260.3502
  58   2.0000      -8.085436      -220.0159
  59   2.0000      -8.083495      -219.9631
  60   2.0000      -8.060078      -219.3259
  61   2.0000      -8.055830      -219.2103
  62   2.0000      -7.340388      -199.7421
  63   2.0000      -7.338319      -199.6858
  64   2.0000      -7.329836      -199.4550
  65   2.0000      -7.329316      -199.4408
  66   2.0000      -7.327734      -199.3978
  67   2.0000      -7.327210      -199.3835
  68   2.0000      -6.054855      -164.7610
  69   2.0000      -6.052910      -164.7080
  70   2.0000      -6.050249      -164.6356
  71   2.0000      -6.048322      -164.5832
  72   2.0000      -6.047602      -164.5636
  73   2.0000      -6.045638      -164.5102
  74   2.0000      -6.029727      -164.0772
  75   2.0000      -6.025703      -163.9677
  76   2.0000      -6.025352      -163.9582
  77   2.0000      -6.021388      -163.8503
  78   2.0000      -6.021059      -163.8413
  79   2.0000      -6.017515      -163.7449
  80   2.0000      -1.183018       -32.1915
  81   2.0000      -1.171916       -31.8895
  82   2.0000      -1.152544       -31.3623
  83   2.0000      -1.151831       -31.3429
  84   2.0000      -1.136393       -30.9228
  85   2.0000      -1.132850       -30.8264
  86   2.0000      -1.040100       -28.3026
  87   2.0000      -1.035126       -28.1672
  88   2.0000      -1.033466       -28.1220
  89   2.0000      -1.016142       -27.6506
  90   2.0000      -1.014826       -27.6148
  91   2.0000      -0.998104       -27.1598
  92   2.0000      -0.996863       -27.1260
  93   2.0000      -0.992794       -27.0153
  94   2.0000      -0.991520       -26.9806
  95   2.0000      -0.984012       -26.7763
  96   2.0000      -0.982969       -26.7479
  97   2.0000      -0.951409       -25.8892
  98   2.0000      -0.949977       -25.8502
  99   2.0000      -0.918179       -24.9849
 100   2.0000      -0.911212       -24.7953
 101   2.0000      -0.903336       -24.5810
 102   2.0000      -0.899228       -24.4692
 103   2.0000      -0.886709       -24.1286
 104   2.0000      -0.878558       -23.9068
 105   2.0000      -0.855875       -23.2895
 106   2.0000      -0.848208       -23.0809
 107   2.0000      -0.834273       -22.7017
 108   2.0000      -0.831669       -22.6309
 109   2.0000      -0.829220       -22.5642
 110   2.0000      -0.828022       -22.5316
 111   2.0000      -0.810613       -22.0579
 112   2.0000      -0.806636       -21.9497
 113   2.0000      -0.776087       -21.1184
 114   2.0000      -0.771416       -20.9913
 115   2.0000      -0.767044       -20.8723
 116   2.0000      -0.761388       -20.7184
 117   2.0000      -0.751950       -20.4616
 118   2.0000      -0.747969       -20.3533
 119   2.0000      -0.730044       -19.8655
 120   2.0000      -0.722713       -19.6660
 121   2.0000      -0.701353       -19.0848
 122   2.0000      -0.691199       -18.8085
 123   2.0000      -0.685597       -18.6560
 124   2.0000      -0.672915       -18.3109
 125   2.0000      -0.671822       -18.2812
 126   2.0000      -0.671488       -18.2721
 127   2.0000      -0.656994       -17.8777
 128   2.0000      -0.650237       -17.6939
 129   2.0000      -0.646534       -17.5931
 130   2.0000      -0.643269       -17.5042
 131   2.0000      -0.624967       -17.0062
 132   2.0000      -0.619258       -16.8509
 133   2.0000      -0.613878       -16.7045
 134   2.0000      -0.610196       -16.6043
 135   2.0000      -0.605852       -16.4861
 136   2.0000      -0.603303       -16.4167
 137   2.0000      -0.598151       -16.2765
 138   2.0000      -0.590307       -16.0631
 139   2.0000      -0.585622       -15.9356
 140   2.0000      -0.582438       -15.8490
 141   2.0000      -0.576358       -15.6835
 142   2.0000      -0.572782       -15.5862
 143   2.0000      -0.571299       -15.5458
 144   2.0000      -0.556211       -15.1353
 145   2.0000      -0.551541       -15.0082
 146   2.0000      -0.550272       -14.9737
 147   2.0000      -0.547367       -14.8946
 148   2.0000      -0.545917       -14.8552
 149   2.0000      -0.545575       -14.8459
 150   2.0000      -0.543221       -14.7818
 151   2.0000      -0.537176       -14.6173
 152   2.0000      -0.534423       -14.5424
 153   2.0000      -0.528968       -14.3939
 154   2.0000      -0.527208       -14.3460
 155   2.0000      -0.523309       -14.2400
 156   2.0000      -0.522594       -14.2205
 157   2.0000      -0.516952       -14.0670
 158   2.0000      -0.514815       -14.0088
 159   2.0000      -0.510388       -13.8884
 160   2.0000      -0.509072       -13.8526
 161   2.0000      -0.505665       -13.7598
 162   2.0000      -0.502703       -13.6792
 163   2.0000      -0.501650       -13.6506
 164   2.0000      -0.497656       -13.5419
 165   2.0000      -0.495983       -13.4964
 166   2.0000      -0.492121       -13.3913
 167   2.0000      -0.488279       -13.2867
 168   2.0000      -0.487653       -13.2697
 169   2.0000      -0.482976       -13.1424
 170   2.0000      -0.481768       -13.1096
 171   2.0000      -0.480447       -13.0736
 172   2.0000      -0.475702       -12.9445
 173   2.0000      -0.463269       -12.6062
 174   2.0000      -0.458486       -12.4760
 175   2.0000      -0.455245       -12.3878
 176   2.0000      -0.452277       -12.3071
 177   2.0000      -0.451278       -12.2799
 178   2.0000      -0.448877       -12.2146
 179   2.0000      -0.445241       -12.1156
 180   2.0000      -0.444419       -12.0932
 181   2.0000      -0.443235       -12.0610
 182   2.0000      -0.442139       -12.0312
 183   2.0000      -0.440942       -11.9986
 184   2.0000      -0.438838       -11.9414
 185   2.0000      -0.436332       -11.8732
 186   2.0000      -0.432017       -11.7558
 187   2.0000      -0.431445       -11.7402
 188   2.0000      -0.430206       -11.7065
 189   2.0000      -0.426944       -11.6177
 190   2.0000      -0.426266       -11.5993
 191   2.0000      -0.421003       -11.4561
 192   2.0000      -0.419279       -11.4092
 193   2.0000      -0.416066       -11.3217
 194   2.0000      -0.410132       -11.1603
 195   2.0000      -0.409307       -11.1378
 196   2.0000      -0.406376       -11.0580
 197   2.0000      -0.404405       -11.0044
 198   2.0000      -0.401026       -10.9125
 199   2.0000      -0.398063       -10.8318
 200   2.0000      -0.389521       -10.5994
 201   2.0000      -0.387551       -10.5458
 202   2.0000      -0.372334       -10.1317
 203   2.0000      -0.370919       -10.0932
 204   2.0000      -0.351321        -9.5599
 205   2.0000      -0.341611        -9.2957
 206   2.0000      -0.340008        -9.2521
 207   2.0000      -0.335408        -9.1269
 208   2.0000      -0.332603        -9.0506
 209   2.0000      -0.328862        -8.9488
 210   2.0000      -0.323281        -8.7969
 211   2.0000      -0.309900        -8.4328
 212   2.0000      -0.307872        -8.3776
 213   2.0000      -0.293843        -7.9959
 214   2.0000      -0.292586        -7.9617
 215   2.0000      -0.273834        -7.4514
 216   2.0000      -0.263794        -7.1782
 217   0.0000      -0.093596        -2.5469
 218   0.0000      -0.091124        -2.4796
 219   0.0000      -0.049923        -1.3585
 220   0.0000      -0.047436        -1.2908
 221   0.0000      -0.025092        -0.6828

MULLIKEN ATOMIC CHARGES
-----------------------
   0 C :    0.022049
   1 C :   -0.130850
   2 S :    0.179665
   3 C :   -0.176232
   4 Cl:   -0.003179
   5 C :    0.084364
   6 C :    0.164826
   7 O :   -0.162613
   8 C :   -0.121608
   9 C :    0.318727
  10 C :   -0.359576
  11 C :   -0.197500
  12 N :    0.151576
  13 C :   -0.153250
  14 N :    0.130847
  15 C :   -0.030257
  16 C :   -0.126419
  17 S :    0.180158
  18 C :   -0.104808
  19 C :    0.188471
  20 C :    0.150141
  21 O :   -0.333574
  22 C :    0.166123
  23 O :   -0.317711
  24 C :    0.201483
  25 C :    0.073976
  26 C :   -0.053341
  27 C :    0.089646
  28 C :   -0.033209
  29 N :   -0.045437
  30 C :   -0.030736
  31 C :   -0.116573
  32 S :    0.141320
  33 C :   -0.261288
  34 C :    0.275169
  35 C :    0.158181
  36 O :   -0.326161
  37 C :    0.192666
  38 O :   -0.301985
  39 C :    0.165838
  40 C :    0.033390
  41 C :   -0.164738
  42 C :    0.138907
  43 O :   -0.137117
  44 C :    0.088161
  45 C :   -0.175758
  46 S :    0.180555
  47 C :   -0.126383
  48 C :    0.016049
  49 C :    0.259710
  50 C :   -0.313940
  51 C :   -0.185726
  52 N :    0.152331
  53 C :   -0.172368
  54 N :    0.150651
  55 Cl:   -0.003325
  56 H :    0.052542
  57 H :   -0.004641
  58 H :    0.027959
  59 H :    0.032867
  60 H :    0.059924
  61 H :    0.038056
  62 H :    0.032265
  63 H :    0.013098
  64 H :    0.021312
  65 H :    0.008369
  66 H :    0.021021
  67 H :    0.034263
  68 H :    0.027529
  69 H :    0.030572
  70 H :    0.041905
  71 H :    0.043903
  72 H :    0.054994
  73 H :    0.022557
  74 H :    0.052187
Sum of atomic charges:   -0.0000000

LOEWDIN ATOMIC CHARGES
----------------------
   0 C :   -0.059519
   1 C :   -0.147949
   2 S :    0.467599
   3 C :   -0.273529
   4 Cl:    0.189482
   5 C :   -0.114669
   6 C :    0.079331
   7 O :   -0.159215
   8 C :   -0.116500
   9 C :    0.080801
  10 C :   -0.156797
  11 C :   -0.016722
  12 N :   -0.060438
  13 C :   -0.009585
  14 N :   -0.062362
  15 C :    0.055792
  16 C :   -0.221974
  17 S :    0.517998
  18 C :   -0.164908
  19 C :   -0.003561
  20 C :    0.026078
  21 O :   -0.104292
  22 C :    0.079063
  23 O :   -0.093527
  24 C :    0.081664
  25 C :   -0.062271
  26 C :    0.031580
  27 C :   -0.059916
  28 C :    0.020265
  29 N :   -0.060931
  30 C :    0.024337
  31 C :   -0.162900
  32 S :    0.462451
  33 C :   -0.232836
  34 C :    0.041673
  35 C :    0.002879
  36 O :   -0.100948
  37 C :    0.081288
  38 O :   -0.075485
  39 C :    0.086160
  40 C :    0.045801
  41 C :   -0.105993
  42 C :    0.079715
  43 O :   -0.142217
  44 C :   -0.118022
  45 C :   -0.273001
  46 S :    0.469525
  47 C :   -0.152252
  48 C :   -0.056299
  49 C :    0.060497
  50 C :   -0.143371
  51 C :   -0.018431
  52 N :   -0.052771
  53 C :   -0.023489
  54 N :   -0.061524
  55 Cl:    0.189170
  56 H :    0.037208
  57 H :    0.048225
  58 H :    0.021624
  59 H :    0.019969
  60 H :    0.022638
  61 H :    0.020473
  62 H :    0.024545
  63 H :    0.013327
  64 H :    0.030464
  65 H :    0.014506
  66 H :    0.017601
  67 H :    0.022485
  68 H :    0.022469
  69 H :    0.014686
  70 H :    0.031990
  71 H :    0.021622
  72 H :    0.028300
  73 H :    0.045242
  74 H :    0.037678

  Mayer bond orders larger than 0.100000
B(  0-C ,  1-C ) :   1.5520 B(  0-C ,  5-C ) :   1.2249 B(  0-C ,  9-C ) :   0.9891
B(  1-C ,  2-S ) :   1.1585 B(  1-C , 56-H ) :   0.9533 B(  2-S ,  3-C ) :   1.1426
B(  3-C ,  4-Cl) :   1.1256 B(  3-C ,  5-C ) :   1.4828 B(  5-C ,  6-C ) :   0.9622
B(  6-C ,  7-O ) :   2.1548 B(  6-C ,  8-C ) :   0.9721 B(  8-C ,  9-C ) :   1.1066
B(  8-C , 15-C ) :   1.4844 B(  9-C , 10-C ) :   1.6059 B( 10-C , 11-C ) :   1.1529
B( 10-C , 13-C ) :   1.1619 B( 11-C , 12-N ) :   2.9883 B( 13-C , 14-N ) :   2.9035
B( 15-C , 16-C ) :   1.2903 B( 15-C , 57-H ) :   0.9296 B( 16-C , 17-S ) :   1.0619
B( 16-C , 18-C ) :   0.1165 B( 16-C , 20-C ) :   1.3186 B( 17-S , 18-C ) :   1.1284
B( 17-S , 20-C ) :   0.1002 B( 18-C , 19-C ) :   1.4194 B( 18-C , 25-C ) :   1.0783
B( 19-C , 20-C ) :   1.2784 B( 19-C , 23-O ) :   1.1694 B( 20-C , 21-O ) :   1.1769
B( 21-O , 22-C ) :   0.8976 B( 22-C , 58-H ) :   0.9701 B( 22-C , 59-H ) :   0.9649
B( 22-C , 60-H ) :   0.9590 B( 23-O , 24-C ) :   0.9280 B( 24-C , 61-H ) :   0.9741
B( 24-C , 62-H ) :   0.9769 B( 24-C , 63-H ) :   0.9756 B( 25-C , 26-C ) :   1.3620
B( 25-C , 30-C ) :   1.3004 B( 26-C , 27-C ) :   1.3606 B( 26-C , 64-H ) :   0.9775
B( 27-C , 28-C ) :   1.3089 B( 27-C , 31-C ) :   1.0549 B( 28-C , 29-N ) :   1.5683
B( 28-C , 65-H ) :   0.9798 B( 29-N , 30-C ) :   1.5745 B( 30-C , 66-H ) :   0.9791
B( 31-C , 32-S ) :   1.1174 B( 31-C , 33-C ) :   0.1215 B( 31-C , 35-C ) :   1.5438
B( 32-S , 33-C ) :   1.0752 B( 33-C , 34-C ) :   1.3887 B( 33-C , 40-C ) :   1.1121
B( 34-C , 35-C ) :   1.1942 B( 34-C , 38-O ) :   1.2113 B( 35-C , 36-O ) :   1.1617
B( 36-O , 37-C ) :   0.9257 B( 37-C , 67-H ) :   0.9733 B( 37-C , 68-H ) :   0.9787
B( 37-C , 69-H ) :   0.9744 B( 38-O , 39-C ) :   0.9284 B( 39-C , 70-H ) :   0.9744
B( 39-C , 71-H ) :   0.9740 B( 39-C , 72-H ) :   0.9592 B( 40-C , 41-C ) :   1.6576
B( 40-C , 73-H ) :   0.9411 B( 41-C , 42-C ) :   0.9438 B( 41-C , 49-C ) :   1.0460
B( 42-C , 43-O ) :   2.2682 B( 42-C , 44-C ) :   0.9255 B( 44-C , 45-C ) :   1.4866
B( 44-C , 48-C ) :   1.2207 B( 45-C , 46-S ) :   1.1496 B( 45-C , 55-Cl) :   1.1268
B( 46-S , 47-C ) :   1.1544 B( 47-C , 48-C ) :   1.5585 B( 47-C , 74-H ) :   0.9565
B( 48-C , 49-C ) :   1.0099 B( 49-C , 50-C ) :   1.6573 B( 50-C , 51-C ) :   1.1373
B( 50-C , 53-C ) :   1.1615 B( 51-C , 52-N ) :   3.0004 B( 53-C , 54-N ) :   2.9846

-----------------------------------------------------------------------------
         ABSORPTION SPECTRUM VIA TRANSITION ELECTRIC DIPOLE MOMENTS
-----------------------------------------------------------------------------
State   Energy  Wavelength   fosc         T2         TX        TY        TZ
        (cm-1)    (nm)                  (au**2)     (au)      (au)      (au)
-----------------------------------------------------------------------------
   0   20009.7    499.8   0.962849035  15.84136  -3.57428   1.72045  -0.32544
   1   21398.9    467.3   0.577719841   8.88795   2.60827  -1.22978  -0.75666
   2   24305.9    411.4   0.133580602   1.80929  -0.51256   0.98696  -0.75662
   3   25020.8    399.7   0.041773316   0.54963  -0.40680  -0.27564   0.55513
   4   26030.4    384.2   0.035506927   0.44906   0.63662  -0.20920  -0.00372
   5   27039.9    369.8   0.058774374   0.71558   0.50181   0.16354  -0.66107
   6   28545.8    350.3   0.002193415   0.02530   0.01680  -0.15814  -0.00217
   7   28654.7    349.0   0.034025469   0.39092  -0.01840  -0.25827   0.56910
   8   29003.3    344.8   0.011974019   0.13592   0.28060   0.16521   0.17287
   9   30107.8    332.1   0.085531257   0.93524   0.67406  -0.42483  -0.54809
  10   30575.3    327.1   0.211188263   2.27392  -0.99796   0.00746   1.13046
  11   31211.1    320.4   0.200811792   2.11815  -0.88104   1.15477   0.09169
  12   31974.9    312.7   0.000491381   0.00506  -0.02594  -0.00559  -0.06599
  13   32339.2    309.2   0.000814898   0.00830  -0.08958   0.01561  -0.00530
  14   32590.7    306.8   0.002935975   0.02966   0.11383  -0.03238  -0.12511
  15   33737.8    296.4   0.207995322   2.02961  -0.80095   0.86029   0.80497
  16   33850.8    295.4   0.034593770   0.33644   0.07278   0.32775  -0.47299
  17   33980.3    294.3   0.062281501   0.60340  -0.04304   0.56668  -0.52955
  18   34610.6    288.9   0.009266487   0.08814  -0.11424  -0.06266   0.26677
  19   34691.5    288.3   0.081884811   0.77706   0.68453  -0.50186  -0.23795
  20   34788.7    287.4   0.069964728   0.66209  -0.38430   0.43503   0.57021
  21   35355.4    282.8   0.017124644   0.15946  -0.36539  -0.08758   0.13520
  22   36151.2    276.6   0.002326301   0.02118  -0.09521  -0.09729  -0.05152
  23   37017.1    270.1   0.090407322   0.80404   0.73184  -0.10286  -0.50781
  24   37189.6    268.9   0.053891022   0.47706   0.46807  -0.05461  -0.50496
  25   37609.3    265.9   0.072809450   0.63734   0.03699   0.63511  -0.48228
  26   37955.8    263.5   0.569048965   4.93568   0.37443  -1.42881   1.65952
  27   38191.4    261.8   0.302110111   2.60421   1.30546  -0.94408   0.09326
  28   38566.7    259.3   0.270315831   2.30746  -0.54134   0.93530   1.06753
  29   38854.6    257.4   0.148076163   1.25464   0.00042  -1.07786  -0.30474
  30   39081.0    255.9   0.322154743   2.71378  -0.01597  -1.38961   0.88459
  31   39727.7    251.7   0.169244980   1.40248  -0.19122  -0.89402   0.75276
  32   39931.8    250.4   0.012464863   0.10276  -0.16460  -0.14519   0.23365

FINAL SINGLE POINT ENERGY     -4732.143883197706

DIPOLE MOMENT
-------------
                                X             Y             Z
Electronic contribution:     -8.05983     -41.63562      35.82410
Nuclear contribution   :      9.51791      41.78714     -36.95716
                        -----------------------------------------
Total Dipole Moment    :      1.45808       0.15152      -1.13307
                        -----------------------------------------
Magnitude (a.u.)       :      1.85278
Magnitude (Debye)      :      4.70940

Rotational constants in cm-1:     0.002860     0.000407     0.000369
Rotational constants in MHz :    85.741181    12.203096    11.058348

                             ****ORCA TERMINATED NORMALLY****
TOTAL RUN TIME: 0 days 0 hours 6 minutes 35 seconds 103 msec
