                         Program Version 4.2.0 -  RELEASE  -
|  1> # ORCA input file
|  2> # SCF done       -180.037621829505          0.000382981299
|  3> ! CAM-B3LYP def2-SVP def2/J RIJCOSX Grid4 TightSCF
|  4> %maxcore 5000
|  5> %tddft
|  6>     Mode sTDDFT
|  7>     Ethresh 5.0
|  8>     maxcore 5000
|  9> end
| 10>
| 11> %pal
| 12>   nprocs 6
| 13>   end
| 14> * xyz 0 1
| 15>    C        5.16326        -2.34196        -6.74711
| 16>    C        5.28176        -2.22294        -8.09828
| 17>    S        6.45947        -3.31789        -8.72070
| 18>    C        6.80248        -3.95590        -7.13062
| 19>   Cl        7.95250        -5.17678        -6.89901
| 20>    C        6.03376        -3.33320        -6.19207
| 21>    C        5.85472        -3.41131        -4.73908
| 22>    O        6.41603        -4.15801        -3.97452
| 23>    C        4.82270        -2.36210        -4.42839
| 24>    C        4.38785        -1.74308        -5.68049
| 25>    C        3.42628        -0.78926        -5.86899
| 26>    C        3.13282        -0.29711        -7.16066
| 27>    N        2.88254         0.11516        -8.20098
| 28>    C        2.61764        -0.19304        -4.87848
| 29>    N        1.91499         0.33547        -4.14120
| 30>    C        4.37515        -1.99179        -3.20114
| 31>    C        4.74265        -2.50369        -1.92906
| 32>    O        5.59735        -3.51749        -1.69888
| 33>    C        5.61965        -3.61181        -0.35663
| 34>    N        4.82452        -2.71020         0.18825
| 35>    N        4.27894        -2.02303        -0.78996
| 36>    C        6.42442        -4.57464         0.31101
| 37>    C        7.18862        -5.44625        -0.38898
| 38>    C        8.03859        -6.43381         0.18206
| 39>    C        8.30278        -6.70041         1.50502
| 40>    C        9.24002        -7.77639         1.58873
| 41>    C        9.53521        -8.17102         0.19568
| 42>    C        8.81978        -7.36353        -0.62663
| 43>    C       10.40695        -9.18211        -0.22406
| 44>    N       11.11791       -10.00224        -0.60022
| 45>    C        9.78295        -8.32998         2.72058
| 46>    C       10.70430        -9.41947         2.79739
| 47>    C       10.97449        -9.68670         4.11545
| 48>    C       10.25561        -8.71840         4.93432
| 49>    C        9.54225        -7.90662         4.11389
| 50>    C        8.74505        -6.83546         4.53516
| 51>    N        8.09681        -5.96001         4.89799
| 52>    C       11.90617       -10.65196         4.60053
| 53>    S       13.36648       -10.83114         3.70597
| 54>    C       14.14051       -11.72780         4.96288
| 55>    C       13.23888       -12.00139         5.99891
| 56>    C       11.94354       -11.40970         5.78315
| 57>    C       10.90523       -11.71944         6.69485
| 58>    C        9.44710       -11.41802         6.45001
| 59>    F        9.11919       -11.32084         5.15503
| 60>    F        8.67023       -12.39735         6.94340
| 61>    F        9.03104       -10.29056         7.04968
| 62>    C       11.18318       -12.43415         7.83917
| 63>    C       12.45126       -12.96703         8.07322
| 64>    C       13.45658       -12.81790         7.13867
| 65>    C       14.63139       -13.57783         7.33165
| 66>    N       15.53259       -14.25628         7.53962
| 67>    C       15.52390       -12.01320         4.80731
| 68>    C       16.52700       -12.00373         5.72007
| 69>    C       17.83098       -12.64732         5.34066
| 70>    O       18.15900       -12.98106         4.22964
| 71>    C       18.54022       -12.79763         6.61159
| 72>    C       19.69337       -13.37667         7.05154
| 73>    S       19.86382       -13.16067         8.77740
| 74>    C       18.38346       -12.28375         8.88229
| 75>    C       17.79102       -12.17301         7.66315
| 76>    C       16.59658       -11.57214         7.10508
| 77>    C       15.81444       -10.65103         7.75130
| 78>    C       16.02805       -10.33069         9.10896
| 79>    N       16.16671       -10.07476        10.21831
| 80>    C       14.79220        -9.89094         7.15725
| 81>    N       13.96827        -9.22278         6.71667
| 82>   Cl       20.85704       -14.20511         6.14564
| 83>    H        4.76419        -1.57033        -8.77284
| 84>    H        3.65010        -1.19375        -3.11312
| 85>    H        6.38236        -4.55636         1.38805
| 86>    H        7.16415        -5.39643        -1.47139
| 87>    H        7.88886        -6.19367         2.35354
| 88>    H        8.81340        -7.38605        -1.70093
| 89>    H       11.08259        -9.96644         1.95625
| 90>    H       10.34113        -8.63128         6.00041
| 91>    H       10.39256       -12.64390         8.54267
| 92>    H       12.62735       -13.55983         8.95736
| 93>    H       15.84023       -12.25793         3.79626
| 94>    H       18.04863       -11.92654         9.83589
| 95> *
| 96>
| 97>                          ****END OF INPUT****

CARTESIAN COORDINATES (ANGSTROEM)
---------------------------------
  C      5.163260   -2.341960   -6.747110
  C      5.281760   -2.222940   -8.098280
  S      6.459470   -3.317890   -8.720700
  C      6.802480   -3.955900   -7.130620
  Cl     7.952500   -5.176780   -6.899010
  C      6.033760   -3.333200   -6.192070
  C      5.854720   -3.411310   -4.739080
  O      6.416030   -4.158010   -3.974520
  C      4.822700   -2.362100   -4.428390
  C      4.387850   -1.743080   -5.680490
  C      3.426280   -0.789260   -5.868990
  C      3.132820   -0.297110   -7.160660
  N      2.882540    0.115160   -8.200980
  C      2.617640   -0.193040   -4.878480
  N      1.914990    0.335470   -4.141200
  C      4.375150   -1.991790   -3.201140
  C      4.742650   -2.503690   -1.929060
  O      5.597350   -3.517490   -1.698880
  C      5.619650   -3.611810   -0.356630
  N      4.824520   -2.710200    0.188250
  N      4.278940   -2.023030   -0.789960
  C      6.424420   -4.574640    0.311010
  C      7.188620   -5.446250   -0.388980
  C      8.038590   -6.433810    0.182060
  C      8.302780   -6.700410    1.505020
  C      9.240020   -7.776390    1.588730
  C      9.535210   -8.171020    0.195680
  C      8.819780   -7.363530   -0.626630
  C     10.406950   -9.182110   -0.224060
  N     11.117910  -10.002240   -0.600220
  C      9.782950   -8.329980    2.720580
  C     10.704300   -9.419470    2.797390
  C     10.974490   -9.686700    4.115450
  C     10.255610   -8.718400    4.934320
  C      9.542250   -7.906620    4.113890
  C      8.745050   -6.835460    4.535160
  N      8.096810   -5.960010    4.897990
  C     11.906170  -10.651960    4.600530
  S     13.366480  -10.831140    3.705970
  C     14.140510  -11.727800    4.962880
  C     13.238880  -12.001390    5.998910
  C     11.943540  -11.409700    5.783150
  C     10.905230  -11.719440    6.694850
  C      9.447100  -11.418020    6.450010
  F      9.119190  -11.320840    5.155030
  F      8.670230  -12.397350    6.943400
  F      9.031040  -10.290560    7.049680
  C     11.183180  -12.434150    7.839170
  C     12.451260  -12.967030    8.073220
  C     13.456580  -12.817900    7.138670
  C     14.631390  -13.577830    7.331650
  N     15.532590  -14.256280    7.539620
  C     15.523900  -12.013200    4.807310
  C     16.527000  -12.003730    5.720070
  C     17.830980  -12.647320    5.340660
  O     18.159000  -12.981060    4.229640
  C     18.540220  -12.797630    6.611590
  C     19.693370  -13.376670    7.051540
  S     19.863820  -13.160670    8.777400
  C     18.383460  -12.283750    8.882290
  C     17.791020  -12.173010    7.663150
  C     16.596580  -11.572140    7.105080
  C     15.814440  -10.651030    7.751300
  C     16.028050  -10.330690    9.108960
  N     16.166710  -10.074760   10.218310
  C     14.792200   -9.890940    7.157250
  N     13.968270   -9.222780    6.716670
  Cl    20.857040  -14.205110    6.145640
  H      4.764190   -1.570330   -8.772840
  H      3.650100   -1.193750   -3.113120
  H      6.382360   -4.556360    1.388050
  H      7.164150   -5.396430   -1.471390
  H      7.888860   -6.193670    2.353540
  H      8.813400   -7.386050   -1.700930
  H     11.082590   -9.966440    1.956250
  H     10.341130   -8.631280    6.000410
  H     10.392560  -12.643900    8.542670
  H     12.627350  -13.559830    8.957360
  H     15.840230  -12.257930    3.796260
  H     18.048630  -11.926540    9.835890

 Total Charge           Charge          ....    0
 Multiplicity           Mult            ....    1
 Number of Electrons    NEL             ....  496
 Basis Dimension        Dim             .... 1032

ORBITAL ENERGIES
----------------

  NO   OCC          E(Eh)            E(eV)
   0   2.0000    -101.626954     -2765.4100
   1   2.0000    -101.618115     -2765.1695
   2   2.0000     -89.008157     -2422.0351
   3   2.0000     -89.003182     -2421.8997
   4   2.0000     -88.994030     -2421.6507
   5   2.0000     -24.825364      -675.5325
   6   2.0000     -24.821935      -675.4392
   7   2.0000     -24.817819      -675.3272
   8   2.0000     -19.329729      -525.9887
   9   2.0000     -19.233178      -523.3614
  10   2.0000     -19.224266      -523.1189
  11   2.0000     -14.458480      -393.4352
  12   2.0000     -14.449973      -393.2038
  13   2.0000     -14.432345      -392.7241
  14   2.0000     -14.430361      -392.6701
  15   2.0000     -14.429974      -392.6595
  16   2.0000     -14.429601      -392.6494
  17   2.0000     -14.426289      -392.5593
  18   2.0000     -14.418685      -392.3524
  19   2.0000     -14.416909      -392.3040
  20   2.0000     -10.543787      -286.9110
  21   2.0000     -10.392018      -282.7812
  22   2.0000     -10.388553      -282.6869
  23   2.0000     -10.387927      -282.6699
  24   2.0000     -10.385797      -282.6119
  25   2.0000     -10.379978      -282.4536
  26   2.0000     -10.376987      -282.3722
  27   2.0000     -10.360918      -281.9349
  28   2.0000     -10.360034      -281.9109
  29   2.0000     -10.357276      -281.8358
  30   2.0000     -10.354919      -281.7717
  31   2.0000     -10.352190      -281.6974
  32   2.0000     -10.350896      -281.6622
  33   2.0000     -10.346470      -281.5418
  34   2.0000     -10.341837      -281.4157
  35   2.0000     -10.341481      -281.4060
  36   2.0000     -10.338764      -281.3321
  37   2.0000     -10.337756      -281.3046
  38   2.0000     -10.337588      -281.3001
  39   2.0000     -10.336632      -281.2741
  40   2.0000     -10.335712      -281.2490
  41   2.0000     -10.335281      -281.2373
  42   2.0000     -10.333251      -281.1821
  43   2.0000     -10.332744      -281.1683
  44   2.0000     -10.331249      -281.1276
  45   2.0000     -10.331206      -281.1264
  46   2.0000     -10.331105      -281.1237
  47   2.0000     -10.330070      -281.0955
  48   2.0000     -10.328886      -281.0633
  49   2.0000     -10.328501      -281.0528
  50   2.0000     -10.326830      -281.0073
  51   2.0000     -10.326558      -280.9999
  52   2.0000     -10.326051      -280.9861
  53   2.0000     -10.324799      -280.9521
  54   2.0000     -10.322630      -280.8930
  55   2.0000     -10.321232      -280.8550
  56   2.0000     -10.320921      -280.8465
  57   2.0000     -10.319165      -280.7988
  58   2.0000     -10.318810      -280.7891
  59   2.0000     -10.315907      -280.7101
  60   2.0000     -10.314514      -280.6722
  61   2.0000     -10.314297      -280.6663
  62   2.0000     -10.313875      -280.6548
  63   2.0000     -10.313732      -280.6509
  64   2.0000     -10.309648      -280.5398
  65   2.0000     -10.301331      -280.3135
  66   2.0000     -10.300575      -280.2929
  67   2.0000     -10.299504      -280.2637
  68   2.0000      -9.581699      -260.7313
  69   2.0000      -9.572922      -260.4925
  70   2.0000      -8.103153      -220.4980
  71   2.0000      -8.098912      -220.3826
  72   2.0000      -8.089831      -220.1355
  73   2.0000      -7.352318      -200.0667
  74   2.0000      -7.343538      -199.8278
  75   2.0000      -7.341754      -199.7793
  76   2.0000      -7.341210      -199.7645
  77   2.0000      -7.332962      -199.5400
  78   2.0000      -7.332432      -199.5256
  79   2.0000      -6.072052      -165.2289
  80   2.0000      -6.068260      -165.1257
  81   2.0000      -6.067748      -165.1118
  82   2.0000      -6.066174      -165.0690
  83   2.0000      -6.063638      -165.0000
  84   2.0000      -6.061227      -164.9344
  85   2.0000      -6.059200      -164.8792
  86   2.0000      -6.054595      -164.7539
  87   2.0000      -6.052076      -164.6853
  88   2.0000      -1.413571       -38.4652
  89   2.0000      -1.317020       -35.8379
  90   2.0000      -1.311133       -35.6777
  91   2.0000      -1.281121       -34.8611
  92   2.0000      -1.151428       -31.3319
  93   2.0000      -1.141788       -31.0696
  94   2.0000      -1.105378       -30.0789
  95   2.0000      -1.050144       -28.5759
  96   2.0000      -1.048397       -28.5283
  97   2.0000      -1.039900       -28.2971
  98   2.0000      -1.028450       -27.9855
  99   2.0000      -1.027563       -27.9614
 100   2.0000      -1.023599       -27.8536
 101   2.0000      -1.019336       -27.7375
 102   2.0000      -1.010539       -27.4982
 103   2.0000      -1.008242       -27.4356
 104   2.0000      -1.006549       -27.3896
 105   2.0000      -0.999705       -27.2034
 106   2.0000      -0.995835       -27.0981
 107   2.0000      -0.993972       -27.0473
 108   2.0000      -0.992787       -27.0151
 109   2.0000      -0.982702       -26.7407
 110   2.0000      -0.973910       -26.5014
 111   2.0000      -0.960546       -26.1378
 112   2.0000      -0.958097       -26.0711
 113   2.0000      -0.939485       -25.5647
 114   2.0000      -0.923157       -25.1204
 115   2.0000      -0.917394       -24.9636
 116   2.0000      -0.914097       -24.8739
 117   2.0000      -0.902608       -24.5612
 118   2.0000      -0.889317       -24.1995
 119   2.0000      -0.883982       -24.0544
 120   2.0000      -0.875850       -23.8331
 121   2.0000      -0.864583       -23.5265
 122   2.0000      -0.851865       -23.1804
 123   2.0000      -0.842574       -22.9276
 124   2.0000      -0.838365       -22.8131
 125   2.0000      -0.834646       -22.7119
 126   2.0000      -0.824913       -22.4470
 127   2.0000      -0.812893       -22.1199
 128   2.0000      -0.802170       -21.8282
 129   2.0000      -0.786413       -21.3994
 130   2.0000      -0.768487       -20.9116
 131   2.0000      -0.764726       -20.8092
 132   2.0000      -0.763752       -20.7827
 133   2.0000      -0.758538       -20.6409
 134   2.0000      -0.752422       -20.4744
 135   2.0000      -0.745030       -20.2733
 136   2.0000      -0.733070       -19.9478
 137   2.0000      -0.719091       -19.5675
 138   2.0000      -0.714730       -19.4488
 139   2.0000      -0.710719       -19.3397
 140   2.0000      -0.700987       -19.0748
 141   2.0000      -0.700465       -19.0606
 142   2.0000      -0.695752       -18.9324
 143   2.0000      -0.690393       -18.7865
 144   2.0000      -0.687621       -18.7111
 145   2.0000      -0.686039       -18.6681
 146   2.0000      -0.681430       -18.5426
 147   2.0000      -0.679551       -18.4915
 148   2.0000      -0.674668       -18.3587
 149   2.0000      -0.655383       -17.8339
 150   2.0000      -0.649894       -17.6845
 151   2.0000      -0.637901       -17.3582
 152   2.0000      -0.635001       -17.2793
 153   2.0000      -0.624448       -16.9921
 154   2.0000      -0.623338       -16.9619
 155   2.0000      -0.621128       -16.9017
 156   2.0000      -0.616619       -16.7791
 157   2.0000      -0.615671       -16.7533
 158   2.0000      -0.610202       -16.6044
 159   2.0000      -0.601995       -16.3811
 160   2.0000      -0.595043       -16.1920
 161   2.0000      -0.585880       -15.9426
 162   2.0000      -0.578443       -15.7402
 163   2.0000      -0.575150       -15.6506
 164   2.0000      -0.574335       -15.6285
 165   2.0000      -0.568935       -15.4815
 166   2.0000      -0.564526       -15.3615
 167   2.0000      -0.561218       -15.2715
 168   2.0000      -0.560524       -15.2526
 169   2.0000      -0.557109       -15.1597
 170   2.0000      -0.550553       -14.9813
 171   2.0000      -0.547838       -14.9074
 172   2.0000      -0.545117       -14.8334
 173   2.0000      -0.542457       -14.7610
 174   2.0000      -0.539925       -14.6921
 175   2.0000      -0.537677       -14.6309
 176   2.0000      -0.536107       -14.5882
 177   2.0000      -0.534548       -14.5458
 178   2.0000      -0.532474       -14.4893
 179   2.0000      -0.527198       -14.3458
 180   2.0000      -0.526232       -14.3195
 181   2.0000      -0.525517       -14.3001
 182   2.0000      -0.525428       -14.2976
 183   2.0000      -0.521356       -14.1868
 184   2.0000      -0.519720       -14.1423
 185   2.0000      -0.515955       -14.0398
 186   2.0000      -0.515850       -14.0370
 187   2.0000      -0.510510       -13.8917
 188   2.0000      -0.506346       -13.7784
 189   2.0000      -0.506107       -13.7719
 190   2.0000      -0.503657       -13.7052
 191   2.0000      -0.499603       -13.5949
 192   2.0000      -0.497467       -13.5368
 193   2.0000      -0.496321       -13.5056
 194   2.0000      -0.494144       -13.4463
 195   2.0000      -0.492423       -13.3995
 196   2.0000      -0.489935       -13.3318
 197   2.0000      -0.486992       -13.2517
 198   2.0000      -0.485473       -13.2104
 199   2.0000      -0.475178       -12.9303
 200   2.0000      -0.469667       -12.7803
 201   2.0000      -0.467223       -12.7138
 202   2.0000      -0.465015       -12.6537
 203   2.0000      -0.464700       -12.6451
 204   2.0000      -0.461177       -12.5493
 205   2.0000      -0.460751       -12.5377
 206   2.0000      -0.459864       -12.5135
 207   2.0000      -0.459518       -12.5041
 208   2.0000      -0.455743       -12.4014
 209   2.0000      -0.454582       -12.3698
 210   2.0000      -0.453850       -12.3499
 211   2.0000      -0.451990       -12.2993
 212   2.0000      -0.451538       -12.2870
 213   2.0000      -0.449723       -12.2376
 214   2.0000      -0.448611       -12.2073
 215   2.0000      -0.446212       -12.1420
 216   2.0000      -0.443032       -12.0555
 217   2.0000      -0.442495       -12.0409
 218   2.0000      -0.441870       -12.0239
 219   2.0000      -0.440352       -11.9826
 220   2.0000      -0.438304       -11.9269
 221   2.0000      -0.436633       -11.8814
 222   2.0000      -0.433054       -11.7840
 223   2.0000      -0.430251       -11.7077
 224   2.0000      -0.425759       -11.5855
 225   2.0000      -0.425322       -11.5736
 226   2.0000      -0.424614       -11.5543
 227   2.0000      -0.416280       -11.3276
 228   2.0000      -0.412761       -11.2318
 229   2.0000      -0.409955       -11.1554
 230   2.0000      -0.407241       -11.0816
 231   2.0000      -0.404363       -11.0033
 232   2.0000      -0.390320       -10.6212
 233   2.0000      -0.382901       -10.4193
 234   2.0000      -0.365176        -9.9370
 235   2.0000      -0.359120        -9.7722
 236   2.0000      -0.356689        -9.7060
 237   2.0000      -0.352286        -9.5862
 238   2.0000      -0.351465        -9.5638
 239   2.0000      -0.348255        -9.4765
 240   2.0000      -0.344978        -9.3873
 241   2.0000      -0.335792        -9.1374
 242   2.0000      -0.333809        -9.0834
 243   2.0000      -0.328066        -8.9271
 244   2.0000      -0.319245        -8.6871
 245   2.0000      -0.314423        -8.5559
 246   2.0000      -0.294963        -8.0263
 247   2.0000      -0.276868        -7.5340
 248   0.0000      -0.142113        -3.8671
 249   0.0000      -0.111659        -3.0384
 250   0.0000      -0.103909        -2.8275
 251   0.0000      -0.076767        -2.0889
 252   0.0000      -0.062326        -1.6960

MULLIKEN ATOMIC CHARGES
-----------------------
   0 C :    0.033892
   1 C :   -0.128161
   2 S :    0.195856
   3 C :   -0.170051
   4 Cl:    0.000501
   5 C :    0.071899
   6 C :    0.149382
   7 O :   -0.113766
   8 C :   -0.066230
   9 C :    0.293978
  10 C :   -0.327751
  11 C :   -0.193107
  12 N :    0.163414
  13 C :   -0.187875
  14 N :    0.180430
  15 C :   -0.042342
  16 C :    0.091850
  17 O :   -0.154863
  18 C :    0.128356
  19 N :   -0.056761
  20 N :   -0.046724
  21 C :   -0.008129
  22 C :    0.004028
  23 C :    0.107341
  24 C :   -0.093038
  25 C :    0.101338
  26 C :   -0.083602
  27 C :   -0.000114
  28 C :   -0.178505
  29 N :    0.129736
  30 C :    0.118683
  31 C :   -0.113214
  32 C :    0.083847
  33 C :    0.033922
  34 C :   -0.105732
  35 C :   -0.174996
  36 N :    0.141931
  37 C :   -0.155293
  38 S :    0.267398
  39 C :   -0.206912
  40 C :    0.178068
  41 C :    0.156278
  42 C :   -0.130456
  43 C :    0.523745
  44 F :   -0.146723
  45 F :   -0.157493
  46 F :   -0.156047
  47 C :    0.002025
  48 C :    0.033930
  49 C :   -0.110843
  50 C :   -0.197864
  51 N :    0.138576
  52 C :    0.066929
  53 C :   -0.128679
  54 C :    0.130962
  55 O :   -0.122669
  56 C :    0.111097
  57 C :   -0.171556
  58 S :    0.188380
  59 C :   -0.120215
  60 C :    0.034430
  61 C :    0.244966
  62 C :   -0.324287
  63 C :   -0.196884
  64 N :    0.163640
  65 C :   -0.184926
  66 N :    0.160783
  67 Cl:    0.001668
  68 H :    0.057583
  69 H :    0.041549
  70 H :    0.036525
  71 H :    0.026106
  72 H :    0.006556
  73 H :    0.007559
  74 H :    0.007037
  75 H :    0.015464
  76 H :    0.021163
  77 H :    0.012392
  78 H :    0.039648
  79 H :    0.050964
Sum of atomic charges:   -0.0000000

LOEWDIN ATOMIC CHARGES
----------------------
   0 C :   -0.060073
   1 C :   -0.147620
   2 S :    0.484338
   3 C :   -0.272604
   4 Cl:    0.192858
   5 C :   -0.118505
   6 C :    0.076783
   7 O :   -0.127255
   8 C :   -0.066478
   9 C :    0.070133
  10 C :   -0.123840
  11 C :   -0.013767
  12 N :   -0.043084
  13 C :   -0.027927
  14 N :   -0.027113
  15 C :    0.045502
  16 C :    0.008069
  17 O :    0.042980
  18 C :    0.041017
  19 N :   -0.074537
  20 N :   -0.044104
  21 C :   -0.018552
  22 C :    0.016408
  23 C :   -0.021557
  24 C :   -0.004903
  25 C :    0.037663
  26 C :   -0.082986
  27 C :    0.058307
  28 C :   -0.030127
  29 N :   -0.062392
  30 C :    0.045379
  31 C :   -0.026179
  32 C :   -0.037085
  33 C :    0.060857
  34 C :   -0.079284
  35 C :   -0.029090
  36 N :   -0.056427
  37 C :   -0.147642
  38 S :    0.570726
  39 C :   -0.183762
  40 C :   -0.018403
  41 C :   -0.028536
  42 C :   -0.052953
  43 C :    0.171571
  44 F :   -0.039202
  45 F :   -0.053556
  46 F :   -0.051461
  47 C :    0.005519
  48 C :    0.033168
  49 C :   -0.054883
  50 C :   -0.021359
  51 N :   -0.046892
  52 C :    0.030384
  53 C :   -0.072501
  54 C :    0.085475
  55 O :   -0.127656
  56 C :   -0.113098
  57 C :   -0.269323
  58 S :    0.480357
  59 C :   -0.146872
  60 C :   -0.051314
  61 C :    0.071887
  62 C :   -0.141922
  63 C :   -0.017275
  64 N :   -0.048710
  65 C :   -0.012876
  66 N :   -0.059836
  67 Cl:    0.195079
  68 H :    0.038738
  69 H :    0.064176
  70 H :    0.053415
  71 H :    0.044221
  72 H :    0.035404
  73 H :    0.040643
  74 H :    0.033233
  75 H :    0.038307
  76 H :    0.044858
  77 H :    0.049312
  78 H :    0.051498
  79 H :    0.037258

  Mayer bond orders larger than 0.100000
B(  0-C ,  1-C ) :   1.5402 B(  0-C ,  5-C ) :   1.2233 B(  0-C ,  9-C ) :   1.0016
B(  1-C ,  2-S ) :   1.1663 B(  1-C , 68-H ) :   0.9531 B(  2-S ,  3-C ) :   1.1559
B(  3-C ,  4-Cl) :   1.1281 B(  3-C ,  5-C ) :   1.4751 B(  5-C ,  6-C ) :   0.9524
B(  6-C ,  7-O ) :   2.2623 B(  6-C ,  8-C ) :   0.9059 B(  8-C ,  9-C ) :   1.0611
B(  8-C , 15-C ) :   1.6198 B(  9-C , 10-C ) :   1.6677 B( 10-C , 11-C ) :   1.1484
B( 10-C , 13-C ) :   1.1326 B( 11-C , 12-N ) :   2.9899 B( 13-C , 14-N ) :   2.9757
B( 15-C , 16-C ) :   1.1440 B( 15-C , 69-H ) :   0.9322 B( 16-C , 17-O ) :   1.1522
B( 16-C , 20-N ) :   1.6383 B( 17-O , 18-C ) :   1.1847 B( 18-C , 19-N ) :   1.6026
B( 18-C , 21-C ) :   1.1403 B( 19-N , 20-N ) :   1.2558 B( 21-C , 22-C ) :   1.6446
B( 21-C , 70-H ) :   0.9633 B( 22-C , 23-C ) :   1.0761 B( 22-C , 71-H ) :   0.9789
B( 23-C , 24-C ) :   1.5583 B( 23-C , 27-C ) :   1.0392 B( 24-C , 25-C ) :   1.1189
B( 24-C , 72-H ) :   0.9963 B( 25-C , 26-C ) :   1.1023 B( 25-C , 30-C ) :   1.4239
B( 26-C , 27-C ) :   1.6660 B( 26-C , 28-C ) :   1.0889 B( 27-C , 73-H ) :   1.0246
B( 28-C , 29-N ) :   2.9609 B( 30-C , 31-C ) :   1.1111 B( 30-C , 34-C ) :   1.1076
B( 31-C , 32-C ) :   1.5660 B( 31-C , 74-H ) :   1.0013 B( 32-C , 33-C ) :   1.0632
B( 32-C , 37-C ) :   1.0395 B( 33-C , 34-C ) :   1.6871 B( 33-C , 75-H ) :   1.0017
B( 34-C , 35-C ) :   1.0918 B( 35-C , 36-N ) :   2.9680 B( 37-C , 38-S ) :   1.2345
B( 37-C , 39-C ) :   0.1227 B( 37-C , 41-C ) :   1.3421 B( 38-S , 39-C ) :   1.1710
B( 39-C , 40-C ) :   1.3394 B( 39-C , 52-C ) :   1.0726 B( 40-C , 41-C ) :   1.2006
B( 40-C , 49-C ) :   1.2293 B( 41-C , 42-C ) :   1.2456 B( 42-C , 43-C ) :   0.9436
B( 42-C , 47-C ) :   1.5145 B( 43-C , 44-F ) :   1.1472 B( 43-C , 45-F ) :   1.1586
B( 43-C , 46-F ) :   1.1510 B( 47-C , 48-C ) :   1.2186 B( 47-C , 76-H ) :   0.9848
B( 48-C , 49-C ) :   1.5181 B( 48-C , 77-H ) :   0.9978 B( 49-C , 50-C ) :   1.1014
B( 50-C , 51-N ) :   3.0147 B( 52-C , 53-C ) :   1.7383 B( 52-C , 78-H ) :   0.9201
B( 53-C , 54-C ) :   0.9278 B( 53-C , 61-C ) :   1.0244 B( 54-C , 55-O ) :   2.2838
B( 54-C , 56-C ) :   0.9307 B( 56-C , 57-C ) :   1.4764 B( 56-C , 60-C ) :   1.2226
B( 57-C , 58-S ) :   1.1521 B( 57-C , 67-Cl) :   1.1311 B( 58-S , 59-C ) :   1.1602
B( 59-C , 60-C ) :   1.5512 B( 59-C , 79-H ) :   0.9552 B( 60-C , 61-C ) :   1.0189
B( 61-C , 62-C ) :   1.6572 B( 62-C , 63-C ) :   1.1315 B( 62-C , 65-C ) :   1.1669
B( 63-C , 64-N ) :   3.0037 B( 65-C , 66-N ) :   2.9978

-----------------------------------------------------------------------------
         ABSORPTION SPECTRUM VIA TRANSITION ELECTRIC DIPOLE MOMENTS
-----------------------------------------------------------------------------
State   Energy  Wavelength   fosc         T2         TX        TY        TZ
        (cm-1)    (nm)                  (au**2)     (au)      (au)      (au)
-----------------------------------------------------------------------------
   0   13572.8    736.8   0.941724528  22.84186  -2.86413   2.21471  -3.11988
   1   16869.3    592.8   0.023428019   0.45721  -0.03275  -0.44897   0.50454
   2   19897.2    502.6   0.268675066   4.44540   1.97706  -0.25653   0.68617
   3   21863.5    457.4   0.481864722   7.25572   1.07193  -1.56152   1.91529
   4   22882.3    437.0   0.355997948   5.12181   0.84116  -1.07340   1.80612
   5   24225.1    412.8   0.061763376   0.83935   0.87942  -0.25062   0.05617
   6   24784.6    403.5   0.061606890   0.81832   0.28777  -0.80791   0.28772
   7   25801.5    387.6   0.036077644   0.46033  -0.06123  -0.66982  -0.08903
   8   26228.9    381.3   0.001530222   0.01921  -0.01280  -0.08304   0.11021
   9   27095.9    369.1   0.042114768   0.51169   0.08705  -0.25996   0.66071
  10   27499.1    363.6   0.013904333   0.16646  -0.13955   0.20851   0.32173
  11   28210.4    354.5   0.000313574   0.00366  -0.05106  -0.03124   0.00871
  12   28734.7    348.0   0.009324704   0.10683   0.00647   0.21700   0.24434
  13   29087.0    343.8   0.007464845   0.08449   0.27979  -0.07014   0.03589
  14   29825.5    335.3   0.032763215   0.36164   0.09865  -0.16610   0.56949
  15   30209.9    331.0   0.083943422   0.91477   0.53086  -0.74281   0.28495
  16   30529.4    327.6   0.040648988   0.43834  -0.30351   0.23901  -0.53767
  17   30777.1    324.9   0.004567857   0.04886  -0.13020  -0.12125   0.13117
  18   31055.2    322.0   0.028725187   0.30451  -0.42402   0.07386   0.34534
  19   31284.1    319.7   0.019927791   0.20971  -0.32240   0.26392   0.19004
  20   32038.1    312.1   0.079183085   0.81366  -0.80193   0.36596  -0.19141
  21   32328.4    309.3   0.172745656   1.75913  -1.23095   0.30432   0.38894
  22   32786.5    305.0   0.056515082   0.56747  -0.14442   0.50996  -0.53531
  23   33067.3    302.4   0.002355095   0.02345  -0.13215  -0.07114  -0.03038
  24   33419.6    299.2   0.017620599   0.17358   0.38895   0.14926   0.00439
  25   33989.1    294.2   0.006535308   0.06330  -0.16890  -0.04845   0.18007
  26   34038.0    293.8   0.046050015   0.44539   0.16384   0.39600  -0.51160
  27   34353.3    291.1   0.090227942   0.86467   0.36344  -0.47422  -0.71253
  28   34552.1    289.4   0.026427131   0.25180  -0.07352  -0.29735  -0.39746
  29   34869.5    286.8   0.002538747   0.02397  -0.05423   0.10282   0.10225
  30   35090.9    285.0   0.138855655   1.30270  -0.90510   0.63078   0.29261
  31   35699.1    280.1   0.110125840   1.01556   0.25021  -0.36490   0.90543
  32   36030.2    277.5   0.021494124   0.19639  -0.41327   0.11506   0.11121
  33   36238.6    275.9   0.000401966   0.00365  -0.05391  -0.00754   0.02623
  34   36261.5    275.8   0.002305106   0.02093   0.01222   0.03468  -0.13991
  35   36465.2    274.2   0.115202821   1.04006  -0.05779   0.73857  -0.70088
  36   36680.3    272.6   0.004206114   0.03775   0.15562   0.04993  -0.10507
  37   36951.0    270.6   0.135359772   1.20598  -0.92371   0.59386   0.00825
  38   37012.7    270.2   0.367412005   3.26797  -1.53256   0.92211  -0.26255
  39   37464.2    266.9   0.666259075   5.85467  -1.72209   1.61811   0.52039
  40   37776.2    264.7   0.063782394   0.55585   0.12966  -0.21793   0.70110
  41   38000.2    263.2   0.177958926   1.54173  -0.92431   0.73113   0.39094
  42   38496.5    259.8   0.009753314   0.08341   0.06826  -0.26606  -0.08922
  43   38935.3    256.8   0.026720858   0.22593  -0.06341  -0.04387   0.46903
  44   39157.4    255.4   0.068336638   0.57453  -0.61022   0.41828   0.16493
  45   39210.9    255.0   0.013834337   0.11615   0.18647  -0.28056   0.05161
  46   39326.3    254.3   0.057694210   0.48298   0.51501  -0.46302   0.05785
  47   39958.2    250.3   0.074474415   0.61359   0.11202  -0.10256  -0.76845

FINAL SINGLE POINT ENERGY     -4964.850109649541

DIPOLE MOMENT
-------------
                                X             Y             Z
Electronic contribution:     17.64361     -17.93303       1.27592
Nuclear contribution   :    -15.90499      15.48507      -1.90274
                        -----------------------------------------
Total Dipole Moment    :      1.73862      -2.44796      -0.62681
                        -----------------------------------------
Magnitude (a.u.)       :      3.06728
Magnitude (Debye)      :      7.79640

Rotational constants in cm-1:     0.002168     0.000245     0.000229
Rotational constants in MHz :    64.990516     7.331876     6.880000

                             ****ORCA TERMINATED NORMALLY****
TOTAL RUN TIME: 0 days 0 hours 7 minutes 20 seconds 225 msec
