                         Program Version 4.2.0 -  RELEASE  -
|  1> # ORCA input file
|  2> # SCF done       -197.790186480121          0.000723766230
|  3> ! CAM-B3LYP def2-SVP def2/J RIJCOSX Grid4 TightSCF
|  4> %maxcore 5000
|  5> %tddft
|  6>     Mode sTDDFT
|  7>     Ethresh 5.0
|  8>     maxcore 5000
|  9> end
| 10>
| 11> %pal
| 12>   nprocs 6
| 13>   end
| 14> * xyz 0 1
| 15>    C        5.16317        -1.82152        -3.59947
| 16>    C        5.39283        -2.05891        -4.91931
| 17>    S        6.86740        -2.92493        -5.15060
| 18>    C        7.18187        -2.97405        -3.43231
| 19>   Cl        8.56367        -3.73055        -2.81054
| 20>    C        6.18689        -2.34323        -2.74688
| 21>    C        5.87508        -2.05581        -1.34248
| 22>    O        6.52429        -2.38900        -0.37828
| 23>    C        4.60377        -1.26212        -1.39403
| 24>    C        4.14619        -1.19594        -2.77818
| 25>    C        2.96206        -0.70615        -3.25833
| 26>    C        2.67964        -0.71474        -4.64189
| 27>    N        2.43593        -0.71074        -5.76264
| 28>    C        1.88792        -0.20193        -2.49526
| 29>    N        0.95665         0.18808        -1.95012
| 30>    C        3.99340        -0.60184        -0.36729
| 31>    C        4.32895        -0.59051         1.00575
| 32>    O        5.28770        -1.37635         1.54481
| 33>    C        3.77396         0.16355         2.03252
| 34>    C        2.78284         1.21179         2.33678
| 35>    O        2.03128         1.81430         1.62132
| 36>    N        2.91548         1.38779         3.70932
| 37>    C        3.88492         0.59561         4.33055
| 38>    O        4.14856         0.62139         5.49967
| 39>    C        4.43780        -0.19803         3.22100
| 40>    C        5.37994        -1.16119         2.87654
| 41>    C        6.35026        -1.87562         3.62348
| 42>    C        7.23298        -2.69167         2.98556
| 43>    C        8.23632        -3.43621         3.64880
| 44>    N        9.16889        -4.20413         2.99350
| 45>    C        9.33300        -4.32623         1.56397
| 46>    C       10.02268        -3.10365         0.96525
| 47>    C       10.04645        -4.84401         3.88689
| 48>    O       10.94844        -5.57588         3.53960
| 49>    C        9.58689        -4.42741         5.19726
| 50>    C        8.47896        -3.56749         5.01636
| 51>    C        8.00470        -3.16573         6.32398
| 52>    O        7.09604        -2.44347         6.67400
| 53>    N        8.87350        -3.81570         7.21968
| 54>    C        8.69160        -3.69932         8.64638
| 55>    C        7.97904        -4.91794         9.22812
| 56>    C        9.81909        -4.57132         6.56541
| 57>    C       10.82225        -5.31590         7.23027
| 58>    C       11.77860        -6.03607         6.58493
| 59>    C       12.77092        -6.76333         7.28690
| 60>    O       12.76760        -6.80658         8.65075
| 61>    C       13.84977        -7.50948         6.83893
| 62>    C       14.58256        -7.95056         5.64290
| 63>    O       14.39329        -7.76160         4.47476
| 64>    N       15.63988        -8.70214         6.17045
| 65>    C       15.67366        -8.79635         7.55025
| 66>    O       16.49194        -9.40739         8.19251
| 67>    C       14.50843        -8.01323         7.98223
| 68>    C       13.81142        -7.55478         9.08822
| 69>    C       14.04379        -7.72013        10.47751
| 70>    C       15.10408        -8.43387        10.92964
| 71>    C       15.42842        -8.60490        12.29764
| 72>    C       16.61573        -9.08007        12.76073
| 73>    C       16.73256        -9.59432        14.16131
| 74>    O       15.94705        -9.41579        15.06023
| 75>    C       17.96492       -10.39169        14.14814
| 76>    C       18.63949       -11.20631        15.00820
| 77>    S       20.08277       -11.83675        14.25052
| 78>    C       19.76330       -10.98408        12.78357
| 79>    C       18.61299       -10.26604        12.87371
| 80>    C       17.85362        -9.34560        12.04704
| 81>    C       18.33491        -8.72048        10.92861
| 82>    C       19.58402        -9.07541        10.37533
| 83>    N       20.59525        -9.36321         9.91716
| 84>    C       17.73827        -7.61153        10.29334
| 85>    N       17.33888        -6.66382         9.78443
| 86>   Cl       18.22901       -11.61493        16.59976
| 87>    H        4.80587        -1.78572        -5.77348
| 88>    H        3.13925         0.02521        -0.59124
| 89>    H        2.35709         2.05434         4.22394
| 90>    H        6.36083        -1.73232         4.69488
| 91>    H        7.17067        -2.77093         1.90858
| 92>    H        8.35885        -4.48265         1.09386
| 93>    H        9.95354        -5.21316         1.40782
| 94>    H        9.41637        -2.21119         1.09953
| 95>    H       10.17868        -3.25826        -0.09839
| 96>    H       10.98936        -2.94910         1.43861
| 97>    H        8.07549        -2.80879         8.79940
| 98>    H        9.66046        -3.54477         9.12895
| 99>    H        7.00060        -5.02907         8.76749
|100>    H        7.84519        -4.78911        10.29847
|101>    H        8.54969        -5.82728         9.05229
|102>    H       10.82926        -5.29830         8.31101
|103>    H       11.82301        -6.08008         5.50500
|104>    H       16.33631        -9.13637         5.58101
|105>    H       13.37414        -7.20866        11.15416
|106>    H       15.74159        -8.91840        10.20330
|107>    H       14.66502        -8.40588        13.04154
|108>    H       20.44053       -11.08139        11.95842
|109> *
|110>
|111>                          ****END OF INPUT****

CARTESIAN COORDINATES (ANGSTROEM)
---------------------------------
  C      5.163170   -1.821520   -3.599470
  C      5.392830   -2.058910   -4.919310
  S      6.867400   -2.924930   -5.150600
  C      7.181870   -2.974050   -3.432310
  Cl     8.563670   -3.730550   -2.810540
  C      6.186890   -2.343230   -2.746880
  C      5.875080   -2.055810   -1.342480
  O      6.524290   -2.389000   -0.378280
  C      4.603770   -1.262120   -1.394030
  C      4.146190   -1.195940   -2.778180
  C      2.962060   -0.706150   -3.258330
  C      2.679640   -0.714740   -4.641890
  N      2.435930   -0.710740   -5.762640
  C      1.887920   -0.201930   -2.495260
  N      0.956650    0.188080   -1.950120
  C      3.993400   -0.601840   -0.367290
  C      4.328950   -0.590510    1.005750
  O      5.287700   -1.376350    1.544810
  C      3.773960    0.163550    2.032520
  C      2.782840    1.211790    2.336780
  O      2.031280    1.814300    1.621320
  N      2.915480    1.387790    3.709320
  C      3.884920    0.595610    4.330550
  O      4.148560    0.621390    5.499670
  C      4.437800   -0.198030    3.221000
  C      5.379940   -1.161190    2.876540
  C      6.350260   -1.875620    3.623480
  C      7.232980   -2.691670    2.985560
  C      8.236320   -3.436210    3.648800
  N      9.168890   -4.204130    2.993500
  C      9.333000   -4.326230    1.563970
  C     10.022680   -3.103650    0.965250
  C     10.046450   -4.844010    3.886890
  O     10.948440   -5.575880    3.539600
  C      9.586890   -4.427410    5.197260
  C      8.478960   -3.567490    5.016360
  C      8.004700   -3.165730    6.323980
  O      7.096040   -2.443470    6.674000
  N      8.873500   -3.815700    7.219680
  C      8.691600   -3.699320    8.646380
  C      7.979040   -4.917940    9.228120
  C      9.819090   -4.571320    6.565410
  C     10.822250   -5.315900    7.230270
  C     11.778600   -6.036070    6.584930
  C     12.770920   -6.763330    7.286900
  O     12.767600   -6.806580    8.650750
  C     13.849770   -7.509480    6.838930
  C     14.582560   -7.950560    5.642900
  O     14.393290   -7.761600    4.474760
  N     15.639880   -8.702140    6.170450
  C     15.673660   -8.796350    7.550250
  O     16.491940   -9.407390    8.192510
  C     14.508430   -8.013230    7.982230
  C     13.811420   -7.554780    9.088220
  C     14.043790   -7.720130   10.477510
  C     15.104080   -8.433870   10.929640
  C     15.428420   -8.604900   12.297640
  C     16.615730   -9.080070   12.760730
  C     16.732560   -9.594320   14.161310
  O     15.947050   -9.415790   15.060230
  C     17.964920  -10.391690   14.148140
  C     18.639490  -11.206310   15.008200
  S     20.082770  -11.836750   14.250520
  C     19.763300  -10.984080   12.783570
  C     18.612990  -10.266040   12.873710
  C     17.853620   -9.345600   12.047040
  C     18.334910   -8.720480   10.928610
  C     19.584020   -9.075410   10.375330
  N     20.595250   -9.363210    9.917160
  C     17.738270   -7.611530   10.293340
  N     17.338880   -6.663820    9.784430
  Cl    18.229010  -11.614930   16.599760
  H      4.805870   -1.785720   -5.773480
  H      3.139250    0.025210   -0.591240
  H      2.357090    2.054340    4.223940
  H      6.360830   -1.732320    4.694880
  H      7.170670   -2.770930    1.908580
  H      8.358850   -4.482650    1.093860
  H      9.953540   -5.213160    1.407820
  H      9.416370   -2.211190    1.099530
  H     10.178680   -3.258260   -0.098390
  H     10.989360   -2.949100    1.438610
  H      8.075490   -2.808790    8.799400
  H      9.660460   -3.544770    9.128950
  H      7.000600   -5.029070    8.767490
  H      7.845190   -4.789110   10.298470
  H      8.549690   -5.827280    9.052290
  H     10.829260   -5.298300    8.311010
  H     11.823010   -6.080080    5.505000
  H     16.336310   -9.136370    5.581010
  H     13.374140   -7.208660   11.154160
  H     15.741590   -8.918400   10.203300
  H     14.665020   -8.405880   13.041540
  H     20.440530  -11.081390   11.958420

 Total Charge           Charge          ....    0
 Multiplicity           Mult            ....    1
 Number of Electrons    NEL             ....  524
 Basis Dimension        Dim             .... 1134

ORBITAL ENERGIES
----------------

  NO   OCC          E(Eh)            E(eV)
   0   2.0000    -101.627163     -2765.4157
   1   2.0000    -101.618019     -2765.1669
   2   2.0000     -89.000022     -2421.8137
   3   2.0000     -88.993394     -2421.6334
   4   2.0000     -19.324848      -525.8558
   5   2.0000     -19.319726      -525.7165
   6   2.0000     -19.230576      -523.2906
   7   2.0000     -19.224195      -523.1169
   8   2.0000     -19.222330      -523.0662
   9   2.0000     -19.221327      -523.0389
  10   2.0000     -19.218774      -522.9694
  11   2.0000     -19.218768      -522.9693
  12   2.0000     -19.200880      -522.4825
  13   2.0000     -19.197335      -522.3860
  14   2.0000     -14.463292      -393.5662
  15   2.0000     -14.462524      -393.5453
  16   2.0000     -14.461677      -393.5222
  17   2.0000     -14.458702      -393.4413
  18   2.0000     -14.424829      -392.5196
  19   2.0000     -14.424196      -392.5023
  20   2.0000     -14.420476      -392.4011
  21   2.0000     -14.417890      -392.3307
  22   2.0000     -10.411907      -283.3224
  23   2.0000     -10.411175      -283.3025
  24   2.0000     -10.408624      -283.2330
  25   2.0000     -10.408060      -283.2177
  26   2.0000     -10.389501      -282.7127
  27   2.0000     -10.383192      -282.5410
  28   2.0000     -10.382756      -282.5292
  29   2.0000     -10.380051      -282.4555
  30   2.0000     -10.379099      -282.4296
  31   2.0000     -10.377686      -282.3912
  32   2.0000     -10.377056      -282.3741
  33   2.0000     -10.376806      -282.3672
  34   2.0000     -10.376073      -282.3473
  35   2.0000     -10.372932      -282.2618
  36   2.0000     -10.355102      -281.7766
  37   2.0000     -10.354511      -281.7606
  38   2.0000     -10.350983      -281.6646
  39   2.0000     -10.349094      -281.6132
  40   2.0000     -10.348980      -281.6101
  41   2.0000     -10.345274      -281.5092
  42   2.0000     -10.337299      -281.2922
  43   2.0000     -10.335394      -281.2404
  44   2.0000     -10.329031      -281.0672
  45   2.0000     -10.326640      -281.0022
  46   2.0000     -10.325124      -280.9609
  47   2.0000     -10.322103      -280.8787
  48   2.0000     -10.321952      -280.8746
  49   2.0000     -10.321470      -280.8615
  50   2.0000     -10.321122      -280.8520
  51   2.0000     -10.318960      -280.7932
  52   2.0000     -10.317972      -280.7663
  53   2.0000     -10.315438      -280.6973
  54   2.0000     -10.315356      -280.6951
  55   2.0000     -10.313661      -280.6490
  56   2.0000     -10.308793      -280.5165
  57   2.0000     -10.308211      -280.5007
  58   2.0000     -10.307950      -280.4936
  59   2.0000     -10.306987      -280.4674
  60   2.0000     -10.306964      -280.4667
  61   2.0000     -10.306811      -280.4626
  62   2.0000     -10.305501      -280.4269
  63   2.0000     -10.305234      -280.4197
  64   2.0000     -10.304821      -280.4084
  65   2.0000     -10.304390      -280.3967
  66   2.0000     -10.304146      -280.3901
  67   2.0000     -10.301169      -280.3091
  68   2.0000     -10.272545      -279.5302
  69   2.0000     -10.271457      -279.5006
  70   2.0000     -10.270512      -279.4748
  71   2.0000     -10.261891      -279.2403
  72   2.0000      -9.581741      -260.7324
  73   2.0000      -9.572808      -260.4893
  74   2.0000      -8.095736      -220.2962
  75   2.0000      -8.089188      -220.1180
  76   2.0000      -7.352304      -200.0664
  77   2.0000      -7.343422      -199.8247
  78   2.0000      -7.341800      -199.7805
  79   2.0000      -7.341311      -199.7672
  80   2.0000      -7.332859      -199.5372
  81   2.0000      -7.332322      -199.5226
  82   2.0000      -6.065136      -165.0407
  83   2.0000      -6.060501      -164.9146
  84   2.0000      -6.058567      -164.8620
  85   2.0000      -6.057961      -164.8455
  86   2.0000      -6.053980      -164.7372
  87   2.0000      -6.051396      -164.6668
  88   2.0000      -1.244447       -33.8631
  89   2.0000      -1.240171       -33.7468
  90   2.0000      -1.166042       -31.7296
  91   2.0000      -1.165876       -31.7251
  92   2.0000      -1.147863       -31.2349
  93   2.0000      -1.145646       -31.1746
  94   2.0000      -1.145598       -31.1733
  95   2.0000      -1.142245       -31.0821
  96   2.0000      -1.137971       -30.9658
  97   2.0000      -1.134968       -30.8841
  98   2.0000      -1.072324       -29.1794
  99   2.0000      -1.063146       -28.9297
 100   2.0000      -1.052884       -28.6504
 101   2.0000      -1.052683       -28.6450
 102   2.0000      -1.045456       -28.4483
 103   2.0000      -1.038631       -28.2626
 104   2.0000      -1.022738       -27.8301
 105   2.0000      -1.017037       -27.6750
 106   2.0000      -1.002829       -27.2884
 107   2.0000      -0.997868       -27.1534
 108   2.0000      -0.996154       -27.1067
 109   2.0000      -0.989105       -26.9149
 110   2.0000      -0.964603       -26.2482
 111   2.0000      -0.958884       -26.0926
 112   2.0000      -0.948874       -25.8202
 113   2.0000      -0.945092       -25.7173
 114   2.0000      -0.938142       -25.5281
 115   2.0000      -0.937268       -25.5044
 116   2.0000      -0.933448       -25.4004
 117   2.0000      -0.922637       -25.1062
 118   2.0000      -0.914855       -24.8945
 119   2.0000      -0.906740       -24.6736
 120   2.0000      -0.904252       -24.6059
 121   2.0000      -0.888145       -24.1676
 122   2.0000      -0.876700       -23.8562
 123   2.0000      -0.860035       -23.4027
 124   2.0000      -0.849782       -23.1238
 125   2.0000      -0.839267       -22.8376
 126   2.0000      -0.832980       -22.6665
 127   2.0000      -0.825357       -22.4591
 128   2.0000      -0.819239       -22.2926
 129   2.0000      -0.808018       -21.9873
 130   2.0000      -0.789489       -21.4831
 131   2.0000      -0.784846       -21.3568
 132   2.0000      -0.776451       -21.1283
 133   2.0000      -0.774593       -21.0777
 134   2.0000      -0.770429       -20.9644
 135   2.0000      -0.765318       -20.8254
 136   2.0000      -0.764044       -20.7907
 137   2.0000      -0.762196       -20.7404
 138   2.0000      -0.753830       -20.5127
 139   2.0000      -0.732411       -19.9299
 140   2.0000      -0.719937       -19.5905
 141   2.0000      -0.714999       -19.4561
 142   2.0000      -0.712703       -19.3936
 143   2.0000      -0.706757       -19.2318
 144   2.0000      -0.702856       -19.1257
 145   2.0000      -0.695817       -18.9341
 146   2.0000      -0.689082       -18.7509
 147   2.0000      -0.683690       -18.6041
 148   2.0000      -0.680577       -18.5194
 149   2.0000      -0.676434       -18.4067
 150   2.0000      -0.671391       -18.2695
 151   2.0000      -0.655439       -17.8354
 152   2.0000      -0.644534       -17.5387
 153   2.0000      -0.634333       -17.2611
 154   2.0000      -0.629821       -17.1383
 155   2.0000      -0.623822       -16.9751
 156   2.0000      -0.617948       -16.8152
 157   2.0000      -0.613746       -16.7009
 158   2.0000      -0.611136       -16.6298
 159   2.0000      -0.609584       -16.5876
 160   2.0000      -0.606187       -16.4952
 161   2.0000      -0.604244       -16.4423
 162   2.0000      -0.603303       -16.4167
 163   2.0000      -0.599664       -16.3177
 164   2.0000      -0.597477       -16.2582
 165   2.0000      -0.596467       -16.2307
 166   2.0000      -0.591243       -16.0885
 167   2.0000      -0.588045       -16.0015
 168   2.0000      -0.580364       -15.7925
 169   2.0000      -0.575585       -15.6625
 170   2.0000      -0.573526       -15.6064
 171   2.0000      -0.569837       -15.5060
 172   2.0000      -0.565856       -15.3977
 173   2.0000      -0.558775       -15.2050
 174   2.0000      -0.555207       -15.1079
 175   2.0000      -0.554585       -15.0910
 176   2.0000      -0.554184       -15.0801
 177   2.0000      -0.552465       -15.0333
 178   2.0000      -0.547870       -14.9083
 179   2.0000      -0.545757       -14.8508
 180   2.0000      -0.543150       -14.7799
 181   2.0000      -0.536470       -14.5981
 182   2.0000      -0.535554       -14.5732
 183   2.0000      -0.534095       -14.5335
 184   2.0000      -0.533708       -14.5229
 185   2.0000      -0.531718       -14.4688
 186   2.0000      -0.530536       -14.4366
 187   2.0000      -0.528853       -14.3908
 188   2.0000      -0.525728       -14.3058
 189   2.0000      -0.523899       -14.2560
 190   2.0000      -0.522644       -14.2219
 191   2.0000      -0.522491       -14.2177
 192   2.0000      -0.517128       -14.0718
 193   2.0000      -0.514341       -13.9959
 194   2.0000      -0.513666       -13.9776
 195   2.0000      -0.511140       -13.9088
 196   2.0000      -0.510389       -13.8884
 197   2.0000      -0.506870       -13.7926
 198   2.0000      -0.503508       -13.7012
 199   2.0000      -0.501997       -13.6600
 200   2.0000      -0.497481       -13.5372
 201   2.0000      -0.496465       -13.5095
 202   2.0000      -0.492400       -13.3989
 203   2.0000      -0.491403       -13.3717
 204   2.0000      -0.487533       -13.2664
 205   2.0000      -0.487462       -13.2645
 206   2.0000      -0.482075       -13.1179
 207   2.0000      -0.479879       -13.0582
 208   2.0000      -0.478976       -13.0336
 209   2.0000      -0.473660       -12.8889
 210   2.0000      -0.471316       -12.8252
 211   2.0000      -0.467932       -12.7331
 212   2.0000      -0.462560       -12.5869
 213   2.0000      -0.460605       -12.5337
 214   2.0000      -0.458765       -12.4836
 215   2.0000      -0.456549       -12.4233
 216   2.0000      -0.456006       -12.4086
 217   2.0000      -0.453825       -12.3492
 218   2.0000      -0.453073       -12.3287
 219   2.0000      -0.452434       -12.3113
 220   2.0000      -0.450492       -12.2585
 221   2.0000      -0.449344       -12.2273
 222   2.0000      -0.447936       -12.1889
 223   2.0000      -0.446408       -12.1474
 224   2.0000      -0.444431       -12.0936
 225   2.0000      -0.441484       -12.0134
 226   2.0000      -0.437990       -11.9183
 227   2.0000      -0.435898       -11.8614
 228   2.0000      -0.433551       -11.7975
 229   2.0000      -0.430778       -11.7221
 230   2.0000      -0.430009       -11.7011
 231   2.0000      -0.427277       -11.6268
 232   2.0000      -0.425287       -11.5726
 233   2.0000      -0.419978       -11.4282
 234   2.0000      -0.412666       -11.2292
 235   2.0000      -0.411815       -11.2061
 236   2.0000      -0.407103       -11.0778
 237   2.0000      -0.403826       -10.9887
 238   2.0000      -0.400201       -10.8900
 239   2.0000      -0.394184       -10.7263
 240   2.0000      -0.392882       -10.6909
 241   2.0000      -0.380505       -10.3541
 242   2.0000      -0.379604       -10.3295
 243   2.0000      -0.379044       -10.3143
 244   2.0000      -0.370883       -10.0923
 245   2.0000      -0.370241       -10.0748
 246   2.0000      -0.362472        -9.8634
 247   2.0000      -0.356373        -9.6974
 248   2.0000      -0.354967        -9.6591
 249   2.0000      -0.354172        -9.6375
 250   2.0000      -0.349301        -9.5050
 251   2.0000      -0.346746        -9.4354
 252   2.0000      -0.345024        -9.3886
 253   2.0000      -0.342536        -9.3209
 254   2.0000      -0.339714        -9.2441
 255   2.0000      -0.333434        -9.0732
 256   2.0000      -0.323315        -8.7979
 257   2.0000      -0.322050        -8.7634
 258   2.0000      -0.313712        -8.5365
 259   2.0000      -0.300079        -8.1656
 260   2.0000      -0.288000        -7.8369
 261   2.0000      -0.242974        -6.6116
 262   0.0000      -0.120335        -3.2745
 263   0.0000      -0.107435        -2.9234
 264   0.0000      -0.090981        -2.4757
 265   0.0000      -0.060240        -1.6392
 266   0.0000      -0.056257        -1.5308

MULLIKEN ATOMIC CHARGES
-----------------------
   0 C :    0.035588
   1 C :   -0.126479
   2 S :    0.192116
   3 C :   -0.172130
   4 Cl:    0.001203
   5 C :    0.072509
   6 C :    0.153491
   7 O :   -0.117808
   8 C :   -0.081625
   9 C :    0.288216
  10 C :   -0.325685
  11 C :   -0.191755
  12 N :    0.154983
  13 C :   -0.199339
  14 N :    0.185501
  15 C :   -0.050338
  16 C :    0.081817
  17 O :   -0.171963
  18 C :   -0.025570
  19 C :    0.174282
  20 O :   -0.121314
  21 N :   -0.168275
  22 C :    0.170762
  23 O :   -0.116292
  24 C :   -0.029348
  25 C :    0.093192
  26 C :   -0.021131
  27 C :   -0.022127
  28 C :    0.142705
  29 N :   -0.254580
  30 C :    0.094733
  31 C :    0.015923
  32 C :    0.161571
  33 O :   -0.192573
  34 C :   -0.061658
  35 C :   -0.055126
  36 C :    0.159514
  37 O :   -0.191632
  38 N :   -0.258738
  39 C :    0.095486
  40 C :    0.004865
  41 C :    0.147379
  42 C :   -0.028354
  43 C :   -0.006514
  44 C :    0.076504
  45 O :   -0.207944
  46 C :   -0.011538
  47 C :    0.170261
  48 O :   -0.113230
  49 N :   -0.159026
  50 C :    0.212082
  51 O :   -0.163751
  52 C :   -0.074575
  53 C :    0.140108
  54 C :    0.016457
  55 C :    0.002434
  56 C :    0.029315
  57 C :   -0.114797
  58 C :    0.139546
  59 O :   -0.126281
  60 C :    0.080144
  61 C :   -0.170503
  62 S :    0.184999
  63 C :   -0.127877
  64 C :    0.020462
  65 C :    0.263949
  66 C :   -0.296109
  67 C :   -0.186656
  68 N :    0.157165
  69 C :   -0.202681
  70 N :    0.168722
  71 Cl:   -0.000116
  72 H :    0.056299
  73 H :    0.034464
  74 H :    0.143854
  75 H :    0.036812
  76 H :    0.014185
  77 H :    0.032088
  78 H :    0.043077
  79 H :    0.017698
  80 H :    0.011440
  81 H :    0.024254
  82 H :    0.048354
  83 H :    0.025520
  84 H :    0.031101
  85 H :    0.026246
  86 H :    0.014234
  87 H :   -0.009013
  88 H :    0.040002
  89 H :    0.144033
  90 H :    0.000485
  91 H :    0.048297
  92 H :    0.019239
  93 H :    0.054780
Sum of atomic charges:   -0.0000000

LOEWDIN ATOMIC CHARGES
----------------------
   0 C :   -0.058957
   1 C :   -0.147845
   2 S :    0.479979
   3 C :   -0.274123
   4 Cl:    0.193757
   5 C :   -0.116992
   6 C :    0.081369
   7 O :   -0.134557
   8 C :   -0.075503
   9 C :    0.069549
  10 C :   -0.128465
  11 C :   -0.014030
  12 N :   -0.047487
  13 C :   -0.031633
  14 N :   -0.027747
  15 C :    0.047797
  16 C :    0.041066
  17 O :    0.047157
  18 C :   -0.055962
  19 C :    0.082485
  20 O :   -0.137930
  21 N :   -0.005496
  22 C :    0.086047
  23 O :   -0.136781
  24 C :   -0.092489
  25 C :    0.086451
  26 C :   -0.004537
  27 C :   -0.003729
  28 C :    0.068049
  29 N :    0.003398
  30 C :    0.037131
  31 C :   -0.058812
  32 C :    0.078847
  33 O :   -0.186254
  34 C :   -0.113652
  35 C :   -0.108357
  36 C :    0.080723
  37 O :   -0.184665
  38 N :   -0.000420
  39 C :    0.036527
  40 C :   -0.060650
  41 C :    0.074610
  42 C :   -0.028296
  43 C :    0.010698
  44 C :    0.067268
  45 O :    0.017690
  46 C :   -0.078784
  47 C :    0.088512
  48 O :   -0.133246
  49 N :    0.001851
  50 C :    0.094783
  51 O :   -0.161311
  52 C :   -0.082968
  53 C :    0.068455
  54 C :   -0.000771
  55 C :    0.001434
  56 C :    0.060321
  57 C :   -0.071967
  58 C :    0.079064
  59 O :   -0.131983
  60 C :   -0.118909
  61 C :   -0.272575
  62 S :    0.474090
  63 C :   -0.151642
  64 C :   -0.055752
  65 C :    0.066226
  66 C :   -0.118905
  67 C :   -0.011520
  68 N :   -0.047105
  69 C :   -0.018493
  70 N :   -0.051337
  71 Cl:    0.191739
  72 H :    0.038517
  73 H :    0.061002
  74 H :    0.097847
  75 H :    0.049462
  76 H :    0.039910
  77 H :    0.026672
  78 H :    0.037515
  79 H :    0.023524
  80 H :    0.024430
  81 H :    0.029701
  82 H :    0.039775
  83 H :    0.023854
  84 H :    0.033100
  85 H :    0.031859
  86 H :    0.021444
  87 H :    0.032414
  88 H :    0.052037
  89 H :    0.098664
  90 H :    0.042299
  91 H :    0.037236
  92 H :    0.046217
  93 H :    0.038080

  Mayer bond orders larger than 0.100000
B(  0-C ,  1-C ) :   1.5471 B(  0-C ,  5-C ) :   1.2238 B(  0-C ,  9-C ) :   0.9961
B(  1-C ,  2-S ) :   1.1620 B(  1-C , 72-H ) :   0.9530 B(  2-S ,  3-C ) :   1.1536
B(  3-C ,  4-Cl) :   1.1224 B(  3-C ,  5-C ) :   1.4778 B(  5-C ,  6-C ) :   0.9555
B(  6-C ,  7-O ) :   2.2121 B(  6-C ,  8-C ) :   0.9205 B(  8-C ,  9-C ) :   1.0633
B(  8-C , 15-C ) :   1.5691 B(  9-C , 10-C ) :   1.6602 B( 10-C , 11-C ) :   1.1471
B( 10-C , 13-C ) :   1.1326 B( 11-C , 12-N ) :   2.9896 B( 13-C , 14-N ) :   2.9909
B( 15-C , 16-C ) :   1.2107 B( 15-C , 73-H ) :   0.9339 B( 16-C , 17-O ) :   1.1577
B( 16-C , 18-C ) :   1.3623 B( 17-O , 25-C ) :   1.1931 B( 18-C , 19-C ) :   0.8613
B( 18-C , 24-C ) :   1.3348 B( 19-C , 20-O ) :   2.2692 B( 19-C , 21-N ) :   1.0915
B( 21-N , 22-C ) :   1.0652 B( 21-N , 74-H ) :   0.9128 B( 22-C , 23-O ) :   2.2947
B( 22-C , 24-C ) :   0.8685 B( 24-C , 25-C ) :   1.3229 B( 25-C , 26-C ) :   1.1837
B( 26-C , 27-C ) :   1.5724 B( 26-C , 75-H ) :   0.9422 B( 27-C , 28-C ) :   1.1286
B( 27-C , 76-H ) :   0.9633 B( 28-C , 29-N ) :   1.1691 B( 28-C , 35-C ) :   1.3378
B( 29-N , 30-C ) :   0.9392 B( 29-N , 32-C ) :   1.0574 B( 30-C , 31-C ) :   1.1254
B( 30-C , 77-H ) :   0.9465 B( 30-C , 78-H ) :   0.9285 B( 31-C , 79-H ) :   0.9669
B( 31-C , 80-H ) :   0.9645 B( 31-C , 81-H ) :   0.9628 B( 32-C , 33-O ) :   2.0551
B( 32-C , 34-C ) :   0.9757 B( 34-C , 35-C ) :   1.2668 B( 34-C , 41-C ) :   1.3400
B( 35-C , 36-C ) :   0.9750 B( 36-C , 37-O ) :   2.0610 B( 36-C , 38-N ) :   1.0523
B( 38-N , 39-C ) :   0.9443 B( 38-N , 41-C ) :   1.1631 B( 39-C , 40-C ) :   1.1215
B( 39-C , 82-H ) :   0.9281 B( 39-C , 83-H ) :   0.9496 B( 40-C , 84-H ) :   0.9634
B( 40-C , 85-H ) :   0.9678 B( 40-C , 86-H ) :   0.9686 B( 41-C , 42-C ) :   1.1338
B( 42-C , 43-C ) :   1.5672 B( 42-C , 87-H ) :   0.9724 B( 43-C , 44-C ) :   1.1863
B( 43-C , 88-H ) :   0.9369 B( 44-C , 45-O ) :   1.1413 B( 44-C , 46-C ) :   1.3717
B( 45-O , 53-C ) :   1.1406 B( 46-C , 47-C ) :   0.8697 B( 46-C , 52-C ) :   1.3046
B( 47-C , 48-O ) :   2.2921 B( 47-C , 49-N ) :   1.0595 B( 49-N , 50-C ) :   1.1260
B( 49-N , 89-H ) :   0.9139 B( 50-C , 51-O ) :   2.1309 B( 50-C , 52-C ) :   0.8793
B( 52-C , 53-C ) :   1.4179 B( 53-C , 54-C ) :   1.1471 B( 54-C , 55-C ) :   1.6389
B( 54-C , 90-H ) :   0.9793 B( 55-C , 56-C ) :   1.1180 B( 55-C , 91-H ) :   0.9252
B( 56-C , 57-C ) :   1.6532 B( 56-C , 92-H ) :   0.9622 B( 57-C , 58-C ) :   0.9323
B( 57-C , 65-C ) :   1.0320 B( 58-C , 59-O ) :   2.2862 B( 58-C , 60-C ) :   0.9258
B( 60-C , 61-C ) :   1.4839 B( 60-C , 64-C ) :   1.2202 B( 61-C , 62-S ) :   1.1537
B( 61-C , 71-Cl) :   1.1284 B( 62-S , 63-C ) :   1.1560 B( 63-C , 64-C ) :   1.5587
B( 63-C , 93-H ) :   0.9548 B( 64-C , 65-C ) :   1.0096 B( 65-C , 66-C ) :   1.6757
B( 66-C , 67-C ) :   1.1415 B( 66-C , 69-C ) :   1.1542 B( 67-C , 68-N ) :   2.9991
B( 69-C , 70-N ) :   2.9972

-----------------------------------------------------------------------------
         ABSORPTION SPECTRUM VIA TRANSITION ELECTRIC DIPOLE MOMENTS
-----------------------------------------------------------------------------
State   Energy  Wavelength   fosc         T2         TX        TY        TZ
        (cm-1)    (nm)                  (au**2)     (au)      (au)      (au)
-----------------------------------------------------------------------------
   0   12347.3    809.9   1.220432323  32.54001  -3.32936   2.11199  -4.12248
   1   16976.4    589.1   0.134795903   2.61401  -1.31016   0.86599  -0.38414
   2   19306.6    518.0   0.044750430   0.76307   0.08971   0.44459   0.74657
   3   22725.1    440.0   0.317931349   4.60579   1.84270  -0.95794   0.54093
   4   23498.1    425.6   0.498886198   6.98946   1.34367  -0.40413   2.24069
   5   24728.0    404.4   0.013039522   0.17360   0.39994  -0.11663   0.00689
   6   26073.7    383.5   0.016219996   0.20480  -0.31512   0.31111   0.09330
   7   26284.6    380.5   0.110388256   1.38260  -0.57072   0.99882  -0.24341
   8   26424.5    378.4   0.019184039   0.23901   0.16801  -0.06520   0.45445
   9   26655.0    375.2   0.005004204   0.06181  -0.21883   0.00629  -0.11781
  10   26774.3    373.5   0.020878940   0.25672  -0.22930   0.14790  -0.42693
  11   27214.2    367.5   0.000796593   0.00964  -0.09726   0.01066  -0.00801
  12   27846.1    359.1   0.029343736   0.34692   0.14280   0.05007  -0.56923
  13   28106.4    355.8   0.007696721   0.09015   0.20056  -0.13127  -0.18082
  14   29261.8    341.7   0.194155818   2.18436   0.73209  -0.83492  -0.97535
  15   29572.7    338.1   0.146834404   1.63460  -0.17414   0.42495  -1.19319
  16   30699.6    325.7   0.001022455   0.01096   0.08228  -0.06352   0.01265
  17   31378.0    318.7   0.024620135   0.25831   0.22571  -0.43286   0.14141
  18   31456.2    317.9   0.063332029   0.66282  -0.66249   0.29985   0.36608
  19   31509.0    317.4   0.083540170   0.87284  -0.30853   0.62211  -0.62501
  20   32130.2    311.2   0.000715153   0.00733  -0.08259  -0.02227   0.00311
  21   32817.2    304.7   0.000392065   0.00393  -0.04989  -0.02760   0.02612
  22   32912.3    303.8   0.132306735   1.32342  -0.85474   0.76800  -0.05495
  23   33633.9    297.3   0.004585465   0.04488  -0.14383  -0.15414  -0.02093
  24   33930.7    294.7   0.016892872   0.16390  -0.25709   0.00545  -0.31269
  25   34062.4    293.6   0.046054713   0.44512   0.60010  -0.29137   0.01013
  26   34425.8    290.5   0.003720138   0.03558  -0.06159  -0.08254  -0.15802
  27   34743.7    287.8   0.006260034   0.05932  -0.18599   0.04589  -0.15039
  28   34926.4    286.3   0.008260428   0.07786  -0.10280   0.24682  -0.07983
  29   35219.7    283.9   0.095597479   0.89359   0.31077   0.22675  -0.86348
  30   35343.1    282.9   0.084149096   0.78383   0.25316   0.34120  -0.77674
  31   35713.3    280.0   0.025882867   0.23859  -0.30187   0.33087   0.19492
  32   35895.6    278.6   0.161466485   1.48087  -0.47816   0.65649  -0.90623
  33   36046.4    277.4   0.001158136   0.01058  -0.00526  -0.10183  -0.01343
  34   36286.2    275.6   0.193353460   1.75423   0.11223  -0.00075  -1.31971
  35   36458.1    274.3   0.475180494   4.29082  -1.62245   1.21138   0.43708
  36   36908.3    270.9   0.032072430   0.28608   0.40353  -0.33555  -0.10317
  37   37121.8    269.4   0.008037918   0.07128  -0.08260   0.20313   0.15230
  38   37184.6    268.9   0.036920680   0.32688   0.55229  -0.01086   0.14742
  39   37342.5    267.8   0.820181004   7.23074  -2.01367   1.55447   0.87147
  40   37793.3    264.6   0.043049251   0.37500  -0.41688   0.29125  -0.34114
  41   38206.7    261.7   0.387994592   3.34320   0.40865  -1.08596   1.41312
  42   38324.7    260.9   0.006591801   0.05662   0.21081  -0.08929  -0.06488
  43   38682.7    258.5   0.154882365   1.31814  -0.98719   0.51296   0.28366
  44   38917.8    257.0   0.052933278   0.44777  -0.49667   0.44678   0.03849
  45   39317.1    254.3   0.051032328   0.42731   0.58216  -0.08533  -0.28480
  46   39664.3    252.1   0.016502671   0.13697  -0.14583  -0.02500   0.33923
  47   39923.7    250.5   0.025262372   0.20831   0.00376   0.08228  -0.44892
  48   40051.9    249.7   0.002168518   0.01782  -0.02771  -0.01459   0.12978
  49   40119.3    249.3   0.000699172   0.00574  -0.06592  -0.02653   0.02624
  50   40314.9    248.0   0.013690588   0.11180   0.05683   0.31939   0.08100

FINAL SINGLE POINT ENERGY     -4821.203928092319

DIPOLE MOMENT
-------------
                                X             Y             Z
Electronic contribution:     22.15398     -17.60605      -1.05957
Nuclear contribution   :    -21.16742      16.01480       1.94572
                        -----------------------------------------
Total Dipole Moment    :      0.98657      -1.59124       0.88614
                        -----------------------------------------
Magnitude (a.u.)       :      2.07138
Magnitude (Debye)      :      5.26503

Rotational constants in cm-1:     0.002138     0.000212     0.000195
Rotational constants in MHz :    64.085256     6.363545     5.857944

                             ****ORCA TERMINATED NORMALLY****
TOTAL RUN TIME: 0 days 0 hours 9 minutes 2 seconds 569 msec
