                         Program Version 4.2.0 -  RELEASE  -
|  1> # ORCA input file
|  2> # SCF done       -177.948439977628          0.000638600553
|  3> ! CAM-B3LYP def2-SVP def2/J RIJCOSX Grid4 TightSCF
|  4> %maxcore 5000
|  5> %tddft
|  6>     Mode sTDDFT
|  7>     Ethresh 5.0
|  8>     maxcore 5000
|  9> end
| 10>
| 11> %pal
| 12>   nprocs 6
| 13>   end
| 14> * xyz 0 1
| 15>    C        3.00410         2.85745         1.70469
| 16>    C        1.97800         3.63097         2.15207
| 17>    S        1.63193         3.30801         3.81148
| 18>    C        2.90066         2.11054         3.91312
| 19>   Cl        3.20976         1.26504         5.34310
| 20>    C        3.53277         1.98556         2.71141
| 21>    C        4.63576         1.19684         2.16443
| 22>    O        5.41227         0.48794         2.75707
| 23>    C        4.69730         1.59075         0.71280
| 24>    C        3.72764         2.64509         0.46721
| 25>    C        3.46839         3.29159        -0.71246
| 26>    C        2.46347         4.27855        -0.80222
| 27>    N        1.65352         5.08576        -0.89174
| 28>    C        4.13250         3.06678        -1.93498
| 29>    N        4.63006         2.92832        -2.96004
| 30>    C        5.61849         1.11013        -0.16737
| 31>    C        6.35952        -0.08197         0.03281
| 32>    C        6.02412        -1.25464         0.67875
| 33>    C        7.09019        -2.17274         0.48413
| 34>    C        8.12672        -1.47187        -0.26279
| 35>    O        9.24807        -1.75945        -0.55733
| 36>    O        7.57322        -0.22615        -0.56213
| 37>    C        6.76234        -3.33360         1.15816
| 38>    O        5.54438        -3.18086         1.76124
| 39>    C        5.00463        -1.93391         1.46472
| 40>    O        3.90466        -1.62192         1.81579
| 41>    C        7.50705        -4.52628         1.25675
| 42>    N        7.45149        -5.44913         2.27110
| 43>    C        6.56270        -5.43358         3.41041
| 44>    C        5.21332        -6.06141         3.07635
| 45>    C        8.41238        -6.45880         2.10239
| 46>    O        8.57734        -7.37017         2.88754
| 47>    C        9.07067        -6.12702         0.85355
| 48>    C        8.48704        -4.94574         0.35447
| 49>    C        9.04304        -4.68634        -0.96304
| 50>    O        8.75696        -3.89469        -1.82614
| 51>    N       10.03624        -5.68517        -1.11013
| 52>    C       10.83023        -5.76997        -2.31287
| 53>    C       10.30947        -6.84621        -3.26196
| 54>    C       10.04840        -6.55462        -0.05734
| 55>    C       10.93552        -7.65469         0.05390
| 56>    C       10.88195        -8.52923         1.09033
| 57>    C       11.79386        -9.61004         1.20815
| 58>    S       11.70128       -10.77855         2.51613
| 59>    C       13.11076       -11.52155         1.77649
| 60>    N       13.50379       -10.88625         0.70213
| 61>    N       12.78990        -9.85246         0.39367
| 62>    C       13.73670       -12.67897         2.31206
| 63>    C       14.79331       -13.27115         1.70669
| 64>    C       15.45117       -14.40572         2.24565
| 65>    C       16.39993       -15.16372         1.63551
| 66>    C       17.28531       -16.05003         2.45882
| 67>    O       17.10058       -16.38337         3.60335
| 68>    C       18.41822       -16.34604         1.57461
| 69>    C       19.61457       -16.99392         1.66327
| 70>    S       20.46546       -16.91952         0.13839
| 71>    C       19.19025       -16.02381        -0.60420
| 72>    C       18.17797       -15.79194         0.27285
| 73>    C       16.86571       -15.17244         0.26019
| 74>    C       16.15457       -14.86352        -0.86786
| 75>    C       16.74210       -14.95465        -2.14790
| 76>    N       17.22103       -15.00966        -3.18862
| 77>    C       14.77698       -14.55981        -0.89178
| 78>    N       13.64688       -14.37893        -0.97055
| 79>   Cl       20.27542       -17.78857         3.00456
| 80>    H        1.40174         4.36785         1.62850
| 81>    H        5.82846         1.63422        -1.09134
| 82>    H        6.43010        -4.40457         3.74972
| 83>    H        7.05894        -6.01437         4.19279
| 84>    H        4.70559        -5.48671         2.30647
| 85>    H        4.58967        -6.07599         3.96530
| 86>    H        5.35079        -7.08255         2.72862
| 87>    H       11.87346        -5.95773        -2.04677
| 88>    H       10.75657        -4.78958        -2.79082
| 89>    H       10.34100        -7.82843        -2.79577
| 90>    H       10.91965        -6.86695        -4.16022
| 91>    H        9.28304        -6.62730        -3.54549
| 92>    H       11.68832        -7.79888        -0.70707
| 93>    H       10.13561        -8.42545         1.86651
| 94>    H       13.31484       -13.09006         3.21834
| 95>    H       15.16315       -12.83068         0.79223
| 96>    H       15.24125       -14.66007         3.27942
| 97>    H       19.28290       -15.72533        -1.62961
| 98> *
| 99>
|100>                          ****END OF INPUT****

CARTESIAN COORDINATES (ANGSTROEM)
---------------------------------
  C      3.004100    2.857450    1.704690
  C      1.978000    3.630970    2.152070
  S      1.631930    3.308010    3.811480
  C      2.900660    2.110540    3.913120
  Cl     3.209760    1.265040    5.343100
  C      3.532770    1.985560    2.711410
  C      4.635760    1.196840    2.164430
  O      5.412270    0.487940    2.757070
  C      4.697300    1.590750    0.712800
  C      3.727640    2.645090    0.467210
  C      3.468390    3.291590   -0.712460
  C      2.463470    4.278550   -0.802220
  N      1.653520    5.085760   -0.891740
  C      4.132500    3.066780   -1.934980
  N      4.630060    2.928320   -2.960040
  C      5.618490    1.110130   -0.167370
  C      6.359520   -0.081970    0.032810
  C      6.024120   -1.254640    0.678750
  C      7.090190   -2.172740    0.484130
  C      8.126720   -1.471870   -0.262790
  O      9.248070   -1.759450   -0.557330
  O      7.573220   -0.226150   -0.562130
  C      6.762340   -3.333600    1.158160
  O      5.544380   -3.180860    1.761240
  C      5.004630   -1.933910    1.464720
  O      3.904660   -1.621920    1.815790
  C      7.507050   -4.526280    1.256750
  N      7.451490   -5.449130    2.271100
  C      6.562700   -5.433580    3.410410
  C      5.213320   -6.061410    3.076350
  C      8.412380   -6.458800    2.102390
  O      8.577340   -7.370170    2.887540
  C      9.070670   -6.127020    0.853550
  C      8.487040   -4.945740    0.354470
  C      9.043040   -4.686340   -0.963040
  O      8.756960   -3.894690   -1.826140
  N     10.036240   -5.685170   -1.110130
  C     10.830230   -5.769970   -2.312870
  C     10.309470   -6.846210   -3.261960
  C     10.048400   -6.554620   -0.057340
  C     10.935520   -7.654690    0.053900
  C     10.881950   -8.529230    1.090330
  C     11.793860   -9.610040    1.208150
  S     11.701280  -10.778550    2.516130
  C     13.110760  -11.521550    1.776490
  N     13.503790  -10.886250    0.702130
  N     12.789900   -9.852460    0.393670
  C     13.736700  -12.678970    2.312060
  C     14.793310  -13.271150    1.706690
  C     15.451170  -14.405720    2.245650
  C     16.399930  -15.163720    1.635510
  C     17.285310  -16.050030    2.458820
  O     17.100580  -16.383370    3.603350
  C     18.418220  -16.346040    1.574610
  C     19.614570  -16.993920    1.663270
  S     20.465460  -16.919520    0.138390
  C     19.190250  -16.023810   -0.604200
  C     18.177970  -15.791940    0.272850
  C     16.865710  -15.172440    0.260190
  C     16.154570  -14.863520   -0.867860
  C     16.742100  -14.954650   -2.147900
  N     17.221030  -15.009660   -3.188620
  C     14.776980  -14.559810   -0.891780
  N     13.646880  -14.378930   -0.970550
  Cl    20.275420  -17.788570    3.004560
  H      1.401740    4.367850    1.628500
  H      5.828460    1.634220   -1.091340
  H      6.430100   -4.404570    3.749720
  H      7.058940   -6.014370    4.192790
  H      4.705590   -5.486710    2.306470
  H      4.589670   -6.075990    3.965300
  H      5.350790   -7.082550    2.728620
  H     11.873460   -5.957730   -2.046770
  H     10.756570   -4.789580   -2.790820
  H     10.341000   -7.828430   -2.795770
  H     10.919650   -6.866950   -4.160220
  H      9.283040   -6.627300   -3.545490
  H     11.688320   -7.798880   -0.707070
  H     10.135610   -8.425450    1.866510
  H     13.314840  -13.090060    3.218340
  H     15.163150  -12.830680    0.792230
  H     15.241250  -14.660070    3.279420
  H     19.282900  -15.725330   -1.629610

 Total Charge           Charge          ....    0
 Multiplicity           Mult            ....    1
 Number of Electrons    NEL             ....  484
 Basis Dimension        Dim             .... 1020

ORBITAL ENERGIES
----------------

  NO   OCC          E(Eh)            E(eV)
   0   2.0000    -101.621446     -2765.2601
   1   2.0000    -101.619565     -2765.2089
   2   2.0000     -88.997655     -2421.7493
   3   2.0000     -88.997236     -2421.7379
   4   2.0000     -88.992742     -2421.6156
   5   2.0000     -19.304438      -525.3005
   6   2.0000     -19.292528      -524.9764
   7   2.0000     -19.233433      -523.3683
   8   2.0000     -19.226333      -523.1751
   9   2.0000     -19.225667      -523.1570
  10   2.0000     -19.220162      -523.0072
  11   2.0000     -19.214704      -522.8587
  12   2.0000     -19.202198      -522.5184
  13   2.0000     -14.472499      -393.8167
  14   2.0000     -14.467632      -393.6843
  15   2.0000     -14.458468      -393.4349
  16   2.0000     -14.457450      -393.4072
  17   2.0000     -14.426664      -392.5695
  18   2.0000     -14.426257      -392.5584
  19   2.0000     -14.425867      -392.5478
  20   2.0000     -14.422426      -392.4542
  21   2.0000     -10.430487      -283.8280
  22   2.0000     -10.417703      -283.4801
  23   2.0000     -10.393076      -282.8100
  24   2.0000     -10.391482      -282.7666
  25   2.0000     -10.387607      -282.6612
  26   2.0000     -10.383958      -282.5619
  27   2.0000     -10.382300      -282.5167
  28   2.0000     -10.381804      -282.5033
  29   2.0000     -10.380834      -282.4768
  30   2.0000     -10.379324      -282.4358
  31   2.0000     -10.365800      -282.0678
  32   2.0000     -10.360393      -281.9206
  33   2.0000     -10.359262      -281.8898
  34   2.0000     -10.356918      -281.8261
  35   2.0000     -10.356554      -281.8162
  36   2.0000     -10.356513      -281.8150
  37   2.0000     -10.354999      -281.7739
  38   2.0000     -10.354724      -281.7664
  39   2.0000     -10.333597      -281.1915
  40   2.0000     -10.333203      -281.1807
  41   2.0000     -10.332324      -281.1568
  42   2.0000     -10.327887      -281.0361
  43   2.0000     -10.327552      -281.0270
  44   2.0000     -10.327309      -281.0204
  45   2.0000     -10.326068      -280.9866
  46   2.0000     -10.324067      -280.9322
  47   2.0000     -10.324041      -280.9314
  48   2.0000     -10.322376      -280.8861
  49   2.0000     -10.318300      -280.7752
  50   2.0000     -10.318298      -280.7752
  51   2.0000     -10.318285      -280.7748
  52   2.0000     -10.317219      -280.7458
  53   2.0000     -10.313618      -280.6478
  54   2.0000     -10.312195      -280.6091
  55   2.0000     -10.310810      -280.5714
  56   2.0000     -10.310442      -280.5614
  57   2.0000     -10.308827      -280.5174
  58   2.0000     -10.306034      -280.4414
  59   2.0000     -10.305351      -280.4229
  60   2.0000     -10.303298      -280.3670
  61   2.0000     -10.293229      -280.0930
  62   2.0000     -10.281296      -279.7683
  63   2.0000     -10.270355      -279.4706
  64   2.0000     -10.259540      -279.1763
  65   2.0000      -9.576259      -260.5832
  66   2.0000      -9.574397      -260.5326
  67   2.0000      -8.093379      -220.2320
  68   2.0000      -8.092867      -220.2181
  69   2.0000      -8.088970      -220.1121
  70   2.0000      -7.346903      -199.9194
  71   2.0000      -7.345040      -199.8687
  72   2.0000      -7.336290      -199.6306
  73   2.0000      -7.335738      -199.6156
  74   2.0000      -7.334419      -199.5797
  75   2.0000      -7.333880      -199.5650
  76   2.0000      -6.062762      -164.9761
  77   2.0000      -6.062215      -164.9613
  78   2.0000      -6.058149      -164.8506
  79   2.0000      -6.057630      -164.8365
  80   2.0000      -6.057510      -164.8332
  81   2.0000      -6.055617      -164.7817
  82   2.0000      -6.055185      -164.7700
  83   2.0000      -6.054160      -164.7421
  84   2.0000      -6.051556      -164.6712
  85   2.0000      -1.235790       -33.6276
  86   2.0000      -1.222296       -33.2604
  87   2.0000      -1.162700       -31.6387
  88   2.0000      -1.153828       -31.3973
  89   2.0000      -1.147737       -31.2315
  90   2.0000      -1.142768       -31.0963
  91   2.0000      -1.142602       -31.0918
  92   2.0000      -1.138228       -30.9728
  93   2.0000      -1.129198       -30.7270
  94   2.0000      -1.083474       -29.4828
  95   2.0000      -1.071457       -29.1558
  96   2.0000      -1.042979       -28.3809
  97   2.0000      -1.042470       -28.3670
  98   2.0000      -1.022956       -27.8361
  99   2.0000      -1.021801       -27.8046
 100   2.0000      -1.004396       -27.3310
 101   2.0000      -1.002655       -27.2836
 102   2.0000      -0.993819       -27.0432
 103   2.0000      -0.993377       -27.0312
 104   2.0000      -0.970068       -26.3969
 105   2.0000      -0.960903       -26.1475
 106   2.0000      -0.959886       -26.1198
 107   2.0000      -0.951863       -25.9015
 108   2.0000      -0.949082       -25.8258
 109   2.0000      -0.941493       -25.6193
 110   2.0000      -0.922564       -25.1042
 111   2.0000      -0.920410       -25.0456
 112   2.0000      -0.910082       -24.7646
 113   2.0000      -0.906717       -24.6730
 114   2.0000      -0.902554       -24.5598
 115   2.0000      -0.891028       -24.2461
 116   2.0000      -0.875852       -23.8331
 117   2.0000      -0.858809       -23.3694
 118   2.0000      -0.837925       -22.8011
 119   2.0000      -0.837302       -22.7841
 120   2.0000      -0.834495       -22.7078
 121   2.0000      -0.829737       -22.5783
 122   2.0000      -0.818616       -22.2757
 123   2.0000      -0.797009       -21.6877
 124   2.0000      -0.785052       -21.3624
 125   2.0000      -0.770899       -20.9772
 126   2.0000      -0.768665       -20.9164
 127   2.0000      -0.764124       -20.7929
 128   2.0000      -0.762819       -20.7574
 129   2.0000      -0.758754       -20.6468
 130   2.0000      -0.739573       -20.1248
 131   2.0000      -0.735406       -20.0114
 132   2.0000      -0.728640       -19.8273
 133   2.0000      -0.717562       -19.5259
 134   2.0000      -0.707703       -19.2576
 135   2.0000      -0.701495       -19.0886
 136   2.0000      -0.700246       -19.0547
 137   2.0000      -0.689434       -18.7605
 138   2.0000      -0.681563       -18.5463
 139   2.0000      -0.680828       -18.5263
 140   2.0000      -0.670278       -18.2392
 141   2.0000      -0.667945       -18.1757
 142   2.0000      -0.656884       -17.8747
 143   2.0000      -0.651221       -17.7206
 144   2.0000      -0.636506       -17.3202
 145   2.0000      -0.629142       -17.1198
 146   2.0000      -0.623739       -16.9728
 147   2.0000      -0.621400       -16.9092
 148   2.0000      -0.618887       -16.8408
 149   2.0000      -0.613621       -16.6975
 150   2.0000      -0.611340       -16.6354
 151   2.0000      -0.605236       -16.4693
 152   2.0000      -0.602167       -16.3858
 153   2.0000      -0.595795       -16.2124
 154   2.0000      -0.592713       -16.1285
 155   2.0000      -0.587756       -15.9936
 156   2.0000      -0.576019       -15.6743
 157   2.0000      -0.569605       -15.4998
 158   2.0000      -0.564300       -15.3554
 159   2.0000      -0.559577       -15.2269
 160   2.0000      -0.558472       -15.1968
 161   2.0000      -0.555921       -15.1274
 162   2.0000      -0.554133       -15.0787
 163   2.0000      -0.553262       -15.0550
 164   2.0000      -0.548343       -14.9212
 165   2.0000      -0.547416       -14.8959
 166   2.0000      -0.543833       -14.7984
 167   2.0000      -0.542316       -14.7572
 168   2.0000      -0.539793       -14.6885
 169   2.0000      -0.537807       -14.6345
 170   2.0000      -0.536628       -14.6024
 171   2.0000      -0.532452       -14.4887
 172   2.0000      -0.531347       -14.4587
 173   2.0000      -0.529087       -14.3972
 174   2.0000      -0.525748       -14.3063
 175   2.0000      -0.523525       -14.2458
 176   2.0000      -0.520239       -14.1564
 177   2.0000      -0.519274       -14.1302
 178   2.0000      -0.514573       -14.0022
 179   2.0000      -0.513287       -13.9672
 180   2.0000      -0.510220       -13.8838
 181   2.0000      -0.509642       -13.8681
 182   2.0000      -0.504077       -13.7166
 183   2.0000      -0.503694       -13.7062
 184   2.0000      -0.498925       -13.5764
 185   2.0000      -0.498593       -13.5674
 186   2.0000      -0.492797       -13.4097
 187   2.0000      -0.491676       -13.3792
 188   2.0000      -0.490590       -13.3496
 189   2.0000      -0.483942       -13.1687
 190   2.0000      -0.480902       -13.0860
 191   2.0000      -0.474795       -12.9198
 192   2.0000      -0.473632       -12.8882
 193   2.0000      -0.471916       -12.8415
 194   2.0000      -0.469584       -12.7780
 195   2.0000      -0.464744       -12.6463
 196   2.0000      -0.460489       -12.5305
 197   2.0000      -0.460045       -12.5185
 198   2.0000      -0.459831       -12.5126
 199   2.0000      -0.457797       -12.4573
 200   2.0000      -0.456069       -12.4103
 201   2.0000      -0.454612       -12.3706
 202   2.0000      -0.452276       -12.3070
 203   2.0000      -0.450622       -12.2620
 204   2.0000      -0.450124       -12.2485
 205   2.0000      -0.447982       -12.1902
 206   2.0000      -0.446392       -12.1469
 207   2.0000      -0.444837       -12.1046
 208   2.0000      -0.439183       -11.9508
 209   2.0000      -0.437611       -11.9080
 210   2.0000      -0.436631       -11.8813
 211   2.0000      -0.434998       -11.8369
 212   2.0000      -0.433161       -11.7869
 213   2.0000      -0.429154       -11.6779
 214   2.0000      -0.424626       -11.5547
 215   2.0000      -0.422239       -11.4897
 216   2.0000      -0.419745       -11.4219
 217   2.0000      -0.414388       -11.2761
 218   2.0000      -0.413038       -11.2393
 219   2.0000      -0.410178       -11.1615
 220   2.0000      -0.407664       -11.0931
 221   2.0000      -0.405802       -11.0424
 222   2.0000      -0.399914       -10.8822
 223   2.0000      -0.396558       -10.7909
 224   2.0000      -0.386874       -10.5274
 225   2.0000      -0.383806       -10.4439
 226   2.0000      -0.369596       -10.0572
 227   2.0000      -0.365271        -9.9395
 228   2.0000      -0.361367        -9.8333
 229   2.0000      -0.351445        -9.5633
 230   2.0000      -0.349878        -9.5207
 231   2.0000      -0.349188        -9.5019
 232   2.0000      -0.347985        -9.4692
 233   2.0000      -0.340648        -9.2695
 234   2.0000      -0.338508        -9.2113
 235   2.0000      -0.338053        -9.1989
 236   2.0000      -0.332479        -9.0472
 237   2.0000      -0.319556        -8.6956
 238   2.0000      -0.317461        -8.6386
 239   2.0000      -0.302697        -8.2368
 240   2.0000      -0.298280        -8.1166
 241   2.0000      -0.254374        -6.9219
 242   0.0000      -0.132912        -3.6167
 243   0.0000      -0.111697        -3.0394
 244   0.0000      -0.089080        -2.4240
 245   0.0000      -0.063646        -1.7319
 246   0.0000      -0.057401        -1.5620

MULLIKEN ATOMIC CHARGES
-----------------------
   0 C :    0.035223
   1 C :   -0.128813
   2 S :    0.190921
   3 C :   -0.163374
   4 Cl:    0.004019
   5 C :    0.078066
   6 C :    0.159328
   7 O :   -0.129981
   8 C :   -0.084775
   9 C :    0.284495
  10 C :   -0.319254
  11 C :   -0.192206
  12 N :    0.163754
  13 C :   -0.193807
  14 N :    0.175519
  15 C :   -0.041478
  16 C :    0.139817
  17 C :   -0.039477
  18 C :   -0.071837
  19 C :    0.235679
  20 O :   -0.106284
  21 O :   -0.233561
  22 C :    0.081462
  23 O :   -0.249614
  24 C :    0.248334
  25 O :   -0.115706
  26 C :    0.103473
  27 N :   -0.248081
  28 C :    0.113332
  29 C :    0.001401
  30 C :    0.169466
  31 O :   -0.211349
  32 C :   -0.085527
  33 C :   -0.028485
  34 C :    0.158278
  35 O :   -0.144793
  36 N :   -0.253421
  37 C :    0.093295
  38 C :    0.000573
  39 C :    0.156583
  40 C :   -0.028116
  41 C :    0.092367
  42 C :   -0.115268
  43 S :    0.147899
  44 C :   -0.093048
  45 N :   -0.036973
  46 N :   -0.034205
  47 C :    0.070048
  48 C :    0.027896
  49 C :    0.026749
  50 C :   -0.115381
  51 C :    0.142366
  52 O :   -0.123962
  53 C :    0.081804
  54 C :   -0.171659
  55 S :    0.188702
  56 C :   -0.127337
  57 C :    0.024660
  58 C :    0.264139
  59 C :   -0.301988
  60 C :   -0.185160
  61 N :    0.155190
  62 C :   -0.210837
  63 N :    0.181884
  64 Cl:    0.002792
  65 H :    0.055778
  66 H :    0.047779
  67 H :    0.031492
  68 H :    0.038773
  69 H :    0.027303
  70 H :    0.024261
  71 H :    0.021901
  72 H :    0.033947
  73 H :    0.053459
  74 H :    0.021712
  75 H :    0.031951
  76 H :    0.030592
  77 H :    0.011645
  78 H :    0.020449
  79 H :    0.007208
  80 H :    0.050652
  81 H :    0.023031
  82 H :    0.054310
Sum of atomic charges:    0.0000000

LOEWDIN ATOMIC CHARGES
----------------------
   0 C :   -0.057334
   1 C :   -0.148967
   2 S :    0.481406
   3 C :   -0.269787
   4 Cl:    0.198275
   5 C :   -0.112562
   6 C :    0.084541
   7 O :   -0.122323
   8 C :   -0.050177
   9 C :    0.068901
  10 C :   -0.123739
  11 C :   -0.014937
  12 N :   -0.043710
  13 C :   -0.024707
  14 N :   -0.034167
  15 C :    0.040486
  16 C :    0.089007
  17 C :   -0.086293
  18 C :   -0.098558
  19 C :    0.103440
  20 O :   -0.104116
  21 O :   -0.039967
  22 C :    0.090725
  23 O :   -0.041706
  24 C :    0.111245
  25 O :   -0.113198
  26 C :    0.031679
  27 N :    0.008676
  28 C :    0.038428
  29 C :   -0.060746
  30 C :    0.077676
  31 O :   -0.203748
  32 C :   -0.123692
  33 C :   -0.069904
  34 C :    0.086707
  35 O :   -0.136736
  36 N :    0.007891
  37 C :    0.038585
  38 C :   -0.059250
  39 C :    0.097609
  40 C :   -0.016053
  41 C :    0.011144
  42 C :   -0.152763
  43 S :    0.427214
  44 C :   -0.147669
  45 N :   -0.058590
  46 N :   -0.061105
  47 C :   -0.010890
  48 C :    0.011352
  49 C :    0.061165
  50 C :   -0.072642
  51 C :    0.079916
  52 O :   -0.129227
  53 C :   -0.118918
  54 C :   -0.271647
  55 S :    0.477288
  56 C :   -0.151028
  57 C :   -0.056853
  58 C :    0.066446
  59 C :   -0.125860
  60 C :   -0.015509
  61 N :   -0.044147
  62 C :   -0.026909
  63 N :   -0.035501
  64 Cl:    0.194133
  65 H :    0.038251
  66 H :    0.057393
  67 H :    0.027246
  68 H :    0.035002
  69 H :    0.023210
  70 H :    0.031971
  71 H :    0.027727
  72 H :    0.028271
  73 H :    0.042296
  74 H :    0.024339
  75 H :    0.034877
  76 H :    0.032589
  77 H :    0.040961
  78 H :    0.040377
  79 H :    0.038870
  80 H :    0.043076
  81 H :    0.046977
  82 H :    0.038262

  Mayer bond orders larger than 0.100000
B(  0-C ,  1-C ) :   1.5424 B(  0-C ,  5-C ) :   1.2256 B(  0-C ,  9-C ) :   1.0013
B(  1-C ,  2-S ) :   1.1633 B(  1-C , 65-H ) :   0.9538 B(  2-S ,  3-C ) :   1.1522
B(  3-C ,  4-Cl) :   1.1321 B(  3-C ,  5-C ) :   1.4759 B(  5-C ,  6-C ) :   0.9512
B(  6-C ,  7-O ) :   2.2348 B(  6-C ,  8-C ) :   0.9174 B(  8-C ,  9-C ) :   1.0767
B(  8-C , 15-C ) :   1.6299 B(  9-C , 10-C ) :   1.6612 B( 10-C , 11-C ) :   1.1452
B( 10-C , 13-C ) :   1.1376 B( 11-C , 12-N ) :   2.9922 B( 13-C , 14-N ) :   2.9838
B( 15-C , 16-C ) :   1.1521 B( 15-C , 66-H ) :   0.9346 B( 16-C , 17-C ) :   1.4169
B( 16-C , 21-O ) :   1.1486 B( 17-C , 18-C ) :   1.1830 B( 17-C , 24-C ) :   0.9324
B( 18-C , 19-C ) :   0.9468 B( 18-C , 22-C ) :   1.4200 B( 19-C , 20-O ) :   2.2307
B( 19-C , 21-O ) :   1.0015 B( 22-C , 23-O ) :   1.1294 B( 22-C , 26-C ) :   1.1225
B( 23-O , 24-C ) :   1.0030 B( 24-C , 25-O ) :   2.2418 B( 26-C , 27-N ) :   1.1793
B( 26-C , 33-C ) :   1.3749 B( 27-N , 28-C ) :   0.9328 B( 27-N , 30-C ) :   1.0695
B( 28-C , 29-C ) :   1.1236 B( 28-C , 67-H ) :   0.9483 B( 28-C , 68-H ) :   0.9308
B( 29-C , 69-H ) :   0.9654 B( 29-C , 70-H ) :   0.9674 B( 29-C , 71-H ) :   0.9660
B( 30-C , 31-O ) :   2.0235 B( 30-C , 32-C ) :   0.9863 B( 31-O , 78-H ) :   0.1178
B( 32-C , 33-C ) :   1.2897 B( 32-C , 39-C ) :   1.2825 B( 33-C , 34-C ) :   0.9517
B( 34-C , 35-O ) :   2.1494 B( 34-C , 36-N ) :   1.0087 B( 36-N , 37-C ) :   0.9360
B( 36-N , 39-C ) :   1.2124 B( 37-C , 38-C ) :   1.1202 B( 37-C , 72-H ) :   0.9498
B( 37-C , 73-H ) :   0.9299 B( 38-C , 74-H ) :   0.9683 B( 38-C , 75-H ) :   0.9676
B( 38-C , 76-H ) :   0.9641 B( 39-C , 40-C ) :   1.1367 B( 40-C , 41-C ) :   1.6457
B( 40-C , 77-H ) :   0.9734 B( 41-C , 42-C ) :   1.1144 B( 41-C , 78-H ) :   0.9208
B( 42-C , 43-S ) :   1.1139 B( 42-C , 46-N ) :   1.6378 B( 43-S , 44-C ) :   1.1056
B( 44-C , 45-N ) :   1.6380 B( 44-C , 47-C ) :   1.0990 B( 45-N , 46-N ) :   1.2644
B( 47-C , 48-C ) :   1.7162 B( 47-C , 79-H ) :   0.9596 B( 48-C , 49-C ) :   1.0989
B( 48-C , 80-H ) :   0.9520 B( 49-C , 50-C ) :   1.6600 B( 49-C , 81-H ) :   0.9558
B( 50-C , 51-C ) :   0.9293 B( 50-C , 58-C ) :   1.0322 B( 51-C , 52-O ) :   2.2832
B( 51-C , 53-C ) :   0.9272 B( 53-C , 54-C ) :   1.4822 B( 53-C , 57-C ) :   1.2211
B( 54-C , 55-S ) :   1.1542 B( 54-C , 64-Cl) :   1.1320 B( 55-S , 56-C ) :   1.1597
B( 56-C , 57-C ) :   1.5525 B( 56-C , 82-H ) :   0.9558 B( 57-C , 58-C ) :   1.0113
B( 58-C , 59-C ) :   1.6697 B( 59-C , 60-C ) :   1.1352 B( 59-C , 62-C ) :   1.1449
B( 60-C , 61-N ) :   2.9986 B( 62-C , 63-N ) :   3.0177

-----------------------------------------------------------------------------
         ABSORPTION SPECTRUM VIA TRANSITION ELECTRIC DIPOLE MOMENTS
-----------------------------------------------------------------------------
State   Energy  Wavelength   fosc         T2         TX        TY        TZ
        (cm-1)    (nm)                  (au**2)     (au)      (au)      (au)
-----------------------------------------------------------------------------
   0   11459.2    872.7   1.107496391  31.81742  -3.10328   4.70273   0.26718
   1   18234.4    548.4   0.089973830   1.62443   1.05623  -0.46413  -0.54166
   2   19817.8    504.6   0.111314284   1.84914   0.16756  -1.22982   0.55552
   3   22478.0    444.9   0.219912214   3.22082   1.12489  -1.39779   0.04038
   4   23608.2    423.6   0.503814859   7.02559   1.50515  -2.18023  -0.08194
   5   23899.2    418.4   0.017491885   0.24095  -0.24681   0.00675   0.42425
   6   24526.4    407.7   0.019620266   0.26336   0.01665  -0.48029   0.18001
   7   24605.7    406.4   0.017117725   0.22903   0.01711  -0.47574   0.04908
   8   25444.2    393.0   0.001339299   0.01733   0.10749  -0.07153   0.02566
   9   25971.2    385.0   0.002175115   0.02757   0.14188  -0.07348  -0.04518
  10   26899.6    371.8   0.105895117   1.29600  -0.74085   0.69373  -0.51563
  11   27192.3    367.8   0.043718581   0.52929  -0.61573   0.00538  -0.38749
  12   27856.8    359.0   0.035796897   0.42305   0.41813  -0.40140  -0.29512
  13   28056.5    356.4   0.074915789   0.87905  -0.27873   0.41210  -0.79469
  14   28187.6    354.8   0.054805181   0.64009   0.35029  -0.16457  -0.70022
  15   28305.3    353.3   0.043860533   0.51013   0.10405  -0.09371  -0.70037
  16   28458.7    351.4   0.005048988   0.05841  -0.09850  -0.19599   0.10145
  17   29324.5    341.0   0.040445917   0.45407   0.59150  -0.14972  -0.28596
  18   29615.9    337.7   0.013257095   0.14737   0.33052  -0.15345  -0.12075
  19   31475.1    317.7   0.017911765   0.18735   0.37730  -0.10821   0.18244
  20   31838.8    314.1   0.007377860   0.07629  -0.14390  -0.14487  -0.18599
  21   32193.0    310.6   0.028798718   0.29450  -0.26177   0.43533  -0.19095
  22   32353.0    309.1   0.445998350   4.53831  -1.04906   1.48445  -1.11095
  23   33318.1    300.1   0.027299433   0.26974  -0.49356   0.07959   0.14072
  24   33391.4    299.5   0.014341407   0.14139   0.04460  -0.28653  -0.23939
  25   33665.6    297.0   0.128075908   1.25244   0.86477  -0.71018   0.01612
  26   33901.8    295.0   0.006159570   0.05981   0.04722  -0.17631   0.16279
  27   34617.4    288.9   0.044210535   0.42044  -0.26809   0.36665   0.46275
  28   34911.5    286.4   0.114535928   1.08006   0.44079  -0.07997  -0.93775
  29   35227.4    283.9   0.036599111   0.34203   0.51926  -0.21559   0.16102
  30   35381.7    282.6   0.092907917   0.86447  -0.80167   0.46044  -0.09893
  31   35615.2    280.8   0.080955689   0.74832   0.15973   0.26760  -0.80697
  32   35862.8    278.8   0.011319233   0.10391  -0.03127  -0.29415   0.12809
  33   35967.1    278.0   0.067414473   0.61705   0.00637   0.54160  -0.56893
  34   36921.1    270.8   0.092732848   0.82687   0.72917  -0.08747  -0.53621
  35   37116.8    269.4   0.232833969   2.06515  -0.37404   0.49427  -1.29651
  36   37493.3    266.7   0.150451660   1.32105   0.15673  -0.47597   1.03438
  37   37889.7    263.9   0.251267708   2.18319   1.37980  -0.47228  -0.23727
  38   38007.7    263.1   0.084022385   0.72778   0.69262  -0.46654   0.17433
  39   38357.1    260.7   0.072438915   0.62173   0.49022  -0.38336   0.48420
  40   38464.3    260.0   0.120146325   1.02832   0.06290   0.46739  -0.89772
  41   38743.9    258.1   0.010860960   0.09229  -0.17625  -0.12537  -0.21333
  42   38940.1    256.8   0.170321276   1.43995  -1.15160   0.33675   0.01940
  43   39174.5    255.3   0.094860012   0.79718   0.41316  -0.76269   0.21161
  44   39223.9    254.9   0.209125386   1.75522  -0.22059  -0.17205   1.29497
  45   39331.3    254.3   0.012285493   0.10283   0.18428  -0.00663   0.26235
  46   39549.3    252.8   0.031072828   0.25865   0.28340  -0.34289   0.24650
  47   40113.5    249.3   0.094560650   0.77606   0.78169  -0.36384  -0.18066
  48   40303.2    248.1   0.012901058   0.10538  -0.18009   0.05148   0.26514

FINAL SINGLE POINT ENERGY     -4838.143773999262

DIPOLE MOMENT
-------------
                                X             Y             Z
Electronic contribution:     10.85720       5.26539      19.95309
Nuclear contribution   :     -9.73928      -6.80654     -17.44752
                        -----------------------------------------
Total Dipole Moment    :      1.11792      -1.54115       2.50558
                        -----------------------------------------
Magnitude (a.u.)       :      3.14687
Magnitude (Debye)      :      7.99871

Rotational constants in cm-1:     0.003459     0.000212     0.000204
Rotational constants in MHz :   103.700886     6.353310     6.112186

                             ****ORCA TERMINATED NORMALLY****
TOTAL RUN TIME: 0 days 0 hours 7 minutes 54 seconds 685 msec
