                         Program Version 4.2.0 -  RELEASE  -
|  1> # ORCA input file
|  2> # SCF done       -186.587934734765          0.000944928101
|  3> ! CAM-B3LYP def2-SVP def2/J RIJCOSX Grid4 TightSCF
|  4> %maxcore 5000
|  5> %tddft
|  6>     Mode sTDDFT
|  7>     Ethresh 5.0
|  8>     maxcore 5000
|  9> end
| 10>
| 11> %pal
| 12>   nprocs 6
| 13>   end
| 14> * xyz 0 1
| 15>    C        2.88252         2.62371         1.97812
| 16>    C        2.48033         3.74041         2.64362
| 17>    S        2.67372         3.55475         4.34797
| 18>    C        3.31328         1.93813         4.16561
| 19>   Cl        3.77815         1.01526         5.50707
| 20>    C        3.35842         1.58953         2.84823
| 21>    C        3.76813         0.42104         2.06404
| 22>    O        4.22287        -0.62375         2.46847
| 23>    C        3.55000         0.82918         0.63815
| 24>    C        2.96981         2.16698         0.60689
| 25>    C        2.53868         2.87207        -0.48329
| 26>    C        1.98563         4.16377        -0.34948
| 27>    N        1.53507         5.21444        -0.25675
| 28>    C        2.57328         2.41824        -1.81726
| 29>    N        2.56226         2.09468        -2.91842
| 30>    C        3.98541         0.12035        -0.43148
| 31>    C        4.54740        -1.20206        -0.37406
| 32>    C        3.97423        -2.27187         0.33270
| 33>    N        4.54561        -3.44733         0.41445
| 34>    C        5.70443        -3.63109        -0.22211
| 35>    N        6.27410        -2.71356        -1.00627
| 36>    C        5.71980        -1.53323        -1.07842
| 37>    C        6.42128        -4.87573        -0.09490
| 38>    N        5.95814        -6.01643         0.49680
| 39>    C        4.64225        -6.26121         1.03888
| 40>    C        3.62382        -6.52591        -0.06542
| 41>    C        6.92711        -7.04160         0.46939
| 42>    O        6.75394        -8.14056         0.95059
| 43>    C        8.06576        -6.43996        -0.19246
| 44>    C        7.72520        -5.10540        -0.51979
| 45>    C        8.89805        -4.47254        -1.10505
| 46>    O        9.11599        -3.36260        -1.52288
| 47>    N        9.87345        -5.49900        -1.09570
| 48>    C       11.22116        -5.23487        -1.54250
| 49>    C       12.11979        -4.82593        -0.37790
| 50>    C        9.39396        -6.66497        -0.55894
| 51>    C       10.15849        -7.85179        -0.43389
| 52>    C        9.62334        -9.04488        -0.05387
| 53>    C       10.42872       -10.20294         0.06831
| 54>    O       11.76222       -10.09931         0.06200
| 55>    C       12.29817       -11.34218         0.17842
| 56>    C       11.28572       -12.27704         0.27658
| 57>    C       10.07061       -11.56142         0.20992
| 58>    C        8.72047       -12.07468         0.21440
| 59>    O        7.71075       -11.45768        -0.00827
| 60>    C        8.63480       -13.60007         0.52755
| 61>    F        9.24354       -13.90697         1.68700
| 62>    F        7.37945       -14.02418         0.61442
| 63>    F        9.24005       -14.33484        -0.42432
| 64>    C       13.70842       -11.49249         0.14654
| 65>    C       14.54122       -10.41977         0.08164
| 66>    C       15.93988       -10.53280        -0.03973
| 67>    C       16.86437        -9.53892        -0.18474
| 68>    C       18.30634        -9.92008        -0.04487
| 69>    O       18.74277       -11.04543         0.00061
| 70>    C       19.02209        -8.64624         0.05773
| 71>    C       20.30245        -8.22954         0.26411
| 72>    S       20.37994        -6.48309         0.28450
| 73>    C       18.68318        -6.34198         0.00430
| 74>    C       18.09414        -7.56478        -0.09300
| 75>    C       16.76404        -8.10020        -0.34161
| 76>    C       15.72099        -7.31249        -0.76060
| 77>    C       15.85286        -5.90840        -0.84952
| 78>    N       15.89048        -4.76355        -0.91999
| 79>    C       14.44224        -7.68332        -1.21310
| 80>    N       13.38067        -7.83940        -1.62649
| 81>   Cl       21.68861        -9.17717         0.48410
| 82>    H        2.08744         4.65917         2.25556
| 83>    H        3.96668         0.57779        -1.41330
| 84>    H        3.00664        -2.17885         0.80609
| 85>    H        6.23151        -0.80416        -1.69269
| 86>    H        4.33784        -5.40202         1.63756
| 87>    H        4.73965        -7.14673         1.67295
| 88>    H        3.52100        -5.65232        -0.70422
| 89>    H        2.65733        -6.75015         0.37620
| 90>    H        3.93590        -7.37385        -0.67044
| 91>    H       11.15243        -4.40836        -2.25460
| 92>    H       11.62374        -6.11310        -2.05051
| 93>    H       11.71994        -3.93761         0.10474
| 94>    H       13.11869        -4.60256        -0.74209
| 95>    H       12.18540        -5.62423         0.35879
| 96>    H       11.20984        -7.80710        -0.68671
| 97>    H        8.56687        -9.15852         0.14829
| 98>    H       11.41828       -13.33499         0.37315
| 99>    H       14.09169       -12.50218         0.14122
|100>    H       14.09925        -9.43777         0.12456
|101>    H       16.36151       -11.53128         0.02515
|102>    H       18.24669        -5.36517        -0.05844
|103> *
|104>
|105>                          ****END OF INPUT****

CARTESIAN COORDINATES (ANGSTROEM)
---------------------------------
  C      2.882520    2.623710    1.978120
  C      2.480330    3.740410    2.643620
  S      2.673720    3.554750    4.347970
  C      3.313280    1.938130    4.165610
  Cl     3.778150    1.015260    5.507070
  C      3.358420    1.589530    2.848230
  C      3.768130    0.421040    2.064040
  O      4.222870   -0.623750    2.468470
  C      3.550000    0.829180    0.638150
  C      2.969810    2.166980    0.606890
  C      2.538680    2.872070   -0.483290
  C      1.985630    4.163770   -0.349480
  N      1.535070    5.214440   -0.256750
  C      2.573280    2.418240   -1.817260
  N      2.562260    2.094680   -2.918420
  C      3.985410    0.120350   -0.431480
  C      4.547400   -1.202060   -0.374060
  C      3.974230   -2.271870    0.332700
  N      4.545610   -3.447330    0.414450
  C      5.704430   -3.631090   -0.222110
  N      6.274100   -2.713560   -1.006270
  C      5.719800   -1.533230   -1.078420
  C      6.421280   -4.875730   -0.094900
  N      5.958140   -6.016430    0.496800
  C      4.642250   -6.261210    1.038880
  C      3.623820   -6.525910   -0.065420
  C      6.927110   -7.041600    0.469390
  O      6.753940   -8.140560    0.950590
  C      8.065760   -6.439960   -0.192460
  C      7.725200   -5.105400   -0.519790
  C      8.898050   -4.472540   -1.105050
  O      9.115990   -3.362600   -1.522880
  N      9.873450   -5.499000   -1.095700
  C     11.221160   -5.234870   -1.542500
  C     12.119790   -4.825930   -0.377900
  C      9.393960   -6.664970   -0.558940
  C     10.158490   -7.851790   -0.433890
  C      9.623340   -9.044880   -0.053870
  C     10.428720  -10.202940    0.068310
  O     11.762220  -10.099310    0.062000
  C     12.298170  -11.342180    0.178420
  C     11.285720  -12.277040    0.276580
  C     10.070610  -11.561420    0.209920
  C      8.720470  -12.074680    0.214400
  O      7.710750  -11.457680   -0.008270
  C      8.634800  -13.600070    0.527550
  F      9.243540  -13.906970    1.687000
  F      7.379450  -14.024180    0.614420
  F      9.240050  -14.334840   -0.424320
  C     13.708420  -11.492490    0.146540
  C     14.541220  -10.419770    0.081640
  C     15.939880  -10.532800   -0.039730
  C     16.864370   -9.538920   -0.184740
  C     18.306340   -9.920080   -0.044870
  O     18.742770  -11.045430    0.000610
  C     19.022090   -8.646240    0.057730
  C     20.302450   -8.229540    0.264110
  S     20.379940   -6.483090    0.284500
  C     18.683180   -6.341980    0.004300
  C     18.094140   -7.564780   -0.093000
  C     16.764040   -8.100200   -0.341610
  C     15.720990   -7.312490   -0.760600
  C     15.852860   -5.908400   -0.849520
  N     15.890480   -4.763550   -0.919990
  C     14.442240   -7.683320   -1.213100
  N     13.380670   -7.839400   -1.626490
  Cl    21.688610   -9.177170    0.484100
  H      2.087440    4.659170    2.255560
  H      3.966680    0.577790   -1.413300
  H      3.006640   -2.178850    0.806090
  H      6.231510   -0.804160   -1.692690
  H      4.337840   -5.402020    1.637560
  H      4.739650   -7.146730    1.672950
  H      3.521000   -5.652320   -0.704220
  H      2.657330   -6.750150    0.376200
  H      3.935900   -7.373850   -0.670440
  H     11.152430   -4.408360   -2.254600
  H     11.623740   -6.113100   -2.050510
  H     11.719940   -3.937610    0.104740
  H     13.118690   -4.602560   -0.742090
  H     12.185400   -5.624230    0.358790
  H     11.209840   -7.807100   -0.686710
  H      8.566870   -9.158520    0.148290
  H     11.418280  -13.334990    0.373150
  H     14.091690  -12.502180    0.141220
  H     14.099250   -9.437770    0.124560
  H     16.361510  -11.531280    0.025150
  H     18.246690   -5.365170   -0.058440

 Total Charge           Charge          ....    0
 Multiplicity           Mult            ....    1
 Number of Electrons    NEL             ....  494
 Basis Dimension        Dim             .... 1059

ORBITAL ENERGIES
----------------

  NO   OCC          E(Eh)            E(eV)
   0   2.0000    -101.624059     -2765.3312
   1   2.0000    -101.619715     -2765.2130
   2   2.0000     -89.001535     -2421.8549
   3   2.0000     -88.996065     -2421.7060
   4   2.0000     -24.810685      -675.1331
   5   2.0000     -24.810212      -675.1202
   6   2.0000     -24.805186      -674.9834
   7   2.0000     -19.321403      -525.7621
   8   2.0000     -19.238830      -523.5152
   9   2.0000     -19.231261      -523.3092
  10   2.0000     -19.221073      -523.0320
  11   2.0000     -19.187041      -522.1059
  12   2.0000     -19.184556      -522.0383
  13   2.0000     -14.448579      -393.1658
  14   2.0000     -14.447638      -393.1402
  15   2.0000     -14.434044      -392.7703
  16   2.0000     -14.428935      -392.6313
  17   2.0000     -14.427830      -392.6012
  18   2.0000     -14.427335      -392.5877
  19   2.0000     -14.423867      -392.4934
  20   2.0000     -14.417465      -392.3192
  21   2.0000     -10.519729      -286.2564
  22   2.0000     -10.391816      -282.7757
  23   2.0000     -10.388364      -282.6818
  24   2.0000     -10.384101      -282.5658
  25   2.0000     -10.378623      -282.4167
  26   2.0000     -10.376851      -282.3685
  27   2.0000     -10.374448      -282.3031
  28   2.0000     -10.369312      -282.1633
  29   2.0000     -10.369159      -282.1592
  30   2.0000     -10.361425      -281.9487
  31   2.0000     -10.360506      -281.9237
  32   2.0000     -10.358362      -281.8654
  33   2.0000     -10.357866      -281.8519
  34   2.0000     -10.357213      -281.8341
  35   2.0000     -10.355153      -281.7780
  36   2.0000     -10.341083      -281.3952
  37   2.0000     -10.339071      -281.3404
  38   2.0000     -10.338116      -281.3144
  39   2.0000     -10.337415      -281.2953
  40   2.0000     -10.334764      -281.2232
  41   2.0000     -10.333324      -281.1840
  42   2.0000     -10.332882      -281.1720
  43   2.0000     -10.332576      -281.1637
  44   2.0000     -10.330554      -281.1087
  45   2.0000     -10.330014      -281.0940
  46   2.0000     -10.329429      -281.0781
  47   2.0000     -10.325910      -280.9823
  48   2.0000     -10.324300      -280.9385
  49   2.0000     -10.320944      -280.8472
  50   2.0000     -10.319298      -280.8024
  51   2.0000     -10.316834      -280.7353
  52   2.0000     -10.312789      -280.6253
  53   2.0000     -10.308361      -280.5048
  54   2.0000     -10.308339      -280.5042
  55   2.0000     -10.308144      -280.4988
  56   2.0000     -10.307576      -280.4834
  57   2.0000     -10.302529      -280.3461
  58   2.0000     -10.301817      -280.3267
  59   2.0000     -10.299718      -280.2696
  60   2.0000     -10.297692      -280.2144
  61   2.0000     -10.294873      -280.1377
  62   2.0000     -10.287346      -279.9329
  63   2.0000     -10.265375      -279.3350
  64   2.0000     -10.261629      -279.2331
  65   2.0000     -10.251154      -278.9481
  66   2.0000     -10.248021      -278.8628
  67   2.0000      -9.578818      -260.6529
  68   2.0000      -9.574494      -260.5352
  69   2.0000      -8.097217      -220.3365
  70   2.0000      -8.091810      -220.1893
  71   2.0000      -7.349486      -199.9897
  72   2.0000      -7.345139      -199.8714
  73   2.0000      -7.338851      -199.7003
  74   2.0000      -7.338283      -199.6848
  75   2.0000      -7.334525      -199.5826
  76   2.0000      -7.333986      -199.5679
  77   2.0000      -6.066554      -165.0793
  78   2.0000      -6.061971      -164.9546
  79   2.0000      -6.061201      -164.9337
  80   2.0000      -6.059528      -164.8882
  81   2.0000      -6.056583      -164.8080
  82   2.0000      -6.054050      -164.7391
  83   2.0000      -1.398240       -38.0480
  84   2.0000      -1.300866       -35.3984
  85   2.0000      -1.300731       -35.3947
  86   2.0000      -1.244266       -33.8582
  87   2.0000      -1.155559       -31.4444
  88   2.0000      -1.148604       -31.2551
  89   2.0000      -1.138290       -30.9744
  90   2.0000      -1.129896       -30.7460
  91   2.0000      -1.122725       -30.5509
  92   2.0000      -1.099064       -29.9071
  93   2.0000      -1.059231       -28.8231
  94   2.0000      -1.049422       -28.5562
  95   2.0000      -1.046212       -28.4689
  96   2.0000      -1.041837       -28.3498
  97   2.0000      -1.028069       -27.9752
  98   2.0000      -1.025461       -27.9042
  99   2.0000      -1.009025       -27.4570
 100   2.0000      -1.006737       -27.3947
 101   2.0000      -0.996577       -27.1182
 102   2.0000      -0.992450       -27.0059
 103   2.0000      -0.991675       -26.9849
 104   2.0000      -0.964101       -26.2345
 105   2.0000      -0.960265       -26.1301
 106   2.0000      -0.949372       -25.8337
 107   2.0000      -0.940587       -25.5947
 108   2.0000      -0.936256       -25.4768
 109   2.0000      -0.925167       -25.1751
 110   2.0000      -0.919464       -25.0199
 111   2.0000      -0.913068       -24.8459
 112   2.0000      -0.910636       -24.7797
 113   2.0000      -0.886133       -24.1129
 114   2.0000      -0.876210       -23.8429
 115   2.0000      -0.861240       -23.4355
 116   2.0000      -0.846465       -23.0335
 117   2.0000      -0.840823       -22.8800
 118   2.0000      -0.837075       -22.7780
 119   2.0000      -0.835151       -22.7256
 120   2.0000      -0.825285       -22.4572
 121   2.0000      -0.810459       -22.0537
 122   2.0000      -0.804622       -21.8949
 123   2.0000      -0.783692       -21.3253
 124   2.0000      -0.775541       -21.1035
 125   2.0000      -0.764288       -20.7973
 126   2.0000      -0.762162       -20.7395
 127   2.0000      -0.759639       -20.6708
 128   2.0000      -0.752295       -20.4710
 129   2.0000      -0.749409       -20.3925
 130   2.0000      -0.736118       -20.0308
 131   2.0000      -0.728801       -19.8317
 132   2.0000      -0.720145       -19.5961
 133   2.0000      -0.699820       -19.0431
 134   2.0000      -0.697789       -18.9878
 135   2.0000      -0.697086       -18.9687
 136   2.0000      -0.694572       -18.9003
 137   2.0000      -0.686772       -18.6880
 138   2.0000      -0.684935       -18.6380
 139   2.0000      -0.682123       -18.5615
 140   2.0000      -0.681518       -18.5451
 141   2.0000      -0.673583       -18.3291
 142   2.0000      -0.666950       -18.1486
 143   2.0000      -0.660427       -17.9711
 144   2.0000      -0.647073       -17.6078
 145   2.0000      -0.646517       -17.5926
 146   2.0000      -0.634370       -17.2621
 147   2.0000      -0.630345       -17.1525
 148   2.0000      -0.626351       -17.0439
 149   2.0000      -0.625157       -17.0114
 150   2.0000      -0.619729       -16.8637
 151   2.0000      -0.615686       -16.7537
 152   2.0000      -0.612108       -16.6563
 153   2.0000      -0.597890       -16.2694
 154   2.0000      -0.589717       -16.0470
 155   2.0000      -0.586751       -15.9663
 156   2.0000      -0.582684       -15.8556
 157   2.0000      -0.579761       -15.7761
 158   2.0000      -0.572407       -15.5760
 159   2.0000      -0.566840       -15.4245
 160   2.0000      -0.563826       -15.3425
 161   2.0000      -0.561457       -15.2780
 162   2.0000      -0.560916       -15.2633
 163   2.0000      -0.558690       -15.2027
 164   2.0000      -0.556770       -15.1505
 165   2.0000      -0.553050       -15.0493
 166   2.0000      -0.552400       -15.0316
 167   2.0000      -0.544454       -14.8153
 168   2.0000      -0.541529       -14.7357
 169   2.0000      -0.538197       -14.6451
 170   2.0000      -0.534445       -14.5430
 171   2.0000      -0.532574       -14.4921
 172   2.0000      -0.532256       -14.4834
 173   2.0000      -0.529092       -14.3973
 174   2.0000      -0.526369       -14.3232
 175   2.0000      -0.525275       -14.2935
 176   2.0000      -0.523464       -14.2442
 177   2.0000      -0.523193       -14.2368
 178   2.0000      -0.520224       -14.1560
 179   2.0000      -0.519726       -14.1425
 180   2.0000      -0.515677       -14.0323
 181   2.0000      -0.515038       -14.0149
 182   2.0000      -0.513393       -13.9701
 183   2.0000      -0.511778       -13.9262
 184   2.0000      -0.511094       -13.9076
 185   2.0000      -0.509038       -13.8516
 186   2.0000      -0.503743       -13.7075
 187   2.0000      -0.503559       -13.7025
 188   2.0000      -0.502652       -13.6779
 189   2.0000      -0.498817       -13.5735
 190   2.0000      -0.497655       -13.5419
 191   2.0000      -0.495403       -13.4806
 192   2.0000      -0.494853       -13.4656
 193   2.0000      -0.493038       -13.4162
 194   2.0000      -0.492656       -13.4059
 195   2.0000      -0.490881       -13.3576
 196   2.0000      -0.479441       -13.0463
 197   2.0000      -0.474028       -12.8989
 198   2.0000      -0.471130       -12.8201
 199   2.0000      -0.465441       -12.6653
 200   2.0000      -0.464162       -12.6305
 201   2.0000      -0.463599       -12.6152
 202   2.0000      -0.460315       -12.5258
 203   2.0000      -0.458966       -12.4891
 204   2.0000      -0.456424       -12.4199
 205   2.0000      -0.454847       -12.3770
 206   2.0000      -0.454409       -12.3651
 207   2.0000      -0.453043       -12.3279
 208   2.0000      -0.452346       -12.3090
 209   2.0000      -0.450021       -12.2457
 210   2.0000      -0.447938       -12.1890
 211   2.0000      -0.445656       -12.1269
 212   2.0000      -0.441699       -12.0192
 213   2.0000      -0.440093       -11.9755
 214   2.0000      -0.439679       -11.9643
 215   2.0000      -0.438072       -11.9205
 216   2.0000      -0.435381       -11.8473
 217   2.0000      -0.430729       -11.7207
 218   2.0000      -0.428245       -11.6531
 219   2.0000      -0.425698       -11.5838
 220   2.0000      -0.422314       -11.4917
 221   2.0000      -0.419297       -11.4097
 222   2.0000      -0.415478       -11.3057
 223   2.0000      -0.411973       -11.2104
 224   2.0000      -0.409615       -11.1462
 225   2.0000      -0.408648       -11.1199
 226   2.0000      -0.405623       -11.0376
 227   2.0000      -0.401625       -10.9288
 228   2.0000      -0.390190       -10.6176
 229   2.0000      -0.386963       -10.5298
 230   2.0000      -0.384469       -10.4619
 231   2.0000      -0.378392       -10.2966
 232   2.0000      -0.359991        -9.7959
 233   2.0000      -0.357141        -9.7183
 234   2.0000      -0.346627        -9.4322
 235   2.0000      -0.345553        -9.4030
 236   2.0000      -0.344710        -9.3800
 237   2.0000      -0.343099        -9.3362
 238   2.0000      -0.335430        -9.1275
 239   2.0000      -0.331358        -9.0167
 240   2.0000      -0.329707        -8.9718
 241   2.0000      -0.319541        -8.6952
 242   2.0000      -0.316970        -8.6252
 243   2.0000      -0.313110        -8.5202
 244   2.0000      -0.309306        -8.4167
 245   2.0000      -0.284769        -7.7490
 246   2.0000      -0.240387        -6.5413
 247   0.0000      -0.116148        -3.1605
 248   0.0000      -0.103654        -2.8206
 249   0.0000      -0.084223        -2.2918
 250   0.0000      -0.060153        -1.6369
 251   0.0000      -0.056263        -1.5310

MULLIKEN ATOMIC CHARGES
-----------------------
   0 C :    0.031673
   1 C :   -0.126956
   2 S :    0.193932
   3 C :   -0.167928
   4 Cl:    0.005304
   5 C :    0.073333
   6 C :    0.144287
   7 O :   -0.122028
   8 C :   -0.097132
   9 C :    0.288945
  10 C :   -0.319142
  11 C :   -0.191773
  12 N :    0.162512
  13 C :   -0.195166
  14 N :    0.169149
  15 C :   -0.019356
  16 C :   -0.023900
  17 C :    0.122226
  18 N :   -0.060280
  19 C :   -0.180616
  20 N :    0.000366
  21 C :    0.059745
  22 C :    0.190559
  23 N :   -0.252433
  24 C :    0.133130
  25 C :    0.001524
  26 C :    0.153190
  27 O :   -0.191748
  28 C :   -0.064987
  29 C :   -0.044312
  30 C :    0.144924
  31 O :   -0.151904
  32 N :   -0.261154
  33 C :    0.095703
  34 C :    0.002356
  35 C :    0.139281
  36 C :   -0.002587
  37 C :   -0.026604
  38 C :    0.145837
  39 O :   -0.183124
  40 C :    0.190269
  41 C :   -0.007359
  42 C :   -0.035945
  43 C :    0.024301
  44 O :   -0.113718
  45 C :    0.471843
  46 F :   -0.168413
  47 F :   -0.130460
  48 F :   -0.172905
  49 C :    0.002925
  50 C :    0.005771
  51 C :    0.026171
  52 C :   -0.125597
  53 C :    0.131251
  54 O :   -0.131701
  55 C :    0.092574
  56 C :   -0.172475
  57 S :    0.187166
  58 C :   -0.128205
  59 C :    0.005397
  60 C :    0.329622
  61 C :   -0.343979
  62 C :   -0.174769
  63 N :    0.128225
  64 C :   -0.176680
  65 N :    0.167065
  66 Cl:    0.000749
  67 H :    0.055774
  68 H :    0.043930
  69 H :    0.006147
  70 H :    0.017514
  71 H :    0.032521
  72 H :    0.033840
  73 H :    0.010521
  74 H :    0.015803
  75 H :    0.022344
  76 H :    0.038695
  77 H :    0.034867
  78 H :    0.024228
  79 H :    0.031236
  80 H :    0.003665
  81 H :   -0.006628
  82 H :    0.049705
  83 H :    0.013266
  84 H :    0.016090
  85 H :    0.025468
  86 H :    0.019611
  87 H :    0.055431
Sum of atomic charges:   -0.0000000

LOEWDIN ATOMIC CHARGES
----------------------
   0 C :   -0.059535
   1 C :   -0.147278
   2 S :    0.482710
   3 C :   -0.270211
   4 Cl:    0.196626
   5 C :   -0.118133
   6 C :    0.081815
   7 O :   -0.121496
   8 C :   -0.077703
   9 C :    0.072760
  10 C :   -0.129004
  11 C :   -0.015596
  12 N :   -0.044775
  13 C :   -0.024594
  14 N :   -0.038315
  15 C :    0.074701
  16 C :   -0.083791
  17 C :    0.085543
  18 N :   -0.068577
  19 C :    0.028876
  20 N :   -0.044583
  21 C :    0.070386
  22 C :    0.052682
  23 N :    0.011690
  24 C :    0.034916
  25 C :   -0.060327
  26 C :    0.077749
  27 O :   -0.184885
  28 C :   -0.115498
  29 C :   -0.090687
  30 C :    0.083097
  31 O :   -0.161359
  32 N :   -0.000505
  33 C :    0.035227
  34 C :   -0.062983
  35 C :    0.079764
  36 C :   -0.000892
  37 C :   -0.001522
  38 C :    0.097352
  39 O :    0.039468
  40 C :    0.023863
  41 C :   -0.009166
  42 C :   -0.113814
  43 C :    0.033891
  44 O :   -0.085754
  45 C :    0.141785
  46 F :   -0.062648
  47 F :   -0.031510
  48 F :   -0.064304
  49 C :    0.023876
  50 C :   -0.035708
  51 C :    0.071234
  52 C :   -0.096079
  53 C :    0.078654
  54 O :   -0.136425
  55 C :   -0.117633
  56 C :   -0.272582
  57 S :    0.475779
  58 C :   -0.150971
  59 C :   -0.058256
  60 C :    0.077418
  61 C :   -0.145239
  62 C :   -0.011384
  63 N :   -0.054455
  64 C :   -0.005039
  65 N :   -0.053277
  66 Cl:    0.192648
  67 H :    0.038712
  68 H :    0.050167
  69 H :    0.027584
  70 H :    0.032501
  71 H :    0.024298
  72 H :    0.031109
  73 H :    0.018450
  74 H :    0.028718
  75 H :    0.027565
  76 H :    0.036138
  77 H :    0.024477
  78 H :    0.030082
  79 H :    0.031138
  80 H :    0.017462
  81 H :    0.034085
  82 H :    0.047931
  83 H :    0.038226
  84 H :    0.046649
  85 H :    0.033950
  86 H :    0.045564
  87 H :    0.037181

  Mayer bond orders larger than 0.100000
B(  0-C ,  1-C ) :   1.5413 B(  0-C ,  5-C ) :   1.2203 B(  0-C ,  9-C ) :   1.0067
B(  1-C ,  2-S ) :   1.1654 B(  1-C , 67-H ) :   0.9541 B(  2-S ,  3-C ) :   1.1548
B(  3-C ,  4-Cl) :   1.1331 B(  3-C ,  5-C ) :   1.4737 B(  5-C ,  6-C ) :   0.9522
B(  6-C ,  7-O ) :   2.2431 B(  6-C ,  8-C ) :   0.9209 B(  8-C ,  9-C ) :   1.0402
B(  8-C , 15-C ) :   1.7294 B(  9-C , 10-C ) :   1.6772 B( 10-C , 11-C ) :   1.1406
B( 10-C , 13-C ) :   1.1361 B( 11-C , 12-N ) :   2.9934 B( 13-C , 14-N ) :   2.9833
B( 15-C , 16-C ) :   1.0356 B( 15-C , 68-H ) :   0.9441 B( 16-C , 17-C ) :   1.3087
B( 16-C , 21-C ) :   1.2902 B( 17-C , 18-N ) :   1.5685 B( 17-C , 69-H ) :   0.9822
B( 18-N , 19-C ) :   1.4929 B( 19-C , 20-N ) :   1.6322 B( 19-C , 22-C ) :   0.9842
B( 20-N , 21-C ) :   1.5860 B( 20-N , 22-C ) :  -0.1250 B( 21-C , 70-H ) :   0.9929
B( 22-C , 23-N ) :   1.2131 B( 22-C , 29-C ) :   1.3892 B( 23-N , 24-C ) :   0.9341
B( 23-N , 26-C ) :   1.0523 B( 24-C , 25-C ) :   1.1244 B( 24-C , 71-H ) :   0.9344
B( 24-C , 72-H ) :   0.9271 B( 25-C , 73-H ) :   0.9672 B( 25-C , 74-H ) :   0.9683
B( 25-C , 75-H ) :   0.9666 B( 26-C , 27-O ) :   2.0604 B( 26-C , 28-C ) :   0.9805
B( 28-C , 29-C ) :   1.2550 B( 28-C , 35-C ) :   1.3184 B( 29-C , 30-C ) :   0.9384
B( 30-C , 31-O ) :   2.1887 B( 30-C , 32-N ) :   1.0187 B( 32-N , 33-C ) :   0.9346
B( 32-N , 35-C ) :   1.1896 B( 33-C , 34-C ) :   1.1247 B( 33-C , 76-H ) :   0.9277
B( 33-C , 77-H ) :   0.9431 B( 34-C , 78-H ) :   0.9606 B( 34-C , 79-H ) :   0.9637
B( 34-C , 80-H ) :   0.9662 B( 35-C , 36-C ) :   1.1389 B( 36-C , 37-C ) :   1.5712
B( 36-C , 81-H ) :   0.9602 B( 37-C , 38-C ) :   1.1953 B( 37-C , 82-H ) :   0.9287
B( 38-C , 39-O ) :   1.2024 B( 38-C , 42-C ) :   1.3378 B( 39-O , 40-C ) :   1.1088
B( 40-C , 41-C ) :   1.4031 B( 40-C , 49-C ) :   1.1449 B( 41-C , 42-C ) :   1.2441
B( 41-C , 83-H ) :   0.9954 B( 42-C , 43-C ) :   0.9530 B( 43-C , 44-O ) :   2.2089
B( 43-C , 45-C ) :   0.8803 B( 45-C , 46-F ) :   1.1333 B( 45-C , 47-F ) :   1.1959
B( 45-C , 48-F ) :   1.1134 B( 49-C , 50-C ) :   1.5975 B( 49-C , 84-H ) :   0.9784
B( 50-C , 51-C ) :   1.1399 B( 50-C , 85-H ) :   0.9646 B( 51-C , 52-C ) :   1.5905
B( 51-C , 86-H ) :   0.9534 B( 52-C , 53-C ) :   0.9402 B( 52-C , 60-C ) :   1.0503
B( 53-C , 54-O ) :   2.2656 B( 53-C , 55-C ) :   0.9320 B( 55-C , 56-C ) :   1.4846
B( 55-C , 59-C ) :   1.2228 B( 56-C , 57-S ) :   1.1464 B( 56-C , 66-Cl) :   1.1295
B( 57-S , 58-C ) :   1.1639 B( 58-C , 59-C ) :   1.5437 B( 58-C , 87-H ) :   0.9531
B( 59-C , 60-C ) :   1.0080 B( 60-C , 61-C ) :   1.6069 B( 61-C , 62-C ) :   1.1466
B( 61-C , 64-C ) :   1.1773 B( 62-C , 63-N ) :   2.9165 B( 64-C , 65-N ) :   2.8887

-----------------------------------------------------------------------------
         ABSORPTION SPECTRUM VIA TRANSITION ELECTRIC DIPOLE MOMENTS
-----------------------------------------------------------------------------
State   Energy  Wavelength   fosc         T2         TX        TY        TZ
        (cm-1)    (nm)                  (au**2)     (au)      (au)      (au)
-----------------------------------------------------------------------------
   0   12262.6    815.5   0.764495090  20.52430  -3.82870   2.38231   0.43580
   1   16683.7    599.4   0.180416042   3.56007  -0.30459  -1.85211  -0.19231
   2   19584.2    510.6   0.018916969   0.31800  -0.52447  -0.20472   0.03190
   3   20896.7    478.5   0.263698582   4.15438  -1.97965  -0.47921   0.07562
   4   23260.9    429.9   0.009285935   0.13142   0.03558   0.36011  -0.02191
   5   24228.7    412.7   0.012541957   0.17042  -0.22043   0.34887  -0.01065
   6   25903.3    386.1   0.024118294   0.30653  -0.44913  -0.15223   0.28571
   7   26061.8    383.7   0.145071238   1.83253   0.00007   1.35302  -0.04326
   8   26252.1    380.9   0.036049129   0.45207  -0.40325  -0.49120   0.21950
   9   26543.0    376.7   0.245736970   3.04787   0.05940  -1.70876   0.35281
  10   27429.9    364.6   0.040693072   0.48840   0.00627  -0.65543   0.24243
  11   28023.8    356.8   0.208255217   2.44650   1.55509  -0.11951   0.11790
  12   28287.7    353.5   0.047119318   0.54837  -0.14616   0.67191  -0.27487
  13   28593.6    349.7   0.011987973   0.13802   0.31797  -0.14294   0.12841
  14   28782.6    347.4   0.020268635   0.23183  -0.19399  -0.41696   0.14262
  15   29390.9    340.2   0.032287124   0.36165  -0.20258   0.20738  -0.52689
  16   31290.9    319.6   0.070847152   0.74538  -0.05151  -0.85611   0.09901
  17   31526.7    317.2   0.065599133   0.68501   0.38245  -0.71681   0.15787
  18   31891.0    313.6   0.398656672   4.11535   0.80425  -1.83781   0.30161
  19   31993.2    312.6   0.005853084   0.06023   0.09007   0.22779  -0.01502
  20   32173.0    310.8   0.014635906   0.14976   0.16480  -0.32794  -0.12272
  21   32447.6    308.2   0.145817877   1.47946  -0.57559   1.07142  -0.01473
  22   32785.4    305.0   0.070972182   0.71266   0.67681  -0.50102   0.05976
  23   33530.8    298.2   0.027262643   0.26767   0.16155  -0.45994  -0.17328
  24   33671.9    297.0   0.019893649   0.19450  -0.26170  -0.35436  -0.02106
  25   33864.8    295.3   0.003971979   0.03861  -0.16504  -0.10636  -0.00801
  26   34051.5    293.7   0.032961919   0.31868   0.19332  -0.51865  -0.11092
  27   34196.6    292.4   0.070450419   0.67823   0.25551   0.59645   0.50715
  28   34482.0    290.0   0.084862244   0.81021  -0.12919   0.72223   0.52144
  29   35037.8    285.4   0.218322627   2.05134  -0.95500  -0.87674  -0.60880
  30   35185.9    284.2   0.678750770   6.35064  -2.12157  -1.33293   0.26995
  31   35683.4    280.2   0.055747982   0.51433  -0.61131   0.24271   0.28586
  32   35798.0    279.3   0.132658694   1.21998  -0.70325   0.84407  -0.11385
  33   36498.2    274.0   0.014529204   0.13105   0.17479  -0.12177   0.29270
  34   36898.2    271.0   0.153645905   1.37085   0.49033  -0.67555  -0.82101
  35   37237.0    268.6   0.469772791   4.15326   0.17072  -0.18921   2.02196
  36   37782.4    264.7   0.062624365   0.54567   0.17270   0.06024  -0.71569
  37   38105.2    262.4   0.376212908   3.25031  -1.49320   0.13835  -1.00076
  38   38295.2    261.1   0.083385481   0.71684   0.79470   0.21223  -0.20062
  39   38725.0    258.2   0.035913144   0.30531  -0.28847  -0.06211  -0.46716
  40   38882.0    257.2   0.026175353   0.22163  -0.27613  -0.35854   0.12972
  41   39057.5    256.0   0.006091542   0.05135   0.14715  -0.08101   0.15208
  42   39133.6    255.5   0.004878823   0.04104   0.10238   0.08143  -0.15470
  43   39339.8    254.2   0.025767910   0.21564  -0.45637   0.07891   0.03365
  44   39679.6    252.0   0.001411173   0.01171  -0.04239   0.05442  -0.08336
  45   39917.5    250.5   0.034717212   0.28632   0.28592  -0.42462   0.15579
  46   40074.2    249.5   0.008748326   0.07187  -0.10398   0.24119  -0.05367
  47   40164.8    249.0   0.024248309   0.19875  -0.40814   0.11884  -0.13435

FINAL SINGLE POINT ENERGY     -4666.982585798447

DIPOLE MOMENT
-------------
                                X             Y             Z
Electronic contribution:     19.04071     -10.57915      19.83613
Nuclear contribution   :    -17.43677      10.57063     -17.85142
                        -----------------------------------------
Total Dipole Moment    :      1.60394      -0.00853       1.98471
                        -----------------------------------------
Magnitude (a.u.)       :      2.55182
Magnitude (Debye)      :      6.48620

Rotational constants in cm-1:     0.001243     0.000319     0.000273
Rotational constants in MHz :    37.271185     9.557787     8.170677

                             ****ORCA TERMINATED NORMALLY****
TOTAL RUN TIME: 0 days 0 hours 8 minutes 8 seconds 356 msec
