                         Program Version 4.2.0 -  RELEASE  -
|  1> # ORCA input file
|  2> # SCF done       -156.583447902766          0.000858511063
|  3> ! CAM-B3LYP def2-SVP def2/J RIJCOSX Grid4 TightSCF
|  4> %maxcore 5000
|  5> %tddft
|  6>     Mode sTDDFT
|  7>     Ethresh 5.0
|  8>     maxcore 5000
|  9> end
| 10>
| 11> %pal
| 12>   nprocs 6
| 13>   end
| 14> * xyz 0 1
| 15>    C        1.33541       -10.18257         0.66692
| 16>    C        0.82874       -11.39890         0.32469
| 17>    S       -0.84256       -11.51638         0.73359
| 18>    C       -0.86239        -9.89569         1.38933
| 19>   Cl       -2.27394        -9.22374         2.04093
| 20>    C        0.36678        -9.31950         1.27451
| 21>    C        0.99071        -8.04275         1.63730
| 22>    O        0.51456        -7.14738         2.29399
| 23>    C        2.39628        -8.15097         1.12598
| 24>    C        2.60638        -9.49234         0.59098
| 25>    C        3.75432       -10.02591         0.07308
| 26>    C        3.78883       -11.34373        -0.43239
| 27>    N        3.83409       -12.41225        -0.84676
| 28>    C        5.00017        -9.37262        -0.01485
| 29>    N        6.04049        -8.89761        -0.11353
| 30>    C        3.32242        -7.17039         1.23401
| 31>    C        3.03014        -5.80753         1.60551
| 32>    C        1.91244        -5.12146         1.06864
| 33>    N        1.06121        -5.55425         0.13969
| 34>    S       -0.02529        -4.41043        -0.14247
| 35>    N        0.53558        -3.29553         0.86809
| 36>    C        1.61175        -3.78055         1.48433
| 37>    C        2.42632        -3.12252         2.43524
| 38>    C        3.54214        -3.80337         2.89625
| 39>    C        3.84436        -5.09759         2.47416
| 40>    C        2.10603        -1.80683         2.90583
| 41>    S        0.76444        -0.86916         2.28400
| 42>    C        1.26833         0.35751         3.44206
| 43>    N        2.30709        -0.00760         4.13835
| 44>    N        2.76838        -1.19005         3.84171
| 45>    C        0.61816         1.61319         3.62995
| 46>    C       -0.39122         2.06487         2.86630
| 47>    C       -1.06964         3.32981         3.04044
| 48>    C       -1.85534         3.83499         2.00661
| 49>    C       -2.50324         5.05507         2.12337
| 50>    N       -3.23271         5.49988         0.96584
| 51>    O       -3.61376         4.65167         0.18938
| 52>    O       -3.42478         6.69257         0.81907
| 53>    C       -2.42249         5.82120         3.30278
| 54>    C       -1.65437         5.28187         4.34301
| 55>    C       -0.98825         4.08605         4.21819
| 56>    C       -3.11335         7.08117         3.45796
| 57>    C       -2.73787         8.06352         4.29652
| 58>    C       -3.43529         9.31086         4.40298
| 59>    C       -3.99903        10.04260         3.41555
| 60>    C       -4.97205        11.12517         3.78535
| 61>    O       -5.16616        11.55911         4.89477
| 62>    C       -5.63528        11.46528         2.52449
| 63>    C       -6.66040        12.26628         2.11523
| 64>    S       -6.88804        12.13435         0.38851
| 65>    C       -5.58904        11.00733         0.23741
| 66>    C       -5.02191        10.74698         1.44497
| 67>    C       -3.91833         9.95699         1.96084
| 68>    C       -2.91221         9.45187         1.18808
| 69>    C       -2.94202         9.56313        -0.21980
| 70>    N       -2.94389         9.66547        -1.36165
| 71>    C       -1.73192         8.84854         1.66345
| 72>    N       -0.73125         8.39151         1.99063
| 73>   Cl       -7.63491        13.28008         3.05977
| 74>    H        1.31673       -12.23445        -0.13666
| 75>    H        4.36407        -7.39253         1.03814
| 76>    H        4.17944        -3.30573         3.61004
| 77>    H        4.71761        -5.58626         2.88040
| 78>    H        1.02646         2.19767         4.44159
| 79>    H       -0.72692         1.46187         2.03176
| 80>    H       -1.95002         3.29202         1.07722
| 81>    H       -1.60309         5.81502         5.27891
| 82>    H       -0.41306         3.71521         5.05164
| 83>    H       -3.98086         7.25066         2.83488
| 84>    H       -1.89686         7.93162         4.96369
| 85>    H       -3.56305         9.71025         5.40540
| 86>    H       -5.34420        10.61032        -0.72751
| 87> *
| 88>
| 89>                          ****END OF INPUT****

CARTESIAN COORDINATES (ANGSTROEM)
---------------------------------
  C      1.335410  -10.182570    0.666920
  C      0.828740  -11.398900    0.324690
  S     -0.842560  -11.516380    0.733590
  C     -0.862390   -9.895690    1.389330
  Cl    -2.273940   -9.223740    2.040930
  C      0.366780   -9.319500    1.274510
  C      0.990710   -8.042750    1.637300
  O      0.514560   -7.147380    2.293990
  C      2.396280   -8.150970    1.125980
  C      2.606380   -9.492340    0.590980
  C      3.754320  -10.025910    0.073080
  C      3.788830  -11.343730   -0.432390
  N      3.834090  -12.412250   -0.846760
  C      5.000170   -9.372620   -0.014850
  N      6.040490   -8.897610   -0.113530
  C      3.322420   -7.170390    1.234010
  C      3.030140   -5.807530    1.605510
  C      1.912440   -5.121460    1.068640
  N      1.061210   -5.554250    0.139690
  S     -0.025290   -4.410430   -0.142470
  N      0.535580   -3.295530    0.868090
  C      1.611750   -3.780550    1.484330
  C      2.426320   -3.122520    2.435240
  C      3.542140   -3.803370    2.896250
  C      3.844360   -5.097590    2.474160
  C      2.106030   -1.806830    2.905830
  S      0.764440   -0.869160    2.284000
  C      1.268330    0.357510    3.442060
  N      2.307090   -0.007600    4.138350
  N      2.768380   -1.190050    3.841710
  C      0.618160    1.613190    3.629950
  C     -0.391220    2.064870    2.866300
  C     -1.069640    3.329810    3.040440
  C     -1.855340    3.834990    2.006610
  C     -2.503240    5.055070    2.123370
  N     -3.232710    5.499880    0.965840
  O     -3.613760    4.651670    0.189380
  O     -3.424780    6.692570    0.819070
  C     -2.422490    5.821200    3.302780
  C     -1.654370    5.281870    4.343010
  C     -0.988250    4.086050    4.218190
  C     -3.113350    7.081170    3.457960
  C     -2.737870    8.063520    4.296520
  C     -3.435290    9.310860    4.402980
  C     -3.999030   10.042600    3.415550
  C     -4.972050   11.125170    3.785350
  O     -5.166160   11.559110    4.894770
  C     -5.635280   11.465280    2.524490
  C     -6.660400   12.266280    2.115230
  S     -6.888040   12.134350    0.388510
  C     -5.589040   11.007330    0.237410
  C     -5.021910   10.746980    1.444970
  C     -3.918330    9.956990    1.960840
  C     -2.912210    9.451870    1.188080
  C     -2.942020    9.563130   -0.219800
  N     -2.943890    9.665470   -1.361650
  C     -1.731920    8.848540    1.663450
  N     -0.731250    8.391510    1.990630
  Cl    -7.634910   13.280080    3.059770
  H      1.316730  -12.234450   -0.136660
  H      4.364070   -7.392530    1.038140
  H      4.179440   -3.305730    3.610040
  H      4.717610   -5.586260    2.880400
  H      1.026460    2.197670    4.441590
  H     -0.726920    1.461870    2.031760
  H     -1.950020    3.292020    1.077220
  H     -1.603090    5.815020    5.278910
  H     -0.413060    3.715210    5.051640
  H     -3.980860    7.250660    2.834880
  H     -1.896860    7.931620    4.963690
  H     -3.563050    9.710250    5.405400
  H     -5.344200   10.610320   -0.727510

 Total Charge           Charge          ....    0
 Multiplicity           Mult            ....    1
 Number of Electrons    NEL             ....  446
 Basis Dimension        Dim             ....  915

ORBITAL ENERGIES
----------------

  NO   OCC          E(Eh)            E(eV)
   0   2.0000    -101.621491     -2765.2613
   1   2.0000    -101.615876     -2765.1086
   2   2.0000     -89.037838     -2422.8427
   3   2.0000     -88.998232     -2421.7650
   4   2.0000     -88.990890     -2421.5652
   5   2.0000     -88.974905     -2421.1303
   6   2.0000     -19.257245      -524.0163
   7   2.0000     -19.255891      -523.9794
   8   2.0000     -19.224433      -523.1234
   9   2.0000     -19.218902      -522.9729
  10   2.0000     -14.661850      -398.9692
  11   2.0000     -14.452287      -393.2667
  12   2.0000     -14.449678      -393.1957
  13   2.0000     -14.440271      -392.9398
  14   2.0000     -14.437487      -392.8640
  15   2.0000     -14.427336      -392.5878
  16   2.0000     -14.425466      -392.5369
  17   2.0000     -14.414789      -392.2463
  18   2.0000     -14.414525      -392.2392
  19   2.0000     -10.381351      -282.4909
  20   2.0000     -10.380011      -282.4545
  21   2.0000     -10.374832      -282.3135
  22   2.0000     -10.374385      -282.3014
  23   2.0000     -10.354813      -281.7688
  24   2.0000     -10.354216      -281.7526
  25   2.0000     -10.347557      -281.5713
  26   2.0000     -10.345509      -281.5156
  27   2.0000     -10.344362      -281.4844
  28   2.0000     -10.343402      -281.4583
  29   2.0000     -10.340402      -281.3766
  30   2.0000     -10.337259      -281.2911
  31   2.0000     -10.336229      -281.2631
  32   2.0000     -10.334338      -281.2116
  33   2.0000     -10.329131      -281.0699
  34   2.0000     -10.327334      -281.0210
  35   2.0000     -10.327276      -281.0195
  36   2.0000     -10.325350      -280.9671
  37   2.0000     -10.323034      -280.9040
  38   2.0000     -10.318717      -280.7866
  39   2.0000     -10.317891      -280.7641
  40   2.0000     -10.317464      -280.7525
  41   2.0000     -10.317370      -280.7499
  42   2.0000     -10.316248      -280.7194
  43   2.0000     -10.315270      -280.6928
  44   2.0000     -10.314042      -280.6594
  45   2.0000     -10.310715      -280.5688
  46   2.0000     -10.310075      -280.5514
  47   2.0000     -10.308148      -280.4990
  48   2.0000     -10.307592      -280.4838
  49   2.0000     -10.306049      -280.4419
  50   2.0000     -10.304973      -280.4126
  51   2.0000     -10.304910      -280.4109
  52   2.0000     -10.303897      -280.3833
  53   2.0000     -10.303322      -280.3676
  54   2.0000     -10.303202      -280.3644
  55   2.0000     -10.302597      -280.3479
  56   2.0000     -10.301340      -280.3137
  57   2.0000     -10.301145      -280.3084
  58   2.0000     -10.298274      -280.2303
  59   2.0000      -9.576302      -260.5844
  60   2.0000      -9.570624      -260.4299
  61   2.0000      -8.129463      -221.2139
  62   2.0000      -8.093965      -220.2480
  63   2.0000      -8.086606      -220.0477
  64   2.0000      -8.070145      -219.5998
  65   2.0000      -7.346917      -199.9198
  66   2.0000      -7.341215      -199.7646
  67   2.0000      -7.336346      -199.6321
  68   2.0000      -7.335808      -199.6175
  69   2.0000      -7.330699      -199.4785
  70   2.0000      -7.330160      -199.4638
  71   2.0000      -6.100628      -166.0065
  72   2.0000      -6.092889      -165.7959
  73   2.0000      -6.091947      -165.7703
  74   2.0000      -6.063321      -164.9914
  75   2.0000      -6.058726      -164.8663
  76   2.0000      -6.056238      -164.7986
  77   2.0000      -6.055976      -164.7915
  78   2.0000      -6.051386      -164.6666
  79   2.0000      -6.048873      -164.5982
  80   2.0000      -6.038977      -164.3289
  81   2.0000      -6.035338      -164.2299
  82   2.0000      -6.032489      -164.1524
  83   2.0000      -1.336983       -36.3811
  84   2.0000      -1.155086       -31.4315
  85   2.0000      -1.144500       -31.1434
  86   2.0000      -1.143271       -31.1100
  87   2.0000      -1.136245       -30.9188
  88   2.0000      -1.135835       -30.9076
  89   2.0000      -1.042661       -28.3722
  90   2.0000      -1.035600       -28.1801
  91   2.0000      -1.023279       -27.8448
  92   2.0000      -1.013004       -27.5652
  93   2.0000      -1.004840       -27.3431
  94   2.0000      -1.002143       -27.2697
  95   2.0000      -0.996654       -27.1203
  96   2.0000      -0.993209       -27.0266
  97   2.0000      -0.993121       -27.0242
  98   2.0000      -0.985407       -26.8143
  99   2.0000      -0.984754       -26.7965
 100   2.0000      -0.958837       -26.0913
 101   2.0000      -0.954325       -25.9685
 102   2.0000      -0.948974       -25.8229
 103   2.0000      -0.932805       -25.3829
 104   2.0000      -0.925505       -25.1843
 105   2.0000      -0.916544       -24.9404
 106   2.0000      -0.912132       -24.8204
 107   2.0000      -0.903913       -24.5967
 108   2.0000      -0.894587       -24.3430
 109   2.0000      -0.891405       -24.2564
 110   2.0000      -0.874529       -23.7971
 111   2.0000      -0.862805       -23.4781
 112   2.0000      -0.848879       -23.0992
 113   2.0000      -0.837294       -22.7839
 114   2.0000      -0.834892       -22.7186
 115   2.0000      -0.829533       -22.5728
 116   2.0000      -0.805315       -21.9137
 117   2.0000      -0.796328       -21.6692
 118   2.0000      -0.780843       -21.2478
 119   2.0000      -0.761307       -20.7162
 120   2.0000      -0.759303       -20.6617
 121   2.0000      -0.753228       -20.4964
 122   2.0000      -0.746101       -20.3025
 123   2.0000      -0.732221       -19.9248
 124   2.0000      -0.727448       -19.7949
 125   2.0000      -0.715723       -19.4758
 126   2.0000      -0.701474       -19.0881
 127   2.0000      -0.698424       -19.0051
 128   2.0000      -0.686558       -18.6822
 129   2.0000      -0.682648       -18.5758
 130   2.0000      -0.681398       -18.5418
 131   2.0000      -0.673147       -18.3173
 132   2.0000      -0.669554       -18.2195
 133   2.0000      -0.662660       -18.0319
 134   2.0000      -0.649357       -17.6699
 135   2.0000      -0.638415       -17.3722
 136   2.0000      -0.633608       -17.2414
 137   2.0000      -0.628832       -17.1114
 138   2.0000      -0.624053       -16.9813
 139   2.0000      -0.620580       -16.8868
 140   2.0000      -0.614740       -16.7279
 141   2.0000      -0.610864       -16.6224
 142   2.0000      -0.609766       -16.5926
 143   2.0000      -0.607638       -16.5347
 144   2.0000      -0.601612       -16.3707
 145   2.0000      -0.599171       -16.3043
 146   2.0000      -0.590967       -16.0810
 147   2.0000      -0.580272       -15.7900
 148   2.0000      -0.575326       -15.6554
 149   2.0000      -0.568801       -15.4779
 150   2.0000      -0.564599       -15.3635
 151   2.0000      -0.553900       -15.0724
 152   2.0000      -0.551626       -15.0105
 153   2.0000      -0.548307       -14.9202
 154   2.0000      -0.545389       -14.8408
 155   2.0000      -0.544228       -14.8092
 156   2.0000      -0.542326       -14.7575
 157   2.0000      -0.541797       -14.7430
 158   2.0000      -0.535780       -14.5793
 159   2.0000      -0.533617       -14.5205
 160   2.0000      -0.530168       -14.4266
 161   2.0000      -0.527941       -14.3660
 162   2.0000      -0.522231       -14.2106
 163   2.0000      -0.518924       -14.1206
 164   2.0000      -0.515652       -14.0316
 165   2.0000      -0.510732       -13.8977
 166   2.0000      -0.501394       -13.6436
 167   2.0000      -0.499885       -13.6026
 168   2.0000      -0.498532       -13.5657
 169   2.0000      -0.496135       -13.5005
 170   2.0000      -0.494254       -13.4493
 171   2.0000      -0.493199       -13.4206
 172   2.0000      -0.488952       -13.3051
 173   2.0000      -0.487239       -13.2584
 174   2.0000      -0.483550       -13.1581
 175   2.0000      -0.478968       -13.0334
 176   2.0000      -0.476759       -12.9733
 177   2.0000      -0.472112       -12.8468
 178   2.0000      -0.464832       -12.6487
 179   2.0000      -0.463642       -12.6163
 180   2.0000      -0.460483       -12.5304
 181   2.0000      -0.458750       -12.4832
 182   2.0000      -0.453714       -12.3462
 183   2.0000      -0.453002       -12.3268
 184   2.0000      -0.451626       -12.2894
 185   2.0000      -0.450379       -12.2554
 186   2.0000      -0.450195       -12.2504
 187   2.0000      -0.447967       -12.1898
 188   2.0000      -0.442358       -12.0372
 189   2.0000      -0.441357       -12.0099
 190   2.0000      -0.439345       -11.9552
 191   2.0000      -0.438030       -11.9194
 192   2.0000      -0.436040       -11.8653
 193   2.0000      -0.429976       -11.7002
 194   2.0000      -0.423720       -11.5300
 195   2.0000      -0.422163       -11.4876
 196   2.0000      -0.418477       -11.3874
 197   2.0000      -0.411781       -11.2051
 198   2.0000      -0.409885       -11.1535
 199   2.0000      -0.408370       -11.1123
 200   2.0000      -0.407293       -11.0830
 201   2.0000      -0.401681       -10.9303
 202   2.0000      -0.399450       -10.8696
 203   2.0000      -0.398560       -10.8454
 204   2.0000      -0.394118       -10.7245
 205   2.0000      -0.388594       -10.5742
 206   2.0000      -0.380989       -10.3672
 207   2.0000      -0.375392       -10.2149
 208   2.0000      -0.372152       -10.1268
 209   2.0000      -0.368409       -10.0249
 210   2.0000      -0.360903        -9.8207
 211   2.0000      -0.356234        -9.6936
 212   2.0000      -0.352835        -9.6011
 213   2.0000      -0.342927        -9.3315
 214   2.0000      -0.340668        -9.2700
 215   2.0000      -0.338221        -9.2035
 216   2.0000      -0.334592        -9.1047
 217   2.0000      -0.329086        -8.9549
 218   2.0000      -0.325968        -8.8700
 219   2.0000      -0.317718        -8.6455
 220   2.0000      -0.310307        -8.4439
 221   2.0000      -0.298872        -8.1327
 222   2.0000      -0.277247        -7.5443
 223   0.0000      -0.109793        -2.9876
 224   0.0000      -0.093593        -2.5468
 225   0.0000      -0.074110        -2.0166
 226   0.0000      -0.061745        -1.6802
 227   0.0000      -0.051432        -1.3995

MULLIKEN ATOMIC CHARGES
-----------------------
   0 C :    0.030065
   1 C :   -0.130152
   2 S :    0.190819
   3 C :   -0.174205
   4 Cl:   -0.001457
   5 C :    0.079816
   6 C :    0.156111
   7 O :   -0.131422
   8 C :   -0.066926
   9 C :    0.292208
  10 C :   -0.330575
  11 C :   -0.194613
  12 N :    0.162452
  13 C :   -0.180754
  14 N :    0.159367
  15 C :   -0.054243
  16 C :    0.064522
  17 C :    0.055608
  18 N :   -0.270588
  19 S :    0.532538
  20 N :   -0.302577
  21 C :    0.021949
  22 C :    0.121382
  23 C :   -0.025099
  24 C :   -0.001839
  25 C :   -0.147059
  26 S :    0.132229
  27 C :   -0.068884
  28 N :   -0.048544
  29 N :   -0.040975
  30 C :    0.055950
  31 C :   -0.004705
  32 C :    0.111908
  33 C :   -0.065931
  34 C :    0.144847
  35 N :    0.261013
  36 O :   -0.220981
  37 O :   -0.246192
  38 C :    0.071496
  39 C :   -0.025946
  40 C :    0.025131
  41 C :    0.014914
  42 C :    0.001413
  43 C :    0.023680
  44 C :   -0.124457
  45 C :    0.125782
  46 O :   -0.128046
  47 C :    0.091153
  48 C :   -0.172007
  49 S :    0.183698
  50 C :   -0.125659
  51 C :    0.011393
  52 C :    0.268510
  53 C :   -0.297682
  54 C :   -0.184738
  55 N :    0.157098
  56 C :   -0.183126
  57 N :    0.164414
  58 Cl:   -0.001313
  59 H :    0.055625
  60 H :    0.035938
  61 H :    0.013716
  62 H :   -0.002390
  63 H :    0.011872
  64 H :    0.001176
  65 H :    0.004646
  66 H :   -0.013190
  67 H :   -0.007615
  68 H :    0.028323
  69 H :    0.021651
  70 H :    0.034385
  71 H :    0.055095
Sum of atomic charges:    0.0000000

LOEWDIN ATOMIC CHARGES
----------------------
   0 C :   -0.059504
   1 C :   -0.148328
   2 S :    0.479280
   3 C :   -0.273447
   4 Cl:    0.190835
   5 C :   -0.114013
   6 C :    0.083411
   7 O :   -0.128297
   8 C :   -0.066736
   9 C :    0.075521
  10 C :   -0.130488
  11 C :   -0.015229
  12 N :   -0.046901
  13 C :   -0.021689
  14 N :   -0.042231
  15 C :    0.076462
  16 C :   -0.029328
  17 C :   -0.033834
  18 N :   -0.275932
  19 S :    0.664476
  20 N :   -0.301801
  21 C :   -0.046657
  22 C :   -0.041173
  23 C :    0.018725
  24 C :    0.013686
  25 C :   -0.143840
  26 S :    0.429705
  27 C :   -0.153143
  28 N :   -0.075875
  29 N :   -0.072827
  30 C :   -0.030067
  31 C :   -0.008014
  32 C :   -0.020748
  33 C :    0.012877
  34 C :   -0.021571
  35 N :    0.291848
  36 O :   -0.187338
  37 O :   -0.194143
  38 C :    0.000246
  39 C :    0.002945
  40 C :    0.017938
  41 C :    0.014549
  42 C :   -0.017502
  43 C :    0.063077
  44 C :   -0.076060
  45 C :    0.080711
  46 O :   -0.132492
  47 C :   -0.120464
  48 C :   -0.273232
  49 S :    0.474450
  50 C :   -0.151574
  51 C :   -0.055449
  52 C :    0.059575
  53 C :   -0.116789
  54 C :   -0.011878
  55 N :   -0.047630
  56 C :   -0.015259
  57 N :   -0.050498
  58 Cl:    0.190586
  59 H :    0.038193
  60 H :    0.049053
  61 H :    0.044629
  62 H :    0.039982
  63 H :    0.042557
  64 H :    0.028304
  65 H :    0.041443
  66 H :    0.035259
  67 H :    0.035661
  68 H :    0.031817
  69 H :    0.037418
  70 H :    0.048408
  71 H :    0.038353

  Mayer bond orders larger than 0.100000
B(  0-C ,  1-C ) :   1.5391 B(  0-C ,  5-C ) :   1.2238 B(  0-C ,  9-C ) :   1.0046
B(  1-C ,  2-S ) :   1.1683 B(  1-C , 59-H ) :   0.9528 B(  2-S ,  3-C ) :   1.1503
B(  3-C ,  4-Cl) :   1.1275 B(  3-C ,  5-C ) :   1.4783 B(  5-C ,  6-C ) :   0.9507
B(  6-C ,  7-O ) :   2.2453 B(  6-C ,  8-C ) :   0.9181 B(  8-C ,  9-C ) :   1.0577
B(  8-C , 15-C ) :   1.7239 B(  9-C , 10-C ) :   1.6660 B( 10-C , 11-C ) :   1.1452
B( 10-C , 13-C ) :   1.1372 B( 11-C , 12-N ) :   2.9924 B( 13-C , 14-N ) :   2.9694
B( 15-C , 16-C ) :   1.0434 B( 15-C , 60-H ) :   0.9389 B( 16-C , 17-C ) :   1.1976
B( 16-C , 22-C ) :   0.1101 B( 16-C , 24-C ) :   1.4449 B( 17-C , 18-N ) :   1.5220
B( 17-C , 21-C ) :   1.1850 B( 18-N , 19-S ) :   1.2839 B( 18-N , 20-N ) :   0.1481
B( 19-S , 20-N ) :   1.2640 B( 20-N , 21-C ) :   1.5068 B( 21-C , 22-C ) :   1.1765
B( 22-C , 23-C ) :   1.4945 B( 22-C , 25-C ) :   1.0557 B( 23-C , 24-C ) :   1.1852
B( 23-C , 61-H ) :   1.0019 B( 24-C , 62-H ) :   1.0019 B( 25-C , 26-S ) :   1.1230
B( 25-C , 29-N ) :   1.7317 B( 26-S , 27-C ) :   1.0772 B( 27-C , 28-N ) :   1.6618
B( 27-C , 30-C ) :   1.1130 B( 28-N , 29-N ) :   1.2264 B( 30-C , 31-C ) :   1.6861
B( 30-C , 63-H ) :   0.9732 B( 31-C , 32-C ) :   1.0674 B( 31-C , 64-H ) :   0.9818
B( 32-C , 33-C ) :   1.2997 B( 32-C , 40-C ) :   1.3178 B( 33-C , 34-C ) :   1.3660
B( 33-C , 65-H ) :   1.0002 B( 34-C , 35-N ) :   0.8841 B( 34-C , 38-C ) :   1.3524
B( 35-N , 36-O ) :   1.5709 B( 35-N , 37-O ) :   1.4873 B( 36-O , 37-O ) :   0.2590
B( 38-C , 39-C ) :   1.3376 B( 38-C , 41-C ) :   1.0833 B( 39-C , 40-C ) :   1.4160
B( 39-C , 66-H ) :   0.9885 B( 40-C , 67-H ) :   0.9902 B( 41-C , 42-C ) :   1.7603
B( 41-C , 68-H ) :   0.9496 B( 42-C , 43-C ) :   1.0705 B( 42-C , 69-H ) :   0.9457
B( 43-C , 44-C ) :   1.7660 B( 43-C , 70-H ) :   0.9258 B( 44-C , 45-C ) :   0.9315
B( 44-C , 52-C ) :   1.0118 B( 45-C , 46-O ) :   2.2814 B( 45-C , 47-C ) :   0.9277
B( 47-C , 48-C ) :   1.4757 B( 47-C , 51-C ) :   1.2212 B( 48-C , 49-S ) :   1.1555
B( 48-C , 58-Cl) :   1.1272 B( 49-S , 50-C ) :   1.1556 B( 50-C , 51-C ) :   1.5583
B( 50-C , 71-H ) :   0.9545 B( 51-C , 52-C ) :   1.0058 B( 52-C , 53-C ) :   1.7080
B( 53-C , 54-C ) :   1.1272 B( 53-C , 56-C ) :   1.1573 B( 54-C , 55-N ) :   3.0044
B( 56-C , 57-N ) :   2.9832

-----------------------------------------------------------------------------
         ABSORPTION SPECTRUM VIA TRANSITION ELECTRIC DIPOLE MOMENTS
-----------------------------------------------------------------------------
State   Energy  Wavelength   fosc         T2         TX        TY        TZ
        (cm-1)    (nm)                  (au**2)     (au)      (au)      (au)
-----------------------------------------------------------------------------
   0   21228.9    471.1   1.428134843  22.14712  -1.10959   4.51305   0.74048
   1   24298.7    411.5   0.214279375   2.90317  -0.60744   1.49686  -0.54184
   2   26722.8    374.2   0.029982544   0.36937   0.16693  -0.49506  -0.31052
   3   26883.5    372.0   0.011204627   0.13721  -0.02316   0.34895   0.12210
   4   28148.8    355.3   0.006752545   0.07897  -0.25363  -0.05185   0.10934
   5   28498.8    350.9   0.060630222   0.70039   0.70620  -0.44604   0.05204
   6   28775.7    347.5   0.036851170   0.42160   0.63650  -0.08945  -0.09200
   7   29678.2    336.9   0.085842394   0.95222  -0.16713   0.34615   0.89692
   8   30080.2    332.4   0.024931488   0.27286   0.11129  -0.51037   0.00130
   9   30381.1    329.2   0.062179276   0.67378   0.18245   0.72935   0.32946
  10   31457.0    317.9   0.053498731   0.55989  -0.19872   0.65618   0.29970
  11   32130.9    311.2   0.145814620   1.49401   1.21415  -0.06055  -0.12723
  12   32463.2    308.0   0.079277802   0.80396   0.86752   0.07832  -0.21268
  13   32899.5    304.0   0.208324687   2.08462  -0.52251   1.34593  -0.00947
  14   33557.1    298.0   0.041223045   0.40442  -0.19603  -0.21014  -0.56730
  15   34280.3    291.7   0.613027560   5.88723   1.34795  -1.94193   0.54697
  16   34487.1    290.0   0.105543567   1.00751  -0.70652   0.71274   0.01846
  17   35185.9    284.2   0.044111479   0.41272  -0.49033   0.39351   0.13208
  18   35389.1    282.6   0.037164374   0.34573   0.43737  -0.39253   0.01879
  19   35412.2    282.4   0.030019617   0.27908  -0.50006   0.15664   0.06694
  20   35631.9    280.6   0.040361946   0.37291   0.30809  -0.15087  -0.50520
  21   35863.8    278.8   0.012921688   0.11861  -0.28731  -0.17555  -0.07247
  22   36403.6    274.7   0.159226058   1.43994  -1.03134   0.59880  -0.13314
  23   36561.1    273.5   0.103770810   0.93440   0.86302   0.13968  -0.41240
  24   36900.2    271.0   0.130597073   1.16514   1.07925   0.01862  -0.00271
  25   37295.2    268.1   0.225624524   1.99163  -0.86562   1.01183   0.46747
  26   37936.8    263.6   0.114968426   0.99768   0.87624  -0.05514  -0.47629
  27   38221.9    261.6   0.112945038   0.97281   0.98118  -0.03932  -0.09250
  28   38595.4    259.1   0.028103149   0.23972   0.12656  -0.46598   0.08102
  29   39044.1    256.1   0.052942588   0.44640   0.36814  -0.45939   0.31597
  30   39073.3    255.9   0.112592868   0.94865   0.83718  -0.49205   0.07530
  31   39165.6    255.3   0.123878142   1.04127  -0.95880   0.33537   0.09750
  32   39422.4    253.7   0.021376968   0.17852  -0.00986  -0.07613   0.41548
  33   39585.7    252.6   0.056590763   0.47063  -0.64133  -0.02072  -0.24269
  34   39988.9    250.1   0.269452619   2.21829   1.30248  -0.08223  -0.71769
  35   40201.5    248.7   0.014297582   0.11708   0.02239  -0.31417  -0.13373

FINAL SINGLE POINT ENERGY     -4834.966038637112

DIPOLE MOMENT
-------------
                                X             Y             Z
Electronic contribution:    -21.30697     -12.40071     -10.60977
Nuclear contribution   :     19.08946      11.61522      11.69970
                        -----------------------------------------
Total Dipole Moment    :     -2.21751      -0.78549       1.08993
                        -----------------------------------------
Magnitude (a.u.)       :      2.59274
Magnitude (Debye)      :      6.59022

Rotational constants in cm-1:     0.003480     0.000243     0.000237
Rotational constants in MHz :   104.321675     7.289047     7.113572

                             ****ORCA TERMINATED NORMALLY****
TOTAL RUN TIME: 0 days 0 hours 5 minutes 58 seconds 829 msec
