                         Program Version 4.2.0 -  RELEASE  -
|  1> # ORCA input file
|  2> # SCF done       -141.162670292097          0.000652665538
|  3> ! CAM-B3LYP def2-SVP def2/J RIJCOSX Grid4 TightSCF
|  4> %maxcore 5000
|  5> %tddft
|  6>     Mode sTDDFT
|  7>     Ethresh 5.0
|  8>     maxcore 5000
|  9> end
| 10>
| 11> %pal
| 12>   nprocs 6
| 13>   end
| 14> * xyz 0 1
| 15>    C        9.76874        -1.16610         2.45861
| 16>    C       10.82944        -0.71884         3.18577
| 17>    S       12.12813        -0.23265         2.16022
| 18>    C       11.22896        -0.64016         0.71749
| 19>   Cl       11.89017        -0.43006        -0.82720
| 20>    C        9.99687        -1.12208         1.04606
| 21>    C        8.82107        -1.62260         0.32617
| 22>    O        8.67395        -1.70901        -0.86852
| 23>    C        7.83047        -1.95637         1.40476
| 24>    C        8.44304        -1.69100         2.70726
| 25>    C        7.92058        -1.91858         3.95044
| 26>    C        8.65523        -1.61951         5.11898
| 27>    N        9.23575        -1.38061         6.07887
| 28>    C        6.65194        -2.46322         4.23670
| 29>    N        5.63845        -2.90470         4.54636
| 30>    C        6.53667        -2.30834         1.22067
| 31>    C        5.85127        -2.60412        -0.01744
| 32>    C        6.41639        -3.30672        -1.08117
| 33>    C        5.66226        -3.54929        -2.22521
| 34>    C        4.33883        -3.10314        -2.22979
| 35>    N        3.79277        -2.43896        -1.22887
| 36>    C        4.51643        -2.19115        -0.16057
| 37>    C        6.23270        -4.26696        -3.36826
| 38>    C        5.87049        -3.94946        -4.67305
| 39>    C        6.46111        -4.63072        -5.73581
| 40>    C        7.37652        -5.64238        -5.42300
| 41>    N        7.69375        -5.97348        -4.19106
| 42>    C        7.14705        -5.30916        -3.19230
| 43>    C        6.12552        -4.34943        -7.11711
| 44>    S        5.87515        -5.67221        -8.19536
| 45>    C        5.47657        -4.63416        -9.53010
| 46>    C        5.51525        -3.29856        -9.13251
| 47>    C        5.93248        -3.13653        -7.76567
| 48>    C        6.15876        -1.81885        -7.26961
| 49>    C        6.77596        -1.57546        -6.02270
| 50>    N        7.31072        -1.30503        -5.04493
| 51>    C        5.84045        -0.72939        -8.05254
| 52>    C        5.27169        -0.89353        -9.32017
| 53>    C        5.11202        -2.14891        -9.86923
| 54>    C        4.44547        -2.24629       -11.10976
| 55>    N        3.84507        -2.26380       -12.08728
| 56>    C        5.30063        -5.18951       -10.83195
| 57>    S        6.08631        -4.49508       -12.21093
| 58>    C        5.53939        -5.73660       -13.27440
| 59>    C        4.78211        -6.68273       -12.57825
| 60>    C        4.65507        -6.37788       -11.18150
| 61>    C        3.89677        -7.21840       -10.34572
| 62>    C        3.30714        -8.34187       -10.86938
| 63>    C        2.54503        -9.19331       -10.03708
| 64>    N        1.93315        -9.87181        -9.34566
| 65>    C        3.45234        -8.66114       -12.25745
| 66>    C        2.84255        -9.83074       -12.76656
| 67>    N        2.35903       -10.77563       -13.19830
| 68>    C        4.16933        -7.84098       -13.09285
| 69>    C        5.86132        -5.72768       -14.66898
| 70>    C        6.56581        -4.77442       -15.27928
| 71>    H       10.94026        -0.63634         4.24870
| 72>    H        5.89376        -2.33459         2.09305
| 73>    H        7.42878        -3.66925        -1.01709
| 74>    H        3.67769        -3.31520        -3.05956
| 75>    H        4.02701        -1.62322         0.61957
| 76>    H        5.13252        -3.18349        -4.86077
| 77>    H        7.87186        -6.19873        -6.20868
| 78>    H        7.43009        -5.64327        -2.20363
| 79>    H        6.01713         0.26554        -7.67278
| 80>    H        4.95855        -0.02579        -9.88060
| 81>    H        3.77144        -6.98273        -9.29971
| 82>    H        4.25791        -8.08945       -14.13923
| 83>    H        5.48617        -6.56778       -15.23719
| 84>    H        6.94529        -3.92093       -14.74167
| 85>    H        6.77406        -4.81679       -16.33290
| 86> *
| 87>
| 88>                          ****END OF INPUT****

CARTESIAN COORDINATES (ANGSTROEM)
---------------------------------
  C      9.768740   -1.166100    2.458610
  C     10.829440   -0.718840    3.185770
  S     12.128130   -0.232650    2.160220
  C     11.228960   -0.640160    0.717490
  Cl    11.890170   -0.430060   -0.827200
  C      9.996870   -1.122080    1.046060
  C      8.821070   -1.622600    0.326170
  O      8.673950   -1.709010   -0.868520
  C      7.830470   -1.956370    1.404760
  C      8.443040   -1.691000    2.707260
  C      7.920580   -1.918580    3.950440
  C      8.655230   -1.619510    5.118980
  N      9.235750   -1.380610    6.078870
  C      6.651940   -2.463220    4.236700
  N      5.638450   -2.904700    4.546360
  C      6.536670   -2.308340    1.220670
  C      5.851270   -2.604120   -0.017440
  C      6.416390   -3.306720   -1.081170
  C      5.662260   -3.549290   -2.225210
  C      4.338830   -3.103140   -2.229790
  N      3.792770   -2.438960   -1.228870
  C      4.516430   -2.191150   -0.160570
  C      6.232700   -4.266960   -3.368260
  C      5.870490   -3.949460   -4.673050
  C      6.461110   -4.630720   -5.735810
  C      7.376520   -5.642380   -5.423000
  N      7.693750   -5.973480   -4.191060
  C      7.147050   -5.309160   -3.192300
  C      6.125520   -4.349430   -7.117110
  S      5.875150   -5.672210   -8.195360
  C      5.476570   -4.634160   -9.530100
  C      5.515250   -3.298560   -9.132510
  C      5.932480   -3.136530   -7.765670
  C      6.158760   -1.818850   -7.269610
  C      6.775960   -1.575460   -6.022700
  N      7.310720   -1.305030   -5.044930
  C      5.840450   -0.729390   -8.052540
  C      5.271690   -0.893530   -9.320170
  C      5.112020   -2.148910   -9.869230
  C      4.445470   -2.246290  -11.109760
  N      3.845070   -2.263800  -12.087280
  C      5.300630   -5.189510  -10.831950
  S      6.086310   -4.495080  -12.210930
  C      5.539390   -5.736600  -13.274400
  C      4.782110   -6.682730  -12.578250
  C      4.655070   -6.377880  -11.181500
  C      3.896770   -7.218400  -10.345720
  C      3.307140   -8.341870  -10.869380
  C      2.545030   -9.193310  -10.037080
  N      1.933150   -9.871810   -9.345660
  C      3.452340   -8.661140  -12.257450
  C      2.842550   -9.830740  -12.766560
  N      2.359030  -10.775630  -13.198300
  C      4.169330   -7.840980  -13.092850
  C      5.861320   -5.727680  -14.668980
  C      6.565810   -4.774420  -15.279280
  H     10.940260   -0.636340    4.248700
  H      5.893760   -2.334590    2.093050
  H      7.428780   -3.669250   -1.017090
  H      3.677690   -3.315200   -3.059560
  H      4.027010   -1.623220    0.619570
  H      5.132520   -3.183490   -4.860770
  H      7.871860   -6.198730   -6.208680
  H      7.430090   -5.643270   -2.203630
  H      6.017130    0.265540   -7.672780
  H      4.958550   -0.025790   -9.880600
  H      3.771440   -6.982730   -9.299710
  H      4.257910   -8.089450  -14.139230
  H      5.486170   -6.567780  -15.237190
  H      6.945290   -3.920930  -14.741670
  H      6.774060   -4.816790  -16.332900

 Total Charge           Charge          ....    0
 Multiplicity           Mult            ....    1
 Number of Electrons    NEL             ....  402
 Basis Dimension        Dim             ....  875

ORBITAL ENERGIES
----------------

  NO   OCC          E(Eh)            E(eV)
   0   2.0000    -101.621927     -2765.2732
   1   2.0000     -89.004196     -2421.9273
   2   2.0000     -88.999638     -2421.8033
   3   2.0000     -88.996312     -2421.7128
   4   2.0000     -19.228357      -523.2302
   5   2.0000     -14.427894      -392.6030
   6   2.0000     -14.427756      -392.5992
   7   2.0000     -14.426464      -392.5640
   8   2.0000     -14.426190      -392.5566
   9   2.0000     -14.416660      -392.2973
  10   2.0000     -14.414813      -392.2470
  11   2.0000     -14.412333      -392.1795
  12   2.0000     -14.411481      -392.1563
  13   2.0000     -10.385889      -282.6144
  14   2.0000     -10.381873      -282.5051
  15   2.0000     -10.356144      -281.8050
  16   2.0000     -10.355494      -281.7873
  17   2.0000     -10.349153      -281.6148
  18   2.0000     -10.349072      -281.6126
  19   2.0000     -10.346028      -281.5297
  20   2.0000     -10.341514      -281.4069
  21   2.0000     -10.339854      -281.3617
  22   2.0000     -10.336668      -281.2750
  23   2.0000     -10.335629      -281.2468
  24   2.0000     -10.335532      -281.2441
  25   2.0000     -10.333920      -281.2002
  26   2.0000     -10.330475      -281.1065
  27   2.0000     -10.330388      -281.1041
  28   2.0000     -10.329594      -281.0826
  29   2.0000     -10.329001      -281.0664
  30   2.0000     -10.328041      -281.0403
  31   2.0000     -10.327190      -281.0171
  32   2.0000     -10.326085      -280.9870
  33   2.0000     -10.325336      -280.9667
  34   2.0000     -10.325216      -280.9634
  35   2.0000     -10.321984      -280.8755
  36   2.0000     -10.321783      -280.8700
  37   2.0000     -10.321454      -280.8611
  38   2.0000     -10.320673      -280.8398
  39   2.0000     -10.319730      -280.8141
  40   2.0000     -10.319434      -280.8061
  41   2.0000     -10.318891      -280.7913
  42   2.0000     -10.317030      -280.7407
  43   2.0000     -10.316829      -280.7352
  44   2.0000     -10.314429      -280.6699
  45   2.0000     -10.313573      -280.6466
  46   2.0000     -10.310594      -280.5655
  47   2.0000     -10.309931      -280.5475
  48   2.0000     -10.309234      -280.5285
  49   2.0000     -10.305756      -280.4339
  50   2.0000     -10.305646      -280.4309
  51   2.0000     -10.305324      -280.4221
  52   2.0000     -10.304874      -280.4099
  53   2.0000     -10.304123      -280.3894
  54   2.0000     -10.302103      -280.3345
  55   2.0000     -10.291134      -280.0360
  56   2.0000      -9.576692      -260.5950
  57   2.0000      -8.098876      -220.3816
  58   2.0000      -8.095405      -220.2872
  59   2.0000      -8.091076      -220.1694
  60   2.0000      -7.347353      -199.9316
  61   2.0000      -7.336718      -199.6423
  62   2.0000      -7.336169      -199.6273
  63   2.0000      -6.067828      -165.1140
  64   2.0000      -6.064776      -165.0309
  65   2.0000      -6.063541      -164.9973
  66   2.0000      -6.061876      -164.9520
  67   2.0000      -6.060131      -164.9045
  68   2.0000      -6.059958      -164.8998
  69   2.0000      -6.057684      -164.8380
  70   2.0000      -6.055756      -164.7855
  71   2.0000      -6.054094      -164.7403
  72   2.0000      -1.146745       -31.2045
  73   2.0000      -1.057408       -28.7735
  74   2.0000      -1.052290       -28.6343
  75   2.0000      -1.045484       -28.4491
  76   2.0000      -1.044225       -28.4148
  77   2.0000      -1.029149       -28.0046
  78   2.0000      -1.024149       -27.8685
  79   2.0000      -1.014325       -27.6012
  80   2.0000      -1.011050       -27.5121
  81   2.0000      -1.005422       -27.3589
  82   2.0000      -1.005059       -27.3490
  83   2.0000      -0.994288       -27.0559
  84   2.0000      -0.992384       -27.0041
  85   2.0000      -0.977382       -26.5959
  86   2.0000      -0.966968       -26.3125
  87   2.0000      -0.961714       -26.1696
  88   2.0000      -0.943686       -25.6790
  89   2.0000      -0.937704       -25.5162
  90   2.0000      -0.927459       -25.2374
  91   2.0000      -0.916441       -24.9376
  92   2.0000      -0.910858       -24.7857
  93   2.0000      -0.904507       -24.6129
  94   2.0000      -0.888526       -24.1780
  95   2.0000      -0.880213       -23.9518
  96   2.0000      -0.874124       -23.7861
  97   2.0000      -0.866637       -23.5824
  98   2.0000      -0.853217       -23.2172
  99   2.0000      -0.844168       -22.9710
 100   2.0000      -0.838656       -22.8210
 101   2.0000      -0.811918       -22.0934
 102   2.0000      -0.796599       -21.6766
 103   2.0000      -0.793182       -21.5836
 104   2.0000      -0.767060       -20.8728
 105   2.0000      -0.764461       -20.8021
 106   2.0000      -0.761443       -20.7199
 107   2.0000      -0.752716       -20.4824
 108   2.0000      -0.745930       -20.2978
 109   2.0000      -0.739100       -20.1119
 110   2.0000      -0.731860       -19.9149
 111   2.0000      -0.718882       -19.5618
 112   2.0000      -0.706946       -19.2370
 113   2.0000      -0.694245       -18.8914
 114   2.0000      -0.688290       -18.7293
 115   2.0000      -0.683439       -18.5973
 116   2.0000      -0.677967       -18.4484
 117   2.0000      -0.661675       -18.0051
 118   2.0000      -0.660129       -17.9630
 119   2.0000      -0.651425       -17.7262
 120   2.0000      -0.633961       -17.2509
 121   2.0000      -0.628616       -17.1055
 122   2.0000      -0.623362       -16.9626
 123   2.0000      -0.619131       -16.8474
 124   2.0000      -0.615450       -16.7472
 125   2.0000      -0.611586       -16.6421
 126   2.0000      -0.609756       -16.5923
 127   2.0000      -0.607858       -16.5407
 128   2.0000      -0.598217       -16.2783
 129   2.0000      -0.585344       -15.9280
 130   2.0000      -0.578520       -15.7423
 131   2.0000      -0.573259       -15.5992
 132   2.0000      -0.568327       -15.4650
 133   2.0000      -0.560676       -15.2568
 134   2.0000      -0.557465       -15.1694
 135   2.0000      -0.556020       -15.1301
 136   2.0000      -0.545424       -14.8417
 137   2.0000      -0.543831       -14.7984
 138   2.0000      -0.543327       -14.7847
 139   2.0000      -0.539338       -14.6761
 140   2.0000      -0.536621       -14.6022
 141   2.0000      -0.534224       -14.5370
 142   2.0000      -0.530303       -14.4303
 143   2.0000      -0.525017       -14.2864
 144   2.0000      -0.516856       -14.0644
 145   2.0000      -0.513531       -13.9739
 146   2.0000      -0.511723       -13.9247
 147   2.0000      -0.510459       -13.8903
 148   2.0000      -0.507401       -13.8071
 149   2.0000      -0.504474       -13.7274
 150   2.0000      -0.502251       -13.6669
 151   2.0000      -0.500118       -13.6089
 152   2.0000      -0.498150       -13.5553
 153   2.0000      -0.496259       -13.5039
 154   2.0000      -0.495854       -13.4929
 155   2.0000      -0.487207       -13.2576
 156   2.0000      -0.482847       -13.1389
 157   2.0000      -0.481696       -13.1076
 158   2.0000      -0.480100       -13.0642
 159   2.0000      -0.472005       -12.8439
 160   2.0000      -0.469599       -12.7784
 161   2.0000      -0.463793       -12.6205
 162   2.0000      -0.459688       -12.5087
 163   2.0000      -0.458758       -12.4834
 164   2.0000      -0.456458       -12.4208
 165   2.0000      -0.454573       -12.3696
 166   2.0000      -0.452827       -12.3220
 167   2.0000      -0.451283       -12.2800
 168   2.0000      -0.450451       -12.2574
 169   2.0000      -0.448492       -12.2041
 170   2.0000      -0.444935       -12.1073
 171   2.0000      -0.439327       -11.9547
 172   2.0000      -0.438694       -11.9375
 173   2.0000      -0.438462       -11.9312
 174   2.0000      -0.438048       -11.9199
 175   2.0000      -0.435230       -11.8432
 176   2.0000      -0.433967       -11.8088
 177   2.0000      -0.425878       -11.5887
 178   2.0000      -0.423442       -11.5224
 179   2.0000      -0.422171       -11.4879
 180   2.0000      -0.420998       -11.4559
 181   2.0000      -0.418577       -11.3901
 182   2.0000      -0.413837       -11.2611
 183   2.0000      -0.407970       -11.1014
 184   2.0000      -0.406852       -11.0710
 185   2.0000      -0.394752       -10.7418
 186   2.0000      -0.390155       -10.6167
 187   2.0000      -0.381278       -10.3751
 188   2.0000      -0.362359        -9.8603
 189   2.0000      -0.358881        -9.7656
 190   2.0000      -0.357550        -9.7294
 191   2.0000      -0.353536        -9.6202
 192   2.0000      -0.348331        -9.4786
 193   2.0000      -0.343287        -9.3413
 194   2.0000      -0.335686        -9.1345
 195   2.0000      -0.335112        -9.1189
 196   2.0000      -0.330780        -9.0010
 197   2.0000      -0.322027        -8.7628
 198   2.0000      -0.310016        -8.4360
 199   2.0000      -0.306268        -8.3340
 200   2.0000      -0.263845        -7.1796
 201   0.0000      -0.102862        -2.7990
 202   0.0000      -0.099209        -2.6996
 203   0.0000      -0.076865        -2.0916
 204   0.0000      -0.057517        -1.5651
 205   0.0000      -0.033929        -0.9232

MULLIKEN ATOMIC CHARGES
-----------------------
   0 C :    0.030332
   1 C :   -0.129042
   2 S :    0.192887
   3 C :   -0.168542
   4 Cl:    0.005400
   5 C :    0.073186
   6 C :    0.144496
   7 O :   -0.116263
   8 C :   -0.081435
   9 C :    0.288379
  10 C :   -0.326955
  11 C :   -0.192755
  12 N :    0.158212
  13 C :   -0.190488
  14 N :    0.169119
  15 C :   -0.032753
  16 C :    0.019592
  17 C :    0.078909
  18 C :    0.030095
  19 C :   -0.005576
  20 N :   -0.051126
  21 C :    0.004922
  22 C :    0.052106
  23 C :    0.015527
  24 C :    0.016952
  25 C :   -0.007707
  26 N :   -0.043172
  27 C :   -0.003614
  28 C :   -0.179004
  29 S :    0.226633
  30 C :   -0.201596
  31 C :    0.160376
  32 C :    0.175873
  33 C :   -0.091675
  34 C :   -0.215710
  35 N :    0.151228
  36 C :    0.018485
  37 C :    0.026897
  38 C :   -0.083331
  39 C :   -0.217727
  40 N :    0.138494
  41 C :   -0.155935
  42 S :    0.218091
  43 C :   -0.111862
  44 C :    0.113952
  45 C :    0.150948
  46 C :   -0.053737
  47 C :   -0.068219
  48 C :   -0.177266
  49 N :    0.176073
  50 C :   -0.071700
  51 C :   -0.180147
  52 N :    0.176102
  53 C :   -0.045574
  54 C :    0.001826
  55 C :   -0.012215
  56 H :    0.057017
  57 H :    0.034965
  58 H :   -0.000352
  59 H :    0.004364
  60 H :    0.008476
  61 H :    0.006067
  62 H :    0.003240
  63 H :    0.003390
  64 H :    0.009898
  65 H :    0.009656
  66 H :   -0.004489
  67 H :   -0.002867
  68 H :    0.002696
  69 H :    0.029678
  70 H :    0.038296
Sum of atomic charges:   -0.0000000

LOEWDIN ATOMIC CHARGES
----------------------
   0 C :   -0.060752
   1 C :   -0.148225
   2 S :    0.481505
   3 C :   -0.271173
   4 Cl:    0.196359
   5 C :   -0.118127
   6 C :    0.079882
   7 O :   -0.115565
   8 C :   -0.080341
   9 C :    0.074601
  10 C :   -0.131152
  11 C :   -0.014583
  12 N :   -0.046960
  13 C :   -0.025574
  14 N :   -0.039272
  15 C :    0.079758
  16 C :   -0.059451
  17 C :    0.054963
  18 C :   -0.038146
  19 C :    0.038667
  20 N :   -0.062710
  21 C :    0.041361
  22 C :   -0.028480
  23 C :    0.032233
  24 C :   -0.074119
  25 C :    0.019467
  26 N :   -0.056370
  27 C :    0.034666
  28 C :   -0.163067
  29 S :    0.533266
  30 C :   -0.196581
  31 C :   -0.035555
  32 C :   -0.036576
  33 C :   -0.045679
  34 C :   -0.032938
  35 N :   -0.033434
  36 C :    0.014673
  37 C :    0.016717
  38 C :   -0.051176
  39 C :   -0.046620
  40 N :   -0.044201
  41 C :   -0.201489
  42 S :    0.545503
  43 C :   -0.160168
  44 C :   -0.045123
  45 C :   -0.041540
  46 C :    0.022690
  47 C :   -0.051519
  48 C :   -0.032585
  49 N :   -0.033611
  50 C :   -0.055582
  51 C :   -0.033276
  52 N :   -0.034830
  53 C :    0.036485
  54 C :   -0.041651
  55 C :   -0.024265
  56 H :    0.038431
  57 H :    0.049060
  58 H :    0.033803
  59 H :    0.023267
  60 H :    0.026004
  61 H :    0.033183
  62 H :    0.018839
  63 H :    0.023739
  64 H :    0.047429
  65 H :    0.047364
  66 H :    0.033123
  67 H :    0.043353
  68 H :    0.037788
  69 H :    0.020947
  70 H :    0.033341

  Mayer bond orders larger than 0.100000
B(  0-C ,  1-C ) :   1.5389 B(  0-C ,  5-C ) :   1.2195 B(  0-C ,  9-C ) :   1.0043
B(  1-C ,  2-S ) :   1.1669 B(  1-C , 56-H ) :   0.9540 B(  2-S ,  3-C ) :   1.1536
B(  3-C ,  4-Cl) :   1.1331 B(  3-C ,  5-C ) :   1.4749 B(  5-C ,  6-C ) :   0.9523
B(  6-C ,  7-O ) :   2.2497 B(  6-C ,  8-C ) :   0.9128 B(  8-C ,  9-C ) :   1.0449
B(  8-C , 15-C ) :   1.7120 B(  9-C , 10-C ) :   1.6693 B( 10-C , 11-C ) :   1.1454
B( 10-C , 13-C ) :   1.1340 B( 11-C , 12-N ) :   2.9914 B( 13-C , 14-N ) :   2.9786
B( 15-C , 16-C ) :   1.0340 B( 15-C , 57-H ) :   0.9420 B( 16-C , 17-C ) :   1.3813
B( 16-C , 21-C ) :   1.3066 B( 17-C , 18-C ) :   1.4155 B( 17-C , 58-H ) :   0.9707
B( 18-C , 19-C ) :   1.3483 B( 18-C , 22-C ) :   0.9496 B( 19-C , 20-N ) :   1.5521
B( 19-C , 59-H ) :   0.9851 B( 20-N , 21-C ) :   1.5739 B( 21-C , 60-H ) :   0.9899
B( 22-C , 23-C ) :   1.4226 B( 22-C , 27-C ) :   1.3549 B( 23-C , 24-C ) :   1.3862
B( 23-C , 61-H ) :   0.9745 B( 24-C , 25-C ) :   1.3320 B( 24-C , 28-C ) :   0.9925
B( 25-C , 26-N ) :   1.5770 B( 25-C , 62-H ) :   0.9883 B( 26-N , 27-C ) :   1.5567
B( 27-C , 63-H ) :   0.9844 B( 28-C , 29-S ) :   1.1944 B( 28-C , 30-C ) :   0.1299
B( 28-C , 32-C ) :   1.4220 B( 29-S , 30-C ) :   1.1666 B( 30-C , 31-C ) :   1.3910
B( 30-C , 41-C ) :   1.0878 B( 31-C , 32-C ) :   1.1671 B( 31-C , 38-C ) :   1.1948
B( 32-C , 33-C ) :   1.1800 B( 33-C , 34-C ) :   1.0907 B( 33-C , 36-C ) :   1.5528
B( 34-C , 35-N ) :   3.0261 B( 36-C , 37-C ) :   1.1827 B( 36-C , 64-H ) :   0.9944
B( 37-C , 38-C ) :   1.5480 B( 37-C , 65-H ) :   0.9944 B( 38-C , 39-C ) :   1.0793
B( 39-C , 40-N ) :   3.0370 B( 41-C , 42-S ) :   1.1928 B( 41-C , 43-C ) :   0.1083
B( 41-C , 45-C ) :   1.3512 B( 42-S , 43-C ) :   1.1822 B( 43-C , 44-C ) :   1.3412
B( 43-C , 54-C ) :   1.1347 B( 44-C , 45-C ) :   1.1887 B( 44-C , 53-C ) :   1.1844
B( 45-C , 46-C ) :   1.1827 B( 46-C , 47-C ) :   1.5806 B( 46-C , 66-H ) :   0.9854
B( 47-C , 48-C ) :   1.0778 B( 47-C , 50-C ) :   1.2306 B( 48-C , 49-N ) :   3.0453
B( 50-C , 51-C ) :   1.0798 B( 50-C , 53-C ) :   1.5767 B( 51-C , 52-N ) :   3.0459
B( 53-C , 67-H ) :   0.9956 B( 54-C , 55-C ) :   1.9128 B( 54-C , 68-H ) :   0.9575
B( 55-C , 69-H ) :   0.9578 B( 55-C , 70-H ) :   0.9479

-----------------------------------------------------------------------------
         ABSORPTION SPECTRUM VIA TRANSITION ELECTRIC DIPOLE MOMENTS
-----------------------------------------------------------------------------
State   Energy  Wavelength   fosc         T2         TX        TY        TZ
        (cm-1)    (nm)                  (au**2)     (au)      (au)      (au)
-----------------------------------------------------------------------------
   0   18034.6    554.5   0.447476447   8.16843   0.57884   0.98590   2.61942
   1   22964.0    435.5   0.192977600   2.76652   0.12749  -0.49825  -1.58178
   2   26831.7    372.7   0.180964396   2.22034   0.67426   0.22391   1.30980
   3   26871.0    372.1   0.058371978   0.71515   0.48128   0.11120   0.68640
   4   27453.4    364.3   0.042994947   0.51558  -0.47752   0.32591  -0.42584
   5   29418.7    339.9   0.123311191   1.37992  -0.43858  -0.05125  -1.08855
   6   30301.3    330.0   0.125334864   1.36171   1.00671   0.28694   0.51567
   7   31181.6    320.7   0.004386741   0.04631   0.01808  -0.18752   0.10404
   8   31347.5    319.0   0.045855244   0.48157   0.47911   0.16458   0.47428
   9   32058.3    311.9   0.054760905   0.56235  -0.33778  -0.40933  -0.52981
  10   32406.6    308.6   0.136063397   1.38224  -0.65139  -0.86949  -0.44935
  11   33179.3    301.4   0.163731093   1.62458   0.29137   0.14639  -1.23217
  12   33229.0    300.9   0.015800883   0.15655   0.12556  -0.36766  -0.07488
  13   33342.3    299.9   0.042626844   0.42088  -0.10734  -0.12835  -0.62681
  14   33845.0    295.5   0.140014688   1.36193  -0.46009  -0.07068  -1.07017
  15   34822.9    287.2   0.172758289   1.63324  -0.43479  -0.60903   1.03599
  16   35226.0    283.9   0.002337979   0.02185  -0.08769  -0.10062  -0.06353
  17   35482.9    281.8   0.101793528   0.94444   0.73233   0.49095   0.40878
  18   35866.6    278.8   0.029051290   0.26666  -0.13965  -0.12146   0.48208
  19   36003.0    277.8   0.070097812   0.64098   0.61487   0.20700   0.46911
  20   36501.0    274.0   0.032176990   0.29021  -0.16138  -0.44030  -0.26516
  21   36739.5    272.2   0.113466992   1.01674   0.58560   0.09342  -0.81553
  22   37408.2    267.3   0.154312695   1.35803   0.92974   0.36981  -0.59738
  23   37600.7    266.0   0.518239085   4.53743  -1.97103  -0.69187   0.41688
  24   37999.6    263.2   0.191231223   1.65675  -0.00930   1.28040  -0.13126
  25   38505.2    259.7   0.002847139   0.02434   0.02016  -0.12424   0.09219
  26   38823.9    257.6   0.031623022   0.26815   0.31712   0.17404  -0.37053
  27   38918.4    256.9   0.086751332   0.73383   0.28142   0.04049  -0.80808
  28   39300.1    254.5   0.000998294   0.00836   0.02143   0.07123   0.05320
  29   40193.8    248.8   0.398964505   3.26776  -0.43405  -1.73832   0.24001
  30   40306.9    248.1   0.047010600   0.38396   0.04615   0.50227   0.35994

FINAL SINGLE POINT ENERGY     -3812.218703785201

DIPOLE MOMENT
-------------
                                X             Y             Z
Electronic contribution:     17.77221       8.34529      23.98504
Nuclear contribution   :    -14.85998      -5.28691     -25.66221
                        -----------------------------------------
Total Dipole Moment    :      2.91223       3.05838      -1.67717
                        -----------------------------------------
Magnitude (a.u.)       :      4.54397
Magnitude (Debye)      :     11.54985

Rotational constants in cm-1:     0.003158     0.000473     0.000443
Rotational constants in MHz :    94.687770    14.168890    13.274366

                             ****ORCA TERMINATED NORMALLY****
TOTAL RUN TIME: 0 days 0 hours 5 minutes 29 seconds 342 msec
