                         Program Version 4.2.0 -  RELEASE  -
|  1> # ORCA input file
|  2> # SCF done       -155.195338140741          0.000449282683
|  3> ! CAM-B3LYP def2-SVP def2/J RIJCOSX Grid4 TightSCF
|  4> %maxcore 5000
|  5> %tddft
|  6>     Mode sTDDFT
|  7>     Ethresh 5.0
|  8>     maxcore 5000
|  9> end
| 10>
| 11> %pal
| 12>   nprocs 6
| 13>   end
| 14> * xyz 0 1
| 15>    C        7.87978        -6.97791         3.32803
| 16>    C        8.71503        -7.91909         3.84643
| 17>    S        8.56495        -9.41901         3.00468
| 18>    C        7.34955        -8.77693         1.92848
| 19>   Cl        6.66407        -9.71283         0.69175
| 20>    C        7.09642        -7.46900         2.23452
| 21>    C        6.22372        -6.41748         1.73302
| 22>    O        5.39152        -6.52113         0.85184
| 23>    C        6.53144        -5.21560         2.56737
| 24>    C        7.55072        -5.58570         3.55350
| 25>    C        8.13878        -4.79686         4.50230
| 26>    C        9.12159        -5.31523         5.37510
| 27>    N        9.91874        -5.71973         6.09309
| 28>    C        7.87547        -3.43177         4.73844
| 29>    N        7.71522        -2.32180         4.98282
| 30>    C        5.91203        -4.01040         2.51032
| 31>    C        4.91159        -3.57508         1.56535
| 32>    C        4.91129        -3.92791         0.21849
| 33>    C        3.85242        -3.53512        -0.60244
| 34>    C        2.89527        -2.67710        -0.04392
| 35>    N        2.91734        -2.29669         1.21624
| 36>    C        3.86822        -2.74186         2.00773
| 37>    C        3.76189        -4.01925        -1.95418
| 38>    S        2.93738        -3.16980        -3.22617
| 39>    C        3.26431        -4.39351        -4.42669
| 40>    C        3.96744        -5.44412        -3.84309
| 41>    C        4.23519        -5.21590        -2.45261
| 42>    N        4.87211        -6.30160        -1.94509
| 43>    C        5.00091        -7.22472        -2.95942
| 44>    C        5.60545        -8.46871        -2.72910
| 45>    N        6.09899        -9.48500        -2.52768
| 46>    C        4.47560        -6.73499        -4.13696
| 47>    C        2.81667        -4.21535        -5.77580
| 48>    C        3.28171        -5.03964        -6.80558
| 49>    C        2.84521        -4.86267        -8.10317
| 50>    N        3.27731        -5.85214        -9.06137
| 51>    O        4.41885        -6.24906        -8.97287
| 52>    O        2.46048        -6.25663        -9.85981
| 53>    C        1.95023        -3.83884        -8.45571
| 54>    C        1.46669        -3.04292        -7.40825
| 55>    C        1.88659        -3.21870        -6.11236
| 56>    C        1.58868        -3.50887        -9.81329
| 57>    C        2.42338        -3.58047       -10.87121
| 58>    C        2.04622        -3.17833       -12.17957
| 59>    C        2.87744        -2.96424       -13.23306
| 60>    C        2.31665        -2.91897       -14.62042
| 61>    O        1.15304        -2.80900       -14.92104
| 62>    C        3.48824        -3.08271       -15.48994
| 63>    C        3.73554        -3.22450       -16.82232
| 64>    S        5.45206        -3.38463       -17.11361
| 65>    C        5.81530        -3.24732       -15.43180
| 66>    C        4.68261        -3.09571       -14.69553
| 67>    C        4.32605        -2.89440       -13.30297
| 68>    C        5.20757        -2.51641       -12.32457
| 69>    C        6.59496        -2.45252       -12.57658
| 70>    N        7.72571        -2.40478       -12.76342
| 71>    C        4.85649        -2.05571       -11.03979
| 72>    N        4.62761        -1.62742        -9.99945
| 73>   Cl        2.61940        -3.25409       -18.09595
| 74>    H        9.40661        -7.84078         4.66171
| 75>    H        6.13569        -3.29013         3.28774
| 76>    H        5.75266        -4.45093        -0.20547
| 77>    H        2.08811        -2.28462        -0.64838
| 78>    H        3.80462        -2.43786         3.04344
| 79>    H        5.06855        -6.48011        -0.96840
| 80>    H        4.45812        -7.26677        -5.06644
| 81>    H        3.98964        -5.82631        -6.60438
| 82>    H        0.77043        -2.25177        -7.64073
| 83>    H        1.49806        -2.57992        -5.33304
| 84>    H        0.61315        -3.05969        -9.94705
| 85>    H        3.43196        -3.94653       -10.74160
| 86>    H        0.98579        -3.09614       -12.39140
| 87>    H        6.83583        -3.29846       -15.10778
| 88> *
| 89>
| 90>                          ****END OF INPUT****

CARTESIAN COORDINATES (ANGSTROEM)
---------------------------------
  C      7.879780   -6.977910    3.328030
  C      8.715030   -7.919090    3.846430
  S      8.564950   -9.419010    3.004680
  C      7.349550   -8.776930    1.928480
  Cl     6.664070   -9.712830    0.691750
  C      7.096420   -7.469000    2.234520
  C      6.223720   -6.417480    1.733020
  O      5.391520   -6.521130    0.851840
  C      6.531440   -5.215600    2.567370
  C      7.550720   -5.585700    3.553500
  C      8.138780   -4.796860    4.502300
  C      9.121590   -5.315230    5.375100
  N      9.918740   -5.719730    6.093090
  C      7.875470   -3.431770    4.738440
  N      7.715220   -2.321800    4.982820
  C      5.912030   -4.010400    2.510320
  C      4.911590   -3.575080    1.565350
  C      4.911290   -3.927910    0.218490
  C      3.852420   -3.535120   -0.602440
  C      2.895270   -2.677100   -0.043920
  N      2.917340   -2.296690    1.216240
  C      3.868220   -2.741860    2.007730
  C      3.761890   -4.019250   -1.954180
  S      2.937380   -3.169800   -3.226170
  C      3.264310   -4.393510   -4.426690
  C      3.967440   -5.444120   -3.843090
  C      4.235190   -5.215900   -2.452610
  N      4.872110   -6.301600   -1.945090
  C      5.000910   -7.224720   -2.959420
  C      5.605450   -8.468710   -2.729100
  N      6.098990   -9.485000   -2.527680
  C      4.475600   -6.734990   -4.136960
  C      2.816670   -4.215350   -5.775800
  C      3.281710   -5.039640   -6.805580
  C      2.845210   -4.862670   -8.103170
  N      3.277310   -5.852140   -9.061370
  O      4.418850   -6.249060   -8.972870
  O      2.460480   -6.256630   -9.859810
  C      1.950230   -3.838840   -8.455710
  C      1.466690   -3.042920   -7.408250
  C      1.886590   -3.218700   -6.112360
  C      1.588680   -3.508870   -9.813290
  C      2.423380   -3.580470  -10.871210
  C      2.046220   -3.178330  -12.179570
  C      2.877440   -2.964240  -13.233060
  C      2.316650   -2.918970  -14.620420
  O      1.153040   -2.809000  -14.921040
  C      3.488240   -3.082710  -15.489940
  C      3.735540   -3.224500  -16.822320
  S      5.452060   -3.384630  -17.113610
  C      5.815300   -3.247320  -15.431800
  C      4.682610   -3.095710  -14.695530
  C      4.326050   -2.894400  -13.302970
  C      5.207570   -2.516410  -12.324570
  C      6.594960   -2.452520  -12.576580
  N      7.725710   -2.404780  -12.763420
  C      4.856490   -2.055710  -11.039790
  N      4.627610   -1.627420   -9.999450
  Cl     2.619400   -3.254090  -18.095950
  H      9.406610   -7.840780    4.661710
  H      6.135690   -3.290130    3.287740
  H      5.752660   -4.450930   -0.205470
  H      2.088110   -2.284620   -0.648380
  H      3.804620   -2.437860    3.043440
  H      5.068550   -6.480110   -0.968400
  H      4.458120   -7.266770   -5.066440
  H      3.989640   -5.826310   -6.604380
  H      0.770430   -2.251770   -7.640730
  H      1.498060   -2.579920   -5.333040
  H      0.613150   -3.059690   -9.947050
  H      3.431960   -3.946530  -10.741600
  H      0.985790   -3.096140  -12.391400
  H      6.835830   -3.298460  -15.107780

 Total Charge           Charge          ....    0
 Multiplicity           Mult            ....    1
 Number of Electrons    NEL             ....  436
 Basis Dimension        Dim             ....  916

ORBITAL ENERGIES
----------------

  NO   OCC          E(Eh)            E(eV)
   0   2.0000    -101.629580     -2765.4815
   1   2.0000    -101.615299     -2765.0929
   2   2.0000     -89.008457     -2422.0432
   3   2.0000     -88.991041     -2421.5693
   4   2.0000     -88.979242     -2421.2483
   5   2.0000     -19.251943      -523.8720
   6   2.0000     -19.250816      -523.8413
   7   2.0000     -19.250237      -523.8256
   8   2.0000     -19.217352      -522.9307
   9   2.0000     -14.655656      -398.8007
  10   2.0000     -14.471698      -393.7949
  11   2.0000     -14.435946      -392.8221
  12   2.0000     -14.433596      -392.7581
  13   2.0000     -14.423120      -392.4730
  14   2.0000     -14.421138      -392.4191
  15   2.0000     -14.419519      -392.3751
  16   2.0000     -14.418341      -392.3430
  17   2.0000     -10.407198      -283.1943
  18   2.0000     -10.392825      -282.8032
  19   2.0000     -10.374116      -282.2941
  20   2.0000     -10.373691      -282.2825
  21   2.0000     -10.365309      -282.0544
  22   2.0000     -10.364689      -282.0375
  23   2.0000     -10.353816      -281.7416
  24   2.0000     -10.349266      -281.6178
  25   2.0000     -10.348531      -281.5979
  26   2.0000     -10.343945      -281.4731
  27   2.0000     -10.342507      -281.4339
  28   2.0000     -10.341609      -281.4095
  29   2.0000     -10.337367      -281.2941
  30   2.0000     -10.335040      -281.2307
  31   2.0000     -10.329278      -281.0739
  32   2.0000     -10.329196      -281.0717
  33   2.0000     -10.328299      -281.0473
  34   2.0000     -10.327776      -281.0331
  35   2.0000     -10.327393      -281.0227
  36   2.0000     -10.327234      -281.0183
  37   2.0000     -10.323318      -280.9118
  38   2.0000     -10.322310      -280.8843
  39   2.0000     -10.321346      -280.8581
  40   2.0000     -10.320830      -280.8441
  41   2.0000     -10.319043      -280.7954
  42   2.0000     -10.318372      -280.7772
  43   2.0000     -10.317183      -280.7448
  44   2.0000     -10.316087      -280.7150
  45   2.0000     -10.315992      -280.7124
  46   2.0000     -10.314649      -280.6759
  47   2.0000     -10.313870      -280.6547
  48   2.0000     -10.313401      -280.6419
  49   2.0000     -10.311206      -280.5822
  50   2.0000     -10.310552      -280.5644
  51   2.0000     -10.306869      -280.4642
  52   2.0000     -10.303042      -280.3600
  53   2.0000     -10.302808      -280.3537
  54   2.0000     -10.301444      -280.3165
  55   2.0000     -10.298243      -280.2294
  56   2.0000     -10.298047      -280.2241
  57   2.0000     -10.297849      -280.2187
  58   2.0000     -10.295758      -280.1618
  59   2.0000      -9.583942      -260.7923
  60   2.0000      -9.570078      -260.4151
  61   2.0000      -8.104190      -220.5262
  62   2.0000      -8.086838      -220.0540
  63   2.0000      -8.073623      -219.6945
  64   2.0000      -7.354644      -200.1300
  65   2.0000      -7.343949      -199.8390
  66   2.0000      -7.343388      -199.8237
  67   2.0000      -7.340675      -199.7499
  68   2.0000      -7.330137      -199.4632
  69   2.0000      -7.329607      -199.4487
  70   2.0000      -6.073541      -165.2695
  71   2.0000      -6.068877      -165.1426
  72   2.0000      -6.066505      -165.0780
  73   2.0000      -6.056223      -164.7982
  74   2.0000      -6.051623      -164.6730
  75   2.0000      -6.049046      -164.6029
  76   2.0000      -6.042945      -164.4369
  77   2.0000      -6.038755      -164.3229
  78   2.0000      -6.035967      -164.2470
  79   2.0000      -1.332568       -36.2610
  80   2.0000      -1.166200       -31.7339
  81   2.0000      -1.151122       -31.3236
  82   2.0000      -1.134279       -30.8653
  83   2.0000      -1.102908       -30.0116
  84   2.0000      -1.059806       -28.8388
  85   2.0000      -1.053631       -28.6708
  86   2.0000      -1.036236       -28.1974
  87   2.0000      -1.032072       -28.0841
  88   2.0000      -1.016255       -27.6537
  89   2.0000      -1.013110       -27.5681
  90   2.0000      -1.007710       -27.4212
  91   2.0000      -1.003430       -27.3047
  92   2.0000      -1.002058       -27.2674
  93   2.0000      -0.997454       -27.1421
  94   2.0000      -0.987668       -26.8758
  95   2.0000      -0.986380       -26.8408
  96   2.0000      -0.970192       -26.4003
  97   2.0000      -0.954116       -25.9628
  98   2.0000      -0.944003       -25.6876
  99   2.0000      -0.934895       -25.4398
 100   2.0000      -0.924701       -25.1624
 101   2.0000      -0.919293       -25.0152
 102   2.0000      -0.909659       -24.7531
 103   2.0000      -0.904767       -24.6200
 104   2.0000      -0.889517       -24.2050
 105   2.0000      -0.887922       -24.1616
 106   2.0000      -0.867107       -23.5952
 107   2.0000      -0.856519       -23.3071
 108   2.0000      -0.849033       -23.1034
 109   2.0000      -0.847922       -23.0731
 110   2.0000      -0.830859       -22.6088
 111   2.0000      -0.812879       -22.1196
 112   2.0000      -0.802925       -21.8487
 113   2.0000      -0.802114       -21.8266
 114   2.0000      -0.777498       -21.1568
 115   2.0000      -0.773925       -21.0596
 116   2.0000      -0.758675       -20.6446
 117   2.0000      -0.753750       -20.5106
 118   2.0000      -0.745982       -20.2992
 119   2.0000      -0.739875       -20.1330
 120   2.0000      -0.727986       -19.8095
 121   2.0000      -0.713031       -19.4026
 122   2.0000      -0.705012       -19.1844
 123   2.0000      -0.699010       -19.0210
 124   2.0000      -0.694661       -18.9027
 125   2.0000      -0.692642       -18.8477
 126   2.0000      -0.676120       -18.3982
 127   2.0000      -0.674453       -18.3528
 128   2.0000      -0.669913       -18.2293
 129   2.0000      -0.663010       -18.0414
 130   2.0000      -0.650955       -17.7134
 131   2.0000      -0.647503       -17.6194
 132   2.0000      -0.634330       -17.2610
 133   2.0000      -0.630180       -17.1481
 134   2.0000      -0.627933       -17.0869
 135   2.0000      -0.623813       -16.9748
 136   2.0000      -0.620155       -16.8753
 137   2.0000      -0.611326       -16.6350
 138   2.0000      -0.608082       -16.5468
 139   2.0000      -0.602755       -16.4018
 140   2.0000      -0.600996       -16.3539
 141   2.0000      -0.599175       -16.3044
 142   2.0000      -0.585998       -15.9458
 143   2.0000      -0.582585       -15.8530
 144   2.0000      -0.573655       -15.6099
 145   2.0000      -0.571226       -15.5438
 146   2.0000      -0.568589       -15.4721
 147   2.0000      -0.562344       -15.3022
 148   2.0000      -0.555281       -15.1100
 149   2.0000      -0.554299       -15.0832
 150   2.0000      -0.551434       -15.0053
 151   2.0000      -0.547097       -14.8873
 152   2.0000      -0.544764       -14.8238
 153   2.0000      -0.539209       -14.6726
 154   2.0000      -0.533283       -14.5114
 155   2.0000      -0.531504       -14.4630
 156   2.0000      -0.529016       -14.3953
 157   2.0000      -0.527633       -14.3576
 158   2.0000      -0.522130       -14.2079
 159   2.0000      -0.521135       -14.1808
 160   2.0000      -0.517060       -14.0699
 161   2.0000      -0.514325       -13.9955
 162   2.0000      -0.511402       -13.9160
 163   2.0000      -0.510136       -13.8815
 164   2.0000      -0.506055       -13.7705
 165   2.0000      -0.504253       -13.7214
 166   2.0000      -0.499975       -13.6050
 167   2.0000      -0.499209       -13.5842
 168   2.0000      -0.493577       -13.4309
 169   2.0000      -0.489250       -13.3132
 170   2.0000      -0.486064       -13.2265
 171   2.0000      -0.482922       -13.1410
 172   2.0000      -0.477243       -12.9864
 173   2.0000      -0.470745       -12.8096
 174   2.0000      -0.467631       -12.7249
 175   2.0000      -0.465593       -12.6694
 176   2.0000      -0.463864       -12.6224
 177   2.0000      -0.460830       -12.5398
 178   2.0000      -0.460369       -12.5273
 179   2.0000      -0.455481       -12.3943
 180   2.0000      -0.453204       -12.3323
 181   2.0000      -0.451964       -12.2986
 182   2.0000      -0.451346       -12.2817
 183   2.0000      -0.447855       -12.1867
 184   2.0000      -0.446283       -12.1440
 185   2.0000      -0.445792       -12.1306
 186   2.0000      -0.445017       -12.1095
 187   2.0000      -0.439775       -11.9669
 188   2.0000      -0.433963       -11.8087
 189   2.0000      -0.432511       -11.7692
 190   2.0000      -0.431788       -11.7496
 191   2.0000      -0.430170       -11.7055
 192   2.0000      -0.428392       -11.6571
 193   2.0000      -0.427474       -11.6322
 194   2.0000      -0.426253       -11.5989
 195   2.0000      -0.413341       -11.2476
 196   2.0000      -0.411906       -11.2085
 197   2.0000      -0.408719       -11.1218
 198   2.0000      -0.401624       -10.9287
 199   2.0000      -0.399951       -10.8832
 200   2.0000      -0.397494       -10.8164
 201   2.0000      -0.390240       -10.6190
 202   2.0000      -0.387315       -10.5394
 203   2.0000      -0.380905       -10.3650
 204   2.0000      -0.375018       -10.2048
 205   2.0000      -0.358946        -9.7674
 206   2.0000      -0.355816        -9.6823
 207   2.0000      -0.352441        -9.5904
 208   2.0000      -0.349933        -9.5222
 209   2.0000      -0.346700        -9.4342
 210   2.0000      -0.341975        -9.3056
 211   2.0000      -0.336511        -9.1569
 212   2.0000      -0.333078        -9.0635
 213   2.0000      -0.318828        -8.6758
 214   2.0000      -0.315714        -8.5910
 215   2.0000      -0.313034        -8.5181
 216   2.0000      -0.300458        -8.1759
 217   2.0000      -0.256220        -6.9721
 218   0.0000      -0.109278        -2.9736
 219   0.0000      -0.100531        -2.7356
 220   0.0000      -0.075277        -2.0484
 221   0.0000      -0.067254        -1.8301
 222   0.0000      -0.050059        -1.3622

MULLIKEN ATOMIC CHARGES
-----------------------
   0 C :    0.036410
   1 C :   -0.127583
   2 S :    0.204480
   3 C :   -0.159656
   4 Cl:    0.033065
   5 C :    0.068060
   6 C :    0.178227
   7 O :   -0.183798
   8 C :   -0.081938
   9 C :    0.285957
  10 C :   -0.321779
  11 C :   -0.192179
  12 N :    0.161999
  13 C :   -0.185062
  14 N :    0.169986
  15 C :   -0.011623
  16 C :    0.011533
  17 C :    0.043954
  18 C :    0.018921
  19 C :    0.000525
  20 N :   -0.047814
  21 C :    0.008367
  22 C :   -0.159292
  23 S :    0.143524
  24 C :   -0.152239
  25 C :    0.127536
  26 C :    0.104089
  27 N :   -0.035425
  28 C :   -0.101038
  29 C :   -0.124693
  30 N :    0.151004
  31 C :   -0.056295
  32 C :    0.152855
  33 C :   -0.058976
  34 C :    0.125226
  35 N :    0.220630
  36 O :   -0.227283
  37 O :   -0.219221
  38 C :    0.080977
  39 C :   -0.005659
  40 C :   -0.017772
  41 C :    0.007182
  42 C :    0.033137
  43 C :    0.007964
  44 C :   -0.118013
  45 C :    0.139840
  46 O :   -0.127298
  47 C :    0.083438
  48 C :   -0.172764
  49 S :    0.184024
  50 C :   -0.127058
  51 C :    0.021965
  52 C :    0.276856
  53 C :   -0.316662
  54 C :   -0.186663
  55 N :    0.151533
  56 C :   -0.212693
  57 N :    0.173803
  58 Cl:   -0.000044
  59 H :    0.059273
  60 H :    0.034338
  61 H :   -0.008412
  62 H :    0.007892
  63 H :    0.010924
  64 H :    0.126994
  65 H :   -0.004112
  66 H :   -0.017018
  67 H :   -0.008776
  68 H :   -0.000423
  69 H :    0.008499
  70 H :    0.035738
  71 H :    0.024314
  72 H :    0.054225
Sum of atomic charges:   -0.0000000

LOEWDIN ATOMIC CHARGES
----------------------
   0 C :   -0.058324
   1 C :   -0.145463
   2 S :    0.492718
   3 C :   -0.264856
   4 Cl:    0.219823
   5 C :   -0.124409
   6 C :    0.105696
   7 O :   -0.149701
   8 C :   -0.081902
   9 C :    0.073639
  10 C :   -0.126370
  11 C :   -0.014794
  12 N :   -0.041655
  13 C :   -0.025280
  14 N :   -0.034586
  15 C :    0.089548
  16 C :   -0.062229
  17 C :    0.038514
  18 C :   -0.055392
  19 C :    0.035931
  20 N :   -0.058540
  21 C :    0.038220
  22 C :   -0.211887
  23 S :    0.470299
  24 C :   -0.174349
  25 C :   -0.058745
  26 C :   -0.000199
  27 N :    0.071260
  28 C :   -0.019605
  29 C :   -0.036185
  30 N :   -0.048783
  31 C :   -0.043712
  32 C :   -0.022328
  33 C :    0.006675
  34 C :   -0.009931
  35 N :    0.279846
  36 O :   -0.196660
  37 O :   -0.190463
  38 C :   -0.018231
  39 C :    0.008558
  40 C :   -0.007161
  41 C :    0.032571
  42 C :   -0.017893
  43 C :    0.072571
  44 C :   -0.084664
  45 C :    0.080213
  46 O :   -0.132705
  47 C :   -0.117694
  48 C :   -0.272811
  49 S :    0.473678
  50 C :   -0.150912
  51 C :   -0.056964
  52 C :    0.070983
  53 C :   -0.134021
  54 C :   -0.015479
  55 N :   -0.048725
  56 C :   -0.025357
  57 N :   -0.046906
  58 Cl:    0.191355
  59 H :    0.039692
  60 H :    0.050109
  61 H :    0.029878
  62 H :    0.020934
  63 H :    0.026694
  64 H :    0.072468
  65 H :    0.035070
  66 H :    0.038570
  67 H :    0.037759
  68 H :    0.027322
  69 H :    0.038275
  70 H :    0.031361
  71 H :    0.047833
  72 H :    0.037807

  Mayer bond orders larger than 0.100000
B(  0-C ,  1-C ) :   1.5445 B(  0-C ,  5-C ) :   1.2162 B(  0-C ,  9-C ) :   1.0009
B(  1-C ,  2-S ) :   1.1630 B(  1-C , 59-H ) :   0.9545 B(  2-S ,  3-C ) :   1.1649
B(  3-C ,  4-Cl) :   1.1492 B(  3-C ,  5-C ) :   1.4462 B(  5-C ,  6-C ) :   0.9917
B(  6-C ,  7-O ) :   2.0634 B(  6-C ,  8-C ) :   0.9472 B(  7-O , 64-H ) :   0.1078
B(  8-C ,  9-C ) :   1.0438 B(  8-C , 15-C ) :   1.6930 B(  9-C , 10-C ) :   1.6789
B( 10-C , 11-C ) :   1.1437 B( 10-C , 13-C ) :   1.1322 B( 11-C , 12-N ) :   2.9920
B( 13-C , 14-N ) :   2.9716 B( 15-C , 16-C ) :   1.0414 B( 15-C , 60-H ) :   0.9391
B( 16-C , 17-C ) :   1.3772 B( 16-C , 21-C ) :   1.3040 B( 17-C , 18-C ) :   1.4085
B( 17-C , 61-H ) :   0.9732 B( 18-C , 19-C ) :   1.3191 B( 18-C , 22-C ) :   1.0233
B( 19-C , 20-N ) :   1.5654 B( 19-C , 62-H ) :   0.9858 B( 20-N , 21-C ) :   1.5658
B( 21-C , 63-H ) :   0.9894 B( 22-C , 23-S ) :   1.1191 B( 22-C , 24-C ) :   0.1291
B( 22-C , 26-C ) :   1.4466 B( 23-S , 24-C ) :   1.1418 B( 24-C , 25-C ) :   1.3537
B( 24-C , 32-C ) :   1.1022 B( 25-C , 26-C ) :   1.2159 B( 25-C , 31-C ) :   1.1527
B( 26-C , 27-N ) :   1.1856 B( 27-N , 28-C ) :   1.2231 B( 27-N , 64-H ) :   0.8907
B( 28-C , 29-C ) :   1.0588 B( 28-C , 31-C ) :   1.5858 B( 29-C , 30-N ) :   3.0270
B( 31-C , 65-H ) :   1.0083 B( 32-C , 33-C ) :   1.2940 B( 32-C , 40-C ) :   1.3041
B( 33-C , 34-C ) :   1.4150 B( 33-C , 66-H ) :   0.9920 B( 34-C , 35-N ) :   0.8539
B( 34-C , 38-C ) :   1.3528 B( 35-N , 36-O ) :   1.5310 B( 35-N , 37-O ) :   1.5484
B( 36-O , 37-O ) :   0.2735 B( 38-C , 39-C ) :   1.3313 B( 38-C , 41-C ) :   1.0516
B( 39-C , 40-C ) :   1.4191 B( 39-C , 67-H ) :   0.9909 B( 40-C , 68-H ) :   0.9876
B( 41-C , 42-C ) :   1.7123 B( 41-C , 69-H ) :   0.9674 B( 42-C , 43-C ) :   1.1345
B( 42-C , 70-H ) :   0.9442 B( 43-C , 44-C ) :   1.6431 B( 43-C , 71-H ) :   0.9593
B( 44-C , 45-C ) :   0.9344 B( 44-C , 52-C ) :   1.0387 B( 45-C , 46-O ) :   2.2821
B( 45-C , 47-C ) :   0.9261 B( 47-C , 48-C ) :   1.4872 B( 47-C , 51-C ) :   1.2209
B( 48-C , 49-S ) :   1.1506 B( 48-C , 58-Cl) :   1.1279 B( 49-S , 50-C ) :   1.1584
B( 50-C , 51-C ) :   1.5512 B( 50-C , 72-H ) :   0.9558 B( 51-C , 52-C ) :   1.0117
B( 52-C , 53-C ) :   1.6589 B( 53-C , 54-C ) :   1.1340 B( 53-C , 56-C ) :   1.1508
B( 54-C , 55-N ) :   2.9988 B( 56-C , 57-N ) :   3.0153

-----------------------------------------------------------------------------
         ABSORPTION SPECTRUM VIA TRANSITION ELECTRIC DIPOLE MOMENTS
-----------------------------------------------------------------------------
State   Energy  Wavelength   fosc         T2         TX        TY        TZ
        (cm-1)    (nm)                  (au**2)     (au)      (au)      (au)
-----------------------------------------------------------------------------
   0   17273.4    578.9   0.012464758   0.23756  -0.38655   0.28763  -0.07355
   1   19359.9    516.5   1.063146090  18.07865  -0.13058   0.83490  -4.16708
   2   24899.5    401.6   0.005638836   0.07455  -0.18434   0.00058  -0.20143
   3   25723.0    388.8   0.597276517   7.64414  -1.83530   0.08409  -2.06610
   4   26728.9    374.1   0.057388243   0.70683   0.38082  -0.21069   0.71932
   5   27187.3    367.8   0.065335626   0.79115   0.65896   0.59473  -0.05668
   6   27545.0    363.0   0.164994046   1.97197   0.41657  -0.18861  -1.32773
   7   28840.7    346.7   0.001081563   0.01235  -0.10078   0.02287   0.04082
   8   29058.0    344.1   0.085485631   0.96851   0.43949   0.15425  -0.86692
   9   29464.2    339.4   0.031470408   0.35163  -0.05929   0.49979  -0.31356
  10   29477.3    339.2   0.100476502   1.12215   0.66033  -0.13312  -0.81755
  11   30198.0    331.1   0.008639041   0.09418   0.29050  -0.09549  -0.02596
  12   31996.7    312.5   0.139181732   1.43203  -0.89632   0.00580  -0.79285
  13   32320.8    309.4   0.031473454   0.32058  -0.17030   0.13865  -0.52188
  14   32874.6    304.2   0.016003866   0.16027   0.24060   0.10335   0.30282
  15   33007.9    303.0   0.038013342   0.37913   0.29685  -0.53203   0.08924
  16   33343.4    299.9   0.026051169   0.25721  -0.10931  -0.26306  -0.41960
  17   33470.4    298.8   0.235703095   2.31835  -0.08685   0.23287  -1.50219
  18   33928.5    294.7   0.137103694   1.33033   0.08021  -0.48036  -1.04554
  19   34369.9    291.0   0.061543372   0.58949   0.61774   0.01082   0.45583
  20   34844.6    287.0   0.222045446   2.09789   0.51207  -1.34758   0.14032
  21   35036.4    285.4   0.019454192   0.18280  -0.19562  -0.15644  -0.34649
  22   35381.0    282.6   0.050372535   0.46870   0.22014   0.12638   0.63582
  23   36146.4    276.7   0.044088861   0.40155   0.32154   0.52048   0.16511
  24   36357.6    275.0   0.407107482   3.68629   0.14695   1.60590   1.04201
  25   36528.8    273.8   0.091848510   0.82777   0.05544   0.77874   0.46719
  26   36713.1    272.4   0.118091258   1.05894  -0.26161  -0.05005  -0.99398
  27   37518.8    266.5   0.058473743   0.51308  -0.26920   0.47925   0.45928
  28   37626.1    265.8   0.074990171   0.65613  -0.30830   0.66213  -0.35023
  29   37996.3    263.2   0.042093398   0.36471  -0.20194   0.54611  -0.16030
  30   38145.9    262.2   0.428272510   3.69614  -0.24493  -0.26489  -1.88838
  31   38259.9    261.4   0.021485784   0.18488  -0.01221  -0.15419  -0.40119
  32   38411.4    260.3   0.031125891   0.26677   0.16846  -0.46528   0.14800
  33   38513.3    259.7   0.091840654   0.78505   0.06090   0.59497   0.65373
  34   39313.6    254.4   0.146085129   1.22332  -0.58652   0.91155   0.21998
  35   39544.3    252.9   0.096593443   0.80415   0.38670  -0.75942  -0.27911
  36   40075.7    249.5   0.470257075   3.86304  -0.78603   1.77344   0.31642
  37   40128.0    249.2   0.029808196   0.24455  -0.10299  -0.25991   0.40790

FINAL SINGLE POINT ENERGY     -4458.959415381136

DIPOLE MOMENT
-------------
                                X             Y             Z
Electronic contribution:     10.75669     -13.68842     -17.32074
Nuclear contribution   :    -11.73671      12.96626      17.91930
                        -----------------------------------------
Total Dipole Moment    :     -0.98002      -0.72216       0.59856
                        -----------------------------------------
Magnitude (a.u.)       :      1.35655
Magnitude (Debye)      :      3.44808

Rotational constants in cm-1:     0.002939     0.000333     0.000322
Rotational constants in MHz :    88.105854     9.972028     9.660088

                             ****ORCA TERMINATED NORMALLY****
TOTAL RUN TIME: 0 days 0 hours 6 minutes 10 seconds 319 msec
