                         Program Version 4.2.0 -  RELEASE  -
|  1> # ORCA input file
|  2> # SCF done       -207.456908371956          0.000679813975
|  3> ! CAM-B3LYP def2-SVP def2/J RIJCOSX Grid4 TightSCF
|  4> %maxcore 5000
|  5> %tddft
|  6>     Mode sTDDFT
|  7>     Ethresh 5.0
|  8>     maxcore 5000
|  9> end
| 10>
| 11> %pal
| 12>   nprocs 6
| 13>   end
| 14> * xyz 0 1
| 15>    C        4.73507         2.80220         2.03845
| 16>    C        4.27176         3.82594         2.80632
| 17>    S        3.70250         3.25395         4.33074
| 18>    C        4.09548         1.59893         3.93100
| 19>   Cl        3.80129         0.33422         5.01770
| 20>    C        4.63373         1.52555         2.67990
| 21>    C        5.14314         0.47220         1.79756
| 22>    O        5.21495        -0.71208         2.02748
| 23>    C        5.62161         1.20329         0.57592
| 24>    C        5.30985         2.62397         0.72242
| 25>    C        5.45409         3.61224        -0.21067
| 26>    C        5.07925         4.94452         0.06977
| 27>    N        4.78012         6.02969         0.28867
| 28>    C        5.94123         3.43698        -1.52255
| 29>    N        6.31418         3.35576        -2.60469
| 30>    C        6.39001         0.66797        -0.40106
| 31>    C        6.66913        -0.73711        -0.60348
| 32>    C        7.95038        -1.12859        -0.98955
| 33>    C        8.25597        -2.46771        -1.15734
| 34>    N        9.63278        -2.81203        -1.41367
| 35>    O       10.34660        -1.94730        -1.87194
| 36>    O        9.99694        -3.93188        -1.12424
| 37>    C        7.28244        -3.47131        -1.00862
| 38>    C        5.99112        -3.05386        -0.66231
| 39>    C        5.68897        -1.72765        -0.45725
| 40>    C        7.55520        -4.86444        -1.27749
| 41>    C        7.03100        -5.87311        -0.54988
| 42>    C        7.26638        -7.23884        -0.87255
| 43>    N        6.88187        -8.29424        -0.07916
| 44>    C        6.30157        -8.21281         1.23899
| 45>    C        7.33955        -7.83085         2.29139
| 46>    C        7.21993        -9.53612        -0.65447
| 47>    O        6.97333       -10.60974        -0.14325
| 48>    C        7.85204        -9.17916        -1.90256
| 49>    C        7.86536        -7.76965        -2.01105
| 50>    C        8.47699        -7.44150        -3.27979
| 51>    O        8.68916        -6.37833        -3.82574
| 52>    N        8.79988        -8.68911        -3.85631
| 53>    C        9.52819        -8.73552        -5.10193
| 54>    C       10.99036        -9.11889        -4.89174
| 55>    C        8.43182        -9.73302        -3.04070
| 56>    C        8.53330       -11.13749        -3.20772
| 57>    C        8.94521       -11.87011        -4.27040
| 58>    C        8.95287       -13.29376        -4.30463
| 59>    S        8.89476       -14.06173        -5.86026
| 60>    C        8.80858       -15.64457        -5.15499
| 61>    C        8.86070       -15.55920        -3.76687
| 62>    C        8.95237       -14.24401        -3.28748
| 63>    C        9.16268       -13.96436        -1.82528
| 64>    F       10.08237       -12.95860        -1.64289
| 65>    C        9.68506       -15.22827        -1.13250
| 66>    F       10.91779       -15.55117        -1.64776
| 67>    C        8.71553       -16.37655        -1.40401
| 68>    F        9.03407       -17.45039        -0.61319
| 69>    C        8.79064       -16.77032        -2.88011
| 70>    F        7.66617       -17.50960        -3.19893
| 71>    C        8.72115       -16.81338        -5.94711
| 72>    C        8.71585       -16.80797        -7.30600
| 73>    C        8.64790       -17.99189        -8.07093
| 74>    C        8.79685       -18.12226        -9.42031
| 75>    C        8.32041       -19.37587       -10.08214
| 76>    O        8.00516       -20.40317        -9.53129
| 77>    C        8.28226       -19.04315       -11.51165
| 78>    C        7.88795       -19.64148       -12.67010
| 79>    S        8.15037       -18.57483       -14.03074
| 80>    C        8.79960       -17.33766       -13.01637
| 81>    C        8.80524       -17.72316       -11.71281
| 82>    C        9.24100       -17.18693       -10.43472
| 83>    C       10.07367       -16.10580       -10.30134
| 84>    C       10.43316       -15.31972       -11.41658
| 85>    N       10.71601       -14.65634       -12.30905
| 86>    C       10.73503       -15.70949        -9.12218
| 87>    N       11.34036       -15.35875        -8.21196
| 88>   Cl        7.22805       -21.18776       -12.87762
| 89>    H        4.22828         4.87441         2.58746
| 90>    H        6.89003         1.33755        -1.09085
| 91>    H        8.73693        -0.39843        -1.11562
| 92>    H        5.21198        -3.79590        -0.58384
| 93>    H        4.67771        -1.44446        -0.21589
| 94>    H        8.20850        -5.09786        -2.10881
| 95>    H        6.44250        -5.65680         0.33105
| 96>    H        5.90588        -9.20921         1.45519
| 97>    H        5.47217        -7.49957         1.23348
| 98>    H        8.13205        -8.57456         2.31738
| 99>    H        6.87218        -7.78608         3.27116
|100>    H        7.78273        -6.86280         2.06855
|101>    H        9.47086        -7.72290        -5.51292
|102>    H        9.03037        -9.41711        -5.79679
|103>    H       11.48075        -8.37371        -4.27045
|104>    H       11.50022        -9.16126        -5.85014
|105>    H       11.07861       -10.08625        -4.40290
|106>    H        8.17427       -11.65284        -2.32941
|107>    H        9.22949       -11.40052        -5.19948
|108>    H        8.24044       -13.63362        -1.32430
|109>    H        9.82917       -15.06744        -0.05841
|110>    H        7.69075       -16.08673        -1.13973
|111>    H        9.65105       -17.43560        -3.03606
|112>    H        8.68068       -17.75763        -5.42224
|113>    H        8.74919       -15.85781        -7.82062
|114>    H        8.38222       -18.90472        -7.54754
|115>    H        9.12137       -16.41421       -13.45527
|116> *
|117>
|118>                          ****END OF INPUT****

CARTESIAN COORDINATES (ANGSTROEM)
---------------------------------
  C      4.735070    2.802200    2.038450
  C      4.271760    3.825940    2.806320
  S      3.702500    3.253950    4.330740
  C      4.095480    1.598930    3.931000
  Cl     3.801290    0.334220    5.017700
  C      4.633730    1.525550    2.679900
  C      5.143140    0.472200    1.797560
  O      5.214950   -0.712080    2.027480
  C      5.621610    1.203290    0.575920
  C      5.309850    2.623970    0.722420
  C      5.454090    3.612240   -0.210670
  C      5.079250    4.944520    0.069770
  N      4.780120    6.029690    0.288670
  C      5.941230    3.436980   -1.522550
  N      6.314180    3.355760   -2.604690
  C      6.390010    0.667970   -0.401060
  C      6.669130   -0.737110   -0.603480
  C      7.950380   -1.128590   -0.989550
  C      8.255970   -2.467710   -1.157340
  N      9.632780   -2.812030   -1.413670
  O     10.346600   -1.947300   -1.871940
  O      9.996940   -3.931880   -1.124240
  C      7.282440   -3.471310   -1.008620
  C      5.991120   -3.053860   -0.662310
  C      5.688970   -1.727650   -0.457250
  C      7.555200   -4.864440   -1.277490
  C      7.031000   -5.873110   -0.549880
  C      7.266380   -7.238840   -0.872550
  N      6.881870   -8.294240   -0.079160
  C      6.301570   -8.212810    1.238990
  C      7.339550   -7.830850    2.291390
  C      7.219930   -9.536120   -0.654470
  O      6.973330  -10.609740   -0.143250
  C      7.852040   -9.179160   -1.902560
  C      7.865360   -7.769650   -2.011050
  C      8.476990   -7.441500   -3.279790
  O      8.689160   -6.378330   -3.825740
  N      8.799880   -8.689110   -3.856310
  C      9.528190   -8.735520   -5.101930
  C     10.990360   -9.118890   -4.891740
  C      8.431820   -9.733020   -3.040700
  C      8.533300  -11.137490   -3.207720
  C      8.945210  -11.870110   -4.270400
  C      8.952870  -13.293760   -4.304630
  S      8.894760  -14.061730   -5.860260
  C      8.808580  -15.644570   -5.154990
  C      8.860700  -15.559200   -3.766870
  C      8.952370  -14.244010   -3.287480
  C      9.162680  -13.964360   -1.825280
  F     10.082370  -12.958600   -1.642890
  C      9.685060  -15.228270   -1.132500
  F     10.917790  -15.551170   -1.647760
  C      8.715530  -16.376550   -1.404010
  F      9.034070  -17.450390   -0.613190
  C      8.790640  -16.770320   -2.880110
  F      7.666170  -17.509600   -3.198930
  C      8.721150  -16.813380   -5.947110
  C      8.715850  -16.807970   -7.306000
  C      8.647900  -17.991890   -8.070930
  C      8.796850  -18.122260   -9.420310
  C      8.320410  -19.375870  -10.082140
  O      8.005160  -20.403170   -9.531290
  C      8.282260  -19.043150  -11.511650
  C      7.887950  -19.641480  -12.670100
  S      8.150370  -18.574830  -14.030740
  C      8.799600  -17.337660  -13.016370
  C      8.805240  -17.723160  -11.712810
  C      9.241000  -17.186930  -10.434720
  C     10.073670  -16.105800  -10.301340
  C     10.433160  -15.319720  -11.416580
  N     10.716010  -14.656340  -12.309050
  C     10.735030  -15.709490   -9.122180
  N     11.340360  -15.358750   -8.211960
  Cl     7.228050  -21.187760  -12.877620
  H      4.228280    4.874410    2.587460
  H      6.890030    1.337550   -1.090850
  H      8.736930   -0.398430   -1.115620
  H      5.211980   -3.795900   -0.583840
  H      4.677710   -1.444460   -0.215890
  H      8.208500   -5.097860   -2.108810
  H      6.442500   -5.656800    0.331050
  H      5.905880   -9.209210    1.455190
  H      5.472170   -7.499570    1.233480
  H      8.132050   -8.574560    2.317380
  H      6.872180   -7.786080    3.271160
  H      7.782730   -6.862800    2.068550
  H      9.470860   -7.722900   -5.512920
  H      9.030370   -9.417110   -5.796790
  H     11.480750   -8.373710   -4.270450
  H     11.500220   -9.161260   -5.850140
  H     11.078610  -10.086250   -4.402900
  H      8.174270  -11.652840   -2.329410
  H      9.229490  -11.400520   -5.199480
  H      8.240440  -13.633620   -1.324300
  H      9.829170  -15.067440   -0.058410
  H      7.690750  -16.086730   -1.139730
  H      9.651050  -17.435600   -3.036060
  H      8.680680  -17.757630   -5.422240
  H      8.749190  -15.857810   -7.820620
  H      8.382220  -18.904720   -7.547540
  H      9.121370  -16.414210  -13.455270

 Total Charge           Charge          ....    0
 Multiplicity           Mult            ....    1
 Number of Electrons    NEL             ....  554
 Basis Dimension        Dim             .... 1191

ORBITAL ENERGIES
----------------

  NO   OCC          E(Eh)            E(eV)
   0   2.0000    -101.628172     -2765.4431
   1   2.0000    -101.613637     -2765.0476
   2   2.0000     -89.005132     -2421.9528
   3   2.0000     -88.988928     -2421.5118
   4   2.0000     -88.977097     -2421.1899
   5   2.0000     -24.771049      -674.0545
   6   2.0000     -24.769746      -674.0191
   7   2.0000     -24.769127      -674.0022
   8   2.0000     -24.768470      -673.9843
   9   2.0000     -19.250505      -523.8329
  10   2.0000     -19.248311      -523.7732
  11   2.0000     -19.235223      -523.4170
  12   2.0000     -19.213736      -522.8323
  13   2.0000     -19.197620      -522.3938
  14   2.0000     -19.193767      -522.2890
  15   2.0000     -14.655183      -398.7878
  16   2.0000     -14.459353      -393.4590
  17   2.0000     -14.456451      -393.3800
  18   2.0000     -14.430863      -392.6837
  19   2.0000     -14.430430      -392.6720
  20   2.0000     -14.417664      -392.3246
  21   2.0000     -14.416465      -392.2919
  22   2.0000     -10.392864      -282.8042
  23   2.0000     -10.387805      -282.6666
  24   2.0000     -10.380171      -282.4588
  25   2.0000     -10.377102      -282.3753
  26   2.0000     -10.375569      -282.3336
  27   2.0000     -10.373337      -282.2729
  28   2.0000     -10.371869      -282.2329
  29   2.0000     -10.371023      -282.2099
  30   2.0000     -10.370279      -282.1896
  31   2.0000     -10.368859      -282.1510
  32   2.0000     -10.360698      -281.9289
  33   2.0000     -10.359902      -281.9073
  34   2.0000     -10.346984      -281.5557
  35   2.0000     -10.346489      -281.5423
  36   2.0000     -10.345365      -281.5117
  37   2.0000     -10.342442      -281.4321
  38   2.0000     -10.341229      -281.3992
  39   2.0000     -10.340547      -281.3806
  40   2.0000     -10.335908      -281.2544
  41   2.0000     -10.332347      -281.1575
  42   2.0000     -10.331916      -281.1457
  43   2.0000     -10.330626      -281.1106
  44   2.0000     -10.325454      -280.9699
  45   2.0000     -10.325277      -280.9651
  46   2.0000     -10.324070      -280.9322
  47   2.0000     -10.323717      -280.9226
  48   2.0000     -10.322405      -280.8869
  49   2.0000     -10.319939      -280.8198
  50   2.0000     -10.319194      -280.7995
  51   2.0000     -10.316528      -280.7270
  52   2.0000     -10.316453      -280.7249
  53   2.0000     -10.315324      -280.6942
  54   2.0000     -10.315136      -280.6891
  55   2.0000     -10.314731      -280.6781
  56   2.0000     -10.311748      -280.5969
  57   2.0000     -10.310279      -280.5570
  58   2.0000     -10.309639      -280.5395
  59   2.0000     -10.309229      -280.5284
  60   2.0000     -10.308033      -280.4958
  61   2.0000     -10.306398      -280.4514
  62   2.0000     -10.305570      -280.4288
  63   2.0000     -10.303233      -280.3652
  64   2.0000     -10.302849      -280.3548
  65   2.0000     -10.300554      -280.2923
  66   2.0000     -10.299568      -280.2655
  67   2.0000     -10.298597      -280.2391
  68   2.0000     -10.296549      -280.1834
  69   2.0000     -10.295967      -280.1675
  70   2.0000     -10.268622      -279.4234
  71   2.0000     -10.266503      -279.3658
  72   2.0000     -10.264196      -279.3030
  73   2.0000     -10.261111      -279.2190
  74   2.0000      -9.582914      -260.7644
  75   2.0000      -9.568411      -260.3697
  76   2.0000      -8.100743      -220.4324
  77   2.0000      -8.084744      -219.9971
  78   2.0000      -8.072749      -219.6707
  79   2.0000      -7.353557      -200.1005
  80   2.0000      -7.342953      -199.8119
  81   2.0000      -7.342408      -199.7971
  82   2.0000      -7.339053      -199.7058
  83   2.0000      -7.328448      -199.4172
  84   2.0000      -7.327915      -199.4027
  85   2.0000      -6.070088      -165.1755
  86   2.0000      -6.065489      -165.0504
  87   2.0000      -6.063091      -164.9851
  88   2.0000      -6.054149      -164.7418
  89   2.0000      -6.049551      -164.6167
  90   2.0000      -6.046917      -164.5450
  91   2.0000      -6.041792      -164.4055
  92   2.0000      -6.037816      -164.2973
  93   2.0000      -6.035067      -164.2225
  94   2.0000      -1.331046       -36.2196
  95   2.0000      -1.296039       -35.2670
  96   2.0000      -1.286584       -35.0097
  97   2.0000      -1.278001       -34.7762
  98   2.0000      -1.272815       -34.6351
  99   2.0000      -1.152879       -31.3714
 100   2.0000      -1.150235       -31.2995
 101   2.0000      -1.137920       -30.9644
 102   2.0000      -1.130824       -30.7713
 103   2.0000      -1.130796       -30.7705
 104   2.0000      -1.068534       -29.0763
 105   2.0000      -1.058628       -28.8067
 106   2.0000      -1.049737       -28.5648
 107   2.0000      -1.034082       -28.1388
 108   2.0000      -1.028131       -27.9769
 109   2.0000      -1.015799       -27.6413
 110   2.0000      -1.014144       -27.5962
 111   2.0000      -1.009097       -27.4589
 112   2.0000      -1.005941       -27.3731
 113   2.0000      -0.998490       -27.1703
 114   2.0000      -0.995833       -27.0980
 115   2.0000      -0.984441       -26.7880
 116   2.0000      -0.966721       -26.3058
 117   2.0000      -0.952339       -25.9145
 118   2.0000      -0.939633       -25.5687
 119   2.0000      -0.938775       -25.5454
 120   2.0000      -0.934628       -25.4325
 121   2.0000      -0.932015       -25.3614
 122   2.0000      -0.918356       -24.9897
 123   2.0000      -0.914767       -24.8921
 124   2.0000      -0.910994       -24.7894
 125   2.0000      -0.900711       -24.5096
 126   2.0000      -0.892869       -24.2962
 127   2.0000      -0.881008       -23.9734
 128   2.0000      -0.872121       -23.7316
 129   2.0000      -0.861775       -23.4501
 130   2.0000      -0.856106       -23.2958
 131   2.0000      -0.846571       -23.0364
 132   2.0000      -0.843977       -22.9658
 133   2.0000      -0.829544       -22.5730
 134   2.0000      -0.828009       -22.5313
 135   2.0000      -0.823291       -22.4029
 136   2.0000      -0.816198       -22.2099
 137   2.0000      -0.800783       -21.7904
 138   2.0000      -0.798673       -21.7330
 139   2.0000      -0.774371       -21.0717
 140   2.0000      -0.767081       -20.8733
 141   2.0000      -0.765501       -20.8303
 142   2.0000      -0.763424       -20.7738
 143   2.0000      -0.749985       -20.4081
 144   2.0000      -0.746171       -20.3043
 145   2.0000      -0.736922       -20.0527
 146   2.0000      -0.725695       -19.7472
 147   2.0000      -0.716837       -19.5061
 148   2.0000      -0.712551       -19.3895
 149   2.0000      -0.709852       -19.3160
 150   2.0000      -0.699145       -19.0247
 151   2.0000      -0.694204       -18.8903
 152   2.0000      -0.692248       -18.8370
 153   2.0000      -0.688317       -18.7300
 154   2.0000      -0.685009       -18.6400
 155   2.0000      -0.672393       -18.2967
 156   2.0000      -0.670224       -18.2377
 157   2.0000      -0.665875       -18.1194
 158   2.0000      -0.658743       -17.9253
 159   2.0000      -0.656810       -17.8727
 160   2.0000      -0.650619       -17.7042
 161   2.0000      -0.641271       -17.4499
 162   2.0000      -0.639491       -17.4014
 163   2.0000      -0.635661       -17.2972
 164   2.0000      -0.633033       -17.2257
 165   2.0000      -0.625991       -17.0341
 166   2.0000      -0.623585       -16.9686
 167   2.0000      -0.620627       -16.8881
 168   2.0000      -0.614781       -16.7290
 169   2.0000      -0.611998       -16.6533
 170   2.0000      -0.608371       -16.5546
 171   2.0000      -0.604622       -16.4526
 172   2.0000      -0.603891       -16.4327
 173   2.0000      -0.601519       -16.3682
 174   2.0000      -0.597149       -16.2493
 175   2.0000      -0.593458       -16.1488
 176   2.0000      -0.591570       -16.0974
 177   2.0000      -0.586018       -15.9464
 178   2.0000      -0.582878       -15.8609
 179   2.0000      -0.576789       -15.6952
 180   2.0000      -0.574004       -15.6194
 181   2.0000      -0.572566       -15.5803
 182   2.0000      -0.568055       -15.4576
 183   2.0000      -0.564716       -15.3667
 184   2.0000      -0.561585       -15.2815
 185   2.0000      -0.558706       -15.2032
 186   2.0000      -0.554321       -15.0839
 187   2.0000      -0.552918       -15.0457
 188   2.0000      -0.549510       -14.9529
 189   2.0000      -0.546876       -14.8812
 190   2.0000      -0.546433       -14.8692
 191   2.0000      -0.544085       -14.8053
 192   2.0000      -0.543710       -14.7951
 193   2.0000      -0.538091       -14.6422
 194   2.0000      -0.535580       -14.5739
 195   2.0000      -0.534821       -14.5532
 196   2.0000      -0.532249       -14.4832
 197   2.0000      -0.526384       -14.3236
 198   2.0000      -0.523449       -14.2438
 199   2.0000      -0.522108       -14.2073
 200   2.0000      -0.519118       -14.1259
 201   2.0000      -0.518315       -14.1041
 202   2.0000      -0.516270       -14.0484
 203   2.0000      -0.513740       -13.9796
 204   2.0000      -0.509557       -13.8658
 205   2.0000      -0.508238       -13.8299
 206   2.0000      -0.506118       -13.7722
 207   2.0000      -0.504841       -13.7374
 208   2.0000      -0.502170       -13.6647
 209   2.0000      -0.501082       -13.6351
 210   2.0000      -0.495868       -13.4933
 211   2.0000      -0.494715       -13.4619
 212   2.0000      -0.493052       -13.4166
 213   2.0000      -0.490995       -13.3607
 214   2.0000      -0.487959       -13.2780
 215   2.0000      -0.485466       -13.2102
 216   2.0000      -0.484216       -13.1762
 217   2.0000      -0.479449       -13.0465
 218   2.0000      -0.477729       -12.9997
 219   2.0000      -0.472337       -12.8529
 220   2.0000      -0.471533       -12.8311
 221   2.0000      -0.470106       -12.7922
 222   2.0000      -0.468516       -12.7490
 223   2.0000      -0.464587       -12.6421
 224   2.0000      -0.462787       -12.5931
 225   2.0000      -0.461218       -12.5504
 226   2.0000      -0.458340       -12.4721
 227   2.0000      -0.456493       -12.4218
 228   2.0000      -0.455289       -12.3890
 229   2.0000      -0.454533       -12.3685
 230   2.0000      -0.454061       -12.3556
 231   2.0000      -0.453145       -12.3307
 232   2.0000      -0.450907       -12.2698
 233   2.0000      -0.449014       -12.2183
 234   2.0000      -0.447995       -12.1906
 235   2.0000      -0.443760       -12.0753
 236   2.0000      -0.443477       -12.0676
 237   2.0000      -0.443381       -12.0650
 238   2.0000      -0.441436       -12.0121
 239   2.0000      -0.440178       -11.9779
 240   2.0000      -0.439571       -11.9613
 241   2.0000      -0.437215       -11.8972
 242   2.0000      -0.433686       -11.8012
 243   2.0000      -0.431259       -11.7351
 244   2.0000      -0.428052       -11.6479
 245   2.0000      -0.427902       -11.6438
 246   2.0000      -0.426289       -11.5999
 247   2.0000      -0.423676       -11.5288
 248   2.0000      -0.421675       -11.4744
 249   2.0000      -0.419435       -11.4134
 250   2.0000      -0.414282       -11.2732
 251   2.0000      -0.414079       -11.2677
 252   2.0000      -0.410230       -11.1629
 253   2.0000      -0.406163       -11.0523
 254   2.0000      -0.403343       -10.9755
 255   2.0000      -0.399988       -10.8842
 256   2.0000      -0.396449       -10.7879
 257   2.0000      -0.389714       -10.6047
 258   2.0000      -0.386802       -10.5254
 259   2.0000      -0.376567       -10.2469
 260   2.0000      -0.375525       -10.2186
 261   2.0000      -0.365359        -9.9419
 262   2.0000      -0.360231        -9.8024
 263   2.0000      -0.353380        -9.6159
 264   2.0000      -0.348131        -9.4731
 265   2.0000      -0.344764        -9.3815
 266   2.0000      -0.342788        -9.3277
 267   2.0000      -0.339297        -9.2327
 268   2.0000      -0.337893        -9.1945
 269   2.0000      -0.336297        -9.1511
 270   2.0000      -0.327909        -8.9229
 271   2.0000      -0.327723        -8.9178
 272   2.0000      -0.320224        -8.7137
 273   2.0000      -0.312383        -8.5004
 274   2.0000      -0.309471        -8.4211
 275   2.0000      -0.280484        -7.6324
 276   2.0000      -0.240968        -6.5571
 277   0.0000      -0.111612        -3.0371
 278   0.0000      -0.103037        -2.8038
 279   0.0000      -0.080431        -2.1886
 280   0.0000      -0.063479        -1.7273
 281   0.0000      -0.054636        -1.4867

MULLIKEN ATOMIC CHARGES
-----------------------
   0 C :    0.031598
   1 C :   -0.128429
   2 S :    0.196158
   3 C :   -0.168010
   4 Cl:    0.002929
   5 C :    0.075424
   6 C :    0.143103
   7 O :   -0.128309
   8 C :   -0.092921
   9 C :    0.279971
  10 C :   -0.314369
  11 C :   -0.190997
  12 N :    0.160994
  13 C :   -0.197694
  14 N :    0.172419
  15 C :   -0.026899
  16 C :    0.057697
  17 C :   -0.055837
  18 C :    0.158691
  19 N :    0.245275
  20 O :   -0.228806
  21 O :   -0.220959
  22 C :    0.050856
  23 C :   -0.045903
  24 C :    0.112747
  25 C :    0.030036
  26 C :   -0.038489
  27 C :    0.134244
  28 N :   -0.264887
  29 C :    0.098286
  30 C :    0.000952
  31 C :    0.156573
  32 O :   -0.203001
  33 C :   -0.046431
  34 C :   -0.057825
  35 C :    0.166945
  36 O :   -0.206601
  37 N :   -0.267313
  38 C :    0.099572
  39 C :   -0.005437
  40 C :    0.105557
  41 C :   -0.007097
  42 C :    0.059867
  43 C :   -0.126017
  44 S :    0.166951
  45 C :   -0.096751
  46 C :   -0.042548
  47 C :   -0.068100
  48 C :    0.287499
  49 F :   -0.229268
  50 C :    0.210489
  51 F :   -0.236221
  52 C :    0.186176
  53 F :   -0.230674
  54 C :    0.317925
  55 F :   -0.246793
  56 C :    0.021866
  57 C :    0.001241
  58 C :    0.021531
  59 C :   -0.126599
  60 C :    0.136972
  61 O :   -0.130288
  62 C :    0.085758
  63 C :   -0.173555
  64 S :    0.180789
  65 C :   -0.128596
  66 C :    0.016417
  67 C :    0.287901
  68 C :   -0.325402
  69 C :   -0.187468
  70 N :    0.145286
  71 C :   -0.218567
  72 N :    0.173927
  73 Cl:   -0.003086
  74 H :    0.057500
  75 H :    0.043739
  76 H :    0.011148
  77 H :   -0.005370
  78 H :   -0.004522
  79 H :    0.047118
  80 H :   -0.016717
  81 H :    0.042705
  82 H :    0.022171
  83 H :    0.031937
  84 H :    0.023811
  85 H :    0.021153
  86 H :    0.046918
  87 H :    0.023674
  88 H :    0.031481
  89 H :    0.026048
  90 H :    0.028168
  91 H :   -0.004897
  92 H :   -0.013386
  93 H :    0.053238
  94 H :    0.034367
  95 H :    0.026870
  96 H :    0.040256
  97 H :    0.018822
  98 H :    0.025929
  99 H :    0.021457
 100 H :    0.051909
Sum of atomic charges:   -0.0000000

LOEWDIN ATOMIC CHARGES
----------------------
   0 C :   -0.059816
   1 C :   -0.147239
   2 S :    0.484208
   3 C :   -0.271176
   4 Cl:    0.194962
   5 C :   -0.118356
   6 C :    0.081323
   7 O :   -0.124592
   8 C :   -0.079826
   9 C :    0.072289
  10 C :   -0.127797
  11 C :   -0.015283
  12 N :   -0.043938
  13 C :   -0.026737
  14 N :   -0.035798
  15 C :    0.079804
  16 C :   -0.038047
  17 C :    0.025777
  18 C :   -0.025317
  19 N :    0.285160
  20 O :   -0.196298
  21 O :   -0.181454
  22 C :    0.007906
  23 C :   -0.008426
  24 C :    0.044564
  25 C :    0.042468
  26 C :   -0.044455
  27 C :    0.085145
  28 N :   -0.003340
  29 C :    0.036115
  30 C :   -0.060616
  31 C :    0.081599
  32 O :   -0.201942
  33 C :   -0.106615
  34 C :   -0.124320
  35 C :    0.084570
  36 O :   -0.194033
  37 N :   -0.002698
  38 C :    0.035424
  39 C :   -0.062125
  40 C :    0.067361
  41 C :   -0.010303
  42 C :   -0.034838
  43 C :   -0.139870
  44 S :    0.489088
  45 C :   -0.167421
  46 C :   -0.055923
  47 C :   -0.079212
  48 C :    0.092877
  49 F :   -0.104853
  50 C :    0.088662
  51 F :   -0.111001
  52 C :    0.079235
  53 F :   -0.110011
  54 C :    0.102709
  55 F :   -0.121482
  56 C :    0.021776
  57 C :   -0.038174
  58 C :    0.069560
  59 C :   -0.094680
  60 C :    0.078390
  61 O :   -0.136797
  62 C :   -0.117277
  63 C :   -0.273364
  64 S :    0.469713
  65 C :   -0.152460
  66 C :   -0.057385
  67 C :    0.070727
  68 C :   -0.141157
  69 C :   -0.016022
  70 N :   -0.054269
  71 C :   -0.027742
  72 N :   -0.049851
  73 Cl:    0.189582
  74 H :    0.039141
  75 H :    0.050160
  76 H :    0.044977
  77 H :    0.036660
  78 H :    0.036728
  79 H :    0.040160
  80 H :    0.029736
  81 H :    0.037455
  82 H :    0.021972
  83 H :    0.033056
  84 H :    0.030919
  85 H :    0.024309
  86 H :    0.038575
  87 H :    0.019658
  88 H :    0.033750
  89 H :    0.032449
  90 H :    0.024487
  91 H :    0.042934
  92 H :    0.029871
  93 H :    0.032741
  94 H :    0.033968
  95 H :    0.031634
  96 H :    0.036191
  97 H :    0.041721
  98 H :    0.025939
  99 H :    0.047360
 100 H :    0.036790

  Mayer bond orders larger than 0.100000
B(  0-C ,  1-C ) :   1.5408 B(  0-C ,  5-C ) :   1.2212 B(  0-C ,  9-C ) :   1.0054
B(  1-C ,  2-S ) :   1.1660 B(  1-C , 74-H ) :   0.9546 B(  2-S ,  3-C ) :   1.1566
B(  3-C ,  4-Cl) :   1.1302 B(  3-C ,  5-C ) :   1.4708 B(  5-C ,  6-C ) :   0.9563
B(  6-C ,  7-O ) :   2.2390 B(  6-C ,  8-C ) :   0.9197 B(  8-C ,  9-C ) :   1.0386
B(  8-C , 15-C ) :   1.7131 B(  9-C , 10-C ) :   1.6820 B( 10-C , 11-C ) :   1.1397
B( 10-C , 13-C ) :   1.1319 B( 11-C , 12-N ) :   2.9948 B( 13-C , 14-N ) :   2.9915
B( 15-C , 16-C ) :   1.0431 B( 15-C , 75-H ) :   0.9499 B( 16-C , 17-C ) :   1.2864
B( 16-C , 24-C ) :   1.3358 B( 17-C , 18-C ) :   1.3803 B( 17-C , 76-H ) :   0.9997
B( 18-C , 19-N ) :   0.8793 B( 18-C , 22-C ) :   1.3429 B( 19-N , 20-O ) :   1.5588
B( 19-N , 21-O ) :   1.5324 B( 20-O , 21-O ) :   0.2679 B( 22-C , 23-C ) :   1.3483
B( 22-C , 25-C ) :   1.0417 B( 23-C , 24-C ) :   1.4026 B( 23-C , 77-H ) :   0.9936
B( 24-C , 78-H ) :   0.9832 B( 25-C , 26-C ) :   1.6914 B( 25-C , 79-H ) :   0.9158
B( 26-C , 27-C ) :   1.1413 B( 26-C , 80-H ) :   0.9638 B( 27-C , 28-N ) :   1.1654
B( 27-C , 34-C ) :   1.3515 B( 28-N , 29-C ) :   0.9459 B( 28-N , 31-C ) :   1.0391
B( 29-C , 30-C ) :   1.1183 B( 29-C , 81-H ) :   0.9289 B( 29-C , 82-H ) :   0.9503
B( 30-C , 83-H ) :   0.9641 B( 30-C , 84-H ) :   0.9680 B( 30-C , 85-H ) :   0.9688
B( 31-C , 32-O ) :   2.1079 B( 31-C , 33-C ) :   0.9813 B( 33-C , 34-C ) :   1.2390
B( 33-C , 40-C ) :   1.3520 B( 34-C , 35-C ) :   0.9835 B( 35-C , 36-O ) :   2.0377
B( 35-C , 37-N ) :   1.0561 B( 37-N , 38-C ) :   0.9390 B( 37-N , 40-C ) :   1.1616
B( 38-C , 39-C ) :   1.1163 B( 38-C , 86-H ) :   0.9245 B( 38-C , 87-H ) :   0.9510
B( 39-C , 88-H ) :   0.9622 B( 39-C , 89-H ) :   0.9676 B( 39-C , 90-H ) :   0.9687
B( 40-C , 41-C ) :   1.2126 B( 41-C , 42-C ) :   1.5924 B( 41-C , 91-H ) :   0.9302
B( 42-C , 43-C ) :   1.1260 B( 42-C , 92-H ) :   0.9538 B( 43-C , 44-S ) :   1.1643
B( 43-C , 47-C ) :   1.4828 B( 44-S , 45-C ) :   1.1230 B( 45-C , 46-C ) :   1.4748
B( 45-C , 56-C ) :   1.1651 B( 46-C , 47-C ) :   1.3647 B( 46-C , 54-C ) :   0.9521
B( 47-C , 48-C ) :   0.9307 B( 48-C , 49-F ) :   1.0522 B( 48-C , 50-C ) :   0.9950
B( 48-C , 93-H ) :   0.9188 B( 50-C , 51-F ) :   1.0234 B( 50-C , 52-C ) :   0.9862
B( 50-C , 94-H ) :   0.9277 B( 52-C , 53-F ) :   1.0476 B( 52-C , 54-C ) :   1.0063
B( 52-C , 95-H ) :   0.9295 B( 54-C , 55-F ) :   1.0167 B( 54-C , 96-H ) :   0.9094
B( 56-C , 57-C ) :   1.6045 B( 56-C , 97-H ) :   0.9753 B( 57-C , 58-C ) :   1.1495
B( 57-C , 98-H ) :   0.9589 B( 58-C , 59-C ) :   1.6009 B( 58-C , 99-H ) :   0.9577
B( 59-C , 60-C ) :   0.9419 B( 59-C , 67-C ) :   1.0494 B( 60-C , 61-O ) :   2.2753
B( 60-C , 62-C ) :   0.9250 B( 62-C , 63-C ) :   1.4892 B( 62-C , 66-C ) :   1.2210
B( 63-C , 64-S ) :   1.1475 B( 63-C , 73-Cl) :   1.1266 B( 64-S , 65-C ) :   1.1576
B( 65-C , 66-C ) :   1.5539 B( 65-C ,100-H ) :   0.9548 B( 66-C , 67-C ) :   1.0078
B( 67-C , 68-C ) :   1.6429 B( 68-C , 69-C ) :   1.1344 B( 68-C , 71-C ) :   1.1533
B( 69-C , 70-N ) :   2.9943 B( 71-C , 72-N ) :   3.0140

-----------------------------------------------------------------------------
         ABSORPTION SPECTRUM VIA TRANSITION ELECTRIC DIPOLE MOMENTS
-----------------------------------------------------------------------------
State   Energy  Wavelength   fosc         T2         TX        TY        TZ
        (cm-1)    (nm)                  (au**2)     (au)      (au)      (au)
-----------------------------------------------------------------------------
   0   14496.6    689.8   1.382792692  31.40261   1.05255  -4.30586  -3.42846
   1   18391.6    543.7   0.098575483   1.76451   0.13212  -0.23457   1.30078
   2   21558.3    463.9   0.037867843   0.57827   0.00299   0.23826   0.72214
   3   22797.6    438.6   0.219914209   3.17571   0.20151  -0.77836  -1.59037
   4   24884.0    401.9   0.080289133   1.06221  -0.52993   0.72433   0.50668
   5   26209.0    381.5   0.246558627   3.09703  -0.33365   1.72188   0.14433
   6   26791.5    373.3   0.002715213   0.03336  -0.09908   0.11400   0.10272
   7   27523.9    363.3   0.034646202   0.41440  -0.15341  -0.28593  -0.55598
   8   28122.8    355.6   0.281625553   3.29678  -0.50095  -1.67385   0.49401
   9   28551.0    350.3   0.008099101   0.09339   0.12945  -0.03597  -0.27448
  10   28806.3    347.1   0.008109413   0.09268  -0.04289   0.27150  -0.13087
  11   28861.8    346.5   0.000396600   0.00452   0.00262   0.04966   0.04529
  12   29580.2    338.1   0.103977362   1.15721   0.09370   1.07094  -0.03908
  13   29735.0    336.3   0.138468406   1.53306  -0.34505  -0.72257  -0.94440
  14   31006.4    322.5   0.505682993   5.36911   0.44585  -2.24108  -0.38456
  15   31210.3    320.4   0.037604227   0.39666   0.28831   0.48585   0.27837
  16   32028.4    312.2   0.074194947   0.76263   0.16744   0.71052   0.47932
  17   32224.3    310.3   0.032940215   0.33653  -0.41334  -0.36702  -0.17600
  18   32747.9    305.4   0.014275610   0.14351  -0.15051   0.34755   0.00841
  19   33286.4    300.4   0.009496771   0.09393   0.04769   0.17729   0.24540
  20   33799.1    295.9   0.044939464   0.43772   0.06255  -0.34226  -0.56273
  21   34425.5    290.5   0.049628803   0.47460  -0.06154   0.37436  -0.57504
  22   34842.5    287.0   0.122204239   1.15466   0.49489   0.71052  -0.63632
  23   34926.4    286.3   0.042995333   0.40527  -0.33394  -0.01775   0.54170
  24   35157.6    284.4   0.016613060   0.15556  -0.11840  -0.35406  -0.12724
  25   35716.5    280.0   0.073149000   0.67424   0.50231  -0.60535   0.23553
  26   35814.3    279.2   0.083296667   0.76568  -0.02437  -0.14685  -0.86228
  27   35861.0    278.9   0.143569419   1.31800   0.13324   0.25585   1.11121
  28   36394.4    274.8   0.334183532   3.02292   0.65513   1.35798   0.86580
  29   37225.3    268.6   0.153034623   1.35340   0.44805   0.01950  -1.07344
  30   37320.5    267.9   0.267986907   2.36397  -0.34867  -0.56479   1.38687
  31   37834.3    264.3   0.078095154   0.67954   0.00198  -0.39575   0.72313
  32   37963.0    263.4   0.077442591   0.67158  -0.31360  -0.52577   0.54479
  33   38236.5    261.5   0.207263647   1.78452  -0.52311  -0.44981  -1.14391
  34   38533.3    259.5   0.246809128   2.10863  -0.00100   0.20611   1.43741
  35   38629.4    258.9   0.195396182   1.66523   0.81409   0.92121  -0.39224
  36   38957.9    256.7   0.111248498   0.94010   0.65386   0.53377  -0.47714
  37   39097.2    255.8   0.018378651   0.15475  -0.20227  -0.28742  -0.17673
  38   39424.3    253.7   0.026729350   0.22320   0.40874  -0.05977   0.22927
  39   39725.6    251.7   0.036989355   0.30654   0.26139  -0.41973  -0.24907
  40   40149.6    249.1   0.015346243   0.12583   0.27559  -0.10807  -0.19546

FINAL SINGLE POINT ENERGY     -5341.937806020281

DIPOLE MOMENT
-------------
                                X             Y             Z
Electronic contribution:    -12.31590     -24.09652     -18.30506
Nuclear contribution   :      9.30663      24.69768      20.75201
                        -----------------------------------------
Total Dipole Moment    :     -3.00927       0.60116       2.44695
                        -----------------------------------------
Magnitude (a.u.)       :      3.92487
Magnitude (Debye)      :      9.97624

Rotational constants in cm-1:     0.001602     0.000180     0.000169
Rotational constants in MHz :    48.039828     5.400001     5.066286

                             ****ORCA TERMINATED NORMALLY****
TOTAL RUN TIME: 0 days 0 hours 9 minutes 16 seconds 972 msec
