                         Program Version 4.2.0 -  RELEASE  -
|  1> # ORCA input file
|  2> # SCF done       -190.193819478956          0.000694328731
|  3> ! CAM-B3LYP def2-SVP def2/J RIJCOSX Grid4 TightSCF
|  4> %maxcore 5000
|  5> %tddft
|  6>     Mode sTDDFT
|  7>     Ethresh 5.0
|  8>     maxcore 5000
|  9> end
| 10>
| 11> %pal
| 12>   nprocs 6
| 13>   end
| 14> * xyz 0 1
| 15>    C        3.81410         2.48065        -3.67127
| 16>    C        2.71264         3.20065        -4.01874
| 17>    S        1.32780         2.18450        -4.17529
| 18>    C        2.24656         0.75652        -3.76106
| 19>   Cl        1.52035        -0.77149        -3.69315
| 20>    C        3.54940         1.08098        -3.52182
| 21>    C        4.77400         0.37034        -3.14091
| 22>    O        4.90535        -0.81222        -2.93119
| 23>    C        5.83614         1.43117        -3.13157
| 24>    C        5.21252         2.72722        -3.39405
| 25>    C        5.79338         3.96318        -3.33189
| 26>    C        5.05143         5.13543        -3.59503
| 27>    N        4.46077         6.09499        -3.80816
| 28>    C        7.13445         4.22244        -2.98117
| 29>    N        8.20905         4.49786        -2.68713
| 30>    C        7.17129         1.20949        -3.09945
| 31>    C        7.85061        -0.03542        -2.82187
| 32>    C        9.02183        -0.32659        -3.52263
| 33>    C        9.69210        -1.51689        -3.31059
| 34>    N       10.92987        -1.72338        -4.02076
| 35>    O       11.09436        -1.09729        -5.04467
| 36>    O       11.73900        -2.48417        -3.53385
| 37>    C        9.23725        -2.46390        -2.37495
| 38>    C        8.10371        -2.12024        -1.62859
| 39>    C        7.42450        -0.94216        -1.84190
| 40>    C        9.86395        -3.75689        -2.23122
| 41>    C       10.03838        -4.38702        -1.05117
| 42>    C       10.64285        -5.67436        -0.97116
| 43>    N       10.99190        -6.28976         0.20955
| 44>    C       10.76941        -5.78860         1.54428
| 45>    C        9.33221        -6.01971         2.00496
| 46>    C       11.60034        -7.53479        -0.00734
| 47>    O       12.01004        -8.24653         0.89303
| 48>    C       11.60765        -7.68873        -1.44333
| 49>    C       11.01355        -6.52478        -2.00423
| 50>    C       11.03589        -6.66337        -3.44164
| 51>    O       10.62739        -5.95294        -4.33794
| 52>    N       11.67384        -7.89902        -3.66067
| 53>    C       11.84990        -8.41880        -4.99445
| 54>    C       10.80894        -9.48361        -5.33170
| 55>    C       12.00738        -8.52229        -2.48278
| 56>    C       12.66605        -9.78499        -2.41770
| 57>    C       12.88386       -10.41314        -1.24382
| 58>    C       13.54611       -11.67762        -1.09726
| 59>    C       13.81687       -12.62848        -2.06183
| 60>    O       14.37799       -13.71330        -1.54173
| 61>    C       14.49011       -13.50278        -0.21491
| 62>    N       15.09136       -14.50587         0.56877
| 63>    O       15.23044       -14.26627         1.75869
| 64>    O       15.42248       -15.53307         0.02037
| 65>    C       13.99768       -12.25375         0.13703
| 66>    C       14.00526       -11.69953         1.46209
| 67>    C       14.15629       -10.39457         1.74415
| 68>    C       14.17968        -9.87388         3.07790
| 69>    C       14.71593       -10.40935         4.19707
| 70>    C       14.32807        -9.82175         5.52395
| 71>    O       13.74095        -8.78184         5.69826
| 72>    C       14.77907       -10.80846         6.50804
| 73>    C       14.69150       -10.99200         7.85626
| 74>    S       15.49383       -12.47067         8.32607
| 75>    C       15.94965       -12.81697         6.69801
| 76>    C       15.50376       -11.85469         5.84689
| 77>    C       15.58641       -11.56003         4.42718
| 78>    C       16.47984       -12.15223         3.58023
| 79>    C       17.32749       -13.19321         4.02168
| 80>    N       18.03560       -14.02195         4.37650
| 81>    C       16.72733       -11.78367         2.24458
| 82>    N       17.00309       -11.51165         1.16400
| 83>   Cl       13.93625        -9.99555         8.99925
| 84>    H        2.61726         4.25289        -4.19989
| 85>    H        7.82807         2.03212        -3.35766
| 86>    H        9.41607         0.36641        -4.25208
| 87>    H        7.73608        -2.82055        -0.89472
| 88>    H        6.56541        -0.70733        -1.23581
| 89>    H       10.20905        -4.23944        -3.13751
| 90>    H        9.77205        -3.89512        -0.12609
| 91>    H       11.02760        -4.72697         1.58376
| 92>    H       11.45296        -6.34044         2.19546
| 93>    H        8.62434        -5.52050         1.34682
| 94>    H        9.20364        -5.63772         3.01380
| 95>    H        9.11015        -7.08404         2.00619
| 96>    H       12.86342        -8.81486        -5.10351
| 97>    H       11.73257        -7.56497        -5.66756
| 98>    H       10.87083       -10.32295        -4.64203
| 99>    H       10.96831        -9.84692        -6.34303
|100>    H        9.81039        -9.05826        -5.26941
|101>    H       13.00872       -10.22160        -3.34402
|102>    H       12.53420        -9.95396        -0.33038
|103>    H       13.63532       -12.63487        -3.11909
|104>    H       13.93549       -12.41973         2.26675
|105>    H       14.21675        -9.65992         0.95492
|106>    H       13.65684        -8.93114         3.21282
|107>    H       16.50306       -13.70972         6.48507
|108> *
|109>
|110>                          ****END OF INPUT****

CARTESIAN COORDINATES (ANGSTROEM)
---------------------------------
  C      3.814100    2.480650   -3.671270
  C      2.712640    3.200650   -4.018740
  S      1.327800    2.184500   -4.175290
  C      2.246560    0.756520   -3.761060
  Cl     1.520350   -0.771490   -3.693150
  C      3.549400    1.080980   -3.521820
  C      4.774000    0.370340   -3.140910
  O      4.905350   -0.812220   -2.931190
  C      5.836140    1.431170   -3.131570
  C      5.212520    2.727220   -3.394050
  C      5.793380    3.963180   -3.331890
  C      5.051430    5.135430   -3.595030
  N      4.460770    6.094990   -3.808160
  C      7.134450    4.222440   -2.981170
  N      8.209050    4.497860   -2.687130
  C      7.171290    1.209490   -3.099450
  C      7.850610   -0.035420   -2.821870
  C      9.021830   -0.326590   -3.522630
  C      9.692100   -1.516890   -3.310590
  N     10.929870   -1.723380   -4.020760
  O     11.094360   -1.097290   -5.044670
  O     11.739000   -2.484170   -3.533850
  C      9.237250   -2.463900   -2.374950
  C      8.103710   -2.120240   -1.628590
  C      7.424500   -0.942160   -1.841900
  C      9.863950   -3.756890   -2.231220
  C     10.038380   -4.387020   -1.051170
  C     10.642850   -5.674360   -0.971160
  N     10.991900   -6.289760    0.209550
  C     10.769410   -5.788600    1.544280
  C      9.332210   -6.019710    2.004960
  C     11.600340   -7.534790   -0.007340
  O     12.010040   -8.246530    0.893030
  C     11.607650   -7.688730   -1.443330
  C     11.013550   -6.524780   -2.004230
  C     11.035890   -6.663370   -3.441640
  O     10.627390   -5.952940   -4.337940
  N     11.673840   -7.899020   -3.660670
  C     11.849900   -8.418800   -4.994450
  C     10.808940   -9.483610   -5.331700
  C     12.007380   -8.522290   -2.482780
  C     12.666050   -9.784990   -2.417700
  C     12.883860  -10.413140   -1.243820
  C     13.546110  -11.677620   -1.097260
  C     13.816870  -12.628480   -2.061830
  O     14.377990  -13.713300   -1.541730
  C     14.490110  -13.502780   -0.214910
  N     15.091360  -14.505870    0.568770
  O     15.230440  -14.266270    1.758690
  O     15.422480  -15.533070    0.020370
  C     13.997680  -12.253750    0.137030
  C     14.005260  -11.699530    1.462090
  C     14.156290  -10.394570    1.744150
  C     14.179680   -9.873880    3.077900
  C     14.715930  -10.409350    4.197070
  C     14.328070   -9.821750    5.523950
  O     13.740950   -8.781840    5.698260
  C     14.779070  -10.808460    6.508040
  C     14.691500  -10.992000    7.856260
  S     15.493830  -12.470670    8.326070
  C     15.949650  -12.816970    6.698010
  C     15.503760  -11.854690    5.846890
  C     15.586410  -11.560030    4.427180
  C     16.479840  -12.152230    3.580230
  C     17.327490  -13.193210    4.021680
  N     18.035600  -14.021950    4.376500
  C     16.727330  -11.783670    2.244580
  N     17.003090  -11.511650    1.164000
  Cl    13.936250   -9.995550    8.999250
  H      2.617260    4.252890   -4.199890
  H      7.828070    2.032120   -3.357660
  H      9.416070    0.366410   -4.252080
  H      7.736080   -2.820550   -0.894720
  H      6.565410   -0.707330   -1.235810
  H     10.209050   -4.239440   -3.137510
  H      9.772050   -3.895120   -0.126090
  H     11.027600   -4.726970    1.583760
  H     11.452960   -6.340440    2.195460
  H      8.624340   -5.520500    1.346820
  H      9.203640   -5.637720    3.013800
  H      9.110150   -7.084040    2.006190
  H     12.863420   -8.814860   -5.103510
  H     11.732570   -7.564970   -5.667560
  H     10.870830  -10.322950   -4.642030
  H     10.968310   -9.846920   -6.343030
  H      9.810390   -9.058260   -5.269410
  H     13.008720  -10.221600   -3.344020
  H     12.534200   -9.953960   -0.330380
  H     13.635320  -12.634870   -3.119090
  H     13.935490  -12.419730    2.266750
  H     14.216750   -9.659920    0.954920
  H     13.656840   -8.931140    3.212820
  H     16.503060  -13.709720    6.485070

 Total Charge           Charge          ....    0
 Multiplicity           Mult            ....    1
 Number of Electrons    NEL             ....  506
 Basis Dimension        Dim             .... 1102

ORBITAL ENERGIES
----------------

  NO   OCC          E(Eh)            E(eV)
   0   2.0000    -101.626434     -2765.3959
   1   2.0000    -101.614529     -2765.0719
   2   2.0000     -89.003537     -2421.9094
   3   2.0000     -88.989551     -2421.5288
   4   2.0000     -19.332266      -526.0577
   5   2.0000     -19.249598      -523.8082
   6   2.0000     -19.247648      -523.7551
   7   2.0000     -19.247075      -523.7395
   8   2.0000     -19.246046      -523.7115
   9   2.0000     -19.233607      -523.3731
  10   2.0000     -19.216195      -522.8992
  11   2.0000     -19.200623      -522.4755
  12   2.0000     -19.197728      -522.3967
  13   2.0000     -14.660232      -398.9252
  14   2.0000     -14.654274      -398.7631
  15   2.0000     -14.461172      -393.5085
  16   2.0000     -14.461058      -393.5054
  17   2.0000     -14.429871      -392.6567
  18   2.0000     -14.429175      -392.6378
  19   2.0000     -14.413922      -392.2228
  20   2.0000     -14.412546      -392.1853
  21   2.0000     -10.391279      -282.7611
  22   2.0000     -10.386036      -282.6184
  23   2.0000     -10.383972      -282.5623
  24   2.0000     -10.382523      -282.5228
  25   2.0000     -10.380147      -282.4582
  26   2.0000     -10.372514      -282.2505
  27   2.0000     -10.372139      -282.2403
  28   2.0000     -10.366243      -282.0798
  29   2.0000     -10.359303      -281.8910
  30   2.0000     -10.358634      -281.8728
  31   2.0000     -10.348562      -281.5987
  32   2.0000     -10.344080      -281.4767
  33   2.0000     -10.343843      -281.4703
  34   2.0000     -10.343417      -281.4587
  35   2.0000     -10.341284      -281.4007
  36   2.0000     -10.339268      -281.3458
  37   2.0000     -10.334790      -281.2239
  38   2.0000     -10.331633      -281.1380
  39   2.0000     -10.330820      -281.1159
  40   2.0000     -10.324873      -280.9541
  41   2.0000     -10.324090      -280.9328
  42   2.0000     -10.323599      -280.9194
  43   2.0000     -10.322557      -280.8911
  44   2.0000     -10.320792      -280.8430
  45   2.0000     -10.316659      -280.7306
  46   2.0000     -10.315893      -280.7097
  47   2.0000     -10.315701      -280.7045
  48   2.0000     -10.315348      -280.6949
  49   2.0000     -10.314765      -280.6790
  50   2.0000     -10.314300      -280.6664
  51   2.0000     -10.312900      -280.6283
  52   2.0000     -10.310513      -280.5633
  53   2.0000     -10.310121      -280.5526
  54   2.0000     -10.309472      -280.5350
  55   2.0000     -10.308610      -280.5115
  56   2.0000     -10.306399      -280.4514
  57   2.0000     -10.302946      -280.3574
  58   2.0000     -10.302781      -280.3529
  59   2.0000     -10.302590      -280.3477
  60   2.0000     -10.301005      -280.3046
  61   2.0000     -10.300158      -280.2815
  62   2.0000     -10.298828      -280.2453
  63   2.0000     -10.296428      -280.1801
  64   2.0000     -10.296189      -280.1735
  65   2.0000     -10.271947      -279.5139
  66   2.0000     -10.271181      -279.4930
  67   2.0000     -10.266760      -279.3727
  68   2.0000     -10.265997      -279.3520
  69   2.0000      -9.581209      -260.7180
  70   2.0000      -9.569298      -260.3938
  71   2.0000      -8.099191      -220.3902
  72   2.0000      -8.085239      -220.0105
  73   2.0000      -7.351866      -200.0544
  74   2.0000      -7.341238      -199.7652
  75   2.0000      -7.340686      -199.7502
  76   2.0000      -7.339914      -199.7292
  77   2.0000      -7.329345      -199.4416
  78   2.0000      -7.328821      -199.4274
  79   2.0000      -6.068582      -165.1345
  80   2.0000      -6.063907      -165.0073
  81   2.0000      -6.061494      -164.9416
  82   2.0000      -6.054627      -164.7548
  83   2.0000      -6.050002      -164.6289
  84   2.0000      -6.047520      -164.5614
  85   2.0000      -1.330693       -36.2100
  86   2.0000      -1.330186       -36.1962
  87   2.0000      -1.252896       -34.0930
  88   2.0000      -1.151329       -31.3293
  89   2.0000      -1.149454       -31.2782
  90   2.0000      -1.146559       -31.1995
  91   2.0000      -1.141374       -31.0584
  92   2.0000      -1.134728       -30.8775
  93   2.0000      -1.133178       -30.8353
  94   2.0000      -1.071417       -29.1547
  95   2.0000      -1.063298       -28.9338
  96   2.0000      -1.048256       -28.5245
  97   2.0000      -1.034010       -28.1368
  98   2.0000      -1.027007       -27.9463
  99   2.0000      -1.011510       -27.5246
 100   2.0000      -1.008082       -27.4313
 101   2.0000      -1.005081       -27.3496
 102   2.0000      -0.997184       -27.1348
 103   2.0000      -0.992161       -26.9981
 104   2.0000      -0.983540       -26.7635
 105   2.0000      -0.965398       -26.2698
 106   2.0000      -0.965274       -26.2664
 107   2.0000      -0.950431       -25.8626
 108   2.0000      -0.939146       -25.5555
 109   2.0000      -0.937115       -25.5002
 110   2.0000      -0.932886       -25.3851
 111   2.0000      -0.917270       -24.9602
 112   2.0000      -0.915062       -24.9001
 113   2.0000      -0.913285       -24.8517
 114   2.0000      -0.901904       -24.5421
 115   2.0000      -0.895991       -24.3811
 116   2.0000      -0.890850       -24.2413
 117   2.0000      -0.878209       -23.8973
 118   2.0000      -0.861467       -23.4417
 119   2.0000      -0.850354       -23.1393
 120   2.0000      -0.842533       -22.9265
 121   2.0000      -0.828282       -22.5387
 122   2.0000      -0.827797       -22.5255
 123   2.0000      -0.821040       -22.3416
 124   2.0000      -0.811558       -22.0836
 125   2.0000      -0.799344       -21.7513
 126   2.0000      -0.795233       -21.6394
 127   2.0000      -0.784378       -21.3440
 128   2.0000      -0.772290       -21.0151
 129   2.0000      -0.768349       -20.9078
 130   2.0000      -0.764801       -20.8113
 131   2.0000      -0.752516       -20.4770
 132   2.0000      -0.740688       -20.1551
 133   2.0000      -0.731805       -19.9134
 134   2.0000      -0.718677       -19.5562
 135   2.0000      -0.716859       -19.5067
 136   2.0000      -0.709535       -19.3074
 137   2.0000      -0.700719       -19.0675
 138   2.0000      -0.693986       -18.8843
 139   2.0000      -0.690231       -18.7821
 140   2.0000      -0.686910       -18.6918
 141   2.0000      -0.676368       -18.4049
 142   2.0000      -0.671704       -18.2780
 143   2.0000      -0.668773       -18.1982
 144   2.0000      -0.658957       -17.9311
 145   2.0000      -0.656566       -17.8661
 146   2.0000      -0.652224       -17.7479
 147   2.0000      -0.646109       -17.5815
 148   2.0000      -0.640908       -17.4400
 149   2.0000      -0.635078       -17.2814
 150   2.0000      -0.629498       -17.1295
 151   2.0000      -0.626912       -17.0591
 152   2.0000      -0.623660       -16.9706
 153   2.0000      -0.620276       -16.8786
 154   2.0000      -0.614213       -16.7136
 155   2.0000      -0.611212       -16.6319
 156   2.0000      -0.605561       -16.4781
 157   2.0000      -0.605044       -16.4641
 158   2.0000      -0.602787       -16.4027
 159   2.0000      -0.598825       -16.2949
 160   2.0000      -0.595172       -16.1955
 161   2.0000      -0.591634       -16.0992
 162   2.0000      -0.586054       -15.9473
 163   2.0000      -0.584396       -15.9022
 164   2.0000      -0.575871       -15.6703
 165   2.0000      -0.574580       -15.6351
 166   2.0000      -0.571034       -15.5386
 167   2.0000      -0.563911       -15.3448
 168   2.0000      -0.561336       -15.2747
 169   2.0000      -0.556447       -15.1417
 170   2.0000      -0.556137       -15.1333
 171   2.0000      -0.549205       -14.9446
 172   2.0000      -0.545840       -14.8531
 173   2.0000      -0.545442       -14.8422
 174   2.0000      -0.544286       -14.8108
 175   2.0000      -0.541574       -14.7370
 176   2.0000      -0.539724       -14.6866
 177   2.0000      -0.538170       -14.6444
 178   2.0000      -0.534510       -14.5448
 179   2.0000      -0.529913       -14.4197
 180   2.0000      -0.528556       -14.3827
 181   2.0000      -0.527347       -14.3498
 182   2.0000      -0.523829       -14.2541
 183   2.0000      -0.520375       -14.1601
 184   2.0000      -0.519613       -14.1394
 185   2.0000      -0.518583       -14.1114
 186   2.0000      -0.515180       -14.0187
 187   2.0000      -0.508679       -13.8419
 188   2.0000      -0.505489       -13.7551
 189   2.0000      -0.502745       -13.6804
 190   2.0000      -0.501383       -13.6433
 191   2.0000      -0.497565       -13.5394
 192   2.0000      -0.494354       -13.4521
 193   2.0000      -0.494093       -13.4449
 194   2.0000      -0.490105       -13.3364
 195   2.0000      -0.483722       -13.1627
 196   2.0000      -0.482896       -13.1403
 197   2.0000      -0.481419       -13.1001
 198   2.0000      -0.474085       -12.9005
 199   2.0000      -0.471347       -12.8260
 200   2.0000      -0.469385       -12.7726
 201   2.0000      -0.465991       -12.6803
 202   2.0000      -0.463243       -12.6055
 203   2.0000      -0.462049       -12.5730
 204   2.0000      -0.461508       -12.5583
 205   2.0000      -0.459782       -12.5113
 206   2.0000      -0.456505       -12.4221
 207   2.0000      -0.455678       -12.3996
 208   2.0000      -0.454365       -12.3639
 209   2.0000      -0.453091       -12.3292
 210   2.0000      -0.451287       -12.2801
 211   2.0000      -0.450493       -12.2585
 212   2.0000      -0.448704       -12.2099
 213   2.0000      -0.446094       -12.1388
 214   2.0000      -0.442634       -12.0447
 215   2.0000      -0.441667       -12.0184
 216   2.0000      -0.440587       -11.9890
 217   2.0000      -0.440328       -11.9819
 218   2.0000      -0.436909       -11.8889
 219   2.0000      -0.435432       -11.8487
 220   2.0000      -0.431360       -11.7379
 221   2.0000      -0.427487       -11.6325
 222   2.0000      -0.427028       -11.6200
 223   2.0000      -0.422288       -11.4910
 224   2.0000      -0.418929       -11.3996
 225   2.0000      -0.412499       -11.2247
 226   2.0000      -0.412064       -11.2128
 227   2.0000      -0.406792       -11.0694
 228   2.0000      -0.401801       -10.9336
 229   2.0000      -0.400207       -10.8902
 230   2.0000      -0.394294       -10.7293
 231   2.0000      -0.390663       -10.6305
 232   2.0000      -0.385927       -10.5016
 233   2.0000      -0.383921       -10.4470
 234   2.0000      -0.382186       -10.3998
 235   2.0000      -0.378289       -10.2938
 236   2.0000      -0.374575       -10.1927
 237   2.0000      -0.363213        -9.8835
 238   2.0000      -0.361214        -9.8291
 239   2.0000      -0.358308        -9.7501
 240   2.0000      -0.355515        -9.6740
 241   2.0000      -0.346731        -9.4350
 242   2.0000      -0.343189        -9.3387
 243   2.0000      -0.340466        -9.2646
 244   2.0000      -0.340036        -9.2529
 245   2.0000      -0.330243        -8.9864
 246   2.0000      -0.327231        -8.9044
 247   2.0000      -0.324368        -8.8265
 248   2.0000      -0.321233        -8.7412
 249   2.0000      -0.313838        -8.5400
 250   2.0000      -0.311204        -8.4683
 251   2.0000      -0.297364        -8.0917
 252   2.0000      -0.247657        -6.7391
 253   0.0000      -0.106991        -2.9114
 254   0.0000      -0.092047        -2.5047
 255   0.0000      -0.082245        -2.2380
 256   0.0000      -0.061829        -1.6824
 257   0.0000      -0.055815        -1.5188

MULLIKEN ATOMIC CHARGES
-----------------------
   0 C :    0.033528
   1 C :   -0.128944
   2 S :    0.194579
   3 C :   -0.168511
   4 Cl:    0.003684
   5 C :    0.073150
   6 C :    0.145372
   7 O :   -0.126539
   8 C :   -0.086784
   9 C :    0.278820
  10 C :   -0.317619
  11 C :   -0.193276
  12 N :    0.160405
  13 C :   -0.198221
  14 N :    0.173881
  15 C :   -0.030925
  16 C :    0.063552
  17 C :   -0.056451
  18 C :    0.153286
  19 N :    0.245573
  20 O :   -0.229578
  21 O :   -0.220351
  22 C :    0.060533
  23 C :   -0.046825
  24 C :    0.105361
  25 C :    0.020075
  26 C :   -0.032470
  27 C :    0.129094
  28 N :   -0.254960
  29 C :    0.096231
  30 C :    0.006297
  31 C :    0.167313
  32 O :   -0.231315
  33 C :   -0.069353
  34 C :   -0.066858
  35 C :    0.174810
  36 O :   -0.205056
  37 N :   -0.258286
  38 C :    0.098292
  39 C :    0.003527
  40 C :    0.128961
  41 C :   -0.014668
  42 C :   -0.002465
  43 C :    0.040243
  44 C :    0.108307
  45 O :   -0.128182
  46 C :    0.148726
  47 N :    0.292798
  48 O :   -0.263942
  49 O :   -0.225383
  50 C :    0.044381
  51 C :   -0.030753
  52 C :    0.045119
  53 C :    0.007967
  54 C :   -0.112642
  55 C :    0.124315
  56 O :   -0.130600
  57 C :    0.093696
  58 C :   -0.171910
  59 S :    0.183506
  60 C :   -0.125648
  61 C :    0.005704
  62 C :    0.279278
  63 C :   -0.312476
  64 C :   -0.178947
  65 N :    0.154528
  66 C :   -0.187952
  67 N :    0.169300
  68 Cl:   -0.003843
  69 H :    0.057180
  70 H :    0.038714
  71 H :    0.012105
  72 H :   -0.006795
  73 H :   -0.001604
  74 H :    0.044661
  75 H :   -0.022160
  76 H :    0.027097
  77 H :    0.047506
  78 H :    0.010192
  79 H :    0.027454
  80 H :    0.030130
  81 H :    0.024373
  82 H :    0.049501
  83 H :    0.011448
  84 H :    0.025124
  85 H :    0.031715
  86 H :   -0.031565
  87 H :    0.031964
  88 H :    0.024298
  89 H :    0.039668
  90 H :    0.029594
  91 H :    0.041712
  92 H :    0.055228
Sum of atomic charges:   -0.0000000

LOEWDIN ATOMIC CHARGES
----------------------
   0 C :   -0.059958
   1 C :   -0.147458
   2 S :    0.483178
   3 C :   -0.271063
   4 Cl:    0.195328
   5 C :   -0.118034
   6 C :    0.081161
   7 O :   -0.123409
   8 C :   -0.080607
   9 C :    0.073284
  10 C :   -0.129591
  11 C :   -0.015473
  12 N :   -0.044852
  13 C :   -0.026594
  14 N :   -0.038321
  15 C :    0.079105
  16 C :   -0.038706
  17 C :    0.026245
  18 C :   -0.026486
  19 N :    0.285250
  20 O :   -0.197208
  21 O :   -0.180997
  22 C :    0.009602
  23 C :   -0.009062
  24 C :    0.044172
  25 C :    0.036907
  26 C :   -0.043328
  27 C :    0.076286
  28 N :    0.003131
  29 C :    0.037060
  30 C :   -0.060597
  31 C :    0.082420
  32 O :   -0.215865
  33 C :   -0.127654
  34 C :   -0.119105
  35 C :    0.084099
  36 O :   -0.192636
  37 N :    0.001482
  38 C :    0.036775
  39 C :   -0.060998
  40 C :    0.081504
  41 C :   -0.044787
  42 C :    0.031337
  43 C :   -0.066636
  44 C :    0.085590
  45 O :    0.061791
  46 C :    0.001871
  47 N :    0.279926
  48 O :   -0.215965
  49 O :   -0.185981
  50 C :   -0.007643
  51 C :    0.002921
  52 C :    0.004420
  53 C :    0.074592
  54 C :   -0.078691
  55 C :    0.081361
  56 O :   -0.133336
  57 C :   -0.119573
  58 C :   -0.273834
  59 S :    0.474302
  60 C :   -0.150992
  61 C :   -0.056161
  62 C :    0.062769
  63 C :   -0.119695
  64 C :   -0.010997
  65 N :   -0.046703
  66 C :   -0.014389
  67 N :   -0.051297
  68 Cl:    0.188837
  69 H :    0.038977
  70 H :    0.049463
  71 H :    0.045102
  72 H :    0.036445
  73 H :    0.037209
  74 H :    0.038987
  75 H :    0.028279
  76 H :    0.024936
  77 H :    0.038273
  78 H :    0.019858
  79 H :    0.032320
  80 H :    0.032572
  81 H :    0.023033
  82 H :    0.040180
  83 H :    0.020183
  84 H :    0.031473
  85 H :    0.033211
  86 H :    0.026973
  87 H :    0.040754
  88 H :    0.031667
  89 H :    0.037144
  90 H :    0.040745
  91 H :    0.051959
  92 H :    0.038234

  Mayer bond orders larger than 0.100000
B(  0-C ,  1-C ) :   1.5400 B(  0-C ,  5-C ) :   1.2201 B(  0-C ,  9-C ) :   1.0067
B(  1-C ,  2-S ) :   1.1664 B(  1-C , 69-H ) :   0.9547 B(  2-S ,  3-C ) :   1.1549
B(  3-C ,  4-Cl) :   1.1318 B(  3-C ,  5-C ) :   1.4733 B(  5-C ,  6-C ) :   0.9551
B(  6-C ,  7-O ) :   2.2413 B(  6-C ,  8-C ) :   0.9201 B(  8-C ,  9-C ) :   1.0390
B(  8-C , 15-C ) :   1.7007 B(  9-C , 10-C ) :   1.6788 B( 10-C , 11-C ) :   1.1424
B( 10-C , 13-C ) :   1.1328 B( 11-C , 12-N ) :   2.9945 B( 13-C , 14-N ) :   2.9934
B( 15-C , 16-C ) :   1.0526 B( 15-C , 70-H ) :   0.9508 B( 16-C , 17-C ) :   1.2806
B( 16-C , 24-C ) :   1.3371 B( 17-C , 18-C ) :   1.3857 B( 17-C , 71-H ) :   0.9984
B( 18-C , 19-N ) :   0.8799 B( 18-C , 22-C ) :   1.3400 B( 19-N , 20-O ) :   1.5557
B( 19-N , 21-O ) :   1.5336 B( 20-O , 21-O ) :   0.2684 B( 22-C , 23-C ) :   1.3506
B( 22-C , 25-C ) :   1.0421 B( 23-C , 24-C ) :   1.4019 B( 23-C , 72-H ) :   0.9926
B( 24-C , 73-H ) :   0.9823 B( 25-C , 26-C ) :   1.6982 B( 25-C , 74-H ) :   0.9102
B( 26-C , 27-C ) :   1.1407 B( 26-C , 75-H ) :   0.9646 B( 27-C , 28-N ) :   1.1539
B( 27-C , 34-C ) :   1.3690 B( 28-N , 29-C ) :   0.9439 B( 28-N , 31-C ) :   1.0732
B( 29-C , 30-C ) :   1.1203 B( 29-C , 76-H ) :   0.9505 B( 29-C , 77-H ) :   0.9299
B( 30-C , 78-H ) :   0.9689 B( 30-C , 79-H ) :   0.9682 B( 30-C , 80-H ) :   0.9633
B( 31-C , 32-O ) :   1.9866 B( 31-C , 33-C ) :   0.9973 B( 33-C , 34-C ) :   1.2373
B( 33-C , 40-C ) :   1.3532 B( 34-C , 35-C ) :   0.9860 B( 35-C , 36-O ) :   2.0316
B( 35-C , 37-N ) :   1.0495 B( 36-O , 74-H ) :   0.1080 B( 37-N , 38-C ) :   0.9460
B( 37-N , 40-C ) :   1.1698 B( 38-C , 39-C ) :   1.1192 B( 38-C , 81-H ) :   0.9498
B( 38-C , 82-H ) :   0.9277 B( 39-C , 83-H ) :   0.9682 B( 39-C , 84-H ) :   0.9681
B( 39-C , 85-H ) :   0.9641 B( 40-C , 41-C ) :   1.1345 B( 41-C , 42-C ) :   1.6650
B( 41-C , 86-H ) :   0.9658 B( 42-C , 43-C ) :   1.0684 B( 42-C , 87-H ) :   0.9492
B( 43-C , 44-C ) :   1.4331 B( 43-C , 50-C ) :   1.2227 B( 44-C , 45-O ) :   1.1994
B( 44-C , 88-H ) :   1.0071 B( 45-O , 46-C ) :   1.1634 B( 46-C , 47-N ) :   0.9568
B( 46-C , 50-C ) :   1.4399 B( 47-N , 48-O ) :   1.4743 B( 47-N , 49-O ) :   1.5144
B( 48-O , 49-O ) :   0.2589 B( 50-C , 51-C ) :   1.1184 B( 51-C , 52-C ) :   1.7351
B( 51-C , 89-H ) :   0.9416 B( 52-C , 53-C ) :   1.0934 B( 52-C , 90-H ) :   0.9402
B( 53-C , 54-C ) :   1.7427 B( 53-C , 91-H ) :   0.9290 B( 54-C , 55-C ) :   0.9335
B( 54-C , 62-C ) :   1.0066 B( 55-C , 56-O ) :   2.2782 B( 55-C , 57-C ) :   0.9254
B( 57-C , 58-C ) :   1.4779 B( 57-C , 61-C ) :   1.2216 B( 58-C , 59-S ) :   1.1536
B( 58-C , 68-Cl) :   1.1255 B( 59-S , 60-C ) :   1.1582 B( 60-C , 61-C ) :   1.5555
B( 60-C , 92-H ) :   0.9539 B( 61-C , 62-C ) :   1.0070 B( 62-C , 63-C ) :   1.6982
B( 63-C , 64-C ) :   1.1278 B( 63-C , 66-C ) :   1.1682 B( 64-C , 65-N ) :   2.9992
B( 66-C , 67-N ) :   2.9781

-----------------------------------------------------------------------------
         ABSORPTION SPECTRUM VIA TRANSITION ELECTRIC DIPOLE MOMENTS
-----------------------------------------------------------------------------
State   Energy  Wavelength   fosc         T2         TX        TY        TZ
        (cm-1)    (nm)                  (au**2)     (au)      (au)      (au)
-----------------------------------------------------------------------------
   0   16928.1    590.7   0.699350972  13.60076  -1.74937   3.24599   0.06369
   1   19870.4    503.3   0.012610512   0.20893   0.00963  -0.22867  -0.39566
   2   21720.0    460.4   0.042259738   0.64053  -0.13628  -0.31878  -0.72135
   3   25186.4    397.0   0.053058376   0.69353   0.71723  -0.41894  -0.05996
   4   25404.1    393.6   0.162125954   2.10099  -0.64634  -0.56788  -1.16651
   5   26257.3    380.8   0.214532622   2.68980  -0.72172   1.41216  -0.41800
   6   27693.3    361.1   0.001673206   0.01989  -0.06768   0.05120   0.11264
   7   28080.4    356.1   0.006518529   0.07642   0.11404  -0.11827   0.22233
   8   28566.6    350.1   0.060100980   0.69262  -0.07327   0.05876   0.82692
   9   29309.3    341.2   0.016026701   0.18002   0.10004  -0.39172   0.12871
  10   29401.0    340.1   0.080227850   0.89834  -0.09300   0.94103  -0.06441
  11   29884.1    334.6   0.026472056   0.29162  -0.15977   0.24007  -0.45658
  12   30019.9    333.1   0.009239922   0.10133   0.31108  -0.00716  -0.06712
  13   30576.1    327.1   0.118054159   1.27109   0.56533  -0.64672   0.73023
  14   31127.9    321.3   0.493503245   5.21935  -1.43065   1.70839  -0.50399
  15   31224.6    320.3   0.053139095   0.56026   0.16286  -0.69536  -0.22409
  16   32291.6    309.7   0.019160724   0.19534  -0.01805   0.25653   0.35945
  17   32380.2    308.8   0.009756340   0.09919  -0.13577   0.27951  -0.05130
  18   32928.9    303.7   0.093840215   0.93818   0.42981  -0.48645   0.71890
  19   33174.8    301.4   0.029294871   0.29071  -0.11135   0.38632  -0.35926
  20   33310.6    300.2   0.216924572   2.14388  -0.77696   0.80541  -0.94421
  21   33772.7    296.1   0.058528545   0.57053  -0.67492  -0.03008   0.33780
  22   33988.4    294.2   0.097560419   0.94497  -0.57461   0.72949   0.28748
  23   34273.8    291.8   0.120797885   1.16031  -0.19138   1.04408   0.18326
  24   34926.4    286.3   0.019973260   0.18827  -0.41900  -0.05937   0.09579
  25   35192.6    284.2   0.054554132   0.51033   0.32010  -0.33746   0.54220
  26   35367.4    282.7   0.103732766   0.96558  -0.98154   0.01369  -0.04446
  27   35455.7    282.0   0.028328700   0.26304   0.31235  -0.29884  -0.27598
  28   35809.8    279.3   0.049804026   0.45787  -0.12912   0.22881   0.62357
  29   35970.2    278.0   0.018474690   0.16909   0.35252  -0.01996   0.21076
  30   36414.2    274.6   0.349855833   3.16296  -0.40293   0.97202   1.43380
  31   36734.1    272.2   0.026907200   0.24114  -0.01097  -0.42272  -0.24966
  32   36993.6    270.3   0.046602543   0.41472   0.10191   0.06253   0.63279
  33   37040.9    270.0   0.024237981   0.21542  -0.22401   0.22443   0.33893
  34   37340.8    267.8   0.579757299   5.11138   1.92081   1.16941   0.23312
  35   38056.7    262.8   0.646223587   5.59021  -0.18972  -1.00299   2.13266
  36   38270.3    261.3   0.208801301   1.79617  -0.57470   0.77248   0.93229
  37   38560.6    259.3   0.003421024   0.02921   0.14361  -0.03039   0.08751
  38   38647.7    258.7   0.131800863   1.12272  -0.99023  -0.36674  -0.08748
  39   39009.2    256.4   0.063692999   0.53753  -0.25946  -0.67155   0.13867
  40   39216.9    255.0   0.006157115   0.05169   0.00344   0.05646   0.22020
  41   39623.3    252.4   0.091520327   0.76040   0.61873  -0.54061   0.29209
  42   39821.0    251.1   0.060092982   0.49681   0.57093  -0.11628  -0.39664
  43   40001.6    250.0   0.029026166   0.23888   0.43597  -0.20146   0.09070
  44   40019.6    249.9   0.033086230   0.27218  -0.15017   0.49608  -0.05943
  45   40182.1    248.9   0.012393631   0.10154  -0.27064   0.14997   0.07620

FINAL SINGLE POINT ENERGY     -4670.859814299172

DIPOLE MOMENT
-------------
                                X             Y             Z
Electronic contribution:    -12.45150      13.94946      28.74253
Nuclear contribution   :      8.48667     -13.78399     -28.80313
                        -----------------------------------------
Total Dipole Moment    :     -3.96483       0.16547      -0.06060
                        -----------------------------------------
Magnitude (a.u.)       :      3.96874
Magnitude (Debye)      :     10.08774

Rotational constants in cm-1:     0.001651     0.000263     0.000244
Rotational constants in MHz :    49.510219     7.882520     7.313700

                             ****ORCA TERMINATED NORMALLY****
TOTAL RUN TIME: 0 days 0 hours 8 minutes 30 seconds 993 msec
