                         Program Version 4.2.0 -  RELEASE  -
|  1> # ORCA input file
|  2> # SCF done       -170.724320989171          0.000845861596
|  3> ! CAM-B3LYP def2-SVP def2/J RIJCOSX Grid4 TightSCF
|  4> %maxcore 5000
|  5> %tddft
|  6>     Mode sTDDFT
|  7>     Ethresh 5.0
|  8>     maxcore 5000
|  9> end
| 10>
| 11> %pal
| 12>   nprocs 6
| 13>   end
| 14> * xyz 0 1
| 15>    C        0.33197        -2.47811        -3.23029
| 16>    C       -0.49293        -2.34769        -4.30479
| 17>    S        0.12662        -3.19629        -5.67303
| 18>    C        1.52296        -3.75019        -4.77985
| 19>   Cl        2.70832        -4.71666        -5.50179
| 20>    C        1.48732        -3.28076        -3.50135
| 21>    C        2.31641        -3.38706        -2.30021
| 22>    O        3.25028        -4.12801        -2.10469
| 23>    C        1.64087        -2.49304        -1.29763
| 24>    C        0.38718        -2.01303        -1.85951
| 25>    C       -0.55866        -1.22282        -1.26315
| 26>    C       -1.71709        -0.81342        -1.95764
| 27>    N       -2.66687        -0.47535        -2.50487
| 28>    C       -0.50992        -0.74059         0.05971
| 29>    N       -0.52391        -0.31674         1.12647
| 30>    C        2.11567        -2.25234        -0.04893
| 31>    C        3.45604        -2.52212         0.34841
| 32>    S        3.86527        -2.97488         1.98570
| 33>    C        4.61035        -2.41494        -0.39408
| 34>    C        4.97173        -1.96464        -1.75163
| 35>    O        4.28609        -1.53662        -2.64648
| 36>    N        6.35251        -2.08695        -1.80071
| 37>    C        7.12485        -1.77765        -2.97828
| 38>    C        6.92250        -2.53137        -0.61472
| 39>    O        8.10903        -2.69748        -0.45293
| 40>    C        5.79231        -2.71505         0.31028
| 41>    C        5.57842        -3.06517         1.63575
| 42>    C        6.46516        -3.46175         2.66535
| 43>    C        7.80664        -3.59977         2.49092
| 44>    C        8.66652        -4.02041         3.53383
| 45>    N       10.02612        -4.16492         3.38512
| 46>    C       10.79954        -3.85471         2.20601
| 47>    C       11.01523        -2.35272         2.04328
| 48>    C       10.64117        -4.62490         4.56469
| 49>    O       11.83166        -4.83157         4.67529
| 50>    C        9.54413        -4.77020         5.49653
| 51>    C        8.35044        -4.38946         4.84211
| 52>    C        7.27067        -4.55734         5.78559
| 53>    O        6.07433        -4.36161         5.69715
| 54>    N        7.88840        -5.04651         6.95737
| 55>    C        7.08909        -5.26129         8.13951
| 56>    C        7.27336        -4.14358         9.16312
| 57>    C        9.24899        -5.17643         6.79475
| 58>    C       10.25390        -5.65877         7.67949
| 59>    C       10.14450        -6.15793         8.92983
| 60>    C       11.24212        -6.66135         9.72034
| 61>    C       10.96721        -7.20794        10.97427
| 62>    C       11.97353        -7.71893        11.77746
| 63>    N       11.57970        -8.21412        13.07112
| 64>    O       10.41473        -8.52116        13.21688
| 65>    O       12.42095        -8.28676        13.94319
| 66>    C       13.31795        -7.71706        11.36273
| 67>    C       13.57955        -7.15874        10.10384
| 68>    C       12.58449        -6.64312         9.30806
| 69>    C       14.38362        -8.30714        12.14645
| 70>    C       15.64448        -7.85122        12.16015
| 71>    C       16.71924        -8.44337        12.92627
| 72>    C       16.53293        -9.28998        14.02780
| 73>    N       17.54198        -9.83853        14.67553
| 74>    C       18.76096        -9.53419        14.26627
| 75>    N       19.06643        -8.71478        13.27511
| 76>    C       18.05894        -8.18122        12.61222
| 77>    H       -1.41886        -1.81463        -4.39222
| 78>    H        1.47299        -1.81284         0.70317
| 79>    H        6.85136        -2.45144        -3.79124
| 80>    H        8.17725        -1.90243        -2.72994
| 81>    H        6.93057        -0.75109        -3.29054
| 82>    H        6.02042        -3.66871         3.63035
| 83>    H        8.24405        -3.39196         1.52568
| 84>    H       10.30492        -4.26594         1.32254
| 85>    H       11.76339        -4.35360         2.34073
| 86>    H       10.06821        -1.83807         1.90159
| 87>    H       11.64109        -2.16830         1.17502
| 88>    H       11.50899        -1.94673         2.92306
| 89>    H        7.31506        -6.24142         8.56680
| 90>    H        6.05045        -5.26772         7.79437
| 91>    H        8.31513        -4.04903         9.46202
| 92>    H        6.67108        -4.34824        10.04407
| 93>    H        6.95113        -3.19689         8.73599
| 94>    H       11.23010        -5.61447         7.21416
| 95>    H        9.18382        -6.22351         9.41647
| 96>    H        9.95430        -7.23652        11.35002
| 97>    H       14.59569        -7.16298         9.74109
| 98>    H       12.84778        -6.22641         8.34903
| 99>    H       14.12383        -9.15660        12.76151
|100>    H       15.91604        -6.97889        11.57883
|101>    H       15.54626        -9.50939        14.41530
|102>    H       19.58544        -9.98930        14.79867
|103>    H       18.32404        -7.52415        11.79229
|104> *
|105>
|106>                          ****END OF INPUT****

CARTESIAN COORDINATES (ANGSTROEM)
---------------------------------
  C      0.331970   -2.478110   -3.230290
  C     -0.492930   -2.347690   -4.304790
  S      0.126620   -3.196290   -5.673030
  C      1.522960   -3.750190   -4.779850
  Cl     2.708320   -4.716660   -5.501790
  C      1.487320   -3.280760   -3.501350
  C      2.316410   -3.387060   -2.300210
  O      3.250280   -4.128010   -2.104690
  C      1.640870   -2.493040   -1.297630
  C      0.387180   -2.013030   -1.859510
  C     -0.558660   -1.222820   -1.263150
  C     -1.717090   -0.813420   -1.957640
  N     -2.666870   -0.475350   -2.504870
  C     -0.509920   -0.740590    0.059710
  N     -0.523910   -0.316740    1.126470
  C      2.115670   -2.252340   -0.048930
  C      3.456040   -2.522120    0.348410
  S      3.865270   -2.974880    1.985700
  C      4.610350   -2.414940   -0.394080
  C      4.971730   -1.964640   -1.751630
  O      4.286090   -1.536620   -2.646480
  N      6.352510   -2.086950   -1.800710
  C      7.124850   -1.777650   -2.978280
  C      6.922500   -2.531370   -0.614720
  O      8.109030   -2.697480   -0.452930
  C      5.792310   -2.715050    0.310280
  C      5.578420   -3.065170    1.635750
  C      6.465160   -3.461750    2.665350
  C      7.806640   -3.599770    2.490920
  C      8.666520   -4.020410    3.533830
  N     10.026120   -4.164920    3.385120
  C     10.799540   -3.854710    2.206010
  C     11.015230   -2.352720    2.043280
  C     10.641170   -4.624900    4.564690
  O     11.831660   -4.831570    4.675290
  C      9.544130   -4.770200    5.496530
  C      8.350440   -4.389460    4.842110
  C      7.270670   -4.557340    5.785590
  O      6.074330   -4.361610    5.697150
  N      7.888400   -5.046510    6.957370
  C      7.089090   -5.261290    8.139510
  C      7.273360   -4.143580    9.163120
  C      9.248990   -5.176430    6.794750
  C     10.253900   -5.658770    7.679490
  C     10.144500   -6.157930    8.929830
  C     11.242120   -6.661350    9.720340
  C     10.967210   -7.207940   10.974270
  C     11.973530   -7.718930   11.777460
  N     11.579700   -8.214120   13.071120
  O     10.414730   -8.521160   13.216880
  O     12.420950   -8.286760   13.943190
  C     13.317950   -7.717060   11.362730
  C     13.579550   -7.158740   10.103840
  C     12.584490   -6.643120    9.308060
  C     14.383620   -8.307140   12.146450
  C     15.644480   -7.851220   12.160150
  C     16.719240   -8.443370   12.926270
  C     16.532930   -9.289980   14.027800
  N     17.541980   -9.838530   14.675530
  C     18.760960   -9.534190   14.266270
  N     19.066430   -8.714780   13.275110
  C     18.058940   -8.181220   12.612220
  H     -1.418860   -1.814630   -4.392220
  H      1.472990   -1.812840    0.703170
  H      6.851360   -2.451440   -3.791240
  H      8.177250   -1.902430   -2.729940
  H      6.930570   -0.751090   -3.290540
  H      6.020420   -3.668710    3.630350
  H      8.244050   -3.391960    1.525680
  H     10.304920   -4.265940    1.322540
  H     11.763390   -4.353600    2.340730
  H     10.068210   -1.838070    1.901590
  H     11.641090   -2.168300    1.175020
  H     11.508990   -1.946730    2.923060
  H      7.315060   -6.241420    8.566800
  H      6.050450   -5.267720    7.794370
  H      8.315130   -4.049030    9.462020
  H      6.671080   -4.348240   10.044070
  H      6.951130   -3.196890    8.735990
  H     11.230100   -5.614470    7.214160
  H      9.183820   -6.223510    9.416470
  H      9.954300   -7.236520   11.350020
  H     14.595690   -7.162980    9.741090
  H     12.847780   -6.226410    8.349030
  H     14.123830   -9.156600   12.761510
  H     15.916040   -6.978890   11.578830
  H     15.546260   -9.509390   14.415300
  H     19.585440   -9.989300   14.798670
  H     18.324040   -7.524150   11.792290

 Total Charge           Charge          ....    0
 Multiplicity           Mult            ....    1
 Number of Electrons    NEL             ....  452
 Basis Dimension        Dim             .... 1015

ORBITAL ENERGIES
----------------

  NO   OCC          E(Eh)            E(eV)
   0   2.0000    -101.619071     -2765.1955
   1   2.0000     -88.995730     -2421.6969
   2   2.0000     -88.989176     -2421.5186
   3   2.0000     -19.250964      -523.8454
   4   2.0000     -19.248906      -523.7894
   5   2.0000     -19.229208      -523.2534
   6   2.0000     -19.223868      -523.1080
   7   2.0000     -19.221576      -523.0457
   8   2.0000     -19.200061      -522.4602
   9   2.0000     -19.194627      -522.3123
  10   2.0000     -14.655739      -398.8029
  11   2.0000     -14.469606      -393.7380
  12   2.0000     -14.460688      -393.4953
  13   2.0000     -14.457344      -393.4043
  14   2.0000     -14.425711      -392.5436
  15   2.0000     -14.423317      -392.4784
  16   2.0000     -14.409160      -392.0932
  17   2.0000     -14.408848      -392.0847
  18   2.0000     -10.411295      -283.3057
  19   2.0000     -10.405610      -283.1510
  20   2.0000     -10.381654      -282.4992
  21   2.0000     -10.381415      -282.4927
  22   2.0000     -10.378520      -282.4139
  23   2.0000     -10.377408      -282.3836
  24   2.0000     -10.352984      -281.7190
  25   2.0000     -10.352302      -281.7004
  26   2.0000     -10.345949      -281.5276
  27   2.0000     -10.345752      -281.5222
  28   2.0000     -10.345001      -281.5018
  29   2.0000     -10.340029      -281.3665
  30   2.0000     -10.338761      -281.3320
  31   2.0000     -10.331816      -281.1430
  32   2.0000     -10.331498      -281.1344
  33   2.0000     -10.331403      -281.1318
  34   2.0000     -10.327554      -281.0270
  35   2.0000     -10.325208      -280.9632
  36   2.0000     -10.321280      -280.8563
  37   2.0000     -10.320668      -280.8397
  38   2.0000     -10.319730      -280.8141
  39   2.0000     -10.315736      -280.7054
  40   2.0000     -10.315047      -280.6867
  41   2.0000     -10.313217      -280.6369
  42   2.0000     -10.313111      -280.6340
  43   2.0000     -10.310752      -280.5698
  44   2.0000     -10.308122      -280.4983
  45   2.0000     -10.307528      -280.4821
  46   2.0000     -10.307518      -280.4818
  47   2.0000     -10.305679      -280.4318
  48   2.0000     -10.305281      -280.4210
  49   2.0000     -10.304213      -280.3919
  50   2.0000     -10.302835      -280.3544
  51   2.0000     -10.301057      -280.3060
  52   2.0000     -10.299928      -280.2753
  53   2.0000     -10.299814      -280.2722
  54   2.0000     -10.298661      -280.2408
  55   2.0000     -10.295701      -280.1603
  56   2.0000     -10.294481      -280.1271
  57   2.0000     -10.293202      -280.0923
  58   2.0000     -10.268955      -279.4325
  59   2.0000     -10.268124      -279.4099
  60   2.0000     -10.267325      -279.3881
  61   2.0000     -10.261845      -279.2390
  62   2.0000      -9.573888      -260.5187
  63   2.0000      -8.091441      -220.1793
  64   2.0000      -8.084453      -219.9892
  65   2.0000      -7.344500      -199.8540
  66   2.0000      -7.333939      -199.5666
  67   2.0000      -7.333390      -199.5517
  68   2.0000      -6.060810      -164.9230
  69   2.0000      -6.056194      -164.7974
  70   2.0000      -6.053743      -164.7307
  71   2.0000      -6.053721      -164.7301
  72   2.0000      -6.049386      -164.6122
  73   2.0000      -6.046702      -164.5391
  74   2.0000      -1.330930       -36.2165
  75   2.0000      -1.172876       -31.9156
  76   2.0000      -1.150249       -31.2999
  77   2.0000      -1.149182       -31.2708
  78   2.0000      -1.139924       -31.0189
  79   2.0000      -1.138749       -30.9869
  80   2.0000      -1.132019       -30.8038
  81   2.0000      -1.080683       -29.4069
  82   2.0000      -1.068978       -29.0884
  83   2.0000      -1.063399       -28.9366
  84   2.0000      -1.060141       -28.8479
  85   2.0000      -1.040532       -28.3143
  86   2.0000      -1.021636       -27.8001
  87   2.0000      -1.015412       -27.6308
  88   2.0000      -1.002942       -27.2914
  89   2.0000      -0.998674       -27.1753
  90   2.0000      -0.990986       -26.9661
  91   2.0000      -0.976027       -26.5590
  92   2.0000      -0.958089       -26.0709
  93   2.0000      -0.938452       -25.5366
  94   2.0000      -0.935168       -25.4472
  95   2.0000      -0.929224       -25.2855
  96   2.0000      -0.922422       -25.1004
  97   2.0000      -0.913906       -24.8686
  98   2.0000      -0.905470       -24.6391
  99   2.0000      -0.899188       -24.4682
 100   2.0000      -0.892989       -24.2995
 101   2.0000      -0.883112       -24.0307
 102   2.0000      -0.873118       -23.7588
 103   2.0000      -0.848802       -23.0971
 104   2.0000      -0.840633       -22.8748
 105   2.0000      -0.834938       -22.7198
 106   2.0000      -0.824131       -22.4257
 107   2.0000      -0.809967       -22.0403
 108   2.0000      -0.809086       -22.0163
 109   2.0000      -0.797721       -21.7071
 110   2.0000      -0.793092       -21.5811
 111   2.0000      -0.784009       -21.3340
 112   2.0000      -0.764114       -20.7926
 113   2.0000      -0.757736       -20.6190
 114   2.0000      -0.754679       -20.5359
 115   2.0000      -0.749429       -20.3930
 116   2.0000      -0.740970       -20.1628
 117   2.0000      -0.724671       -19.7193
 118   2.0000      -0.717333       -19.5196
 119   2.0000      -0.716690       -19.5021
 120   2.0000      -0.708578       -19.2814
 121   2.0000      -0.706346       -19.2207
 122   2.0000      -0.695997       -18.9390
 123   2.0000      -0.690203       -18.7814
 124   2.0000      -0.681149       -18.5350
 125   2.0000      -0.679153       -18.4807
 126   2.0000      -0.671107       -18.2618
 127   2.0000      -0.664131       -18.0719
 128   2.0000      -0.653841       -17.7919
 129   2.0000      -0.643709       -17.5162
 130   2.0000      -0.640660       -17.4333
 131   2.0000      -0.635064       -17.2810
 132   2.0000      -0.625939       -17.0327
 133   2.0000      -0.621291       -16.9062
 134   2.0000      -0.619344       -16.8532
 135   2.0000      -0.613475       -16.6935
 136   2.0000      -0.609959       -16.5978
 137   2.0000      -0.608902       -16.5691
 138   2.0000      -0.598613       -16.2891
 139   2.0000      -0.597892       -16.2695
 140   2.0000      -0.592681       -16.1277
 141   2.0000      -0.591859       -16.1053
 142   2.0000      -0.584925       -15.9166
 143   2.0000      -0.579821       -15.7777
 144   2.0000      -0.576036       -15.6747
 145   2.0000      -0.572540       -15.5796
 146   2.0000      -0.567052       -15.4303
 147   2.0000      -0.558623       -15.2009
 148   2.0000      -0.555361       -15.1121
 149   2.0000      -0.554430       -15.0868
 150   2.0000      -0.552850       -15.0438
 151   2.0000      -0.550588       -14.9823
 152   2.0000      -0.547203       -14.8901
 153   2.0000      -0.543343       -14.7851
 154   2.0000      -0.538936       -14.6652
 155   2.0000      -0.536059       -14.5869
 156   2.0000      -0.534845       -14.5539
 157   2.0000      -0.531187       -14.4543
 158   2.0000      -0.530133       -14.4256
 159   2.0000      -0.524347       -14.2682
 160   2.0000      -0.521957       -14.2032
 161   2.0000      -0.519539       -14.1374
 162   2.0000      -0.517474       -14.0812
 163   2.0000      -0.515921       -14.0389
 164   2.0000      -0.511819       -13.9273
 165   2.0000      -0.510233       -13.8841
 166   2.0000      -0.509615       -13.8673
 167   2.0000      -0.505957       -13.7678
 168   2.0000      -0.501756       -13.6535
 169   2.0000      -0.500939       -13.6312
 170   2.0000      -0.496596       -13.5131
 171   2.0000      -0.495895       -13.4940
 172   2.0000      -0.494485       -13.4556
 173   2.0000      -0.491253       -13.3677
 174   2.0000      -0.486532       -13.2392
 175   2.0000      -0.485444       -13.2096
 176   2.0000      -0.483628       -13.1602
 177   2.0000      -0.480429       -13.0731
 178   2.0000      -0.478854       -13.0303
 179   2.0000      -0.476128       -12.9561
 180   2.0000      -0.473111       -12.8740
 181   2.0000      -0.466658       -12.6984
 182   2.0000      -0.462747       -12.5920
 183   2.0000      -0.460002       -12.5173
 184   2.0000      -0.458257       -12.4698
 185   2.0000      -0.457105       -12.4385
 186   2.0000      -0.455631       -12.3983
 187   2.0000      -0.455254       -12.3881
 188   2.0000      -0.450841       -12.2680
 189   2.0000      -0.449318       -12.2266
 190   2.0000      -0.447152       -12.1676
 191   2.0000      -0.446004       -12.1364
 192   2.0000      -0.444589       -12.0979
 193   2.0000      -0.439673       -11.9641
 194   2.0000      -0.437193       -11.8966
 195   2.0000      -0.435513       -11.8509
 196   2.0000      -0.429675       -11.6920
 197   2.0000      -0.426284       -11.5998
 198   2.0000      -0.421277       -11.4635
 199   2.0000      -0.420171       -11.4334
 200   2.0000      -0.416842       -11.3429
 201   2.0000      -0.405357       -11.0303
 202   2.0000      -0.396509       -10.7896
 203   2.0000      -0.392647       -10.6845
 204   2.0000      -0.390163       -10.6169
 205   2.0000      -0.389370       -10.5953
 206   2.0000      -0.387664       -10.5489
 207   2.0000      -0.378331       -10.2949
 208   2.0000      -0.376535       -10.2460
 209   2.0000      -0.370091       -10.0707
 210   2.0000      -0.369372       -10.0511
 211   2.0000      -0.361986        -9.8501
 212   2.0000      -0.355045        -9.6613
 213   2.0000      -0.354718        -9.6524
 214   2.0000      -0.353207        -9.6113
 215   2.0000      -0.349750        -9.5172
 216   2.0000      -0.339757        -9.2453
 217   2.0000      -0.337875        -9.1941
 218   2.0000      -0.336550        -9.1580
 219   2.0000      -0.335624        -9.1328
 220   2.0000      -0.321395        -8.7456
 221   2.0000      -0.320679        -8.7261
 222   2.0000      -0.316621        -8.6157
 223   2.0000      -0.299380        -8.1465
 224   2.0000      -0.294243        -8.0068
 225   2.0000      -0.242963        -6.6114
 226   0.0000      -0.113966        -3.1012
 227   0.0000      -0.092651        -2.5212
 228   0.0000      -0.064077        -1.7436
 229   0.0000      -0.057869        -1.5747
 230   0.0000      -0.044988        -1.2242

MULLIKEN ATOMIC CHARGES
-----------------------
   0 C :    0.035743
   1 C :   -0.129067
   2 S :    0.188620
   3 C :   -0.169272
   4 Cl:   -0.002589
   5 C :    0.085943
   6 C :    0.159709
   7 O :   -0.138031
   8 C :   -0.072151
   9 C :    0.290325
  10 C :   -0.328696
  11 C :   -0.193443
  12 N :    0.158472
  13 C :   -0.184289
  14 N :    0.160167
  15 C :   -0.002436
  16 C :   -0.164080
  17 S :    0.212171
  18 C :    0.076652
  19 C :    0.192567
  20 O :   -0.167800
  21 N :   -0.301276
  22 C :    0.137805
  23 C :    0.217044
  24 O :   -0.178112
  25 C :   -0.022636
  26 C :   -0.142123
  27 C :    0.067109
  28 C :   -0.022598
  29 C :    0.133593
  30 N :   -0.262711
  31 C :    0.100872
  32 C :    0.008782
  33 C :    0.151794
  34 O :   -0.196948
  35 C :   -0.044662
  36 C :   -0.053296
  37 C :    0.162557
  38 O :   -0.210914
  39 N :   -0.265907
  40 C :    0.098405
  41 C :    0.002499
  42 C :    0.114885
  43 C :   -0.017367
  44 C :    0.011086
  45 C :    0.109166
  46 C :   -0.081846
  47 C :    0.150632
  48 N :    0.243995
  49 O :   -0.232179
  50 O :   -0.233238
  51 C :    0.051566
  52 C :   -0.031649
  53 C :    0.024450
  54 C :    0.019571
  55 C :    0.004268
  56 C :    0.004108
  57 C :    0.025213
  58 N :   -0.088381
  59 C :    0.065426
  60 N :   -0.088971
  61 C :    0.019968
  62 H :    0.054406
  63 H :    0.030224
  64 H :    0.044631
  65 H :    0.053010
  66 H :    0.041647
  67 H :   -0.000467
  68 H :   -0.004416
  69 H :    0.035761
  70 H :    0.038965
  71 H :    0.018886
  72 H :    0.024108
  73 H :    0.022661
  74 H :    0.026517
  75 H :    0.046183
  76 H :    0.020886
  77 H :    0.024380
  78 H :    0.027285
  79 H :    0.004134
  80 H :   -0.024202
  81 H :    0.002932
  82 H :   -0.010712
  83 H :    0.002462
  84 H :    0.017039
  85 H :   -0.002115
  86 H :    0.023279
  87 H :    0.020557
  88 H :    0.003462
Sum of atomic charges:   -0.0000000

LOEWDIN ATOMIC CHARGES
----------------------
   0 C :   -0.056473
   1 C :   -0.148677
   2 S :    0.479488
   3 C :   -0.271139
   4 Cl:    0.192470
   5 C :   -0.109275
   6 C :    0.087630
   7 O :   -0.133643
   8 C :   -0.060251
   9 C :    0.075001
  10 C :   -0.131145
  11 C :   -0.015269
  12 N :   -0.047846
  13 C :   -0.021872
  14 N :   -0.043038
  15 C :    0.040699
  16 C :   -0.154054
  17 S :    0.494114
  18 C :   -0.055916
  19 C :    0.095395
  20 O :   -0.154820
  21 N :   -0.029481
  22 C :    0.037813
  23 C :    0.100117
  24 O :   -0.164408
  25 C :   -0.092012
  26 C :   -0.122981
  27 C :   -0.007073
  28 C :   -0.015982
  29 C :    0.077548
  30 N :    0.000178
  31 C :    0.037454
  32 C :   -0.058753
  33 C :    0.078587
  34 O :   -0.198931
  35 C :   -0.111366
  36 C :   -0.120303
  37 C :    0.083779
  38 O :   -0.198001
  39 N :   -0.002764
  40 C :    0.034871
  41 C :   -0.062543
  42 C :    0.071262
  43 C :   -0.025807
  44 C :   -0.002472
  45 C :   -0.026912
  46 C :    0.010397
  47 C :   -0.029647
  48 N :    0.285602
  49 O :   -0.200110
  50 O :   -0.193269
  51 C :    0.001258
  52 C :   -0.005561
  53 C :    0.018602
  54 C :   -0.008612
  55 C :   -0.011462
  56 C :   -0.071032
  57 C :    0.055661
  58 N :   -0.079290
  59 C :    0.044766
  60 N :   -0.081891
  61 C :    0.045155
  62 H :    0.037914
  63 H :    0.047117
  64 H :    0.035047
  65 H :    0.037745
  66 H :    0.034513
  67 H :    0.036155
  68 H :    0.032695
  69 H :    0.028492
  70 H :    0.036437
  71 H :    0.023676
  72 H :    0.032147
  73 H :    0.028918
  74 H :    0.021040
  75 H :    0.038393
  76 H :    0.021956
  77 H :    0.031719
  78 H :    0.032635
  79 H :    0.043748
  80 H :    0.029756
  81 H :    0.039405
  82 H :    0.035446
  83 H :    0.038872
  84 H :    0.030521
  85 H :    0.029743
  86 H :    0.029221
  87 H :    0.019261
  88 H :    0.023662

  Mayer bond orders larger than 0.100000
B(  0-C ,  1-C ) :   1.5387 B(  0-C ,  5-C ) :   1.2282 B(  0-C ,  9-C ) :   1.0046
B(  1-C ,  2-S ) :   1.1659 B(  1-C , 62-H ) :   0.9529 B(  2-S ,  3-C ) :   1.1498
B(  3-C ,  4-Cl) :   1.1274 B(  3-C ,  5-C ) :   1.4776 B(  5-C ,  6-C ) :   0.9484
B(  6-C ,  7-O ) :   2.2385 B(  6-C ,  8-C ) :   0.9087 B(  8-C ,  9-C ) :   1.0796
B(  8-C , 15-C ) :   1.6971 B(  9-C , 10-C ) :   1.6547 B( 10-C , 11-C ) :   1.1455
B( 10-C , 13-C ) :   1.1382 B( 11-C , 12-N ) :   2.9913 B( 13-C , 14-N ) :   2.9710
B( 15-C , 16-C ) :   1.0948 B( 15-C , 63-H ) :   0.9305 B( 16-C , 17-S ) :   1.1206
B( 16-C , 18-C ) :   1.5111 B( 17-S , 26-C ) :   1.1594 B( 18-C , 19-C ) :   0.8827
B( 18-C , 25-C ) :   1.3189 B( 19-C , 20-O ) :   2.1761 B( 19-C , 21-N ) :   1.0799
B( 21-N , 22-C ) :   0.9398 B( 21-N , 23-C ) :   1.0932 B( 22-C , 64-H ) :   0.9767
B( 22-C , 65-H ) :   0.9606 B( 22-C , 66-H ) :   0.9732 B( 23-C , 24-O ) :   2.0846
B( 23-C , 25-C ) :   0.9085 B( 25-C , 26-C ) :   1.4394 B( 26-C , 27-C ) :   1.1479
B( 27-C , 28-C ) :   1.5987 B( 27-C , 67-H ) :   0.9348 B( 28-C , 29-C ) :   1.1692
B( 28-C , 68-H ) :   0.9413 B( 29-C , 30-N ) :   1.1697 B( 29-C , 36-C ) :   1.3191
B( 30-N , 31-C ) :   0.9398 B( 30-N , 33-C ) :   1.0420 B( 31-C , 32-C ) :   1.1236
B( 31-C , 69-H ) :   0.9481 B( 31-C , 70-H ) :   0.9278 B( 32-C , 71-H ) :   0.9670
B( 32-C , 72-H ) :   0.9676 B( 32-C , 73-H ) :   0.9642 B( 33-C , 34-O ) :   2.1218
B( 33-C , 35-C ) :   0.9744 B( 35-C , 36-C ) :   1.2454 B( 35-C , 42-C ) :   1.3497
B( 36-C , 37-C ) :   0.9884 B( 37-C , 38-O ) :   2.0199 B( 37-C , 39-N ) :   1.0572
B( 38-O , 67-H ) :   0.1109 B( 39-N , 40-C ) :   0.9418 B( 39-N , 42-C ) :   1.1659
B( 40-C , 41-C ) :   1.1170 B( 40-C , 74-H ) :   0.9509 B( 40-C , 75-H ) :   0.9233
B( 41-C , 76-H ) :   0.9683 B( 41-C , 77-H ) :   0.9681 B( 41-C , 78-H ) :   0.9615
B( 42-C , 43-C ) :   1.1730 B( 43-C , 44-C ) :   1.5933 B( 43-C , 79-H ) :   0.9415
B( 44-C , 45-C ) :   1.0751 B( 44-C , 80-H ) :   0.9918 B( 45-C , 46-C ) :   1.2864
B( 45-C , 53-C ) :   1.3107 B( 46-C , 47-C ) :   1.3602 B( 46-C , 81-H ) :   0.9994
B( 47-C , 48-N ) :   0.8818 B( 47-C , 51-C ) :   1.3520 B( 48-N , 49-O ) :   1.5567
B( 48-N , 50-O ) :   1.5233 B( 49-O , 50-O ) :   0.2646 B( 51-C , 52-C ) :   1.3355
B( 51-C , 54-C ) :   1.0575 B( 52-C , 53-C ) :   1.4257 B( 52-C , 82-H ) :   0.9868
B( 53-C , 83-H ) :   0.9895 B( 54-C , 55-C ) :   1.7907 B( 54-C , 84-H ) :   0.9389
B( 55-C , 56-C ) :   1.0444 B( 55-C , 85-H ) :   0.9742 B( 56-C , 57-C ) :   1.3384
B( 56-C , 61-C ) :   1.3328 B( 57-C , 58-N ) :   1.5718 B( 57-C , 86-H ) :   0.9848
B( 58-N , 59-C ) :   1.5043 B( 59-C , 60-N ) :   1.5057 B( 59-C , 87-H ) :   0.9757
B( 60-N , 61-C ) :   1.5682 B( 61-C , 88-H ) :   0.9925

-----------------------------------------------------------------------------
         ABSORPTION SPECTRUM VIA TRANSITION ELECTRIC DIPOLE MOMENTS
-----------------------------------------------------------------------------
State   Energy  Wavelength   fosc         T2         TX        TY        TZ
        (cm-1)    (nm)                  (au**2)     (au)      (au)      (au)
-----------------------------------------------------------------------------
   0   14064.8    711.0   1.058183696  24.76869   2.69364  -1.47719   3.91547
   1   18911.8    528.8   0.157630856   2.74400  -0.63612  -0.59515   1.40895
   2   23018.0    434.4   0.295793338   4.23055  -1.80614   0.46251  -0.86862
   3   24496.1    408.2   0.015554860   0.20905   0.38212  -0.12965   0.21500
   4   26092.3    383.3   0.014306839   0.18051  -0.39782   0.01798   0.14809
   5   26328.5    379.8   0.195252366   2.44144   1.38916  -0.43369   0.56886
   6   27204.2    367.6   0.260876420   3.15700  -1.18283   0.38719  -1.26807
   7   27539.2    363.1   0.263964571   3.15551   1.73419  -0.34069   0.17900
   8   28134.2    355.4   0.304975180   3.56866   1.15108  -0.50879   1.40883
   9   28246.5    354.0   0.034986748   0.40777   0.44423  -0.24875   0.38543
  10   28705.7    348.4   0.021573598   0.24742  -0.29291  -0.38969   0.09880
  11   29178.6    342.7   0.005577845   0.06293  -0.08365   0.23286  -0.04138
  12   30863.6    324.0   0.106854627   1.13978  -0.11668  -0.31988  -1.01185
  13   31704.9    315.4   0.016018206   0.16633  -0.31605   0.00804   0.25764
  14   31962.5    312.9   0.003574491   0.03682   0.17455   0.04623  -0.06489
  15   32164.1    310.9   0.019665875   0.20129  -0.29186  -0.06504   0.33448
  16   32718.7    305.6   0.032770677   0.32973   0.49908   0.26624  -0.09885
  17   33389.9    299.5   0.124468201   1.22721  -0.77194  -0.04721  -0.79315
  18   33955.1    294.5   0.367761590   3.56563   1.64132  -0.61003   0.70680
  19   34882.7    286.7   0.073395415   0.69268   0.58448  -0.26072   0.53206
  20   35176.0    284.3   0.011172776   0.10457  -0.08351   0.16930  -0.26255
  21   35231.0    283.8   0.016689074   0.15595  -0.35107   0.05534  -0.17215
  22   35669.9    280.3   0.053540291   0.49415  -0.62278   0.01090  -0.32583
  23   35838.2    279.0   0.028716599   0.26379   0.08690   0.01682   0.50592
  24   35990.2    277.9   0.079643503   0.72852   0.83732  -0.09066  -0.13858
  25   36165.6    276.5   0.188294968   1.71403  -0.05006   0.86835   0.97852
  26   36196.5    276.3   0.025593076   0.23277   0.07444   0.03659  -0.47528
  27   36320.3    275.3   0.123577825   1.12012   0.65231  -0.80800  -0.20433
  28   36636.0    273.0   0.078652001   0.70677   0.00609   0.17950   0.82129
  29   36814.4    271.6   0.086865445   0.77679   0.46640  -0.07448  -0.74412
  30   38018.2    263.0   0.178392715   1.54476  -0.28846   0.29074   1.17347
  31   38288.1    261.2   0.078737364   0.67701  -0.26625   0.43125   0.64819
  32   38702.3    258.4   0.003390610   0.02884   0.10288   0.13510   0.00209
  33   38836.7    257.5   0.067866050   0.57529   0.22851   0.23980  -0.68233
  34   38902.8    257.1   0.006602560   0.05587   0.17697   0.04641   0.14967
  35   39362.5    254.0   0.011025411   0.09221   0.22603  -0.03507   0.19973
  36   39488.7    253.2   0.065776788   0.54837   0.58475  -0.14999   0.42889
  37   39757.4    251.5   0.063481437   0.52566  -0.70137   0.17624   0.05171
  38   39998.2    250.0   0.010858743   0.08937   0.23511  -0.09100   0.16067
  39   40212.3    248.7   0.022194931   0.18171  -0.31811   0.15756  -0.23599

FINAL SINGLE POINT ENERGY     -3910.320922694934

DIPOLE MOMENT
-------------
                                X             Y             Z
Electronic contribution:    -70.61312       6.66434     -67.94091
Nuclear contribution   :     71.34058      -6.51525      65.67336
                        -----------------------------------------
Total Dipole Moment    :      0.72747       0.14909      -2.26755
                        -----------------------------------------
Magnitude (a.u.)       :      2.38604
Magnitude (Debye)      :      6.06484

Rotational constants in cm-1:     0.003294     0.000268     0.000256
Rotational constants in MHz :    98.756458     8.044783     7.684699

                             ****ORCA TERMINATED NORMALLY****
TOTAL RUN TIME: 0 days 0 hours 11 minutes 18 seconds 471 msec
