                         Program Version 4.2.0 -  RELEASE  -
|  1> # ORCA input file
|  2> # SCF done       -176.231952031340          0.000521118200
|  3> ! CAM-B3LYP def2-SVP def2/J RIJCOSX Grid4 TightSCF
|  4> %maxcore 5000
|  5> %tddft
|  6>     Mode sTDDFT
|  7>     Ethresh 5.0
|  8>     maxcore 5000
|  9> end
| 10>
| 11> %pal
| 12>   nprocs 6
| 13>   end
| 14> * xyz 0 1
| 15>    C        0.20178         0.65803        -0.08273
| 16>    C       -1.04830         1.19527        -0.09176
| 17>    S       -2.25678        -0.03522        -0.03673
| 18>    C       -1.05572        -1.30465        -0.00328
| 19>   Cl       -1.49836        -2.93795         0.06144
| 20>    C        0.19966        -0.77369        -0.03059
| 21>    C        1.57566        -1.27854        -0.02024
| 22>    O        1.94298        -2.43102        -0.00778
| 23>    C        2.42937        -0.04918        -0.09346
| 24>    C        1.57111         1.12899        -0.10928
| 25>    C        1.94536         2.44541        -0.10440
| 26>    C        0.98587         3.48037        -0.10205
| 27>    N        0.21717         4.33175        -0.10304
| 28>    C        3.27165         2.92123        -0.08684
| 29>    N        4.32902         3.36785        -0.06718
| 30>    C        3.77421        -0.06308        -0.27047
| 31>    C        4.60292        -1.23403        -0.20733
| 32>    C        5.62015        -1.47566        -1.15013
| 33>    N        6.35988        -2.55119        -1.12917
| 34>    C        6.12097        -3.46452        -0.18456
| 35>    N        5.23157        -3.29688         0.79789
| 36>    C        4.50908        -2.20629         0.80270
| 37>    C        6.90930        -4.66685        -0.25536
| 38>    N        6.82417        -5.73301         0.60178
| 39>    C        5.90135        -5.92034         1.69673
| 40>    C        4.51492        -6.32340         1.20462
| 41>    C        7.73833        -6.74296         0.25931
| 42>    O        7.84835        -7.78830         0.87180
| 43>    C        8.43336        -6.22577        -0.89713
| 44>    C        7.89720        -4.94438        -1.19065
| 45>    C        8.59983        -4.41864        -2.34767
| 46>    O        8.52064        -3.39191        -2.97596
| 47>    N        9.53272        -5.43943        -2.66644
| 48>    C       10.39666        -5.31406        -3.81435
| 49>    C        9.87046        -6.10449        -5.01039
| 50>    C        9.43741        -6.51241        -1.81890
| 51>    C       10.26203        -7.66913        -1.91435
| 52>    C       10.12269        -8.72344        -1.07932
| 53>    C       10.90513        -9.93292        -1.09826
| 54>    C       10.57667       -10.95363        -0.20325
| 55>    C       11.29064       -12.13935        -0.16837
| 56>    N       10.87643       -13.10739         0.81406
| 57>    O        9.73109       -13.05177         1.20012
| 58>    O       11.68899       -13.92533         1.20454
| 59>    C       12.37953       -12.36979        -1.03315
| 60>    C       12.69027       -11.33946        -1.93078
| 61>    C       11.98650       -10.15962        -1.96375
| 62>    C       13.12548       -13.60707        -1.03106
| 63>    C       14.40921       -13.72777        -1.41579
| 64>    C       15.12051       -14.97104        -1.39715
| 65>    C       15.04223       -15.97289        -0.49199
| 66>    C       15.59051       -17.32154        -0.85996
| 67>    O       16.28986       -17.57053        -1.81181
| 68>    C       15.03840       -18.22677         0.15063
| 69>    C       15.02313       -19.56875         0.39319
| 70>    S       14.11385       -19.91831         1.84285
| 71>    C       13.77549       -18.24671         2.11220
| 72>    C       14.32431       -17.47202         1.13970
| 73>    C       14.42940       -16.05742         0.82943
| 74>    C       14.20162       -15.05514         1.72829
| 75>    C       13.71142       -15.33030         3.02403
| 76>    N       13.33424       -15.54605         4.08491
| 77>    C       14.48656       -13.69184         1.51915
| 78>    N       14.73750       -12.57666         1.41705
| 79>   Cl       15.74558       -20.80253        -0.51554
| 80>    H       -1.34664         2.22414        -0.12943
| 81>    H        4.28529         0.85954        -0.51729
| 82>    H        5.81088        -0.78290        -1.95923
| 83>    H        3.85849        -2.06987         1.65551
| 84>    H        5.84130        -4.99840         2.27636
| 85>    H        6.32534        -6.72134         2.30901
| 86>    H        4.06942        -5.52104         0.62267
| 87>    H        3.87376        -6.53086         2.05631
| 88>    H        4.57912        -7.21850         0.59027
| 89>    H       11.40976        -5.63055        -3.55027
| 90>    H       10.41513        -4.24875        -4.06107
| 91>    H        9.79387        -7.16454        -4.77744
| 92>    H       10.53768        -5.97831        -5.85856
| 93>    H        8.88436        -5.74057        -5.28744
| 94>    H       11.01225        -7.67120        -2.69136
| 95>    H        9.35291        -8.68149        -0.31971
| 96>    H        9.75648       -10.82103         0.48785
| 97>    H       13.49501       -11.49136        -2.63269
| 98>    H       12.27782        -9.40033        -2.67225
| 99>    H       12.61537       -14.49251        -0.67704
|100>    H       14.95244       -12.87568        -1.80150
|101>    H       15.78126       -15.16072        -2.23871
|102>    H       13.18784       -17.95692         2.96037
|103> *
|104>
|105>                          ****END OF INPUT****

CARTESIAN COORDINATES (ANGSTROEM)
---------------------------------
  C      0.201780    0.658030   -0.082730
  C     -1.048300    1.195270   -0.091760
  S     -2.256780   -0.035220   -0.036730
  C     -1.055720   -1.304650   -0.003280
  Cl    -1.498360   -2.937950    0.061440
  C      0.199660   -0.773690   -0.030590
  C      1.575660   -1.278540   -0.020240
  O      1.942980   -2.431020   -0.007780
  C      2.429370   -0.049180   -0.093460
  C      1.571110    1.128990   -0.109280
  C      1.945360    2.445410   -0.104400
  C      0.985870    3.480370   -0.102050
  N      0.217170    4.331750   -0.103040
  C      3.271650    2.921230   -0.086840
  N      4.329020    3.367850   -0.067180
  C      3.774210   -0.063080   -0.270470
  C      4.602920   -1.234030   -0.207330
  C      5.620150   -1.475660   -1.150130
  N      6.359880   -2.551190   -1.129170
  C      6.120970   -3.464520   -0.184560
  N      5.231570   -3.296880    0.797890
  C      4.509080   -2.206290    0.802700
  C      6.909300   -4.666850   -0.255360
  N      6.824170   -5.733010    0.601780
  C      5.901350   -5.920340    1.696730
  C      4.514920   -6.323400    1.204620
  C      7.738330   -6.742960    0.259310
  O      7.848350   -7.788300    0.871800
  C      8.433360   -6.225770   -0.897130
  C      7.897200   -4.944380   -1.190650
  C      8.599830   -4.418640   -2.347670
  O      8.520640   -3.391910   -2.975960
  N      9.532720   -5.439430   -2.666440
  C     10.396660   -5.314060   -3.814350
  C      9.870460   -6.104490   -5.010390
  C      9.437410   -6.512410   -1.818900
  C     10.262030   -7.669130   -1.914350
  C     10.122690   -8.723440   -1.079320
  C     10.905130   -9.932920   -1.098260
  C     10.576670  -10.953630   -0.203250
  C     11.290640  -12.139350   -0.168370
  N     10.876430  -13.107390    0.814060
  O      9.731090  -13.051770    1.200120
  O     11.688990  -13.925330    1.204540
  C     12.379530  -12.369790   -1.033150
  C     12.690270  -11.339460   -1.930780
  C     11.986500  -10.159620   -1.963750
  C     13.125480  -13.607070   -1.031060
  C     14.409210  -13.727770   -1.415790
  C     15.120510  -14.971040   -1.397150
  C     15.042230  -15.972890   -0.491990
  C     15.590510  -17.321540   -0.859960
  O     16.289860  -17.570530   -1.811810
  C     15.038400  -18.226770    0.150630
  C     15.023130  -19.568750    0.393190
  S     14.113850  -19.918310    1.842850
  C     13.775490  -18.246710    2.112200
  C     14.324310  -17.472020    1.139700
  C     14.429400  -16.057420    0.829430
  C     14.201620  -15.055140    1.728290
  C     13.711420  -15.330300    3.024030
  N     13.334240  -15.546050    4.084910
  C     14.486560  -13.691840    1.519150
  N     14.737500  -12.576660    1.417050
  Cl    15.745580  -20.802530   -0.515540
  H     -1.346640    2.224140   -0.129430
  H      4.285290    0.859540   -0.517290
  H      5.810880   -0.782900   -1.959230
  H      3.858490   -2.069870    1.655510
  H      5.841300   -4.998400    2.276360
  H      6.325340   -6.721340    2.309010
  H      4.069420   -5.521040    0.622670
  H      3.873760   -6.530860    2.056310
  H      4.579120   -7.218500    0.590270
  H     11.409760   -5.630550   -3.550270
  H     10.415130   -4.248750   -4.061070
  H      9.793870   -7.164540   -4.777440
  H     10.537680   -5.978310   -5.858560
  H      8.884360   -5.740570   -5.287440
  H     11.012250   -7.671200   -2.691360
  H      9.352910   -8.681490   -0.319710
  H      9.756480  -10.821030    0.487850
  H     13.495010  -11.491360   -2.632690
  H     12.277820   -9.400330   -2.672250
  H     12.615370  -14.492510   -0.677040
  H     14.952440  -12.875680   -1.801500
  H     15.781260  -15.160720   -2.238710
  H     13.187840  -17.956920    2.960370

 Total Charge           Charge          ....    0
 Multiplicity           Mult            ....    1
 Number of Electrons    NEL             ....  476
 Basis Dimension        Dim             .... 1041

ORBITAL ENERGIES
----------------

  NO   OCC          E(Eh)            E(eV)
   0   2.0000    -101.624683     -2765.3482
   1   2.0000    -101.615336     -2765.0939
   2   2.0000     -89.002488     -2421.8808
   3   2.0000     -88.990230     -2421.5473
   4   2.0000     -19.254723      -523.9476
   5   2.0000     -19.253986      -523.9276
   6   2.0000     -19.232058      -523.3309
   7   2.0000     -19.218541      -522.9631
   8   2.0000     -19.191937      -522.2392
   9   2.0000     -19.186076      -522.0797
  10   2.0000     -14.659663      -398.9097
  11   2.0000     -14.455224      -393.3467
  12   2.0000     -14.449572      -393.1929
  13   2.0000     -14.429655      -392.6509
  14   2.0000     -14.428194      -392.6111
  15   2.0000     -14.424041      -392.4981
  16   2.0000     -14.418263      -392.3409
  17   2.0000     -14.413592      -392.2138
  18   2.0000     -14.413320      -392.2064
  19   2.0000     -10.389275      -282.7065
  20   2.0000     -10.384912      -282.5878
  21   2.0000     -10.376160      -282.3497
  22   2.0000     -10.374526      -282.3052
  23   2.0000     -10.373738      -282.2838
  24   2.0000     -10.369451      -282.1671
  25   2.0000     -10.362774      -281.9854
  26   2.0000     -10.358325      -281.8643
  27   2.0000     -10.357739      -281.8484
  28   2.0000     -10.348183      -281.5884
  29   2.0000     -10.344713      -281.4940
  30   2.0000     -10.343363      -281.4572
  31   2.0000     -10.342392      -281.4308
  32   2.0000     -10.339097      -281.3411
  33   2.0000     -10.338046      -281.3125
  34   2.0000     -10.336030      -281.2577
  35   2.0000     -10.334039      -281.2035
  36   2.0000     -10.331567      -281.1362
  37   2.0000     -10.331278      -281.1284
  38   2.0000     -10.329869      -281.0900
  39   2.0000     -10.324668      -280.9485
  40   2.0000     -10.324417      -280.9417
  41   2.0000     -10.321489      -280.8620
  42   2.0000     -10.319668      -280.8124
  43   2.0000     -10.318320      -280.7758
  44   2.0000     -10.316135      -280.7163
  45   2.0000     -10.314938      -280.6837
  46   2.0000     -10.312258      -280.6108
  47   2.0000     -10.309506      -280.5359
  48   2.0000     -10.308791      -280.5165
  49   2.0000     -10.308743      -280.5152
  50   2.0000     -10.308414      -280.5062
  51   2.0000     -10.307001      -280.4678
  52   2.0000     -10.306589      -280.4566
  53   2.0000     -10.305792      -280.4349
  54   2.0000     -10.305357      -280.4230
  55   2.0000     -10.303979      -280.3855
  56   2.0000     -10.301821      -280.3268
  57   2.0000     -10.300288      -280.2851
  58   2.0000     -10.298969      -280.2492
  59   2.0000     -10.297738      -280.2157
  60   2.0000     -10.288230      -279.9570
  61   2.0000     -10.268869      -279.4301
  62   2.0000     -10.268696      -279.4254
  63   2.0000     -10.261061      -279.2177
  64   2.0000     -10.245837      -278.8034
  65   2.0000      -9.579481      -260.6709
  66   2.0000      -9.570124      -260.4163
  67   2.0000      -8.098005      -220.3579
  68   2.0000      -8.085933      -220.0294
  69   2.0000      -7.350145      -200.0076
  70   2.0000      -7.340755      -199.7521
  71   2.0000      -7.339505      -199.7181
  72   2.0000      -7.338942      -199.7028
  73   2.0000      -7.330167      -199.4640
  74   2.0000      -7.329621      -199.4491
  75   2.0000      -6.067365      -165.1014
  76   2.0000      -6.062746      -164.9757
  77   2.0000      -6.060377      -164.9112
  78   2.0000      -6.055322      -164.7737
  79   2.0000      -6.050707      -164.6481
  80   2.0000      -6.048183      -164.5794
  81   2.0000      -1.335157       -36.3315
  82   2.0000      -1.153306       -31.3830
  83   2.0000      -1.149208       -31.2715
  84   2.0000      -1.135393       -30.8956
  85   2.0000      -1.134222       -30.8638
  86   2.0000      -1.125036       -30.6138
  87   2.0000      -1.099875       -29.9291
  88   2.0000      -1.064347       -28.9624
  89   2.0000      -1.051248       -28.6059
  90   2.0000      -1.046901       -28.4876
  91   2.0000      -1.035010       -28.1641
  92   2.0000      -1.026057       -27.9204
  93   2.0000      -1.011833       -27.5334
  94   2.0000      -1.007267       -27.4091
  95   2.0000      -1.001541       -27.2533
  96   2.0000      -0.997174       -27.1345
  97   2.0000      -0.992635       -27.0110
  98   2.0000      -0.991954       -26.9924
  99   2.0000      -0.984708       -26.7953
 100   2.0000      -0.964740       -26.2519
 101   2.0000      -0.953527       -25.9468
 102   2.0000      -0.939222       -25.5575
 103   2.0000      -0.937018       -25.4976
 104   2.0000      -0.926602       -25.2141
 105   2.0000      -0.921725       -25.0814
 106   2.0000      -0.913717       -24.8635
 107   2.0000      -0.904118       -24.6023
 108   2.0000      -0.898591       -24.4519
 109   2.0000      -0.883119       -24.0309
 110   2.0000      -0.876037       -23.8382
 111   2.0000      -0.865719       -23.5574
 112   2.0000      -0.843790       -22.9607
 113   2.0000      -0.841454       -22.8971
 114   2.0000      -0.829121       -22.5615
 115   2.0000      -0.827089       -22.5062
 116   2.0000      -0.816192       -22.2097
 117   2.0000      -0.805192       -21.9104
 118   2.0000      -0.800100       -21.7718
 119   2.0000      -0.780991       -21.2518
 120   2.0000      -0.770902       -20.9773
 121   2.0000      -0.764883       -20.8135
 122   2.0000      -0.761103       -20.7107
 123   2.0000      -0.755877       -20.5685
 124   2.0000      -0.749601       -20.3977
 125   2.0000      -0.738276       -20.0895
 126   2.0000      -0.731072       -19.8935
 127   2.0000      -0.713429       -19.4134
 128   2.0000      -0.704408       -19.1679
 129   2.0000      -0.699871       -19.0445
 130   2.0000      -0.697342       -18.9757
 131   2.0000      -0.688044       -18.7226
 132   2.0000      -0.685488       -18.6531
 133   2.0000      -0.682279       -18.5657
 134   2.0000      -0.672295       -18.2941
 135   2.0000      -0.670356       -18.2413
 136   2.0000      -0.659000       -17.9323
 137   2.0000      -0.650179       -17.6923
 138   2.0000      -0.645455       -17.5637
 139   2.0000      -0.637600       -17.3500
 140   2.0000      -0.632277       -17.2051
 141   2.0000      -0.628523       -17.1030
 142   2.0000      -0.626650       -17.0520
 143   2.0000      -0.625274       -17.0146
 144   2.0000      -0.616727       -16.7820
 145   2.0000      -0.614539       -16.7224
 146   2.0000      -0.614003       -16.7079
 147   2.0000      -0.606883       -16.5141
 148   2.0000      -0.605007       -16.4631
 149   2.0000      -0.594630       -16.1807
 150   2.0000      -0.586136       -15.9496
 151   2.0000      -0.584330       -15.9004
 152   2.0000      -0.578442       -15.7402
 153   2.0000      -0.570933       -15.5359
 154   2.0000      -0.565826       -15.3969
 155   2.0000      -0.562828       -15.3153
 156   2.0000      -0.555154       -15.1065
 157   2.0000      -0.549178       -14.9439
 158   2.0000      -0.547972       -14.9111
 159   2.0000      -0.545836       -14.8530
 160   2.0000      -0.544467       -14.8157
 161   2.0000      -0.542967       -14.7749
 162   2.0000      -0.541587       -14.7373
 163   2.0000      -0.540001       -14.6942
 164   2.0000      -0.536187       -14.5904
 165   2.0000      -0.532090       -14.4789
 166   2.0000      -0.529531       -14.4093
 167   2.0000      -0.528741       -14.3878
 168   2.0000      -0.525982       -14.3127
 169   2.0000      -0.521640       -14.1946
 170   2.0000      -0.520684       -14.1685
 171   2.0000      -0.514353       -13.9963
 172   2.0000      -0.513358       -13.9692
 173   2.0000      -0.510541       -13.8925
 174   2.0000      -0.507548       -13.8111
 175   2.0000      -0.503919       -13.7123
 176   2.0000      -0.502577       -13.6758
 177   2.0000      -0.500949       -13.6315
 178   2.0000      -0.498022       -13.5519
 179   2.0000      -0.497152       -13.5282
 180   2.0000      -0.494844       -13.4654
 181   2.0000      -0.494281       -13.4501
 182   2.0000      -0.489629       -13.3235
 183   2.0000      -0.489526       -13.3207
 184   2.0000      -0.483457       -13.1555
 185   2.0000      -0.477571       -12.9954
 186   2.0000      -0.473746       -12.8913
 187   2.0000      -0.464692       -12.6449
 188   2.0000      -0.464204       -12.6316
 189   2.0000      -0.460956       -12.5432
 190   2.0000      -0.459378       -12.5003
 191   2.0000      -0.458471       -12.4756
 192   2.0000      -0.457587       -12.4516
 193   2.0000      -0.455428       -12.3928
 194   2.0000      -0.453011       -12.3270
 195   2.0000      -0.452584       -12.3154
 196   2.0000      -0.450583       -12.2610
 197   2.0000      -0.447828       -12.1860
 198   2.0000      -0.445095       -12.1116
 199   2.0000      -0.442223       -12.0335
 200   2.0000      -0.441195       -12.0055
 201   2.0000      -0.440914       -11.9979
 202   2.0000      -0.440134       -11.9766
 203   2.0000      -0.437642       -11.9089
 204   2.0000      -0.435681       -11.8555
 205   2.0000      -0.430138       -11.7046
 206   2.0000      -0.429122       -11.6770
 207   2.0000      -0.426798       -11.6138
 208   2.0000      -0.426173       -11.5968
 209   2.0000      -0.419790       -11.4231
 210   2.0000      -0.417891       -11.3714
 211   2.0000      -0.412526       -11.2254
 212   2.0000      -0.410186       -11.1617
 213   2.0000      -0.408047       -11.1035
 214   2.0000      -0.403174       -10.9709
 215   2.0000      -0.402227       -10.9451
 216   2.0000      -0.400319       -10.8932
 217   2.0000      -0.395875       -10.7723
 218   2.0000      -0.390229       -10.6187
 219   2.0000      -0.389498       -10.5988
 220   2.0000      -0.382097       -10.3974
 221   2.0000      -0.380045       -10.3415
 222   2.0000      -0.373209       -10.1555
 223   2.0000      -0.357876        -9.7383
 224   2.0000      -0.355972        -9.6865
 225   2.0000      -0.347010        -9.4426
 226   2.0000      -0.345205        -9.3935
 227   2.0000      -0.342487        -9.3196
 228   2.0000      -0.339593        -9.2408
 229   2.0000      -0.334365        -9.0985
 230   2.0000      -0.330374        -8.9899
 231   2.0000      -0.329607        -8.9691
 232   2.0000      -0.321734        -8.7548
 233   2.0000      -0.314624        -8.5614
 234   2.0000      -0.312158        -8.4942
 235   2.0000      -0.310809        -8.4575
 236   2.0000      -0.295380        -8.0377
 237   2.0000      -0.244610        -6.6562
 238   0.0000      -0.109594        -2.9822
 239   0.0000      -0.094913        -2.5827
 240   0.0000      -0.077152        -2.0994
 241   0.0000      -0.060965        -1.6590
 242   0.0000      -0.055914        -1.5215

MULLIKEN ATOMIC CHARGES
-----------------------
   0 C :    0.030898
   1 C :   -0.127518
   2 S :    0.193297
   3 C :   -0.166939
   4 Cl:    0.005180
   5 C :    0.073268
   6 C :    0.144392
   7 O :   -0.125714
   8 C :   -0.100204
   9 C :    0.288516
  10 C :   -0.316717
  11 C :   -0.194885
  12 N :    0.165908
  13 C :   -0.194683
  14 N :    0.166997
  15 C :   -0.013970
  16 C :   -0.025374
  17 C :    0.058225
  18 N :    0.002220
  19 C :   -0.184132
  20 N :   -0.063681
  21 C :    0.118602
  22 C :    0.200995
  23 N :   -0.254863
  24 C :    0.135194
  25 C :    0.000195
  26 C :    0.166026
  27 O :   -0.217458
  28 C :   -0.080354
  29 C :   -0.058937
  30 C :    0.151568
  31 O :   -0.149223
  32 N :   -0.270080
  33 C :    0.099986
  34 C :    0.001783
  35 C :    0.143333
  36 C :    0.002852
  37 C :    0.010823
  38 C :    0.109969
  39 C :   -0.070534
  40 C :    0.158377
  41 N :    0.261361
  42 O :   -0.212677
  43 O :   -0.249118
  44 C :    0.068785
  45 C :   -0.028042
  46 C :    0.022653
  47 C :    0.018479
  48 C :    0.001223
  49 C :    0.027792
  50 C :   -0.129007
  51 C :    0.128902
  52 O :   -0.130058
  53 C :    0.090138
  54 C :   -0.171579
  55 S :    0.183429
  56 C :   -0.127960
  57 C :    0.012108
  58 C :    0.264823
  59 C :   -0.294092
  60 C :   -0.181602
  61 N :    0.159428
  62 C :   -0.183707
  63 N :    0.163305
  64 Cl:   -0.002052
  65 H :    0.056302
  66 H :    0.041535
  67 H :    0.016410
  68 H :    0.008863
  69 H :    0.026764
  70 H :    0.032931
  71 H :    0.024124
  72 H :    0.015326
  73 H :    0.015317
  74 H :    0.021007
  75 H :    0.045535
  76 H :    0.013540
  77 H :    0.024059
  78 H :    0.031244
  79 H :   -0.031840
  80 H :    0.015852
  81 H :    0.027095
  82 H :   -0.014089
  83 H :   -0.014310
  84 H :    0.029424
  85 H :    0.019335
  86 H :    0.034230
  87 H :    0.055480
Sum of atomic charges:   -0.0000000

LOEWDIN ATOMIC CHARGES
----------------------
   0 C :   -0.059531
   1 C :   -0.147372
   2 S :    0.482946
   3 C :   -0.270504
   4 Cl:    0.196281
   5 C :   -0.118182
   6 C :    0.082016
   7 O :   -0.124156
   8 C :   -0.079749
   9 C :    0.072789
  10 C :   -0.129663
  11 C :   -0.015671
  12 N :   -0.045150
  13 C :   -0.024366
  14 N :   -0.038828
  15 C :    0.075641
  16 C :   -0.086789
  17 C :    0.069891
  18 N :   -0.047602
  19 C :    0.030867
  20 N :   -0.068888
  21 C :    0.086420
  22 C :    0.045027
  23 N :    0.013652
  24 C :    0.034933
  25 C :   -0.061430
  26 C :    0.076503
  27 O :   -0.207104
  28 C :   -0.129564
  29 C :   -0.088887
  30 C :    0.086592
  31 O :   -0.158311
  32 N :   -0.007328
  33 C :    0.034886
  34 C :   -0.061744
  35 C :    0.092729
  36 C :   -0.048077
  37 C :    0.044485
  38 C :   -0.026968
  39 C :    0.026841
  40 C :   -0.022133
  41 N :    0.291445
  42 O :   -0.179965
  43 O :   -0.195023
  44 C :    0.004562
  45 C :   -0.000720
  46 C :    0.018414
  47 C :    0.015175
  48 C :   -0.016458
  49 C :    0.061432
  50 C :   -0.075281
  51 C :    0.081100
  52 O :   -0.133237
  53 C :   -0.120595
  54 C :   -0.272964
  55 S :    0.474101
  56 C :   -0.151611
  57 C :   -0.055415
  58 C :    0.058237
  59 C :   -0.115828
  60 C :   -0.011988
  61 N :   -0.046367
  62 C :   -0.015505
  63 N :   -0.050558
  64 Cl:    0.190182
  65 H :    0.038709
  66 H :    0.049767
  67 H :    0.032056
  68 H :    0.027718
  69 H :    0.023206
  70 H :    0.030425
  71 H :    0.022008
  72 H :    0.028726
  73 H :    0.024953
  74 H :    0.021373
  75 H :    0.038496
  76 H :    0.020667
  77 H :    0.030594
  78 H :    0.033223
  79 H :    0.025475
  80 H :    0.040417
  81 H :    0.050370
  82 H :    0.034705
  83 H :    0.032892
  84 H :    0.032574
  85 H :    0.036989
  86 H :    0.048382
  87 H :    0.038638

  Mayer bond orders larger than 0.100000
B(  0-C ,  1-C ) :   1.5413 B(  0-C ,  5-C ) :   1.2222 B(  0-C ,  9-C ) :   1.0055
B(  1-C ,  2-S ) :   1.1644 B(  1-C , 65-H ) :   0.9544 B(  2-S ,  3-C ) :   1.1540
B(  3-C ,  4-Cl) :   1.1316 B(  3-C ,  5-C ) :   1.4738 B(  5-C ,  6-C ) :   0.9531
B(  6-C ,  7-O ) :   2.2374 B(  6-C ,  8-C ) :   0.9224 B(  8-C ,  9-C ) :   1.0445
B(  8-C , 15-C ) :   1.7184 B(  9-C , 10-C ) :   1.6755 B( 10-C , 11-C ) :   1.1414
B( 10-C , 13-C ) :   1.1368 B( 11-C , 12-N ) :   2.9951 B( 13-C , 14-N ) :   2.9797
B( 15-C , 16-C ) :   1.0421 B( 15-C , 66-H ) :   0.9444 B( 16-C , 17-C ) :   1.2865
B( 16-C , 21-C ) :   1.3044 B( 17-C , 18-N ) :   1.5899 B( 17-C , 67-H ) :   0.9924
B( 18-N , 19-C ) :   1.6425 B( 18-N , 22-C ) :  -0.1315 B( 19-C , 20-N ) :   1.4882
B( 19-C , 22-C ) :   0.9936 B( 20-N , 21-C ) :   1.5663 B( 21-C , 68-H ) :   0.9826
B( 22-C , 23-N ) :   1.1979 B( 22-C , 29-C ) :   1.3898 B( 23-N , 24-C ) :   0.9356
B( 23-N , 26-C ) :   1.0739 B( 24-C , 25-C ) :   1.1260 B( 24-C , 69-H ) :   0.9349
B( 24-C , 70-H ) :   0.9268 B( 25-C , 71-H ) :   0.9661 B( 25-C , 72-H ) :   0.9673
B( 25-C , 73-H ) :   0.9650 B( 26-C , 27-O ) :   2.0056 B( 26-C , 28-C ) :   0.9907
B( 27-O , 80-H ) :   0.1251 B( 28-C , 29-C ) :   1.2498 B( 28-C , 35-C ) :   1.3284
B( 29-C , 30-C ) :   0.9415 B( 30-C , 31-O ) :   2.1902 B( 30-C , 32-N ) :   1.0052
B( 32-N , 33-C ) :   0.9484 B( 32-N , 35-C ) :   1.1834 B( 33-C , 34-C ) :   1.1204
B( 33-C , 74-H ) :   0.9498 B( 33-C , 75-H ) :   0.9258 B( 34-C , 76-H ) :   0.9683
B( 34-C , 77-H ) :   0.9679 B( 34-C , 78-H ) :   0.9635 B( 35-C , 36-C ) :   1.1455
B( 36-C , 37-C ) :   1.6097 B( 36-C , 79-H ) :   0.9579 B( 37-C , 38-C ) :   1.0749
B( 37-C , 80-H ) :   0.9632 B( 38-C , 39-C ) :   1.2914 B( 38-C , 46-C ) :   1.3011
B( 39-C , 40-C ) :   1.3530 B( 39-C , 81-H ) :   1.0063 B( 40-C , 41-N ) :   0.8823
B( 40-C , 44-C ) :   1.3502 B( 41-N , 42-O ) :   1.5769 B( 41-N , 43-O ) :   1.4818
B( 42-O , 43-O ) :   0.2600 B( 44-C , 45-C ) :   1.3365 B( 44-C , 47-C ) :   1.0816
B( 45-C , 46-C ) :   1.4253 B( 45-C , 82-H ) :   0.9878 B( 46-C , 83-H ) :   0.9905
B( 47-C , 48-C ) :   1.7600 B( 47-C , 84-H ) :   0.9470 B( 48-C , 49-C ) :   1.0754
B( 48-C , 85-H ) :   0.9459 B( 49-C , 50-C ) :   1.7675 B( 49-C , 86-H ) :   0.9238
B( 50-C , 51-C ) :   0.9299 B( 50-C , 58-C ) :   1.0108 B( 51-C , 52-O ) :   2.2790
B( 51-C , 53-C ) :   0.9285 B( 53-C , 54-C ) :   1.4753 B( 53-C , 57-C ) :   1.2215
B( 54-C , 55-S ) :   1.1556 B( 54-C , 64-Cl) :   1.1274 B( 55-S , 56-C ) :   1.1552
B( 56-C , 57-C ) :   1.5578 B( 56-C , 87-H ) :   0.9553 B( 57-C , 58-C ) :   1.0050
B( 58-C , 59-C ) :   1.7120 B( 59-C , 60-C ) :   1.1289 B( 59-C , 62-C ) :   1.1534
B( 60-C , 61-N ) :   3.0042 B( 62-C , 63-N ) :   2.9881

-----------------------------------------------------------------------------
         ABSORPTION SPECTRUM VIA TRANSITION ELECTRIC DIPOLE MOMENTS
-----------------------------------------------------------------------------
State   Energy  Wavelength   fosc         T2         TX        TY        TZ
        (cm-1)    (nm)                  (au**2)     (au)      (au)      (au)
-----------------------------------------------------------------------------
   0   14776.4    676.8   0.886516764  19.75125   3.12481  -3.04495  -0.84564
   1   19863.5    503.4   0.044693098   0.74073  -0.53203   0.65866   0.15439
   2   23199.0    431.1   0.114932670   1.63099   0.12974  -0.79275   0.99282
   3   24250.7    412.4   0.085399012   1.15932  -0.65960   0.84941  -0.05246
   4   25529.8    391.7   0.171633129   2.21324  -0.88392   1.11976  -0.42197
   5   26132.2    382.7   0.171413857   2.15946   0.78587  -1.04919   0.66412
   6   26427.8    378.4   0.046411330   0.57815   0.48783  -0.58205   0.03727
   7   26793.8    373.2   0.011202878   0.13765  -0.32721   0.07751   0.15677
   8   27228.8    367.3   0.101342159   1.22529   0.42334  -1.01655   0.11263
   9   27897.3    358.5   0.002988284   0.03526  -0.17275  -0.00327  -0.07357
  10   28598.3    349.7   0.138034192   1.58899   0.42558  -1.18389  -0.07929
  11   29316.1    341.1   0.035176059   0.39502  -0.26491  -0.56903  -0.03239
  12   29934.7    334.1   0.030799187   0.33872   0.11553  -0.56714   0.06105
  13   30460.6    328.3   0.201529651   2.17809   0.62104  -1.30868  -0.28242
  14   30664.8    326.1   0.017859869   0.19174  -0.17932  -0.19940   0.34616
  15   30922.7    323.4   0.290739023   3.09529  -0.60712   1.56423  -0.52905
  16   32290.0    309.7   0.147160621   1.50037   0.44968  -1.10313   0.28508
  17   32377.1    308.9   0.014207201   0.14446   0.14848   0.08702  -0.33888
  18   32528.5    307.4   0.074133138   0.75028   0.54060  -0.62125  -0.26848
  19   33152.3    301.6   0.003850909   0.03824  -0.18662  -0.05718  -0.01203
  20   33311.4    300.2   0.006969395   0.06888   0.11325  -0.06324  -0.22815
  21   33574.1    297.8   0.267159863   2.61965   0.90438  -1.32760  -0.19803
  22   33601.4    297.6   0.022352034   0.21900  -0.27157  -0.34002  -0.17214
  23   34009.2    294.0   0.013025504   0.12609  -0.24791   0.23261   0.10259
  24   35181.6    284.2   0.287902639   2.69405  -1.54081   0.56226   0.06182
  25   35699.4    280.1   0.042473206   0.39168   0.26662   0.56590   0.01882
  26   36014.0    277.7   0.110307977   1.00835   0.25599  -0.97017   0.03976
  27   36176.6    276.4   0.059180418   0.53855   0.23336  -0.44460  -0.53518
  28   36373.3    274.9   0.137378347   1.24340  -0.16663  -1.02339   0.41027
  29   36715.2    272.4   0.229946132   2.06185  -1.30702  -0.58621  -0.09950
  30   36964.7    270.5   0.087454426   0.77888   0.24529   0.43854   0.72553
  31   37215.6    268.7   0.188661692   1.66891   1.10787   0.64703  -0.15133
  32   37686.8    265.3   0.170727858   1.49139  -0.82031  -0.88452   0.19006
  33   37818.6    264.4   0.060235950   0.52436  -0.31443   0.62028  -0.20183
  34   38162.8    262.0   0.409853584   3.53561  -0.25107   1.85554   0.17189
  35   38170.3    262.0   0.053952708   0.46533  -0.41410   0.48093  -0.25012
  36   38409.7    260.4   0.096853004   0.83013   0.27609  -0.84101   0.21587
  37   38712.5    258.3   0.319925526   2.72065  -0.43100  -1.59151   0.04454
  38   39054.9    256.0   0.034378924   0.28980  -0.04487   0.18184  -0.50469
  39   39694.3    251.9   0.034394618   0.28526  -0.24411  -0.46070   0.11588
  40   39987.7    250.1   0.000774709   0.00638  -0.01837   0.05687  -0.05298

FINAL SINGLE POINT ENERGY     -4423.527866380822

DIPOLE MOMENT
-------------
                                X             Y             Z
Electronic contribution:    -14.62656     -26.61712      18.58727
Nuclear contribution   :     13.40840      25.97883     -20.62662
                        -----------------------------------------
Total Dipole Moment    :     -1.21816      -0.63829      -2.03935
                        -----------------------------------------
Magnitude (a.u.)       :      2.45973
Magnitude (Debye)      :      6.25215

Rotational constants in cm-1:     0.003016     0.000225     0.000216
Rotational constants in MHz :    90.424510     6.732810     6.470275

                             ****ORCA TERMINATED NORMALLY****
TOTAL RUN TIME: 0 days 0 hours 7 minutes 28 seconds 36 msec
