                         Program Version 4.2.0 -  RELEASE  -
|  1> # ORCA input file
|  2> # SCF done       -169.269460675378          0.000964928385
|  3> ! CAM-B3LYP def2-SVP def2/J RIJCOSX Grid4 TightSCF
|  4> %maxcore 5000
|  5> %tddft
|  6>     Mode sTDDFT
|  7>     Ethresh 5.0
|  8>     maxcore 5000
|  9> end
| 10>
| 11> %pal
| 12>   nprocs 6
| 13>   end
| 14> * xyz 0 1
| 15>    C        0.71546         0.64551        -2.60944
| 16>    C       -0.20272         1.64349        -2.72808
| 17>    S       -0.30175         2.57410        -1.27958
| 18>    C        0.92370         1.60305        -0.49501
| 19>   Cl        1.41892         1.92199         1.09219
| 20>    C        1.35977         0.61979        -1.33096
| 21>    C        2.34378        -0.47222        -1.27894
| 22>    O        3.11281        -0.72641        -0.38848
| 23>    C        2.24344        -1.12415        -2.62904
| 24>    C        1.23877        -0.43056        -3.42453
| 25>    C        0.79732        -0.73896        -4.68363
| 26>    C       -0.20952         0.02304        -5.31447
| 27>    N       -1.02392         0.63237        -5.84507
| 28>    C        1.24682        -1.81047        -5.48116
| 29>    N        1.56313        -2.66325        -6.18187
| 30>    C        3.05218        -2.11368        -3.08788
| 31>    C        3.94431        -2.90884        -2.32085
| 32>    S        5.29105        -3.74703        -3.10494
| 33>    C        5.62589        -4.41014        -1.51845
| 34>    N        4.76321        -4.00543        -0.61509
| 35>    N        3.86034        -3.19433        -1.05257
| 36>    C        6.70937        -5.29187        -1.27644
| 37>    C        6.92899        -5.83395        -0.05141
| 38>    C        7.99599        -6.72875         0.20865
| 39>    N        8.23066        -7.30475         1.43597
| 40>    C        7.50317        -7.05389         2.65698
| 41>    C        7.89955        -5.72325         3.29136
| 42>    C        9.33847        -8.16678         1.41130
| 43>    O        9.72932        -8.78679         2.38151
| 44>    C        9.80871        -8.10750         0.04473
| 45>    C        8.96627        -7.21541        -0.66545
| 46>    C        9.42886        -7.16200        -2.03455
| 47>    O        9.03474        -6.54825        -3.00639
| 48>    N       10.52661        -8.03869        -2.06477
| 49>    C       11.29520        -8.22513        -3.27152
| 50>    C       12.58797        -7.41280        -3.25346
| 51>    C       10.76710        -8.60800        -0.83540
| 52>    C       11.80664        -9.54424        -0.59494
| 53>    C       12.00890       -10.10817         0.61990
| 54>    C       13.01509       -11.08347         0.93155
| 55>    C       12.95858       -11.75123         2.17136
| 56>    N       13.79750       -12.67894         2.54929
| 57>    C       14.79235       -13.03121         1.72560
| 58>    C       14.96669       -12.40676         0.48156
| 59>    C       14.07373       -11.43873         0.08278
| 60>    C       15.66159       -14.10310         2.13862
| 61>    C       15.42079       -14.84458         3.24199
| 62>    C       16.22546       -15.91181         3.72357
| 63>    C       17.06634       -16.76351         3.07532
| 64>    C       18.04533       -17.53679         3.90801
| 65>    O       18.03831       -17.63516         5.11108
| 66>    C       19.00418       -18.08265         2.94198
| 67>    C       20.16823       -18.78996         2.97389
| 68>    S       20.75714       -19.07239         1.35254
| 69>    C       19.41592       -18.24061         0.65253
| 70>    C       18.57380       -17.77061         1.61103
| 71>    C       17.30786       -17.05972         1.67454
| 72>    C       16.46777       -16.91394         0.60179
| 73>    C       16.86139       -17.30233        -0.69599
| 74>    N       17.16768       -17.58473        -1.76513
| 75>    C       15.14652       -16.43248         0.64861
| 76>    N       14.05921       -16.06616         0.61171
| 77>   Cl       21.00747       -19.36262         4.32921
| 78>    H       -0.82460         1.90105        -3.56229
| 79>    H        3.04194        -2.34922        -4.14460
| 80>    H        7.35650        -5.52367        -2.11077
| 81>    H        6.25367        -5.57825         0.75181
| 82>    H        7.75902        -7.87434         3.33340
| 83>    H        6.42912        -7.08330         2.45524
| 84>    H        8.96368        -5.72063         3.51525
| 85>    H        7.34945        -5.58056         4.21717
| 86>    H        7.68216        -4.89222         2.62431
| 87>    H       10.65843        -7.87973        -4.09085
| 88>    H       11.50278        -9.28941        -3.41403
| 89>    H       12.35855        -6.35392        -3.16325
| 90>    H       13.13538        -7.57159        -4.17850
| 91>    H       13.22045        -7.70077        -2.41631
| 92>    H       12.42927        -9.81449        -1.43523
| 93>    H       11.35092        -9.83654         1.43524
| 94>    H       12.17438       -11.50719         2.87689
| 95>    H       15.78540       -12.69989        -0.15833
| 96>    H       14.20083       -10.95186        -0.87271
| 97>    H       16.53305       -14.28304         1.52285
| 98>    H       14.57861       -14.54951         3.85407
| 99>    H       16.21334       -16.05350         4.80158
|100>    H       19.35240       -18.15320        -0.41379
|101> *
|102>
|103>                          ****END OF INPUT****

CARTESIAN COORDINATES (ANGSTROEM)
---------------------------------
  C      0.715460    0.645510   -2.609440
  C     -0.202720    1.643490   -2.728080
  S     -0.301750    2.574100   -1.279580
  C      0.923700    1.603050   -0.495010
  Cl     1.418920    1.921990    1.092190
  C      1.359770    0.619790   -1.330960
  C      2.343780   -0.472220   -1.278940
  O      3.112810   -0.726410   -0.388480
  C      2.243440   -1.124150   -2.629040
  C      1.238770   -0.430560   -3.424530
  C      0.797320   -0.738960   -4.683630
  C     -0.209520    0.023040   -5.314470
  N     -1.023920    0.632370   -5.845070
  C      1.246820   -1.810470   -5.481160
  N      1.563130   -2.663250   -6.181870
  C      3.052180   -2.113680   -3.087880
  C      3.944310   -2.908840   -2.320850
  S      5.291050   -3.747030   -3.104940
  C      5.625890   -4.410140   -1.518450
  N      4.763210   -4.005430   -0.615090
  N      3.860340   -3.194330   -1.052570
  C      6.709370   -5.291870   -1.276440
  C      6.928990   -5.833950   -0.051410
  C      7.995990   -6.728750    0.208650
  N      8.230660   -7.304750    1.435970
  C      7.503170   -7.053890    2.656980
  C      7.899550   -5.723250    3.291360
  C      9.338470   -8.166780    1.411300
  O      9.729320   -8.786790    2.381510
  C      9.808710   -8.107500    0.044730
  C      8.966270   -7.215410   -0.665450
  C      9.428860   -7.162000   -2.034550
  O      9.034740   -6.548250   -3.006390
  N     10.526610   -8.038690   -2.064770
  C     11.295200   -8.225130   -3.271520
  C     12.587970   -7.412800   -3.253460
  C     10.767100   -8.608000   -0.835400
  C     11.806640   -9.544240   -0.594940
  C     12.008900  -10.108170    0.619900
  C     13.015090  -11.083470    0.931550
  C     12.958580  -11.751230    2.171360
  N     13.797500  -12.678940    2.549290
  C     14.792350  -13.031210    1.725600
  C     14.966690  -12.406760    0.481560
  C     14.073730  -11.438730    0.082780
  C     15.661590  -14.103100    2.138620
  C     15.420790  -14.844580    3.241990
  C     16.225460  -15.911810    3.723570
  C     17.066340  -16.763510    3.075320
  C     18.045330  -17.536790    3.908010
  O     18.038310  -17.635160    5.111080
  C     19.004180  -18.082650    2.941980
  C     20.168230  -18.789960    2.973890
  S     20.757140  -19.072390    1.352540
  C     19.415920  -18.240610    0.652530
  C     18.573800  -17.770610    1.611030
  C     17.307860  -17.059720    1.674540
  C     16.467770  -16.913940    0.601790
  C     16.861390  -17.302330   -0.695990
  N     17.167680  -17.584730   -1.765130
  C     15.146520  -16.432480    0.648610
  N     14.059210  -16.066160    0.611710
  Cl    21.007470  -19.362620    4.329210
  H     -0.824600    1.901050   -3.562290
  H      3.041940   -2.349220   -4.144600
  H      7.356500   -5.523670   -2.110770
  H      6.253670   -5.578250    0.751810
  H      7.759020   -7.874340    3.333400
  H      6.429120   -7.083300    2.455240
  H      8.963680   -5.720630    3.515250
  H      7.349450   -5.580560    4.217170
  H      7.682160   -4.892220    2.624310
  H     10.658430   -7.879730   -4.090850
  H     11.502780   -9.289410   -3.414030
  H     12.358550   -6.353920   -3.163250
  H     13.135380   -7.571590   -4.178500
  H     13.220450   -7.700770   -2.416310
  H     12.429270   -9.814490   -1.435230
  H     11.350920   -9.836540    1.435240
  H     12.174380  -11.507190    2.876890
  H     15.785400  -12.699890   -0.158330
  H     14.200830  -10.951860   -0.872710
  H     16.533050  -14.283040    1.522850
  H     14.578610  -14.549510    3.854070
  H     16.213340  -16.053500    4.801580
  H     19.352400  -18.153200   -0.413790

 Total Charge           Charge          ....    0
 Multiplicity           Mult            ....    1
 Number of Electrons    NEL             ....  470
 Basis Dimension        Dim             .... 1017

ORBITAL ENERGIES
----------------

  NO   OCC          E(Eh)            E(eV)
   0   2.0000    -101.617715     -2765.1586
   1   2.0000    -101.615588     -2765.1007
   2   2.0000     -88.993938     -2421.6482
   3   2.0000     -88.993545     -2421.6375
   4   2.0000     -88.981778     -2421.3173
   5   2.0000     -19.218855      -522.9716
   6   2.0000     -19.216122      -522.8973
   7   2.0000     -19.201540      -522.5005
   8   2.0000     -19.193702      -522.2872
   9   2.0000     -14.461270      -393.5112
  10   2.0000     -14.457230      -393.4012
  11   2.0000     -14.449696      -393.1962
  12   2.0000     -14.445305      -393.0767
  13   2.0000     -14.424859      -392.5204
  14   2.0000     -14.422965      -392.4688
  15   2.0000     -14.422651      -392.4603
  16   2.0000     -14.422274      -392.4500
  17   2.0000     -14.414732      -392.2448
  18   2.0000     -10.382762      -282.5293
  19   2.0000     -10.377272      -282.3799
  20   2.0000     -10.376739      -282.3654
  21   2.0000     -10.374930      -282.3162
  22   2.0000     -10.374922      -282.3160
  23   2.0000     -10.374762      -282.3116
  24   2.0000     -10.352421      -281.7037
  25   2.0000     -10.352142      -281.6961
  26   2.0000     -10.352052      -281.6936
  27   2.0000     -10.351561      -281.6803
  28   2.0000     -10.349792      -281.6321
  29   2.0000     -10.349236      -281.6170
  30   2.0000     -10.347493      -281.5696
  31   2.0000     -10.342213      -281.4259
  32   2.0000     -10.330367      -281.1036
  33   2.0000     -10.330191      -281.0988
  34   2.0000     -10.330136      -281.0973
  35   2.0000     -10.326773      -281.0058
  36   2.0000     -10.326219      -280.9907
  37   2.0000     -10.325236      -280.9640
  38   2.0000     -10.324550      -280.9453
  39   2.0000     -10.323107      -280.9060
  40   2.0000     -10.318929      -280.7923
  41   2.0000     -10.317056      -280.7414
  42   2.0000     -10.315900      -280.7099
  43   2.0000     -10.315392      -280.6961
  44   2.0000     -10.314110      -280.6612
  45   2.0000     -10.313212      -280.6368
  46   2.0000     -10.309391      -280.5328
  47   2.0000     -10.305179      -280.4182
  48   2.0000     -10.304336      -280.3952
  49   2.0000     -10.302517      -280.3457
  50   2.0000     -10.302375      -280.3419
  51   2.0000     -10.300587      -280.2932
  52   2.0000     -10.299728      -280.2699
  53   2.0000     -10.299574      -280.2656
  54   2.0000     -10.298980      -280.2495
  55   2.0000     -10.298681      -280.2413
  56   2.0000     -10.297376      -280.2058
  57   2.0000     -10.295372      -280.1513
  58   2.0000     -10.290714      -280.0246
  59   2.0000     -10.271573      -279.5037
  60   2.0000     -10.269649      -279.4513
  61   2.0000     -10.266214      -279.3579
  62   2.0000     -10.263842      -279.2934
  63   2.0000      -9.572517      -260.4814
  64   2.0000      -9.570374      -260.4231
  65   2.0000      -8.089685      -220.1315
  66   2.0000      -8.089299      -220.1210
  67   2.0000      -8.077994      -219.8134
  68   2.0000      -7.343161      -199.8176
  69   2.0000      -7.341000      -199.7588
  70   2.0000      -7.332549      -199.5288
  71   2.0000      -7.332001      -199.5139
  72   2.0000      -7.330419      -199.4708
  73   2.0000      -7.329877      -199.4561
  74   2.0000      -6.059069      -164.8757
  75   2.0000      -6.058660      -164.8645
  76   2.0000      -6.054485      -164.7509
  77   2.0000      -6.054057      -164.7393
  78   2.0000      -6.051901      -164.6806
  79   2.0000      -6.051573      -164.6717
  80   2.0000      -6.046514      -164.5340
  81   2.0000      -6.043225      -164.4445
  82   2.0000      -6.040550      -164.3717
  83   2.0000      -1.154321       -31.4107
  84   2.0000      -1.141285       -31.0559
  85   2.0000      -1.136100       -30.9149
  86   2.0000      -1.134527       -30.8720
  87   2.0000      -1.132254       -30.8102
  88   2.0000      -1.070626       -29.1332
  89   2.0000      -1.061053       -28.8727
  90   2.0000      -1.052831       -28.6490
  91   2.0000      -1.038942       -28.2711
  92   2.0000      -1.038301       -28.2536
  93   2.0000      -1.020336       -27.7648
  94   2.0000      -1.019569       -27.7439
  95   2.0000      -1.002113       -27.2689
  96   2.0000      -1.001052       -27.2400
  97   2.0000      -0.989781       -26.9333
  98   2.0000      -0.988913       -26.9097
  99   2.0000      -0.960492       -26.1363
 100   2.0000      -0.955752       -26.0073
 101   2.0000      -0.950061       -25.8525
 102   2.0000      -0.939651       -25.5692
 103   2.0000      -0.934896       -25.4398
 104   2.0000      -0.931493       -25.3472
 105   2.0000      -0.921902       -25.0862
 106   2.0000      -0.907115       -24.6839
 107   2.0000      -0.906839       -24.6764
 108   2.0000      -0.897897       -24.4330
 109   2.0000      -0.892071       -24.2745
 110   2.0000      -0.880585       -23.9619
 111   2.0000      -0.873559       -23.7707
 112   2.0000      -0.866046       -23.5663
 113   2.0000      -0.842811       -22.9341
 114   2.0000      -0.833466       -22.6798
 115   2.0000      -0.832801       -22.6617
 116   2.0000      -0.825280       -22.4570
 117   2.0000      -0.810862       -22.0647
 118   2.0000      -0.801147       -21.8003
 119   2.0000      -0.792937       -21.5769
 120   2.0000      -0.776417       -21.1274
 121   2.0000      -0.765607       -20.8332
 122   2.0000      -0.757080       -20.6012
 123   2.0000      -0.755727       -20.5644
 124   2.0000      -0.741802       -20.1854
 125   2.0000      -0.731054       -19.8930
 126   2.0000      -0.723482       -19.6870
 127   2.0000      -0.721353       -19.6290
 128   2.0000      -0.713225       -19.4079
 129   2.0000      -0.706126       -19.2147
 130   2.0000      -0.700201       -19.0534
 131   2.0000      -0.688204       -18.7270
 132   2.0000      -0.684299       -18.6207
 133   2.0000      -0.677666       -18.4402
 134   2.0000      -0.677246       -18.4288
 135   2.0000      -0.675953       -18.3936
 136   2.0000      -0.660727       -17.9793
 137   2.0000      -0.653534       -17.7836
 138   2.0000      -0.636498       -17.3200
 139   2.0000      -0.627599       -17.0778
 140   2.0000      -0.625144       -17.0110
 141   2.0000      -0.620334       -16.8802
 142   2.0000      -0.617019       -16.7899
 143   2.0000      -0.611730       -16.6460
 144   2.0000      -0.606799       -16.5118
 145   2.0000      -0.603171       -16.4131
 146   2.0000      -0.597303       -16.2534
 147   2.0000      -0.590826       -16.0772
 148   2.0000      -0.584896       -15.9158
 149   2.0000      -0.583774       -15.8853
 150   2.0000      -0.577657       -15.7188
 151   2.0000      -0.566034       -15.4026
 152   2.0000      -0.557075       -15.1588
 153   2.0000      -0.556166       -15.1340
 154   2.0000      -0.554338       -15.0843
 155   2.0000      -0.553042       -15.0490
 156   2.0000      -0.550886       -14.9904
 157   2.0000      -0.548212       -14.9176
 158   2.0000      -0.544239       -14.8095
 159   2.0000      -0.542748       -14.7689
 160   2.0000      -0.537032       -14.6134
 161   2.0000      -0.533346       -14.5131
 162   2.0000      -0.532224       -14.4825
 163   2.0000      -0.529388       -14.4054
 164   2.0000      -0.528070       -14.3695
 165   2.0000      -0.525851       -14.3091
 166   2.0000      -0.523634       -14.2488
 167   2.0000      -0.519546       -14.1376
 168   2.0000      -0.519172       -14.1274
 169   2.0000      -0.516149       -14.0451
 170   2.0000      -0.514411       -13.9978
 171   2.0000      -0.510993       -13.9048
 172   2.0000      -0.507887       -13.8203
 173   2.0000      -0.506923       -13.7941
 174   2.0000      -0.506238       -13.7754
 175   2.0000      -0.500905       -13.6303
 176   2.0000      -0.496913       -13.5217
 177   2.0000      -0.495323       -13.4784
 178   2.0000      -0.493787       -13.4366
 179   2.0000      -0.492477       -13.4010
 180   2.0000      -0.486536       -13.2393
 181   2.0000      -0.484214       -13.1761
 182   2.0000      -0.481341       -13.0979
 183   2.0000      -0.479022       -13.0348
 184   2.0000      -0.476030       -12.9534
 185   2.0000      -0.469301       -12.7703
 186   2.0000      -0.465851       -12.6765
 187   2.0000      -0.461254       -12.5514
 188   2.0000      -0.458223       -12.4689
 189   2.0000      -0.457298       -12.4437
 190   2.0000      -0.456809       -12.4304
 191   2.0000      -0.456163       -12.4128
 192   2.0000      -0.454964       -12.3802
 193   2.0000      -0.454059       -12.3556
 194   2.0000      -0.452056       -12.3011
 195   2.0000      -0.449827       -12.2404
 196   2.0000      -0.448198       -12.1961
 197   2.0000      -0.447434       -12.1753
 198   2.0000      -0.446786       -12.1577
 199   2.0000      -0.444879       -12.1058
 200   2.0000      -0.443302       -12.0629
 201   2.0000      -0.440851       -11.9962
 202   2.0000      -0.436668       -11.8823
 203   2.0000      -0.435187       -11.8420
 204   2.0000      -0.434706       -11.8289
 205   2.0000      -0.432728       -11.7751
 206   2.0000      -0.429013       -11.6740
 207   2.0000      -0.427501       -11.6329
 208   2.0000      -0.421427       -11.4676
 209   2.0000      -0.419388       -11.4121
 210   2.0000      -0.413666       -11.2564
 211   2.0000      -0.404861       -11.0168
 212   2.0000      -0.403463       -10.9788
 213   2.0000      -0.402615       -10.9557
 214   2.0000      -0.399934       -10.8828
 215   2.0000      -0.398498       -10.8437
 216   2.0000      -0.384868       -10.4728
 217   2.0000      -0.380790       -10.3618
 218   2.0000      -0.367211        -9.9923
 219   2.0000      -0.355929        -9.6853
 220   2.0000      -0.354864        -9.6564
 221   2.0000      -0.345028        -9.3887
 222   2.0000      -0.342454        -9.3187
 223   2.0000      -0.341517        -9.2932
 224   2.0000      -0.339833        -9.2473
 225   2.0000      -0.338083        -9.1997
 226   2.0000      -0.335618        -9.1326
 227   2.0000      -0.332599        -9.0505
 228   2.0000      -0.323125        -8.7927
 229   2.0000      -0.321182        -8.7398
 230   2.0000      -0.316300        -8.6070
 231   2.0000      -0.315047        -8.5729
 232   2.0000      -0.302180        -8.2227
 233   2.0000      -0.291003        -7.9186
 234   2.0000      -0.242593        -6.6013
 235   0.0000      -0.113180        -3.0798
 236   0.0000      -0.100602        -2.7375
 237   0.0000      -0.081052        -2.2055
 238   0.0000      -0.055595        -1.5128
 239   0.0000      -0.048772        -1.3271

MULLIKEN ATOMIC CHARGES
-----------------------
   0 C :    0.030737
   1 C :   -0.125608
   2 S :    0.187665
   3 C :   -0.172265
   4 Cl:    0.001087
   5 C :    0.067120
   6 C :    0.151986
   7 O :   -0.090185
   8 C :   -0.085430
   9 C :    0.290404
  10 C :   -0.327095
  11 C :   -0.190576
  12 N :    0.157392
  13 C :   -0.187924
  14 N :    0.162120
  15 C :    0.038346
  16 C :   -0.131357
  17 S :    0.138523
  18 C :   -0.094479
  19 N :   -0.055850
  20 N :    0.015551
  21 C :    0.068338
  22 C :   -0.018573
  23 C :    0.135753
  24 N :   -0.255499
  25 C :    0.094836
  26 C :    0.003402
  27 C :    0.165280
  28 O :   -0.213011
  29 C :   -0.069390
  30 C :   -0.058230
  31 C :    0.166680
  32 O :   -0.205165
  33 N :   -0.259549
  34 C :    0.101148
  35 C :    0.000962
  36 C :    0.135676
  37 C :   -0.004156
  38 C :    0.016189
  39 C :    0.042024
  40 C :    0.003478
  41 N :   -0.044288
  42 C :    0.010530
  43 C :    0.008880
  44 C :    0.042748
  45 C :    0.022192
  46 C :    0.037206
  47 C :    0.051614
  48 C :   -0.131207
  49 C :    0.127577
  50 O :   -0.129863
  51 C :    0.096975
  52 C :   -0.172707
  53 S :    0.183989
  54 C :   -0.131859
  55 C :    0.008806
  56 C :    0.278838
  57 C :   -0.334523
  58 C :   -0.184434
  59 N :    0.152945
  60 C :   -0.209701
  61 N :    0.189047
  62 Cl:    0.000037
  63 H :    0.054509
  64 H :    0.027262
  65 H :    0.012980
  66 H :    0.007942
  67 H :    0.044797
  68 H :    0.030138
  69 H :    0.027318
  70 H :    0.026704
  71 H :    0.020947
  72 H :    0.045000
  73 H :    0.026224
  74 H :    0.032305
  75 H :    0.025367
  76 H :    0.013774
  77 H :   -0.032307
  78 H :    0.017098
  79 H :    0.019427
  80 H :   -0.013227
  81 H :   -0.011379
  82 H :    0.001020
  83 H :    0.029713
  84 H :    0.037461
  85 H :    0.053769
Sum of atomic charges:   -0.0000000

LOEWDIN ATOMIC CHARGES
----------------------
   0 C :   -0.061450
   1 C :   -0.149400
   2 S :    0.477311
   3 C :   -0.273582
   4 Cl:    0.192930
   5 C :   -0.115210
   6 C :    0.074134
   7 O :   -0.099431
   8 C :   -0.059862
   9 C :    0.072978
  10 C :   -0.131900
  11 C :   -0.014816
  12 N :   -0.048015
  13 C :   -0.024142
  14 N :   -0.042479
  15 C :    0.032581
  16 C :   -0.165073
  17 S :    0.420176
  18 C :   -0.137381
  19 N :   -0.075082
  20 N :   -0.022516
  21 C :   -0.019261
  22 C :   -0.000243
  23 C :    0.065599
  24 N :    0.003515
  25 C :    0.036747
  26 C :   -0.060164
  27 C :    0.078792
  28 O :   -0.204294
  29 C :   -0.124261
  30 C :   -0.110477
  31 C :    0.082927
  32 O :   -0.195077
  33 N :    0.000311
  34 C :    0.036557
  35 C :   -0.061253
  36 C :    0.084235
  37 C :   -0.050191
  38 C :    0.041750
  39 C :   -0.049596
  40 C :    0.044182
  41 N :   -0.055750
  42 C :    0.014189
  43 C :   -0.021497
  44 C :    0.021994
  45 C :    0.023961
  46 C :   -0.013275
  47 C :    0.072744
  48 C :   -0.088454
  49 C :    0.080286
  50 O :   -0.132402
  51 C :   -0.118127
  52 C :   -0.272456
  53 S :    0.473160
  54 C :   -0.153560
  55 C :   -0.057951
  56 C :    0.066938
  57 C :   -0.140678
  58 C :   -0.017061
  59 N :   -0.053925
  60 C :   -0.020557
  61 N :   -0.034709
  62 Cl:    0.191814
  63 H :    0.037641
  64 H :    0.047228
  65 H :    0.037514
  66 H :    0.039469
  67 H :    0.037941
  68 H :    0.026084
  69 H :    0.031198
  70 H :    0.032467
  71 H :    0.024400
  72 H :    0.038669
  73 H :    0.023809
  74 H :    0.033191
  75 H :    0.031425
  76 H :    0.021107
  77 H :    0.025896
  78 H :    0.039664
  79 H :    0.031047
  80 H :    0.033631
  81 H :    0.031636
  82 H :    0.030895
  83 H :    0.043204
  84 H :    0.050724
  85 H :    0.036906

  Mayer bond orders larger than 0.100000
B(  0-C ,  1-C ) :   1.5385 B(  0-C ,  5-C ) :   1.2230 B(  0-C ,  9-C ) :   1.0028
B(  1-C ,  2-S ) :   1.1667 B(  1-C , 63-H ) :   0.9533 B(  2-S ,  3-C ) :   1.1489
B(  3-C ,  4-Cl) :   1.1284 B(  3-C ,  5-C ) :   1.4874 B(  5-C ,  6-C ) :   0.9377
B(  6-C ,  7-O ) :   2.2975 B(  6-C ,  8-C ) :   0.9045 B(  8-C ,  9-C ) :   1.0675
B(  8-C , 15-C ) :   1.7019 B(  9-C , 10-C ) :   1.6544 B( 10-C , 11-C ) :   1.1451
B( 10-C , 13-C ) :   1.1368 B( 11-C , 12-N ) :   2.9907 B( 13-C , 14-N ) :   2.9763
B( 15-C , 16-C ) :   1.1210 B( 15-C , 64-H ) :   0.9210 B( 16-C , 17-S ) :   1.0796
B( 16-C , 20-N ) :   1.6243 B( 17-S , 18-C ) :   1.1342 B( 17-S , 20-N ) :   0.1066
B( 18-C , 19-N ) :   1.6031 B( 18-C , 21-C ) :   1.1185 B( 19-N , 20-N ) :   1.2815
B( 21-C , 22-C ) :   1.6452 B( 21-C , 65-H ) :   0.9249 B( 22-C , 23-C ) :   1.1346
B( 22-C , 66-H ) :   0.9711 B( 23-C , 24-N ) :   1.1571 B( 23-C , 30-C ) :   1.3467
B( 24-N , 25-C ) :   0.9416 B( 24-N , 27-C ) :   1.0684 B( 25-C , 26-C ) :   1.1232
B( 25-C , 67-H ) :   0.9284 B( 25-C , 68-H ) :   0.9497 B( 26-C , 69-H ) :   0.9636
B( 26-C , 70-H ) :   0.9675 B( 26-C , 71-H ) :   0.9687 B( 27-C , 28-O ) :   2.0194
B( 27-C , 29-C ) :   0.9885 B( 28-O , 78-H ) :   0.1160 B( 29-C , 30-C ) :   1.2566
B( 29-C , 36-C ) :   1.3372 B( 30-C , 31-C ) :   0.9806 B( 31-C , 32-O ) :   2.0311
B( 31-C , 33-N ) :   1.0604 B( 32-O , 65-H ) :   0.1095 B( 33-N , 34-C ) :   0.9455
B( 33-N , 36-C ) :   1.1606 B( 34-C , 35-C ) :   1.1178 B( 34-C , 72-H ) :   0.9278
B( 34-C , 73-H ) :   0.9498 B( 35-C , 74-H ) :   0.9640 B( 35-C , 75-H ) :   0.9687
B( 35-C , 76-H ) :   0.9689 B( 36-C , 37-C ) :   1.1591 B( 37-C , 38-C ) :   1.6098
B( 37-C , 77-H ) :   0.9568 B( 38-C , 39-C ) :   1.0798 B( 38-C , 78-H ) :   0.9599
B( 39-C , 40-C ) :   1.2727 B( 39-C , 44-C ) :   1.3466 B( 40-C , 41-N ) :   1.6015
B( 40-C , 79-H ) :   0.9866 B( 41-N , 42-C ) :   1.4989 B( 42-C , 43-C ) :   1.3131
B( 42-C , 45-C ) :   1.1003 B( 43-C , 44-C ) :   1.4341 B( 43-C , 80-H ) :   0.9784
B( 44-C , 81-H ) :   0.9824 B( 45-C , 46-C ) :   1.6883 B( 45-C , 82-H ) :   0.9672
B( 46-C , 47-C ) :   1.1151 B( 46-C , 83-H ) :   0.9462 B( 47-C , 48-C ) :   1.6859
B( 47-C , 84-H ) :   0.9263 B( 48-C , 49-C ) :   0.9390 B( 48-C , 56-C ) :   1.0346
B( 49-C , 50-O ) :   2.2708 B( 49-C , 51-C ) :   0.9264 B( 51-C , 52-C ) :   1.4840
B( 51-C , 55-C ) :   1.2218 B( 52-C , 53-S ) :   1.1497 B( 52-C , 62-Cl) :   1.1285
B( 53-S , 54-C ) :   1.1590 B( 54-C , 55-C ) :   1.5513 B( 54-C , 85-H ) :   0.9553
B( 55-C , 56-C ) :   1.0090 B( 56-C , 57-C ) :   1.6536 B( 57-C , 58-C ) :   1.1283
B( 57-C , 60-C ) :   1.1702 B( 58-C , 59-N ) :   2.9972 B( 60-C , 61-N ) :   2.9957

-----------------------------------------------------------------------------
         ABSORPTION SPECTRUM VIA TRANSITION ELECTRIC DIPOLE MOMENTS
-----------------------------------------------------------------------------
State   Energy  Wavelength   fosc         T2         TX        TY        TZ
        (cm-1)    (nm)                  (au**2)     (au)      (au)      (au)
-----------------------------------------------------------------------------
   0   14025.9    713.0   1.289108783  30.25752   4.02575  -3.68513   0.68608
   1   18946.6    527.8   0.076553376   1.33018  -0.50694   0.97700   0.34447
   2   21453.3    466.1   0.050670318   0.77756   0.44356  -0.45416   0.61200
   3   22010.6    454.3   0.067027014   1.00252  -0.04864   0.82085  -0.57128
   4   24348.7    410.7   0.257590726   3.48281   0.87952  -1.64324  -0.09503
   5   25481.7    392.4   0.266085850   3.43771   1.22907  -1.13046   0.80570
   6   26340.3    379.6   0.012830727   0.16036   0.16860  -0.36238  -0.02490
   7   27036.3    369.9   0.141941491   1.72838   0.80853  -0.61684   0.83316
   8   27704.9    360.9   0.122833717   1.45961  -0.55660   0.90333  -0.57776
   9   28260.5    353.9   0.305864975   3.56308  -1.35282   1.14402  -0.65130
  10   28584.4    349.8   0.029693700   0.34199  -0.36106   0.18404  -0.42160
  11   28807.1    347.1   0.052486529   0.59982   0.53209  -0.55933  -0.06207
  12   29095.1    343.7   0.206987753   2.34207  -0.70543   0.72238  -1.15004
  13   29357.9    340.6   0.037572904   0.42133  -0.57483   0.23159  -0.19306
  14   29755.5    336.1   0.001404030   0.01553   0.02392  -0.03173  -0.11813
  15   30482.2    328.1   0.066615169   0.71945   0.30951  -0.78765   0.05709
  16   30966.8    322.9   0.047876483   0.50898   0.36454  -0.00010   0.61326
  17   31693.1    315.5   0.062461216   0.64882   0.26614  -0.30678   0.69561
  18   31857.9    313.9   0.136283112   1.40832  -0.61237   1.01349  -0.07852
  19   32043.9    312.1   0.113741570   1.16855   0.54045  -0.88012  -0.31917
  20   32913.1    303.8   0.004360435   0.04362   0.06784   0.04823   0.19154
  21   33002.7    303.0   0.159130372   1.58738  -0.89090   0.54776  -0.70259
  22   33381.0    299.6   0.002946788   0.02906   0.10591  -0.11193  -0.07292
  23   34236.8    292.1   0.127869087   1.22955   0.65264  -0.49746   0.74575
  24   34950.6    286.1   0.084647089   0.79732  -0.53198   0.34617  -0.62808
  25   35239.1    283.8   0.054818907   0.51213  -0.40977   0.58670  -0.00002
  26   35978.8    277.9   0.051892295   0.47482   0.45926  -0.48660   0.16468
  27   36153.6    276.6   0.022001099   0.20034   0.01609   0.08537  -0.43908
  28   36690.2    272.6   0.043572774   0.39097   0.58110  -0.23074   0.00716
  29   37266.0    268.3   0.066490241   0.58738   0.56049  -0.37777   0.36128
  30   37362.0    267.7   0.014705724   0.12958   0.23729  -0.04098   0.26757
  31   37418.8    267.2   0.374153264   3.29181  -0.51356   1.39301   1.04288
  32   37602.1    265.9   0.244887373   2.14403   1.09980  -0.47343   0.84281
  33   37829.4    264.3   0.135851875   1.18226  -0.34430   0.07489  -1.02864
  34   38069.0    262.7   0.185347473   1.60284  -0.49135   0.57485  -1.01536
  35   38775.9    257.9   0.177181649   1.50429   1.13440  -0.35179   0.30605
  36   38838.0    257.5   0.107627014   0.91231   0.66037  -0.68705  -0.06474
  37   38953.4    256.7   0.097919320   0.82756   0.06140  -0.54082  -0.72891
  38   39114.3    255.7   0.048552440   0.40865  -0.24179   0.32911   0.49181
  39   39187.8    255.2   0.067066913   0.56342   0.11144  -0.30407  -0.67716
  40   39661.8    252.1   0.020406067   0.16938  -0.03972  -0.09798  -0.39775
  41   40109.8    249.3   0.061635991   0.50589   0.22643   0.00390  -0.67425
  42   40267.2    248.3   0.005566974   0.04551  -0.00012  -0.15332  -0.14835

FINAL SINGLE POINT ENERGY     -4633.314955981925

DIPOLE MOMENT
-------------
                                X             Y             Z
Electronic contribution:    -15.99399       5.73194       3.89894
Nuclear contribution   :     18.48105      -5.03653      -3.30631
                        -----------------------------------------
Total Dipole Moment    :      2.48706       0.69542       0.59263
                        -----------------------------------------
Magnitude (a.u.)       :      2.64959
Magnitude (Debye)      :      6.73471

Rotational constants in cm-1:     0.004087     0.000183     0.000177
Rotational constants in MHz :   122.521295     5.486868     5.319279

                             ****ORCA TERMINATED NORMALLY****
TOTAL RUN TIME: 0 days 0 hours 7 minutes 15 seconds 582 msec
