                         Program Version 4.2.0 -  RELEASE  -
|  1> # ORCA input file
|  2> # SCF done       -176.522120378663          0.000828991144
|  3> ! CAM-B3LYP def2-SVP def2/J RIJCOSX Grid4 TightSCF
|  4> %maxcore 5000
|  5> %tddft
|  6>     Mode sTDDFT
|  7>     Ethresh 5.0
|  8>     maxcore 5000
|  9> end
| 10>
| 11> %pal
| 12>   nprocs 6
| 13>   end
| 14> * xyz 0 1
| 15>    C       -2.61756        -4.17662        -0.58807
| 16>    C       -3.94416        -3.98183        -0.35755
| 17>    S       -4.34976        -4.32931         1.28360
| 18>    C       -2.69661        -4.74738         1.67084
| 19>   Cl       -2.25248        -5.23554         3.23084
| 20>    C       -1.90093        -4.61344         0.57296
| 21>    C       -0.48211        -4.80118         0.24678
| 22>    O        0.40110        -5.18749         0.97655
| 23>    C       -0.38473        -4.47131        -1.20987
| 24>    C       -1.69534        -4.06544        -1.69915
| 25>    C       -2.02660        -3.61056        -2.94754
| 26>    C       -3.34885        -3.23399        -3.26399
| 27>    N       -4.42000        -2.92739        -3.53802
| 28>    C       -1.13359        -3.44654        -4.02471
| 29>    N       -0.45533        -3.28394        -4.93682
| 30>    C        0.72132        -4.67393        -1.96893
| 31>    C        2.02821        -5.01211        -1.47806
| 32>    C        2.80951        -6.01015        -2.08298
| 33>    N        4.02475        -6.29191        -1.68962
| 34>    C        4.53092        -5.60503        -0.66767
| 35>    N        3.86444        -4.65618        -0.00222
| 36>    C        2.65585        -4.35681        -0.40421
| 37>    C        5.87179        -5.92934        -0.22059
| 38>    C        6.93295        -6.45869        -1.03542
| 39>    C        7.05381        -6.58704        -2.42520
| 40>    O        6.13339        -6.15616        -3.34363
| 41>    C        6.00637        -4.74794        -3.45614
| 42>    C        7.24800        -4.09928        -4.05924
| 43>    C        8.20107        -7.20965        -2.89482
| 44>    C        9.28412        -7.66541        -2.09276
| 45>    C        9.20805        -7.42631        -0.70651
| 46>    C        8.03308        -6.83930        -0.23986
| 47>    S        7.77410        -6.48000         1.44882
| 48>    C        6.21765        -5.86201         1.09812
| 49>    O       10.11141        -7.68277         0.26168
| 50>    C       11.42565        -8.12532        -0.02730
| 51>    C       12.22335        -8.06153         1.26463
| 52>    C       10.27929        -8.27442        -2.90599
| 53>    C        9.98220        -8.28374        -4.24142
| 54>    S        8.44536        -7.51863        -4.58367
| 55>    C       10.77932        -8.83910        -5.28584
| 56>    C       10.43019        -8.85322        -6.58464
| 57>    C       11.26551        -9.40905        -7.62295
| 58>    N       10.83854        -9.25689        -8.88398
| 59>    C       11.60309        -9.73316        -9.84409
| 60>    C       12.81727       -10.35833        -9.59209
| 61>    C       13.18130       -10.48279        -8.24649
| 62>    N       12.39452       -10.01901        -7.27775
| 63>    C       14.42711       -11.10656        -7.84449
| 64>    C       14.70982       -11.31363        -6.54303
| 65>    C       15.91146       -11.89458        -6.06054
| 66>    C       16.30102       -11.94587        -4.75928
| 67>    C       17.37114       -12.89944        -4.32923
| 68>    O       18.15721       -13.46996        -5.04476
| 69>    C       17.18860       -13.01215        -2.87536
| 70>    C       17.72187       -13.73745        -1.85249
| 71>    S       16.95800       -13.31401        -0.33706
| 72>    C       15.93255       -12.15653        -1.10397
| 73>    C       16.16368       -12.10613        -2.44278
| 74>    C       15.70244       -11.33904        -3.58413
| 75>    C       14.99199       -10.17077        -3.50431
| 76>    C       14.43160        -9.73396        -2.28808
| 77>    N       13.92534        -9.37519        -1.32215
| 78>    C       14.83275        -9.23419        -4.54897
| 79>    N       14.73083        -8.39226        -5.32157
| 80>   Cl       18.95203       -14.89901        -1.92326
| 81>    H       -4.71298        -3.66345        -1.03318
| 82>    H        0.63576        -4.60666        -3.04700
| 83>    H        2.41714        -6.61920        -2.88719
| 84>    H        2.17530        -3.53175         0.10326
| 85>    H        5.79087        -4.29666        -2.47799
| 86>    H        5.14286        -4.60317        -4.10957
| 87>    H        8.10227        -4.22557        -3.39658
| 88>    H        7.07205        -3.03725        -4.20523
| 89>    H        7.47969        -4.55796        -5.01716
| 90>    H        5.58798        -5.50869         1.89126
| 91>    H       11.88500        -7.47995        -0.78449
| 92>    H       11.40114        -9.15706        -0.39740
| 93>    H       11.76121        -8.69131         2.01963
| 94>    H       12.25464        -7.04089         1.63564
| 95>    H       13.23382        -8.40729         1.07249
| 96>    H       11.18905        -8.71161        -2.53882
| 97>    H       11.72878        -9.26752        -4.99429
| 98>    H        9.49864        -8.42059        -6.91914
| 99>    H       11.23263        -9.60140       -10.85331
|100>    H       13.44299       -10.73270       -10.38561
|101>    H       15.12914       -11.36493        -8.62509
|102>    H       13.94865       -11.02614        -5.83163
|103>    H       16.55117       -12.40572        -6.77164
|104>    H       15.22824       -11.60372        -0.51446
|105> *
|106>
|107>                          ****END OF INPUT****

CARTESIAN COORDINATES (ANGSTROEM)
---------------------------------
  C     -2.617560   -4.176620   -0.588070
  C     -3.944160   -3.981830   -0.357550
  S     -4.349760   -4.329310    1.283600
  C     -2.696610   -4.747380    1.670840
  Cl    -2.252480   -5.235540    3.230840
  C     -1.900930   -4.613440    0.572960
  C     -0.482110   -4.801180    0.246780
  O      0.401100   -5.187490    0.976550
  C     -0.384730   -4.471310   -1.209870
  C     -1.695340   -4.065440   -1.699150
  C     -2.026600   -3.610560   -2.947540
  C     -3.348850   -3.233990   -3.263990
  N     -4.420000   -2.927390   -3.538020
  C     -1.133590   -3.446540   -4.024710
  N     -0.455330   -3.283940   -4.936820
  C      0.721320   -4.673930   -1.968930
  C      2.028210   -5.012110   -1.478060
  C      2.809510   -6.010150   -2.082980
  N      4.024750   -6.291910   -1.689620
  C      4.530920   -5.605030   -0.667670
  N      3.864440   -4.656180   -0.002220
  C      2.655850   -4.356810   -0.404210
  C      5.871790   -5.929340   -0.220590
  C      6.932950   -6.458690   -1.035420
  C      7.053810   -6.587040   -2.425200
  O      6.133390   -6.156160   -3.343630
  C      6.006370   -4.747940   -3.456140
  C      7.248000   -4.099280   -4.059240
  C      8.201070   -7.209650   -2.894820
  C      9.284120   -7.665410   -2.092760
  C      9.208050   -7.426310   -0.706510
  C      8.033080   -6.839300   -0.239860
  S      7.774100   -6.480000    1.448820
  C      6.217650   -5.862010    1.098120
  O     10.111410   -7.682770    0.261680
  C     11.425650   -8.125320   -0.027300
  C     12.223350   -8.061530    1.264630
  C     10.279290   -8.274420   -2.905990
  C      9.982200   -8.283740   -4.241420
  S      8.445360   -7.518630   -4.583670
  C     10.779320   -8.839100   -5.285840
  C     10.430190   -8.853220   -6.584640
  C     11.265510   -9.409050   -7.622950
  N     10.838540   -9.256890   -8.883980
  C     11.603090   -9.733160   -9.844090
  C     12.817270  -10.358330   -9.592090
  C     13.181300  -10.482790   -8.246490
  N     12.394520  -10.019010   -7.277750
  C     14.427110  -11.106560   -7.844490
  C     14.709820  -11.313630   -6.543030
  C     15.911460  -11.894580   -6.060540
  C     16.301020  -11.945870   -4.759280
  C     17.371140  -12.899440   -4.329230
  O     18.157210  -13.469960   -5.044760
  C     17.188600  -13.012150   -2.875360
  C     17.721870  -13.737450   -1.852490
  S     16.958000  -13.314010   -0.337060
  C     15.932550  -12.156530   -1.103970
  C     16.163680  -12.106130   -2.442780
  C     15.702440  -11.339040   -3.584130
  C     14.991990  -10.170770   -3.504310
  C     14.431600   -9.733960   -2.288080
  N     13.925340   -9.375190   -1.322150
  C     14.832750   -9.234190   -4.548970
  N     14.730830   -8.392260   -5.321570
  Cl    18.952030  -14.899010   -1.923260
  H     -4.712980   -3.663450   -1.033180
  H      0.635760   -4.606660   -3.047000
  H      2.417140   -6.619200   -2.887190
  H      2.175300   -3.531750    0.103260
  H      5.790870   -4.296660   -2.477990
  H      5.142860   -4.603170   -4.109570
  H      8.102270   -4.225570   -3.396580
  H      7.072050   -3.037250   -4.205230
  H      7.479690   -4.557960   -5.017160
  H      5.587980   -5.508690    1.891260
  H     11.885000   -7.479950   -0.784490
  H     11.401140   -9.157060   -0.397400
  H     11.761210   -8.691310    2.019630
  H     12.254640   -7.040890    1.635640
  H     13.233820   -8.407290    1.072490
  H     11.189050   -8.711610   -2.538820
  H     11.728780   -9.267520   -4.994290
  H      9.498640   -8.420590   -6.919140
  H     11.232630   -9.601400  -10.853310
  H     13.442990  -10.732700  -10.385610
  H     15.129140  -11.364930   -8.625090
  H     13.948650  -11.026140   -5.831630
  H     16.551170  -12.405720   -6.771640
  H     15.228240  -11.603720   -0.514460

 Total Charge           Charge          ....    0
 Multiplicity           Mult            ....    1
 Number of Electrons    NEL             ....  498
 Basis Dimension        Dim             .... 1068

ORBITAL ENERGIES
----------------

  NO   OCC          E(Eh)            E(eV)
   0   2.0000    -101.622354     -2765.2848
   1   2.0000    -101.619441     -2765.2056
   2   2.0000     -88.999478     -2421.7989
   3   2.0000     -88.996901     -2421.7288
   4   2.0000     -88.943768     -2420.2830
   5   2.0000     -88.933626     -2420.0070
   6   2.0000     -19.239276      -523.5273
   7   2.0000     -19.225112      -523.1419
   8   2.0000     -19.224306      -523.1200
   9   2.0000     -19.215993      -522.8938
  10   2.0000     -14.436633      -392.8408
  11   2.0000     -14.423960      -392.4959
  12   2.0000     -14.422883      -392.4666
  13   2.0000     -14.422473      -392.4554
  14   2.0000     -14.409721      -392.1084
  15   2.0000     -14.407170      -392.0390
  16   2.0000     -14.406230      -392.0134
  17   2.0000     -14.403203      -391.9311
  18   2.0000     -10.382135      -282.5123
  19   2.0000     -10.381694      -282.5003
  20   2.0000     -10.381591      -282.4975
  21   2.0000     -10.379059      -282.4286
  22   2.0000     -10.358275      -281.8630
  23   2.0000     -10.357611      -281.8449
  24   2.0000     -10.352175      -281.6970
  25   2.0000     -10.351413      -281.6763
  26   2.0000     -10.345676      -281.5202
  27   2.0000     -10.340888      -281.3899
  28   2.0000     -10.339661      -281.3565
  29   2.0000     -10.336410      -281.2680
  30   2.0000     -10.333235      -281.1816
  31   2.0000     -10.333219      -281.1812
  32   2.0000     -10.332655      -281.1658
  33   2.0000     -10.326793      -281.0063
  34   2.0000     -10.325855      -280.9808
  35   2.0000     -10.325627      -280.9746
  36   2.0000     -10.325302      -280.9658
  37   2.0000     -10.324778      -280.9515
  38   2.0000     -10.324339      -280.9395
  39   2.0000     -10.324101      -280.9331
  40   2.0000     -10.321686      -280.8674
  41   2.0000     -10.320242      -280.8281
  42   2.0000     -10.315693      -280.7043
  43   2.0000     -10.313563      -280.6463
  44   2.0000     -10.311859      -280.5999
  45   2.0000     -10.311282      -280.5842
  46   2.0000     -10.311146      -280.5805
  47   2.0000     -10.306777      -280.4616
  48   2.0000     -10.306691      -280.4593
  49   2.0000     -10.306509      -280.4544
  50   2.0000     -10.302788      -280.3531
  51   2.0000     -10.298096      -280.2254
  52   2.0000     -10.295462      -280.1538
  53   2.0000     -10.293491      -280.1001
  54   2.0000     -10.290118      -280.0084
  55   2.0000     -10.288788      -279.9722
  56   2.0000     -10.286310      -279.9047
  57   2.0000     -10.283864      -279.8382
  58   2.0000     -10.278992      -279.7056
  59   2.0000     -10.277069      -279.6533
  60   2.0000     -10.275608      -279.6135
  61   2.0000     -10.272367      -279.5253
  62   2.0000     -10.271482      -279.5012
  63   2.0000     -10.261940      -279.2416
  64   2.0000     -10.246751      -278.8283
  65   2.0000     -10.244666      -278.7715
  66   2.0000      -9.577121      -260.6067
  67   2.0000      -9.574207      -260.5274
  68   2.0000      -8.095182      -220.2811
  69   2.0000      -8.092488      -220.2078
  70   2.0000      -8.039252      -218.7592
  71   2.0000      -8.028841      -218.4759
  72   2.0000      -7.347728      -199.9418
  73   2.0000      -7.344817      -199.8626
  74   2.0000      -7.337185      -199.6550
  75   2.0000      -7.336630      -199.6399
  76   2.0000      -7.334271      -199.5756
  77   2.0000      -7.333716      -199.5606
  78   2.0000      -6.064536      -165.0244
  79   2.0000      -6.061871      -164.9519
  80   2.0000      -6.059990      -164.9007
  81   2.0000      -6.057424      -164.8309
  82   2.0000      -6.057241      -164.8259
  83   2.0000      -6.054797      -164.7594
  84   2.0000      -6.008698      -163.5050
  85   2.0000      -6.004474      -163.3900
  86   2.0000      -6.001107      -163.2984
  87   2.0000      -5.998370      -163.2239
  88   2.0000      -5.994448      -163.1172
  89   2.0000      -5.990224      -163.0023
  90   2.0000      -1.145296       -31.1651
  91   2.0000      -1.142043       -31.0766
  92   2.0000      -1.141407       -31.0593
  93   2.0000      -1.124128       -30.5891
  94   2.0000      -1.084047       -29.4984
  95   2.0000      -1.082426       -29.4543
  96   2.0000      -1.044756       -28.4293
  97   2.0000      -1.041127       -28.3305
  98   2.0000      -1.027900       -27.9706
  99   2.0000      -1.020483       -27.7687
 100   2.0000      -1.006920       -27.3997
 101   2.0000      -1.001771       -27.2596
 102   2.0000      -0.994636       -27.0654
 103   2.0000      -0.991302       -26.9747
 104   2.0000      -0.985008       -26.8034
 105   2.0000      -0.983663       -26.7668
 106   2.0000      -0.977500       -26.5991
 107   2.0000      -0.967188       -26.3185
 108   2.0000      -0.961499       -26.1637
 109   2.0000      -0.958428       -26.0802
 110   2.0000      -0.929581       -25.2952
 111   2.0000      -0.926942       -25.2234
 112   2.0000      -0.915628       -24.9155
 113   2.0000      -0.908179       -24.7128
 114   2.0000      -0.906058       -24.6551
 115   2.0000      -0.894962       -24.3531
 116   2.0000      -0.874690       -23.8015
 117   2.0000      -0.861336       -23.4381
 118   2.0000      -0.859918       -23.3995
 119   2.0000      -0.849983       -23.1292
 120   2.0000      -0.839291       -22.8383
 121   2.0000      -0.835834       -22.7442
 122   2.0000      -0.834489       -22.7076
 123   2.0000      -0.826022       -22.4772
 124   2.0000      -0.820267       -22.3206
 125   2.0000      -0.800240       -21.7756
 126   2.0000      -0.797678       -21.7059
 127   2.0000      -0.786366       -21.3981
 128   2.0000      -0.765617       -20.8335
 129   2.0000      -0.765168       -20.8213
 130   2.0000      -0.758175       -20.6310
 131   2.0000      -0.755883       -20.5686
 132   2.0000      -0.745489       -20.2858
 133   2.0000      -0.738939       -20.1076
 134   2.0000      -0.732733       -19.9387
 135   2.0000      -0.718166       -19.5423
 136   2.0000      -0.704016       -19.1572
 137   2.0000      -0.695538       -18.9265
 138   2.0000      -0.691258       -18.8101
 139   2.0000      -0.690880       -18.7998
 140   2.0000      -0.683131       -18.5890
 141   2.0000      -0.679687       -18.4952
 142   2.0000      -0.678904       -18.4739
 143   2.0000      -0.664255       -18.0753
 144   2.0000      -0.659376       -17.9425
 145   2.0000      -0.654676       -17.8146
 146   2.0000      -0.645528       -17.5657
 147   2.0000      -0.643941       -17.5225
 148   2.0000      -0.632425       -17.2091
 149   2.0000      -0.627640       -17.0790
 150   2.0000      -0.622622       -16.9424
 151   2.0000      -0.621108       -16.9012
 152   2.0000      -0.615660       -16.7530
 153   2.0000      -0.608256       -16.5515
 154   2.0000      -0.607234       -16.5237
 155   2.0000      -0.601627       -16.3711
 156   2.0000      -0.595421       -16.2022
 157   2.0000      -0.586983       -15.9726
 158   2.0000      -0.584135       -15.8951
 159   2.0000      -0.574898       -15.6438
 160   2.0000      -0.567688       -15.4476
 161   2.0000      -0.561365       -15.2755
 162   2.0000      -0.558237       -15.1904
 163   2.0000      -0.556020       -15.1301
 164   2.0000      -0.555249       -15.1091
 165   2.0000      -0.550699       -14.9853
 166   2.0000      -0.548144       -14.9157
 167   2.0000      -0.546796       -14.8791
 168   2.0000      -0.541894       -14.7457
 169   2.0000      -0.537915       -14.6374
 170   2.0000      -0.535116       -14.5613
 171   2.0000      -0.532327       -14.4854
 172   2.0000      -0.529872       -14.4186
 173   2.0000      -0.527326       -14.3493
 174   2.0000      -0.525595       -14.3022
 175   2.0000      -0.522516       -14.2184
 176   2.0000      -0.514906       -14.0113
 177   2.0000      -0.514575       -14.0023
 178   2.0000      -0.512785       -13.9536
 179   2.0000      -0.511188       -13.9101
 180   2.0000      -0.508206       -13.8290
 181   2.0000      -0.505479       -13.7548
 182   2.0000      -0.504038       -13.7156
 183   2.0000      -0.501940       -13.6585
 184   2.0000      -0.500483       -13.6188
 185   2.0000      -0.497184       -13.5291
 186   2.0000      -0.494156       -13.4467
 187   2.0000      -0.493065       -13.4170
 188   2.0000      -0.492260       -13.3951
 189   2.0000      -0.488637       -13.2965
 190   2.0000      -0.484926       -13.1955
 191   2.0000      -0.480542       -13.0762
 192   2.0000      -0.473673       -12.8893
 193   2.0000      -0.468493       -12.7484
 194   2.0000      -0.462453       -12.5840
 195   2.0000      -0.460624       -12.5342
 196   2.0000      -0.459496       -12.5035
 197   2.0000      -0.458730       -12.4827
 198   2.0000      -0.456757       -12.4290
 199   2.0000      -0.455801       -12.4030
 200   2.0000      -0.455483       -12.3943
 201   2.0000      -0.453101       -12.3295
 202   2.0000      -0.451692       -12.2912
 203   2.0000      -0.450215       -12.2510
 204   2.0000      -0.448840       -12.2136
 205   2.0000      -0.447577       -12.1792
 206   2.0000      -0.447332       -12.1725
 207   2.0000      -0.445412       -12.1203
 208   2.0000      -0.442668       -12.0456
 209   2.0000      -0.441845       -12.0232
 210   2.0000      -0.440399       -11.9839
 211   2.0000      -0.437095       -11.8940
 212   2.0000      -0.436571       -11.8797
 213   2.0000      -0.434710       -11.8291
 214   2.0000      -0.433454       -11.7949
 215   2.0000      -0.420832       -11.4514
 216   2.0000      -0.420365       -11.4387
 217   2.0000      -0.419331       -11.4106
 218   2.0000      -0.417480       -11.3602
 219   2.0000      -0.413471       -11.2511
 220   2.0000      -0.409122       -11.1328
 221   2.0000      -0.407908       -11.0997
 222   2.0000      -0.405524       -11.0349
 223   2.0000      -0.404304       -11.0017
 224   2.0000      -0.399677       -10.8758
 225   2.0000      -0.392423       -10.6784
 226   2.0000      -0.390661       -10.6304
 227   2.0000      -0.389454       -10.5976
 228   2.0000      -0.383030       -10.4228
 229   2.0000      -0.380360       -10.3501
 230   2.0000      -0.377707       -10.2779
 231   2.0000      -0.375069       -10.2061
 232   2.0000      -0.363398        -9.8886
 233   2.0000      -0.352482        -9.5915
 234   2.0000      -0.349856        -9.5201
 235   2.0000      -0.342466        -9.3190
 236   2.0000      -0.340924        -9.2770
 237   2.0000      -0.340502        -9.2655
 238   2.0000      -0.331509        -9.0208
 239   2.0000      -0.327419        -8.9095
 240   2.0000      -0.324228        -8.8227
 241   2.0000      -0.323644        -8.8068
 242   2.0000      -0.320357        -8.7174
 243   2.0000      -0.314973        -8.5709
 244   2.0000      -0.305198        -8.3048
 245   2.0000      -0.303820        -8.2674
 246   2.0000      -0.290514        -7.9053
 247   2.0000      -0.265806        -7.2329
 248   2.0000      -0.230208        -6.2643
 249   0.0000      -0.105848        -2.8803
 250   0.0000      -0.095980        -2.6118
 251   0.0000      -0.059466        -1.6181
 252   0.0000      -0.054416        -1.4807
 253   0.0000      -0.041039        -1.1167

MULLIKEN ATOMIC CHARGES
-----------------------
   0 C :    0.027574
   1 C :   -0.126643
   2 S :    0.190215
   3 C :   -0.172149
   4 Cl:    0.003012
   5 C :    0.076790
   6 C :    0.141827
   7 O :   -0.123060
   8 C :   -0.099038
   9 C :    0.292941
  10 C :   -0.324941
  11 C :   -0.193825
  12 N :    0.159741
  13 C :   -0.193491
  14 N :    0.166035
  15 C :   -0.019751
  16 C :   -0.025160
  17 C :    0.051752
  18 N :   -0.026610
  19 C :   -0.145615
  20 N :   -0.059748
  21 C :    0.102968
  22 C :    0.096158
  23 C :    0.127337
  24 C :    0.047097
  25 O :   -0.318313
  26 C :    0.166802
  27 C :   -0.013516
  28 C :   -0.113782
  29 C :    0.052183
  30 C :    0.163812
  31 C :   -0.190176
  32 S :    0.152229
  33 C :   -0.072805
  34 O :   -0.306021
  35 C :    0.135974
  36 C :    0.027346
  37 C :   -0.081904
  38 C :    0.006829
  39 S :    0.123542
  40 C :    0.054438
  41 C :    0.020732
  42 C :   -0.053700
  43 N :   -0.065841
  44 C :    0.082545
  45 C :   -0.043541
  46 C :    0.053073
  47 N :   -0.067124
  48 C :    0.015163
  49 C :    0.045505
  50 C :    0.046351
  51 C :   -0.117316
  52 C :    0.139601
  53 O :   -0.122317
  54 C :    0.082153
  55 C :   -0.171741
  56 S :    0.188928
  57 C :   -0.130812
  58 C :    0.023140
  59 C :    0.273286
  60 C :   -0.326198
  61 C :   -0.165829
  62 N :    0.144780
  63 C :   -0.220899
  64 N :    0.199432
  65 Cl:    0.004289
  66 H :    0.055070
  67 H :    0.042388
  68 H :    0.007946
  69 H :    0.003093
  70 H :    0.017092
  71 H :    0.015070
  72 H :    0.031288
  73 H :    0.013733
  74 H :    0.027851
  75 H :    0.030093
  76 H :    0.025750
  77 H :    0.025041
  78 H :    0.015950
  79 H :    0.017859
  80 H :    0.017768
  81 H :   -0.036876
  82 H :   -0.006830
  83 H :   -0.003873
  84 H :    0.009262
  85 H :   -0.006360
  86 H :   -0.003398
  87 H :    0.035108
  88 H :    0.021359
  89 H :    0.051906
Sum of atomic charges:   -0.0000000

LOEWDIN ATOMIC CHARGES
----------------------
   0 C :   -0.060102
   1 C :   -0.147950
   2 S :    0.478997
   3 C :   -0.271578
   4 Cl:    0.193922
   5 C :   -0.117214
   6 C :    0.080551
   7 O :   -0.123025
   8 C :   -0.083950
   9 C :    0.074337
  10 C :   -0.133100
  11 C :   -0.015281
  12 N :   -0.048663
  13 C :   -0.024153
  14 N :   -0.042242
  15 C :    0.079970
  16 C :   -0.096546
  17 C :    0.065069
  18 N :   -0.064153
  19 C :    0.044165
  20 N :   -0.081993
  21 C :    0.081117
  22 C :   -0.086759
  23 C :   -0.045372
  24 C :    0.007285
  25 O :   -0.118516
  26 C :    0.078417
  27 C :   -0.073521
  28 C :   -0.158971
  29 C :   -0.084052
  30 C :    0.037740
  31 C :   -0.183452
  32 S :    0.439220
  33 C :   -0.130262
  34 O :   -0.100132
  35 C :    0.082658
  36 C :   -0.060562
  37 C :   -0.045823
  38 C :   -0.162614
  39 S :    0.416231
  40 C :    0.008542
  41 C :   -0.054245
  42 C :    0.038470
  43 N :   -0.085029
  44 C :    0.053416
  45 C :   -0.064774
  46 C :    0.027448
  47 N :   -0.079211
  48 C :    0.022571
  49 C :   -0.005452
  50 C :    0.074952
  51 C :   -0.081530
  52 C :    0.079773
  53 O :   -0.128886
  54 C :   -0.117535
  55 C :   -0.271484
  56 S :    0.476781
  57 C :   -0.153624
  58 C :   -0.057670
  59 C :    0.074215
  60 C :   -0.136144
  61 C :    0.000679
  62 N :   -0.053443
  63 C :   -0.032040
  64 N :   -0.028930
  65 Cl:    0.194937
  66 H :    0.038203
  67 H :    0.049060
  68 H :    0.027924
  69 H :    0.025508
  70 H :    0.008710
  71 H :    0.020416
  72 H :    0.028606
  73 H :    0.028993
  74 H :    0.025088
  75 H :    0.030182
  76 H :    0.016584
  77 H :    0.012339
  78 H :    0.025735
  79 H :    0.026413
  80 H :    0.029178
  81 H :    0.027904
  82 H :    0.033854
  83 H :    0.028023
  84 H :    0.027511
  85 H :    0.032968
  86 H :    0.034597
  87 H :    0.037122
  88 H :    0.047056
  89 H :    0.036550

  Mayer bond orders larger than 0.100000
B(  0-C ,  1-C ) :   1.5446 B(  0-C ,  5-C ) :   1.2209 B(  0-C ,  9-C ) :   1.0050
B(  1-C ,  2-S ) :   1.1646 B(  1-C , 66-H ) :   0.9526 B(  2-S ,  3-C ) :   1.1520
B(  3-C ,  4-Cl) :   1.1311 B(  3-C ,  5-C ) :   1.4766 B(  5-C ,  6-C ) :   0.9476
B(  6-C ,  7-O ) :   2.2489 B(  6-C ,  8-C ) :   0.9237 B(  8-C ,  9-C ) :   1.0458
B(  8-C , 15-C ) :   1.7151 B(  9-C , 10-C ) :   1.6697 B( 10-C , 11-C ) :   1.1442
B( 10-C , 13-C ) :   1.1381 B( 11-C , 12-N ) :   2.9931 B( 13-C , 14-N ) :   2.9818
B( 15-C , 16-C ) :   1.0394 B( 15-C , 67-H ) :   0.9449 B( 16-C , 17-C ) :   1.3016
B( 16-C , 21-C ) :   1.3003 B( 17-C , 18-N ) :   1.5748 B( 17-C , 68-H ) :   0.9940
B( 18-N , 19-C ) :   1.5400 B( 19-C , 20-N ) :   1.5206 B( 19-C , 22-C ) :   0.9600
B( 20-N , 21-C ) :   1.5970 B( 21-C , 69-H ) :   0.9844 B( 22-C , 23-C ) :   1.1401
B( 22-C , 33-C ) :   1.6082 B( 23-C , 24-C ) :   1.2775 B( 23-C , 31-C ) :   1.3244
B( 24-C , 25-O ) :   1.1948 B( 24-C , 28-C ) :   1.4146 B( 25-O , 26-C ) :   0.9453
B( 26-C , 27-C ) :   1.1037 B( 26-C , 70-H ) :   0.9440 B( 26-C , 71-H ) :   0.9598
B( 27-C , 72-H ) :   0.9664 B( 27-C , 73-H ) :   0.9585 B( 27-C , 74-H ) :   0.9638
B( 28-C , 29-C ) :   1.2934 B( 28-C , 39-S ) :   1.0596 B( 29-C , 30-C ) :   1.2170
B( 29-C , 37-C ) :   1.1376 B( 30-C , 31-C ) :   1.3982 B( 30-C , 34-O ) :   1.2676
B( 31-C , 32-S ) :   1.0435 B( 32-S , 33-C ) :   1.1479 B( 33-C , 75-H ) :   0.9597
B( 34-O , 35-C ) :   0.9183 B( 35-C , 36-C ) :   1.1028 B( 35-C , 76-H ) :   0.9499
B( 35-C , 77-H ) :   0.9477 B( 36-C , 78-H ) :   0.9661 B( 36-C , 79-H ) :   0.9670
B( 36-C , 80-H ) :   0.9569 B( 37-C , 38-C ) :   1.5521 B( 37-C , 81-H ) :   1.0045
B( 38-C , 39-S ) :   1.0420 B( 38-C , 40-C ) :   1.1185 B( 40-C , 41-C ) :   1.6775
B( 40-C , 82-H ) :   0.9775 B( 41-C , 42-C ) :   1.0544 B( 41-C , 83-H ) :   0.9666
B( 42-C , 43-N ) :   1.5022 B( 42-C , 47-N ) :   1.5353 B( 43-N , 44-C ) :   1.5687
B( 44-C , 45-C ) :   1.3526 B( 44-C , 84-H ) :   0.9794 B( 45-C , 46-C ) :   1.3382
B( 45-C , 85-H ) :   0.9773 B( 46-C , 47-N ) :   1.5167 B( 46-C , 48-C ) :   1.0424
B( 48-C , 49-C ) :   1.7206 B( 48-C , 86-H ) :   0.9865 B( 49-C , 50-C ) :   1.0877
B( 49-C , 87-H ) :   0.9406 B( 50-C , 51-C ) :   1.6533 B( 50-C , 88-H ) :   0.9617
B( 51-C , 52-C ) :   0.9305 B( 51-C , 59-C ) :   1.0399 B( 52-C , 53-O ) :   2.2895
B( 52-C , 54-C ) :   0.9236 B( 54-C , 55-C ) :   1.4879 B( 54-C , 58-C ) :   1.2203
B( 55-C , 56-S ) :   1.1518 B( 55-C , 65-Cl) :   1.1317 B( 56-S , 57-C ) :   1.1603
B( 57-C , 58-C ) :   1.5493 B( 57-C , 89-H ) :   0.9564 B( 58-C , 59-C ) :   1.0171
B( 59-C , 60-C ) :   1.6460 B( 60-C , 61-C ) :   1.1447 B( 60-C , 63-C ) :   1.1487
B( 61-C , 62-N ) :   2.9485 B( 63-C , 64-N ) :   3.0119

-----------------------------------------------------------------------------
         ABSORPTION SPECTRUM VIA TRANSITION ELECTRIC DIPOLE MOMENTS
-----------------------------------------------------------------------------
State   Energy  Wavelength   fosc         T2         TX        TY        TZ
        (cm-1)    (nm)                  (au**2)     (au)      (au)      (au)
-----------------------------------------------------------------------------
   0   14457.2    691.7   0.003748622   0.08536   0.18301  -0.08790   0.21010
   1   16977.8    589.0   0.190364957   3.69131  -1.83305   0.57385  -0.04374
   2   20977.3    476.7   0.024478379   0.38416  -0.32439   0.11120  -0.51630
   3   24356.9    410.6   0.370687287   5.01028  -1.74284   0.77216   1.17327
   4   25087.6    398.6   0.213367584   2.79991  -1.49677   0.38830  -0.63938
   5   25433.4    393.2   0.012680367   0.16414  -0.22372   0.04724  -0.33444
   6   25710.0    389.0   0.005909702   0.07567   0.25197  -0.09971  -0.04733
   7   25902.3    386.1   0.340014197   4.32149  -0.86516  -0.01345  -1.89019
   8   26284.6    380.5   0.049579977   0.62098  -0.66468   0.26643   0.32894
   9   26695.9    374.6   0.171094005   2.10992  -0.70270  -0.13192  -1.26441
  10   26855.3    372.4   0.008885099   0.10892  -0.07471   0.00992   0.32131
  11   28393.3    352.2   0.103769273   1.20318   0.70514  -0.57279   0.61471
  12   29360.5    340.6   0.040383439   0.45281   0.29133  -0.38813   0.46614
  13   29693.3    336.8   0.143588068   1.59197   1.09645  -0.53265   0.32568
  14   30124.7    332.0   0.232643689   2.54240  -1.47168   0.33874   0.51166
  15   30266.5    330.4   0.000919566   0.01000  -0.07687   0.04399   0.04645
  16   31261.9    319.9   0.340949287   3.59046  -1.35607   0.95258   0.91876
  17   31600.2    316.5   0.735330109   7.66069   1.04187  -0.95022  -2.38165
  18   31836.1    314.1   0.209983483   2.17141   0.31423  -0.31489  -1.40482
  19   32675.4    306.0   0.018419202   0.18558  -0.11352   0.32485  -0.25916
  20   32740.7    305.4   0.042693784   0.42929   0.42044  -0.50248   0.00630
  21   32974.8    303.3   0.011757400   0.11738  -0.31931  -0.05195  -0.11282
  22   33427.0    299.2   0.053947517   0.53131   0.21599   0.15887  -0.67781
  23   33601.4    297.6   0.034539228   0.33840  -0.50647  -0.21946   0.18364
  24   33660.8    297.1   0.000998600   0.00977  -0.06540   0.06749   0.03057
  25   34243.0    292.0   0.014075509   0.13532   0.22822  -0.26629   0.11102
  26   34525.5    289.6   0.011660178   0.11118  -0.20318   0.26122  -0.04081
  27   35487.5    281.8   0.004136371   0.03837   0.08586  -0.07194   0.16070
  28   35810.1    279.3   0.010936085   0.10054  -0.16342   0.18084  -0.20281
  29   35860.3    278.9   0.015470576   0.14203   0.12205  -0.08762   0.34562
  30   36253.0    275.8   0.089175980   0.80980   0.29096  -0.35324   0.77484
  31   36403.6    274.7   0.793622908   7.17704  -1.55185   1.42799  -1.65216
  32   36737.8    272.2   0.008653694   0.07755   0.14252  -0.20804   0.11813
  33   37134.2    269.3   0.144538495   1.28140   0.03037   0.07929   1.12880
  34   37492.3    266.7   0.234634071   2.06027  -1.05222   0.29960   0.92916
  35   37608.6    265.9   0.485750330   4.25208   0.98060   0.40051  -1.76921
  36   38188.8    261.9   0.173968913   1.49972  -0.73339   0.97299  -0.12312
  37   38228.4    261.6   0.476417172   4.10277   0.52001  -1.08294   1.63083
  38   38617.2    259.0   0.080069638   0.68259   0.38253  -0.05061  -0.73055
  39   38702.0    258.4   0.008432474   0.07173   0.10543   0.20447   0.13714
  40   38987.2    256.5   0.002444567   0.02064  -0.07892   0.06413  -0.10149
  41   39188.1    255.2   0.016039364   0.13474   0.28285  -0.23103   0.03689
  42   39707.8    251.8   0.007507878   0.06225   0.08049   0.03744   0.23317
  43   39949.5    250.3   0.007421228   0.06116   0.22767  -0.02816   0.09235
  44   40242.6    248.5   0.044447298   0.36361  -0.32020   0.15294   0.48753

FINAL SINGLE POINT ENERGY     -5091.488414395591

DIPOLE MOMENT
-------------
                                X             Y             Z
Electronic contribution:    -24.62479     -16.56208      28.56633
Nuclear contribution   :     25.85714      14.79300     -27.51700
                        -----------------------------------------
Total Dipole Moment    :      1.23234      -1.76908       1.04933
                        -----------------------------------------
Magnitude (a.u.)       :      2.39779
Magnitude (Debye)      :      6.09470

Rotational constants in cm-1:     0.002036     0.000273     0.000249
Rotational constants in MHz :    61.026777     8.176048     7.458554

                             ****ORCA TERMINATED NORMALLY****
TOTAL RUN TIME: 0 days 0 hours 7 minutes 44 seconds 977 msec
