                         Program Version 4.2.0 -  RELEASE  -
|  1> # ORCA input file
|  2> # SCF done       -168.388920916605          0.000756037048
|  3> ! CAM-B3LYP def2-SVP def2/J RIJCOSX Grid4 TightSCF
|  4> %maxcore 5000
|  5> %tddft
|  6>     Mode sTDDFT
|  7>     Ethresh 5.0
|  8>     maxcore 5000
|  9> end
| 10>
| 11> %pal
| 12>   nprocs 6
| 13>   end
| 14> * xyz 0 1
| 15>    C        2.39778         2.72769         0.03226
| 16>    C        1.81814         3.70073         0.78594
| 17>    S        2.18615         3.49469         2.45969
| 18>    C        3.14697         2.06839         2.13946
| 19>   Cl        3.90565         1.21495         3.38956
| 20>    C        3.15723         1.79247         0.80547
| 21>    C        3.75061         0.77590        -0.07209
| 22>    O        4.49436        -0.12145         0.24586
| 23>    C        3.30468         1.15990        -1.44862
| 24>    C        2.46617         2.34603        -1.36361
| 25>    C        1.79340         2.98216        -2.37459
| 26>    C        0.99755         4.11941        -2.12209
| 27>    N        0.34968         5.04827        -1.93799
| 28>    C        1.78386         2.60540        -3.73186
| 29>    N        1.72197         2.35179        -4.85026
| 30>    C        3.73828         0.60263        -2.61649
| 31>    C        4.43991        -0.61370        -2.81539
| 32>    C        4.49746        -1.74707        -2.03098
| 33>    C        5.27444        -2.73866        -2.69951
| 34>    C        5.70968        -2.13538        -3.96845
| 35>    C        5.18404        -0.88351        -4.03792
| 36>    C        6.50507        -2.73525        -4.95049
| 37>    N        7.15649        -3.20748        -5.77089
| 38>    C        5.54659        -4.01537        -2.26047
| 39>    C        6.35087        -4.99811        -2.89022
| 40>    C        6.33689        -6.15144        -2.13390
| 41>    C        5.49499        -5.91135        -0.96537
| 42>    C        5.01974        -4.64327        -1.02628
| 43>    C        4.13671        -4.08321        -0.09406
| 44>    N        3.39091        -3.68972         0.68554
| 45>    C        6.98041        -7.37495        -2.42809
| 46>    N        6.86707        -8.49095        -1.65994
| 47>    C        7.57886        -9.51400        -2.19964
| 48>    C        8.17067        -9.03035        -3.38021
| 49>    C        7.79656        -7.71025        -3.52478
| 50>    C        7.61540       -10.81576        -1.60181
| 51>    C        6.57865       -11.04310        -0.53992
| 52>    O        6.33498       -10.23047         0.33193
| 53>    N        5.85652       -12.17221        -0.68779
| 54>    C        8.50807       -11.75881        -2.01366
| 55>    C        8.76622       -13.03459        -1.44078
| 56>    S        9.63149       -14.21749        -2.38745
| 57>    C        9.58910       -15.38559        -1.10461
| 58>    C        8.94752       -14.84423         0.01487
| 59>    C        8.49358       -13.53134        -0.18145
| 60>    C        8.73202       -15.51322         1.23284
| 61>    N        8.50262       -16.02564         2.23350
| 62>    C       10.17519       -16.65745        -1.30746
| 63>    C       10.25345       -17.63791        -0.37119
| 64>    C       10.87246       -18.88699        -0.60824
| 65>    C       11.20707       -19.80175         0.34330
| 66>    C       11.47321       -21.22200        -0.04373
| 67>    O       11.65769       -21.63890        -1.16173
| 68>    C       11.39664       -21.96045         1.22257
| 69>    C       11.44467       -23.26068         1.62845
| 70>    S       11.26324       -23.36813         3.36382
| 71>    C       11.13570       -21.65351         3.52134
| 72>    C       11.22033       -21.04173         2.31074
| 73>    C       11.22994       -19.68667         1.78966
| 74>    C       11.43580       -18.56192         2.54468
| 75>    C       11.48432       -18.62941         3.95371
| 76>    N       11.52026       -18.67953         5.09893
| 77>    C       11.73800       -17.28482         2.03055
| 78>    N       12.04564       -16.24295         1.65927
| 79>   Cl       11.64740       -24.64660         0.67597
| 80>    H        1.20457         4.52489         0.48059
| 81>    H        3.53865         1.15123        -3.53062
| 82>    H        4.02732        -1.88701        -1.07945
| 83>    H        5.30241        -0.18398        -4.84523
| 84>    H        6.88035        -4.85474        -3.81020
| 85>    H        5.28745        -6.62514        -0.18924
| 86>    H        6.40135        -8.57341        -0.76421
| 87>    H        8.78377        -9.59166        -4.05608
| 88>    H        8.06787        -7.04881        -4.32257
| 89>    H        6.04960       -12.84520        -1.40701
| 90>    H        5.12666       -12.36662        -0.02083
| 91>    H        9.13528       -11.51079        -2.85953
| 92>    H        8.01842       -12.95903         0.59496
| 93>    H       10.62728       -16.81927        -2.27799
| 94>    H        9.81584       -17.47395         0.60149
| 95>    H       11.04456       -19.18519        -1.63675
| 96>    H       10.99789       -21.22206         4.49290
| 97> *
| 98>
| 99>                          ****END OF INPUT****

CARTESIAN COORDINATES (ANGSTROEM)
---------------------------------
  C      2.397780    2.727690    0.032260
  C      1.818140    3.700730    0.785940
  S      2.186150    3.494690    2.459690
  C      3.146970    2.068390    2.139460
  Cl     3.905650    1.214950    3.389560
  C      3.157230    1.792470    0.805470
  C      3.750610    0.775900   -0.072090
  O      4.494360   -0.121450    0.245860
  C      3.304680    1.159900   -1.448620
  C      2.466170    2.346030   -1.363610
  C      1.793400    2.982160   -2.374590
  C      0.997550    4.119410   -2.122090
  N      0.349680    5.048270   -1.937990
  C      1.783860    2.605400   -3.731860
  N      1.721970    2.351790   -4.850260
  C      3.738280    0.602630   -2.616490
  C      4.439910   -0.613700   -2.815390
  C      4.497460   -1.747070   -2.030980
  C      5.274440   -2.738660   -2.699510
  C      5.709680   -2.135380   -3.968450
  C      5.184040   -0.883510   -4.037920
  C      6.505070   -2.735250   -4.950490
  N      7.156490   -3.207480   -5.770890
  C      5.546590   -4.015370   -2.260470
  C      6.350870   -4.998110   -2.890220
  C      6.336890   -6.151440   -2.133900
  C      5.494990   -5.911350   -0.965370
  C      5.019740   -4.643270   -1.026280
  C      4.136710   -4.083210   -0.094060
  N      3.390910   -3.689720    0.685540
  C      6.980410   -7.374950   -2.428090
  N      6.867070   -8.490950   -1.659940
  C      7.578860   -9.514000   -2.199640
  C      8.170670   -9.030350   -3.380210
  C      7.796560   -7.710250   -3.524780
  C      7.615400  -10.815760   -1.601810
  C      6.578650  -11.043100   -0.539920
  O      6.334980  -10.230470    0.331930
  N      5.856520  -12.172210   -0.687790
  C      8.508070  -11.758810   -2.013660
  C      8.766220  -13.034590   -1.440780
  S      9.631490  -14.217490   -2.387450
  C      9.589100  -15.385590   -1.104610
  C      8.947520  -14.844230    0.014870
  C      8.493580  -13.531340   -0.181450
  C      8.732020  -15.513220    1.232840
  N      8.502620  -16.025640    2.233500
  C     10.175190  -16.657450   -1.307460
  C     10.253450  -17.637910   -0.371190
  C     10.872460  -18.886990   -0.608240
  C     11.207070  -19.801750    0.343300
  C     11.473210  -21.222000   -0.043730
  O     11.657690  -21.638900   -1.161730
  C     11.396640  -21.960450    1.222570
  C     11.444670  -23.260680    1.628450
  S     11.263240  -23.368130    3.363820
  C     11.135700  -21.653510    3.521340
  C     11.220330  -21.041730    2.310740
  C     11.229940  -19.686670    1.789660
  C     11.435800  -18.561920    2.544680
  C     11.484320  -18.629410    3.953710
  N     11.520260  -18.679530    5.098930
  C     11.738000  -17.284820    2.030550
  N     12.045640  -16.242950    1.659270
  Cl    11.647400  -24.646600    0.675970
  H      1.204570    4.524890    0.480590
  H      3.538650    1.151230   -3.530620
  H      4.027320   -1.887010   -1.079450
  H      5.302410   -0.183980   -4.845230
  H      6.880350   -4.854740   -3.810200
  H      5.287450   -6.625140   -0.189240
  H      6.401350   -8.573410   -0.764210
  H      8.783770   -9.591660   -4.056080
  H      8.067870   -7.048810   -4.322570
  H      6.049600  -12.845200   -1.407010
  H      5.126660  -12.366620   -0.020830
  H      9.135280  -11.510790   -2.859530
  H      8.018420  -12.959030    0.594960
  H     10.627280  -16.819270   -2.277990
  H      9.815840  -17.473950    0.601490
  H     11.044560  -19.185190   -1.636750
  H     10.997890  -21.222060    4.492900

 Total Charge           Charge          ....    0
 Multiplicity           Mult            ....    1
 Number of Electrons    NEL             ....  474
 Basis Dimension        Dim             .... 1015

ORBITAL ENERGIES
----------------

  NO   OCC          E(Eh)            E(eV)
   0   2.0000    -101.620258     -2765.2278
   1   2.0000    -101.612360     -2765.0129
   2   2.0000     -88.998986     -2421.7855
   3   2.0000     -88.995879     -2421.7010
   4   2.0000     -88.989455     -2421.5262
   5   2.0000     -19.223981      -523.1111
   6   2.0000     -19.220419      -523.0142
   7   2.0000     -19.217153      -522.9253
   8   2.0000     -14.483379      -394.1128
   9   2.0000     -14.464218      -393.5914
  10   2.0000     -14.427801      -392.6004
  11   2.0000     -14.422788      -392.4640
  12   2.0000     -14.422564      -392.4579
  13   2.0000     -14.418134      -392.3374
  14   2.0000     -14.416331      -392.2883
  15   2.0000     -14.413450      -392.2099
  16   2.0000     -14.405349      -391.9895
  17   2.0000     -10.414040      -283.3804
  18   2.0000     -10.380333      -282.4632
  19   2.0000     -10.379260      -282.4340
  20   2.0000     -10.374712      -282.3103
  21   2.0000     -10.371694      -282.2282
  22   2.0000     -10.354407      -281.7578
  23   2.0000     -10.352867      -281.7158
  24   2.0000     -10.351595      -281.6812
  25   2.0000     -10.346024      -281.5296
  26   2.0000     -10.345375      -281.5120
  27   2.0000     -10.344006      -281.4747
  28   2.0000     -10.341030      -281.3937
  29   2.0000     -10.336734      -281.2768
  30   2.0000     -10.331684      -281.1394
  31   2.0000     -10.330929      -281.1189
  32   2.0000     -10.329477      -281.0794
  33   2.0000     -10.328469      -281.0519
  34   2.0000     -10.328194      -281.0444
  35   2.0000     -10.327348      -281.0214
  36   2.0000     -10.326909      -281.0095
  37   2.0000     -10.325874      -280.9813
  38   2.0000     -10.325854      -280.9808
  39   2.0000     -10.325754      -280.9781
  40   2.0000     -10.324914      -280.9552
  41   2.0000     -10.324241      -280.9369
  42   2.0000     -10.320877      -280.8453
  43   2.0000     -10.320675      -280.8399
  44   2.0000     -10.320067      -280.8233
  45   2.0000     -10.319758      -280.8149
  46   2.0000     -10.318724      -280.7868
  47   2.0000     -10.318576      -280.7827
  48   2.0000     -10.317464      -280.7525
  49   2.0000     -10.316272      -280.7200
  50   2.0000     -10.314433      -280.6700
  51   2.0000     -10.311658      -280.5945
  52   2.0000     -10.310600      -280.5657
  53   2.0000     -10.309652      -280.5399
  54   2.0000     -10.308553      -280.5100
  55   2.0000     -10.308138      -280.4987
  56   2.0000     -10.304870      -280.4098
  57   2.0000     -10.304775      -280.4072
  58   2.0000     -10.303678      -280.3773
  59   2.0000     -10.298036      -280.2238
  60   2.0000     -10.295321      -280.1499
  61   2.0000     -10.294046      -280.1152
  62   2.0000     -10.288047      -279.9520
  63   2.0000     -10.287334      -279.9326
  64   2.0000     -10.281303      -279.7685
  65   2.0000      -9.575035      -260.5499
  66   2.0000      -9.567146      -260.3353
  67   2.0000      -8.094590      -220.2650
  68   2.0000      -8.091584      -220.1832
  69   2.0000      -8.085149      -220.0081
  70   2.0000      -7.345675      -199.8860
  71   2.0000      -7.337793      -199.6715
  72   2.0000      -7.335071      -199.5974
  73   2.0000      -7.334529      -199.5827
  74   2.0000      -7.327180      -199.3827
  75   2.0000      -7.326628      -199.3677
  76   2.0000      -6.063692      -165.0015
  77   2.0000      -6.060967      -164.9273
  78   2.0000      -6.059660      -164.8917
  79   2.0000      -6.056954      -164.8181
  80   2.0000      -6.056375      -164.8023
  81   2.0000      -6.054545      -164.7526
  82   2.0000      -6.053822      -164.7329
  83   2.0000      -6.049922      -164.6268
  84   2.0000      -6.047395      -164.5580
  85   2.0000      -1.161517       -31.6065
  86   2.0000      -1.140593       -31.0371
  87   2.0000      -1.134948       -30.8835
  88   2.0000      -1.106538       -30.1104
  89   2.0000      -1.041293       -28.3350
  90   2.0000      -1.036389       -28.2016
  91   2.0000      -1.034087       -28.1389
  92   2.0000      -1.023991       -27.8642
  93   2.0000      -1.020051       -27.7570
  94   2.0000      -1.018891       -27.7254
  95   2.0000      -1.014396       -27.6031
  96   2.0000      -1.007086       -27.4042
  97   2.0000      -1.001132       -27.2422
  98   2.0000      -1.000984       -27.2382
  99   2.0000      -0.995850       -27.0985
 100   2.0000      -0.991867       -26.9901
 101   2.0000      -0.988195       -26.8902
 102   2.0000      -0.985200       -26.8086
 103   2.0000      -0.979933       -26.6653
 104   2.0000      -0.960805       -26.1448
 105   2.0000      -0.950883       -25.8748
 106   2.0000      -0.950136       -25.8545
 107   2.0000      -0.933845       -25.4112
 108   2.0000      -0.910454       -24.7747
 109   2.0000      -0.907555       -24.6958
 110   2.0000      -0.899695       -24.4819
 111   2.0000      -0.896718       -24.4009
 112   2.0000      -0.892751       -24.2930
 113   2.0000      -0.889557       -24.2061
 114   2.0000      -0.877010       -23.8647
 115   2.0000      -0.859406       -23.3856
 116   2.0000      -0.848569       -23.0907
 117   2.0000      -0.838389       -22.8137
 118   2.0000      -0.835574       -22.7371
 119   2.0000      -0.828736       -22.5511
 120   2.0000      -0.821570       -22.3560
 121   2.0000      -0.799892       -21.7662
 122   2.0000      -0.788625       -21.4596
 123   2.0000      -0.776968       -21.1424
 124   2.0000      -0.765795       -20.8383
 125   2.0000      -0.761062       -20.7095
 126   2.0000      -0.750713       -20.4279
 127   2.0000      -0.736779       -20.0488
 128   2.0000      -0.732310       -19.9272
 129   2.0000      -0.721272       -19.6268
 130   2.0000      -0.708267       -19.2729
 131   2.0000      -0.705159       -19.1883
 132   2.0000      -0.703311       -19.1381
 133   2.0000      -0.698506       -19.0073
 134   2.0000      -0.693776       -18.8786
 135   2.0000      -0.690367       -18.7859
 136   2.0000      -0.679103       -18.4793
 137   2.0000      -0.676153       -18.3991
 138   2.0000      -0.674885       -18.3646
 139   2.0000      -0.671917       -18.2838
 140   2.0000      -0.666353       -18.1324
 141   2.0000      -0.651040       -17.7157
 142   2.0000      -0.644821       -17.5465
 143   2.0000      -0.643638       -17.5143
 144   2.0000      -0.634080       -17.2542
 145   2.0000      -0.624443       -16.9920
 146   2.0000      -0.620132       -16.8746
 147   2.0000      -0.613878       -16.7045
 148   2.0000      -0.612107       -16.6563
 149   2.0000      -0.604212       -16.4414
 150   2.0000      -0.597035       -16.2461
 151   2.0000      -0.593450       -16.1486
 152   2.0000      -0.580895       -15.8070
 153   2.0000      -0.572754       -15.5854
 154   2.0000      -0.566682       -15.4202
 155   2.0000      -0.558815       -15.2061
 156   2.0000      -0.554844       -15.0981
 157   2.0000      -0.553833       -15.0705
 158   2.0000      -0.550774       -14.9873
 159   2.0000      -0.547313       -14.8931
 160   2.0000      -0.546539       -14.8721
 161   2.0000      -0.545811       -14.8523
 162   2.0000      -0.537424       -14.6240
 163   2.0000      -0.536659       -14.6032
 164   2.0000      -0.535230       -14.5643
 165   2.0000      -0.534570       -14.5464
 166   2.0000      -0.533009       -14.5039
 167   2.0000      -0.527262       -14.3475
 168   2.0000      -0.525165       -14.2905
 169   2.0000      -0.521254       -14.1841
 170   2.0000      -0.520410       -14.1611
 171   2.0000      -0.519380       -14.1330
 172   2.0000      -0.516499       -14.0547
 173   2.0000      -0.513721       -13.9791
 174   2.0000      -0.509620       -13.8675
 175   2.0000      -0.509200       -13.8560
 176   2.0000      -0.507779       -13.8174
 177   2.0000      -0.502677       -13.6785
 178   2.0000      -0.501662       -13.6509
 179   2.0000      -0.500621       -13.6226
 180   2.0000      -0.492738       -13.4081
 181   2.0000      -0.492114       -13.3911
 182   2.0000      -0.491173       -13.3655
 183   2.0000      -0.488157       -13.2834
 184   2.0000      -0.487690       -13.2707
 185   2.0000      -0.485809       -13.2195
 186   2.0000      -0.481233       -13.0950
 187   2.0000      -0.479818       -13.0565
 188   2.0000      -0.471547       -12.8314
 189   2.0000      -0.469784       -12.7835
 190   2.0000      -0.468363       -12.7448
 191   2.0000      -0.461385       -12.5549
 192   2.0000      -0.459225       -12.4962
 193   2.0000      -0.456300       -12.4166
 194   2.0000      -0.454127       -12.3574
 195   2.0000      -0.453393       -12.3375
 196   2.0000      -0.451375       -12.2825
 197   2.0000      -0.450080       -12.2473
 198   2.0000      -0.449245       -12.2246
 199   2.0000      -0.445383       -12.1195
 200   2.0000      -0.444226       -12.0880
 201   2.0000      -0.441811       -12.0223
 202   2.0000      -0.440715       -11.9925
 203   2.0000      -0.439165       -11.9503
 204   2.0000      -0.436849       -11.8873
 205   2.0000      -0.434349       -11.8192
 206   2.0000      -0.433663       -11.8006
 207   2.0000      -0.431130       -11.7316
 208   2.0000      -0.429688       -11.6924
 209   2.0000      -0.428032       -11.6474
 210   2.0000      -0.424423       -11.5491
 211   2.0000      -0.422203       -11.4887
 212   2.0000      -0.417453       -11.3595
 213   2.0000      -0.414032       -11.2664
 214   2.0000      -0.413623       -11.2553
 215   2.0000      -0.407155       -11.0793
 216   2.0000      -0.406210       -11.0535
 217   2.0000      -0.398697       -10.8491
 218   2.0000      -0.397991       -10.8299
 219   2.0000      -0.397065       -10.8047
 220   2.0000      -0.383651       -10.4397
 221   2.0000      -0.375577       -10.2200
 222   2.0000      -0.371781       -10.1167
 223   2.0000      -0.360960        -9.8222
 224   2.0000      -0.355863        -9.6835
 225   2.0000      -0.354391        -9.6435
 226   2.0000      -0.348248        -9.4763
 227   2.0000      -0.340976        -9.2784
 228   2.0000      -0.340118        -9.2551
 229   2.0000      -0.336168        -9.1476
 230   2.0000      -0.331125        -9.0104
 231   2.0000      -0.327493        -8.9115
 232   2.0000      -0.316585        -8.6147
 233   2.0000      -0.310663        -8.4536
 234   2.0000      -0.297955        -8.1078
 235   2.0000      -0.287676        -7.8281
 236   2.0000      -0.254762        -6.9324
 237   0.0000      -0.134341        -3.6556
 238   0.0000      -0.112978        -3.0743
 239   0.0000      -0.078980        -2.1492
 240   0.0000      -0.068167        -1.8549
 241   0.0000      -0.052470        -1.4278

MULLIKEN ATOMIC CHARGES
-----------------------
   0 C :    0.031158
   1 C :   -0.130930
   2 S :    0.183509
   3 C :   -0.170719
   4 Cl:    0.002416
   5 C :    0.076764
   6 C :    0.149294
   7 O :   -0.127872
   8 C :   -0.089561
   9 C :    0.293890
  10 C :   -0.331003
  11 C :   -0.193845
  12 N :    0.152042
  13 C :   -0.191481
  14 N :    0.161167
  15 C :   -0.029821
  16 C :    0.086125
  17 C :   -0.046129
  18 C :    0.072817
  19 C :   -0.094707
  20 C :   -0.004878
  21 C :   -0.175052
  22 N :    0.123995
  23 C :    0.142170
  24 C :   -0.145358
  25 C :    0.156898
  26 C :   -0.028920
  27 C :   -0.091969
  28 C :   -0.170844
  29 N :    0.144730
  30 C :    0.038294
  31 N :   -0.017693
  32 C :    0.043519
  33 C :   -0.023580
  34 C :   -0.016102
  35 C :    0.022962
  36 C :    0.046268
  37 O :   -0.238046
  38 N :   -0.061192
  39 C :    0.024785
  40 C :   -0.121365
  41 S :    0.169520
  42 C :   -0.054688
  43 C :   -0.059155
  44 C :    0.011098
  45 C :   -0.158264
  46 N :    0.122062
  47 C :    0.055804
  48 C :    0.004375
  49 C :    0.020692
  50 C :   -0.115220
  51 C :    0.140663
  52 O :   -0.126949
  53 C :    0.081720
  54 C :   -0.171578
  55 S :    0.185965
  56 C :   -0.125677
  57 C :    0.023476
  58 C :    0.265491
  59 C :   -0.298143
  60 C :   -0.185084
  61 N :    0.155547
  62 C :   -0.199132
  63 N :    0.164443
  64 Cl:    0.000528
  65 H :    0.053459
  66 H :    0.018800
  67 H :    0.020255
  68 H :    0.004234
  69 H :   -0.003547
  70 H :    0.004716
  71 H :    0.147341
  72 H :   -0.016350
  73 H :   -0.004548
  74 H :    0.140039
  75 H :    0.143315
  76 H :    0.000999
  77 H :    0.020796
  78 H :   -0.000364
  79 H :    0.036133
  80 H :    0.020911
  81 H :    0.054581
Sum of atomic charges:   -0.0000000

LOEWDIN ATOMIC CHARGES
----------------------
   0 C :   -0.060020
   1 C :   -0.149358
   2 S :    0.473482
   3 C :   -0.271689
   4 Cl:    0.193931
   5 C :   -0.115624
   6 C :    0.081757
   7 O :   -0.122445
   8 C :   -0.082055
   9 C :    0.074545
  10 C :   -0.138512
  11 C :   -0.015113
  12 N :   -0.053433
  13 C :   -0.025016
  14 N :   -0.048058
  15 C :    0.071332
  16 C :   -0.050334
  17 C :    0.044837
  18 C :    0.011996
  19 C :   -0.092702
  20 C :    0.053891
  21 C :   -0.027906
  22 N :   -0.072454
  23 C :    0.059214
  24 C :   -0.051542
  25 C :    0.002865
  26 C :    0.045221
  27 C :   -0.061127
  28 C :   -0.032429
  29 N :   -0.047364
  30 C :   -0.012362
  31 N :    0.114063
  32 C :    0.007055
  33 C :   -0.049527
  34 C :   -0.021681
  35 C :   -0.051521
  36 C :    0.071432
  37 O :   -0.214227
  38 N :    0.023799
  39 C :   -0.035092
  40 C :   -0.176787
  41 S :    0.475516
  42 C :   -0.142643
  43 C :   -0.089176
  44 C :   -0.022655
  45 C :   -0.022935
  46 N :   -0.047236
  47 C :   -0.004837
  48 C :   -0.009300
  49 C :    0.061517
  50 C :   -0.075594
  51 C :    0.079233
  52 O :   -0.132730
  53 C :   -0.118839
  54 C :   -0.272166
  55 S :    0.475333
  56 C :   -0.150025
  57 C :   -0.056534
  58 C :    0.066710
  59 C :   -0.124805
  60 C :   -0.013242
  61 N :   -0.043884
  62 C :   -0.019626
  63 N :   -0.046946
  64 Cl:    0.192239
  65 H :    0.037442
  66 H :    0.047247
  67 H :    0.036186
  68 H :    0.038839
  69 H :    0.033746
  70 H :    0.036833
  71 H :    0.084058
  72 H :    0.027920
  73 H :    0.036319
  74 H :    0.083776
  75 H :    0.088215
  76 H :    0.036936
  77 H :    0.043269
  78 H :    0.036908
  79 H :    0.039019
  80 H :    0.046476
  81 H :    0.038392

  Mayer bond orders larger than 0.100000
B(  0-C ,  1-C ) :   1.5433 B(  0-C ,  5-C ) :   1.2213 B(  0-C ,  9-C ) :   0.9983
B(  1-C ,  2-S ) :   1.1617 B(  1-C , 65-H ) :   0.9543 B(  2-S ,  3-C ) :   1.1481
B(  3-C ,  4-Cl) :   1.1303 B(  3-C ,  5-C ) :   1.4800 B(  5-C ,  6-C ) :   0.9483
B(  6-C ,  7-O ) :   2.2306 B(  6-C ,  8-C ) :   0.9292 B(  8-C ,  9-C ) :   1.0711
B(  8-C , 15-C ) :   1.6040 B(  9-C , 10-C ) :   1.6461 B( 10-C , 11-C ) :   1.1466
B( 10-C , 13-C ) :   1.1380 B( 11-C , 12-N ) :   2.9899 B( 13-C , 14-N ) :   2.9809
B( 15-C , 16-C ) :   1.1255 B( 15-C , 66-H ) :   0.9430 B( 16-C , 17-C ) :   1.5078
B( 16-C , 20-C ) :   1.0499 B( 17-C , 18-C ) :   1.1340 B( 17-C , 67-H ) :   0.9869
B( 18-C , 19-C ) :   1.1245 B( 18-C , 23-C ) :   1.3683 B( 19-C , 20-C ) :   1.6421
B( 19-C , 21-C ) :   1.0876 B( 20-C , 68-H ) :   1.0239 B( 21-C , 22-N ) :   2.9664
B( 23-C , 24-C ) :   1.1685 B( 23-C , 27-C ) :   1.0819 B( 24-C , 25-C ) :   1.5320
B( 24-C , 69-H ) :   1.0019 B( 25-C , 26-C ) :   1.0062 B( 25-C , 30-C ) :   1.0504
B( 26-C , 27-C ) :   1.7232 B( 26-C , 70-H ) :   1.0172 B( 27-C , 28-C ) :   1.0791
B( 28-C , 29-N ) :   2.9681 B( 30-C , 31-N ) :   1.2539 B( 30-C , 32-C ) :   0.1150
B( 30-C , 34-C ) :   1.3535 B( 31-N , 32-C ) :   1.2802 B( 31-N , 71-H ) :   0.8785
B( 32-C , 33-C ) :   1.3481 B( 32-C , 35-C ) :   1.0830 B( 33-C , 34-C ) :   1.3961
B( 33-C , 72-H ) :   0.9994 B( 34-C , 73-H ) :   1.0086 B( 35-C , 36-C ) :   0.8596
B( 35-C , 39-C ) :   1.7324 B( 36-C , 37-O ) :   2.0507 B( 36-C , 38-N ) :   1.3027
B( 38-N , 74-H ) :   0.9394 B( 38-N , 75-H ) :   0.9387 B( 39-C , 40-C ) :   1.0903
B( 39-C , 76-H ) :   0.9496 B( 40-C , 41-S ) :   1.1316 B( 40-C , 44-C ) :   1.4599
B( 41-S , 42-C ) :   1.1338 B( 42-C , 43-C ) :   1.4334 B( 42-C , 47-C ) :   1.1432
B( 43-C , 44-C ) :   1.3202 B( 43-C , 45-C ) :   1.1151 B( 44-C , 77-H ) :   0.9940
B( 45-C , 46-N ) :   2.9491 B( 47-C , 48-C ) :   1.6690 B( 47-C , 78-H ) :   0.9562
B( 48-C , 49-C ) :   1.1306 B( 48-C , 79-H ) :   0.9402 B( 49-C , 50-C ) :   1.6357
B( 49-C , 80-H ) :   0.9620 B( 50-C , 51-C ) :   0.9329 B( 50-C , 58-C ) :   1.0406
B( 51-C , 52-O ) :   2.2839 B( 51-C , 53-C ) :   0.9276 B( 53-C , 54-C ) :   1.4841
B( 53-C , 57-C ) :   1.2203 B( 54-C , 55-S ) :   1.1528 B( 54-C , 64-Cl) :   1.1290
B( 55-S , 56-C ) :   1.1572 B( 56-C , 57-C ) :   1.5532 B( 56-C , 81-H ) :   0.9563
B( 57-C , 58-C ) :   1.0109 B( 58-C , 59-C ) :   1.6608 B( 59-C , 60-C ) :   1.1390
B( 59-C , 62-C ) :   1.1550 B( 60-C , 61-N ) :   2.9974 B( 62-C , 63-N ) :   2.9862

-----------------------------------------------------------------------------
         ABSORPTION SPECTRUM VIA TRANSITION ELECTRIC DIPOLE MOMENTS
-----------------------------------------------------------------------------
State   Energy  Wavelength   fosc         T2         TX        TY        TZ
        (cm-1)    (nm)                  (au**2)     (au)      (au)      (au)
-----------------------------------------------------------------------------
   0   11200.7    892.8   1.161022688  34.12484   1.96265  -5.46863   0.60576
   1   16385.8    610.3   0.006997376   0.14059   0.11054  -0.32552   0.14969
   2   18051.8    554.0   0.849515058  15.49265  -1.41554   3.46571  -1.21562
   3   21882.8    457.0   0.349639601   5.26009   0.99240  -2.06764   0.01076
   4   23640.3    423.0   0.066292844   0.92319   0.35098  -0.87990  -0.16055
   5   23771.7    420.7   0.040896992   0.56638  -0.44071   0.51635   0.32487
   6   24659.1    405.5   0.130528237   1.74262   0.02089   0.97228   0.89266
   7   25727.9    388.7   0.186290178   2.38376  -0.98130   1.10110   0.45649
   8   26170.6    382.1   0.027082061   0.34068   0.24463  -0.51012   0.14357
   9   26477.5    377.7   0.018033937   0.22423  -0.03801  -0.01279  -0.47183
  10   27577.4    362.6   0.297186438   3.54773   0.53304  -1.70941   0.58438
  11   27959.9    357.7   0.006357232   0.07485   0.00259  -0.08595   0.25973
  12   28015.8    356.9   0.236741119   2.78193  -0.49922   1.57921  -0.19695
  13   28764.9    347.6   0.027402328   0.31362  -0.40880   0.38264  -0.00964
  14   30394.5    329.0   0.027875767   0.30193   0.20075  -0.48063   0.17499
  15   30787.2    324.8   0.012186106   0.13031  -0.04152   0.35613  -0.04194
  16   30954.8    323.1   0.037407084   0.39783  -0.04063  -0.61734   0.12277
  17   31048.0    322.1   0.035719220   0.37874  -0.12678  -0.13980  -0.58577
  18   31296.4    319.5   0.018120652   0.19061  -0.09594  -0.24871  -0.34577
  19   31848.2    314.0   0.181200748   1.87306  -0.20045   1.25035   0.51913
  20   33464.9    298.8   0.060064757   0.59089   0.05287  -0.05693   0.76476
  21   33648.6    297.2   0.016946261   0.16580   0.18065   0.33030  -0.15514
  22   33908.7    294.9   0.133832303   1.29935  -0.04592   0.37101   1.07684
  23   34325.1    291.3   0.068473739   0.65673   0.16930  -0.46148  -0.64429
  24   34879.9    286.7   0.015376058   0.14513   0.05358  -0.08486  -0.36750
  25   35104.7    284.9   0.077188041   0.72387   0.02781   0.80154  -0.28396
  26   35256.7    283.6   0.045409214   0.42401   0.16424  -0.47468  -0.41439
  27   35493.4    281.7   0.051459564   0.47730   0.06029  -0.33745  -0.59983
  28   35757.4    279.7   0.007566310   0.06966  -0.07472  -0.22412  -0.11768
  29   35980.5    277.9   0.027293826   0.24973   0.21630   0.18194  -0.41212
  30   36295.1    275.5   0.023202840   0.21046   0.05973   0.43347  -0.13784
  31   36331.6    275.2   0.181695162   1.64640   0.21195  -0.93517   0.85260
  32   36968.4    270.5   0.141547696   1.26051  -0.18791   0.56007   0.95473
  33   37013.4    270.2   0.006998352   0.06225   0.22248   0.05812   0.09680
  34   37431.7    267.2   0.024263536   0.21340  -0.17856   0.39036  -0.17069
  35   37701.6    265.2   0.156801565   1.36920  -0.03642  -1.14489   0.23895
  36   37796.9    264.6   0.266129913   2.31800  -0.09825  -1.51011   0.16711
  37   38315.6    261.0   0.058184154   0.49992   0.55588  -0.40306  -0.16871
  38   38399.4    260.4   0.268177507   2.29918  -0.48326  -0.30603  -1.40427
  39   38547.4    259.4   0.071430131   0.61004   0.02207  -0.70869   0.32759
  40   38821.7    257.6   0.171350375   1.45307  -0.31932   1.14913   0.17493
  41   38872.8    257.2   0.116693776   0.98827  -0.03401   0.32645   0.93838
  42   38911.7    257.0   0.095676242   0.80947   0.27040  -0.43137   0.74180
  43   39134.0    255.5   0.012145513   0.10217  -0.23179   0.21711  -0.03623
  44   39726.5    251.7   0.024971984   0.20694  -0.09127   0.14330  -0.42199
  45   39869.6    250.8   0.007352223   0.06071  -0.11831  -0.15280   0.15285
  46   40040.7    249.7   0.165307048   1.35914   0.28850  -0.66644   0.91201

FINAL SINGLE POINT ENERGY     -4668.662993388218

DIPOLE MOMENT
-------------
                                X             Y             Z
Electronic contribution:      2.30543      -8.87929      23.68956
Nuclear contribution   :     -1.84372       4.99826     -23.96642
                        -----------------------------------------
Total Dipole Moment    :      0.46171      -3.88103      -0.27685
                        -----------------------------------------
Magnitude (a.u.)       :      3.91819
Magnitude (Debye)      :      9.95925

Rotational constants in cm-1:     0.003132     0.000182     0.000175
Rotational constants in MHz :    93.891825     5.470285     5.241537

                             ****ORCA TERMINATED NORMALLY****
TOTAL RUN TIME: 0 days 0 hours 8 minutes 27 seconds 537 msec
