                         Program Version 4.2.0 -  RELEASE  -
|  1> # ORCA input file
|  2> # SCF done       -146.527783889159          0.000481772523
|  3> ! CAM-B3LYP def2-SVP def2/J RIJCOSX Grid4 TightSCF
|  4> %maxcore 5000
|  5> %tddft
|  6>     Mode sTDDFT
|  7>     Ethresh 5.0
|  8>     maxcore 5000
|  9> end
| 10>
| 11> %pal
| 12>   nprocs 6
| 13>   end
| 14> * xyz 0 1
| 15>    C        2.46750         2.14790         3.09575
| 16>    C        2.02284         3.24306         3.76998
| 17>    S        2.54133         3.21567         5.41534
| 18>    C        3.37680         1.69619         5.19653
| 19>   Cl        4.20561         0.95038         6.47074
| 20>    C        3.24205         1.26028         3.91126
| 21>    C        3.67895         0.10494         3.12409
| 22>    O        4.36165        -0.82548         3.48758
| 23>    C        3.14453         0.36266         1.74714
| 24>    C        2.37870         1.60437         1.75679
| 25>    C        1.66233         2.15890         0.73188
| 26>    C        0.95465         3.36844         0.90195
| 27>    N        0.37876         4.35282         1.02381
| 28>    C        1.53015         1.61731        -0.56265
| 29>    N        1.38082         1.22079        -1.62933
| 30>    C        3.47709        -0.35968         0.64955
| 31>    C        4.20775        -1.59717         0.66339
| 32>    C        3.96152        -2.64168         1.56761
| 33>    N        4.68543        -3.73449         1.59808
| 34>    C        5.67191        -3.85719         0.70256
| 35>    N        5.93059        -2.95965        -0.25572
| 36>    C        5.22256        -1.86063        -0.27292
| 37>    C        6.50620        -5.01783         0.71938
| 38>    S        7.79507        -5.08362        -0.43111
| 39>    C        8.26937        -6.65502         0.15068
| 40>    C        7.46160        -7.08440         1.19043
| 41>    C        6.45285        -6.15363         1.50941
| 42>    C        5.45962        -6.38977         2.58945
| 43>    S        5.95460        -5.39197         4.07876
| 44>    C        5.39587        -7.86216         2.96953
| 45>    C        6.80150        -8.40286         3.20137
| 46>    C        7.59973        -8.39110         1.89918
| 47>    C        9.34830        -7.32191        -0.49768
| 48>    S        9.72885        -8.99558        -0.25392
| 49>    C       10.99813        -8.93261        -1.42287
| 50>    C       11.77932       -10.10119        -1.74283
| 51>    O       12.62821       -10.14707        -2.60162
| 52>    C       11.10394        -7.66550        -1.99562
| 53>    C       10.17154        -6.76594        -1.45317
| 54>    C       12.08703        -7.32444        -2.98857
| 55>    C       11.93241        -6.46930        -4.02220
| 56>    C       13.14824        -5.94338        -4.73051
| 57>    O       14.27493        -6.35585        -4.62501
| 58>    C       12.64980        -4.79692        -5.49995
| 59>    C       13.17660        -3.81877        -6.28956
| 60>    S       11.91533        -2.75677        -6.87109
| 61>    C       10.69158        -3.65299        -6.04945
| 62>    C       11.22519        -4.70076        -5.36508
| 63>    C       10.74888        -5.80596        -4.55608
| 64>    C        9.44580        -6.21672        -4.49799
| 65>    C        8.41369        -5.46540        -5.10091
| 66>    N        7.56201        -4.85610        -5.56874
| 67>    C        8.98613        -7.41987        -3.92586
| 68>    N        8.54179        -8.40307        -3.53440
| 69>   Cl       14.79841        -3.57642        -6.71165
| 70>    H        1.43173         4.06500         3.41765
| 71>    H        3.22537         0.02322        -0.33204
| 72>    H        3.12676        -2.60745         2.25380
| 73>    H        5.47856        -1.13825        -1.03748
| 74>    H        4.48118        -6.00037         2.30434
| 75>    H        5.45775        -4.25149         3.61203
| 76>    H        4.91109        -8.41638         2.16172
| 77>    H        4.79435        -7.97283         3.87236
| 78>    H        7.29893        -7.77671         3.94447
| 79>    H        6.75638        -9.42001         3.59097
| 80>    H        7.24222        -9.18684         1.23664
| 81>    H        8.65329        -8.59418         2.10617
| 82>    H       11.53907       -10.97974        -1.11542
| 83>    H       10.11438        -5.72590        -1.72365
| 84>    H       13.06993        -7.76965        -2.87410
| 85>    H        9.66943        -3.33838        -6.12224
| 86> *
| 87>
| 88>                          ****END OF INPUT****

CARTESIAN COORDINATES (ANGSTROEM)
---------------------------------
  C      2.467500    2.147900    3.095750
  C      2.022840    3.243060    3.769980
  S      2.541330    3.215670    5.415340
  C      3.376800    1.696190    5.196530
  Cl     4.205610    0.950380    6.470740
  C      3.242050    1.260280    3.911260
  C      3.678950    0.104940    3.124090
  O      4.361650   -0.825480    3.487580
  C      3.144530    0.362660    1.747140
  C      2.378700    1.604370    1.756790
  C      1.662330    2.158900    0.731880
  C      0.954650    3.368440    0.901950
  N      0.378760    4.352820    1.023810
  C      1.530150    1.617310   -0.562650
  N      1.380820    1.220790   -1.629330
  C      3.477090   -0.359680    0.649550
  C      4.207750   -1.597170    0.663390
  C      3.961520   -2.641680    1.567610
  N      4.685430   -3.734490    1.598080
  C      5.671910   -3.857190    0.702560
  N      5.930590   -2.959650   -0.255720
  C      5.222560   -1.860630   -0.272920
  C      6.506200   -5.017830    0.719380
  S      7.795070   -5.083620   -0.431110
  C      8.269370   -6.655020    0.150680
  C      7.461600   -7.084400    1.190430
  C      6.452850   -6.153630    1.509410
  C      5.459620   -6.389770    2.589450
  S      5.954600   -5.391970    4.078760
  C      5.395870   -7.862160    2.969530
  C      6.801500   -8.402860    3.201370
  C      7.599730   -8.391100    1.899180
  C      9.348300   -7.321910   -0.497680
  S      9.728850   -8.995580   -0.253920
  C     10.998130   -8.932610   -1.422870
  C     11.779320  -10.101190   -1.742830
  O     12.628210  -10.147070   -2.601620
  C     11.103940   -7.665500   -1.995620
  C     10.171540   -6.765940   -1.453170
  C     12.087030   -7.324440   -2.988570
  C     11.932410   -6.469300   -4.022200
  C     13.148240   -5.943380   -4.730510
  O     14.274930   -6.355850   -4.625010
  C     12.649800   -4.796920   -5.499950
  C     13.176600   -3.818770   -6.289560
  S     11.915330   -2.756770   -6.871090
  C     10.691580   -3.652990   -6.049450
  C     11.225190   -4.700760   -5.365080
  C     10.748880   -5.805960   -4.556080
  C      9.445800   -6.216720   -4.497990
  C      8.413690   -5.465400   -5.100910
  N      7.562010   -4.856100   -5.568740
  C      8.986130   -7.419870   -3.925860
  N      8.541790   -8.403070   -3.534400
  Cl    14.798410   -3.576420   -6.711650
  H      1.431730    4.065000    3.417650
  H      3.225370    0.023220   -0.332040
  H      3.126760   -2.607450    2.253800
  H      5.478560   -1.138250   -1.037480
  H      4.481180   -6.000370    2.304340
  H      5.457750   -4.251490    3.612030
  H      4.911090   -8.416380    2.161720
  H      4.794350   -7.972830    3.872360
  H      7.298930   -7.776710    3.944470
  H      6.756380   -9.420010    3.590970
  H      7.242220   -9.186840    1.236640
  H      8.653290   -8.594180    2.106170
  H     11.539070  -10.979740   -1.115420
  H     10.114380   -5.725900   -1.723650
  H     13.069930   -7.769650   -2.874100
  H      9.669430   -3.338380   -6.122240

 Total Charge           Charge          ....    0
 Multiplicity           Mult            ....    1
 Number of Electrons    NEL             ....  430
 Basis Dimension        Dim             ....  878

ORBITAL ENERGIES
----------------

  NO   OCC          E(Eh)            E(eV)
   0   2.0000    -101.626336     -2765.3932
   1   2.0000    -101.616750     -2765.1324
   2   2.0000     -89.003609     -2421.9113
   3   2.0000     -88.993768     -2421.6435
   4   2.0000     -88.982956     -2421.3493
   5   2.0000     -88.963772     -2420.8273
   6   2.0000     -88.899036     -2419.0658
   7   2.0000     -19.234720      -523.4033
   8   2.0000     -19.218313      -522.9569
   9   2.0000     -19.216758      -522.9146
  10   2.0000     -14.430974      -392.6868
  11   2.0000     -14.429578      -392.6488
  12   2.0000     -14.429424      -392.6446
  13   2.0000     -14.426617      -392.5682
  14   2.0000     -14.421548      -392.4303
  15   2.0000     -14.418018      -392.3342
  16   2.0000     -10.391774      -282.7745
  17   2.0000     -10.386590      -282.6335
  18   2.0000     -10.375902      -282.3427
  19   2.0000     -10.374620      -282.3078
  20   2.0000     -10.368212      -282.1334
  21   2.0000     -10.365695      -282.0649
  22   2.0000     -10.359739      -281.9028
  23   2.0000     -10.359147      -281.8867
  24   2.0000     -10.350771      -281.6588
  25   2.0000     -10.350163      -281.6423
  26   2.0000     -10.344528      -281.4889
  27   2.0000     -10.343527      -281.4617
  28   2.0000     -10.339493      -281.3519
  29   2.0000     -10.336410      -281.2680
  30   2.0000     -10.332689      -281.1668
  31   2.0000     -10.332159      -281.1523
  32   2.0000     -10.331250      -281.1276
  33   2.0000     -10.329740      -281.0865
  34   2.0000     -10.323263      -280.9103
  35   2.0000     -10.323052      -280.9045
  36   2.0000     -10.321066      -280.8505
  37   2.0000     -10.320435      -280.8333
  38   2.0000     -10.319363      -280.8042
  39   2.0000     -10.317055      -280.7413
  40   2.0000     -10.313705      -280.6502
  41   2.0000     -10.311616      -280.5933
  42   2.0000     -10.310734      -280.5693
  43   2.0000     -10.310484      -280.5625
  44   2.0000     -10.310057      -280.5509
  45   2.0000     -10.305611      -280.4299
  46   2.0000     -10.303722      -280.3785
  47   2.0000     -10.300130      -280.2808
  48   2.0000     -10.298518      -280.2369
  49   2.0000     -10.294724      -280.1337
  50   2.0000     -10.292922      -280.0846
  51   2.0000     -10.289891      -280.0022
  52   2.0000     -10.278875      -279.7024
  53   2.0000     -10.269111      -279.4367
  54   2.0000     -10.267387      -279.3898
  55   2.0000      -9.581114      -260.7154
  56   2.0000      -9.571557      -260.4553
  57   2.0000      -8.099351      -220.3945
  58   2.0000      -8.089471      -220.1257
  59   2.0000      -8.077560      -219.8016
  60   2.0000      -8.058370      -219.2794
  61   2.0000      -7.994349      -217.5373
  62   2.0000      -7.351774      -200.0519
  63   2.0000      -7.342197      -199.7913
  64   2.0000      -7.341151      -199.7629
  65   2.0000      -7.340570      -199.7471
  66   2.0000      -7.331592      -199.5028
  67   2.0000      -7.331041      -199.4878
  68   2.0000      -6.068705      -165.1379
  69   2.0000      -6.064086      -165.0122
  70   2.0000      -6.061635      -164.9455
  71   2.0000      -6.058818      -164.8688
  72   2.0000      -6.054266      -164.7450
  73   2.0000      -6.051739      -164.6762
  74   2.0000      -6.046697      -164.5390
  75   2.0000      -6.042460      -164.4237
  76   2.0000      -6.040194      -164.3620
  77   2.0000      -6.027722      -164.0227
  78   2.0000      -6.023541      -163.9089
  79   2.0000      -6.020494      -163.8260
  80   2.0000      -5.964688      -162.3074
  81   2.0000      -5.960838      -162.2026
  82   2.0000      -5.954171      -162.0212
  83   2.0000      -1.151868       -31.3439
  84   2.0000      -1.136064       -30.9139
  85   2.0000      -1.130059       -30.7505
  86   2.0000      -1.104607       -30.0579
  87   2.0000      -1.048487       -28.5308
  88   2.0000      -1.038344       -28.2548
  89   2.0000      -1.027528       -27.9604
  90   2.0000      -1.020030       -27.7564
  91   2.0000      -1.013404       -27.5761
  92   2.0000      -1.008714       -27.4485
  93   2.0000      -0.999603       -27.2006
  94   2.0000      -0.998949       -27.1828
  95   2.0000      -0.998298       -27.1651
  96   2.0000      -0.992754       -27.0142
  97   2.0000      -0.987457       -26.8701
  98   2.0000      -0.966439       -26.2982
  99   2.0000      -0.954512       -25.9736
 100   2.0000      -0.940770       -25.5997
 101   2.0000      -0.928792       -25.2737
 102   2.0000      -0.916462       -24.9382
 103   2.0000      -0.912083       -24.8190
 104   2.0000      -0.901845       -24.5405
 105   2.0000      -0.889932       -24.2163
 106   2.0000      -0.865968       -23.5642
 107   2.0000      -0.864826       -23.5331
 108   2.0000      -0.843116       -22.9423
 109   2.0000      -0.842567       -22.9274
 110   2.0000      -0.833453       -22.6794
 111   2.0000      -0.832155       -22.6441
 112   2.0000      -0.822213       -22.3736
 113   2.0000      -0.795236       -21.6395
 114   2.0000      -0.780970       -21.2513
 115   2.0000      -0.776846       -21.1391
 116   2.0000      -0.768586       -20.9143
 117   2.0000      -0.763472       -20.7751
 118   2.0000      -0.754732       -20.5373
 119   2.0000      -0.753751       -20.5106
 120   2.0000      -0.730364       -19.8742
 121   2.0000      -0.709683       -19.3115
 122   2.0000      -0.705664       -19.2021
 123   2.0000      -0.699402       -19.0317
 124   2.0000      -0.690365       -18.7858
 125   2.0000      -0.687307       -18.7026
 126   2.0000      -0.678720       -18.4689
 127   2.0000      -0.676532       -18.4094
 128   2.0000      -0.673988       -18.3401
 129   2.0000      -0.663075       -18.0432
 130   2.0000      -0.639659       -17.4060
 131   2.0000      -0.634047       -17.2533
 132   2.0000      -0.628207       -17.0944
 133   2.0000      -0.624033       -16.9808
 134   2.0000      -0.619912       -16.8687
 135   2.0000      -0.616728       -16.7820
 136   2.0000      -0.611414       -16.6374
 137   2.0000      -0.606936       -16.5156
 138   2.0000      -0.589077       -16.0296
 139   2.0000      -0.587266       -15.9803
 140   2.0000      -0.578539       -15.7429
 141   2.0000      -0.565442       -15.3865
 142   2.0000      -0.562970       -15.3192
 143   2.0000      -0.557903       -15.1813
 144   2.0000      -0.554793       -15.0967
 145   2.0000      -0.550272       -14.9737
 146   2.0000      -0.548384       -14.9223
 147   2.0000      -0.543856       -14.7991
 148   2.0000      -0.537706       -14.6317
 149   2.0000      -0.537396       -14.6233
 150   2.0000      -0.536089       -14.5877
 151   2.0000      -0.530601       -14.4384
 152   2.0000      -0.525634       -14.3032
 153   2.0000      -0.525370       -14.2960
 154   2.0000      -0.523888       -14.2557
 155   2.0000      -0.522009       -14.2046
 156   2.0000      -0.517776       -14.0894
 157   2.0000      -0.515565       -14.0292
 158   2.0000      -0.514771       -14.0076
 159   2.0000      -0.512486       -13.9455
 160   2.0000      -0.506335       -13.7781
 161   2.0000      -0.505355       -13.7514
 162   2.0000      -0.502971       -13.6865
 163   2.0000      -0.498616       -13.5680
 164   2.0000      -0.497295       -13.5321
 165   2.0000      -0.493475       -13.4281
 166   2.0000      -0.491317       -13.3694
 167   2.0000      -0.486915       -13.2496
 168   2.0000      -0.483488       -13.1564
 169   2.0000      -0.475186       -12.9305
 170   2.0000      -0.467546       -12.7226
 171   2.0000      -0.465928       -12.6786
 172   2.0000      -0.465727       -12.6731
 173   2.0000      -0.462284       -12.5794
 174   2.0000      -0.456887       -12.4325
 175   2.0000      -0.455974       -12.4077
 176   2.0000      -0.454771       -12.3750
 177   2.0000      -0.453870       -12.3504
 178   2.0000      -0.451695       -12.2912
 179   2.0000      -0.446584       -12.1522
 180   2.0000      -0.443932       -12.0800
 181   2.0000      -0.442769       -12.0484
 182   2.0000      -0.441928       -12.0255
 183   2.0000      -0.440913       -11.9978
 184   2.0000      -0.435057       -11.8385
 185   2.0000      -0.434036       -11.8107
 186   2.0000      -0.429128       -11.6772
 187   2.0000      -0.427785       -11.6406
 188   2.0000      -0.426991       -11.6190
 189   2.0000      -0.421434       -11.4678
 190   2.0000      -0.419278       -11.4091
 191   2.0000      -0.414341       -11.2748
 192   2.0000      -0.412614       -11.2278
 193   2.0000      -0.411270       -11.1912
 194   2.0000      -0.408683       -11.1208
 195   2.0000      -0.402851       -10.9621
 196   2.0000      -0.400423       -10.8961
 197   2.0000      -0.399350       -10.8669
 198   2.0000      -0.386427       -10.5152
 199   2.0000      -0.381356       -10.3772
 200   2.0000      -0.374273       -10.1845
 201   2.0000      -0.363673        -9.8961
 202   2.0000      -0.354190        -9.6380
 203   2.0000      -0.346801        -9.4369
 204   2.0000      -0.342992        -9.3333
 205   2.0000      -0.337849        -9.1933
 206   2.0000      -0.336922        -9.1681
 207   2.0000      -0.334570        -9.1041
 208   2.0000      -0.330933        -9.0052
 209   2.0000      -0.322694        -8.7810
 210   2.0000      -0.318821        -8.6756
 211   2.0000      -0.315393        -8.5823
 212   2.0000      -0.305156        -8.3037
 213   2.0000      -0.288906        -7.8615
 214   2.0000      -0.269037        -7.3209
 215   0.0000      -0.106778        -2.9056
 216   0.0000      -0.094152        -2.5620
 217   0.0000      -0.068846        -1.8734
 218   0.0000      -0.059184        -1.6105
 219   0.0000      -0.046235        -1.2581

MULLIKEN ATOMIC CHARGES
-----------------------
   0 C :    0.030961
   1 C :   -0.128994
   2 S :    0.195348
   3 C :   -0.167420
   4 Cl:    0.007164
   5 C :    0.072495
   6 C :    0.146245
   7 O :   -0.130874
   8 C :   -0.100752
   9 C :    0.290409
  10 C :   -0.319547
  11 C :   -0.194623
  12 N :    0.162128
  13 C :   -0.194609
  14 N :    0.170659
  15 C :   -0.014735
  16 C :   -0.029438
  17 C :    0.130944
  18 N :   -0.102774
  19 C :   -0.054801
  20 N :   -0.066571
  21 C :    0.062531
  22 C :   -0.056827
  23 S :    0.173812
  24 C :   -0.060388
  25 C :   -0.107794
  26 C :    0.053266
  27 C :   -0.183754
  28 S :   -0.070863
  29 C :    0.092252
  30 C :    0.035237
  31 C :    0.095312
  32 C :   -0.059912
  33 S :    0.163782
  34 C :   -0.141111
  35 C :    0.181535
  36 O :   -0.184751
  37 C :    0.080191
  38 C :   -0.050356
  39 C :    0.043448
  40 C :   -0.131936
  41 C :    0.133118
  42 O :   -0.117223
  43 C :    0.086559
  44 C :   -0.171565
  45 S :    0.186446
  46 C :   -0.130219
  47 C :    0.013981
  48 C :    0.275482
  49 C :   -0.339975
  50 C :   -0.191744
  51 N :    0.159454
  52 C :   -0.172825
  53 N :    0.175674
  54 Cl:    0.001950
  55 H :    0.056638
  56 H :    0.040295
  57 H :    0.011563
  58 H :    0.014586
  59 H :    0.050035
  60 H :    0.081146
  61 H :    0.012563
  62 H :    0.013586
  63 H :    0.021581
  64 H :    0.004773
  65 H :    0.026954
  66 H :    0.022583
  67 H :   -0.014675
  68 H :    0.013795
  69 H :    0.046970
  70 H :    0.053607
Sum of atomic charges:   -0.0000000

LOEWDIN ATOMIC CHARGES
----------------------
   0 C :   -0.059670
   1 C :   -0.147143
   2 S :    0.483536
   3 C :   -0.270051
   4 Cl:    0.197749
   5 C :   -0.118652
   6 C :    0.083175
   7 O :   -0.126633
   8 C :   -0.081930
   9 C :    0.072873
  10 C :   -0.130142
  11 C :   -0.015790
  12 N :   -0.044918
  13 C :   -0.024904
  14 N :   -0.038809
  15 C :    0.075599
  16 C :   -0.096255
  17 C :    0.092938
  18 N :   -0.084486
  19 C :    0.034944
  20 N :   -0.093727
  21 C :    0.072783
  22 C :   -0.194927
  23 S :    0.480590
  24 C :   -0.176349
  25 C :   -0.047303
  26 C :   -0.035480
  27 C :   -0.113467
  28 S :    0.140262
  29 C :   -0.036165
  30 C :   -0.028830
  31 C :   -0.039949
  32 C :   -0.155005
  33 S :    0.508947
  34 C :   -0.225292
  35 C :    0.088439
  36 O :   -0.134534
  37 C :   -0.035462
  38 C :   -0.050814
  39 C :    0.089000
  40 C :   -0.079988
  41 C :    0.081196
  42 O :   -0.122180
  43 C :   -0.118201
  44 C :   -0.272691
  45 S :    0.476022
  46 C :   -0.152226
  47 C :   -0.058402
  48 C :    0.067033
  49 C :   -0.129962
  50 C :   -0.015287
  51 N :   -0.047963
  52 C :   -0.018893
  53 N :   -0.042504
  54 Cl:    0.193398
  55 H :    0.039000
  56 H :    0.049099
  57 H :    0.028752
  58 H :    0.031134
  59 H :    0.029813
  60 H :   -0.029073
  61 H :    0.026396
  62 H :    0.027594
  63 H :    0.022635
  64 H :    0.026558
  65 H :    0.032097
  66 H :    0.024655
  67 H :   -0.002263
  68 H :    0.028121
  69 H :    0.054404
  70 H :    0.037582

  Mayer bond orders larger than 0.100000
B(  0-C ,  1-C ) :   1.5412 B(  0-C ,  5-C ) :   1.2191 B(  0-C ,  9-C ) :   1.0062
B(  1-C ,  2-S ) :   1.1660 B(  1-C , 55-H ) :   0.9544 B(  2-S ,  3-C ) :   1.1555
B(  3-C ,  4-Cl) :   1.1349 B(  3-C ,  5-C ) :   1.4712 B(  5-C ,  6-C ) :   0.9575
B(  6-C ,  7-O ) :   2.2284 B(  6-C ,  8-C ) :   0.9240 B(  8-C ,  9-C ) :   1.0440
B(  8-C , 15-C ) :   1.7107 B(  9-C , 10-C ) :   1.6738 B( 10-C , 11-C ) :   1.1433
B( 10-C , 13-C ) :   1.1355 B( 11-C , 12-N ) :   2.9932 B( 13-C , 14-N ) :   2.9829
B( 15-C , 16-C ) :   1.0506 B( 15-C , 56-H ) :   0.9460 B( 16-C , 17-C ) :   1.3063
B( 16-C , 21-C ) :   1.2976 B( 17-C , 18-N ) :   1.5512 B( 17-C , 57-H ) :   0.9807
B( 18-N , 19-C ) :   1.4785 B( 19-C , 20-N ) :   1.5704 B( 19-C , 22-C ) :   1.0598
B( 20-N , 21-C ) :   1.5880 B( 21-C , 58-H ) :   0.9892 B( 22-C , 23-S ) :   1.1199
B( 22-C , 24-C ) :   0.1127 B( 22-C , 26-C ) :   1.5166 B( 23-S , 24-C ) :   1.1277
B( 24-C , 25-C ) :   1.5097 B( 24-C , 32-C ) :   1.1318 B( 25-C , 26-C ) :   1.3247
B( 25-C , 31-C ) :   1.0555 B( 26-C , 27-C ) :   0.9460 B( 27-C , 28-S ) :   1.0510
B( 27-C , 29-C ) :   1.0383 B( 27-C , 59-H ) :   0.9028 B( 28-S , 60-H ) :   0.9408
B( 29-C , 30-C ) :   1.0605 B( 29-C , 61-H ) :   0.9457 B( 29-C , 62-H ) :   0.9292
B( 30-C , 31-C ) :   1.0815 B( 30-C , 63-H ) :   0.9457 B( 30-C , 64-H ) :   0.9330
B( 31-C , 65-H ) :   0.9085 B( 31-C , 66-H ) :   0.9079 B( 32-C , 33-S ) :   1.1698
B( 32-C , 38-C ) :   1.4631 B( 33-S , 34-C ) :   1.1114 B( 34-C , 35-C ) :   1.0207
B( 34-C , 37-C ) :   1.4441 B( 35-C , 36-O ) :   2.1174 B( 35-C , 67-H ) :   0.9551
B( 37-C , 38-C ) :   1.2830 B( 37-C , 39-C ) :   1.0273 B( 38-C , 68-H ) :   0.9937
B( 39-C , 40-C ) :   1.7493 B( 39-C , 69-H ) :   0.9327 B( 40-C , 41-C ) :   0.9243
B( 40-C , 48-C ) :   1.0079 B( 41-C , 42-O ) :   2.2945 B( 41-C , 43-C ) :   0.9206
B( 43-C , 44-C ) :   1.4842 B( 43-C , 47-C ) :   1.2230 B( 44-C , 45-S ) :   1.1512
B( 44-C , 54-Cl) :   1.1305 B( 45-S , 46-C ) :   1.1627 B( 46-C , 47-C ) :   1.5453
B( 46-C , 70-H ) :   0.9558 B( 47-C , 48-C ) :   1.0156 B( 48-C , 49-C ) :   1.6805
B( 49-C , 50-C ) :   1.1339 B( 49-C , 52-C ) :   1.1596 B( 50-C , 51-N ) :   3.0006
B( 52-C , 53-N ) :   2.9897

-----------------------------------------------------------------------------
         ABSORPTION SPECTRUM VIA TRANSITION ELECTRIC DIPOLE MOMENTS
-----------------------------------------------------------------------------
State   Energy  Wavelength   fosc         T2         TX        TY        TZ
        (cm-1)    (nm)                  (au**2)     (au)      (au)      (au)
-----------------------------------------------------------------------------
   0   20502.2    487.8   0.932579219  14.97477  -2.32661   2.97712   0.83571
   1   21501.9    465.1   0.034547953   0.52896   0.24618  -0.58334   0.35787
   2   24399.1    409.9   0.163444000   2.20531   0.92311  -0.93051  -0.69810
   3   27166.3    368.1   0.197559097   2.39410  -0.31868   0.01862   1.51400
   4   27759.1    360.2   0.022108482   0.26220   0.30809  -0.24671   0.32621
   5   28314.0    353.2   0.116855283   1.35870  -0.83293   0.81457   0.03723
   6   28564.9    350.1   0.012972650   0.14951   0.10951   0.12666  -0.34853
   7   28832.1    346.8   0.121205222   1.38395  -1.02369   0.34537   0.46555
   8   29330.4    340.9   0.059931700   0.67269   0.36196  -0.72047   0.15032
   9   29624.3    337.6   0.039556304   0.43959  -0.18033   0.41872   0.48140
  10   29745.9    336.2   0.019835684   0.21953   0.17035  -0.18471  -0.39547
  11   30365.5    329.3   0.031980244   0.34672   0.19277   0.52764  -0.17651
  12   30748.9    325.2   0.249311041   2.66924  -0.91884   1.23079  -0.55688
  13   31555.0    316.9   0.012548448   0.13092   0.14363   0.21658  -0.25176
  14   31998.2    312.5   0.017729027   0.18240  -0.25228  -0.14263   0.31371
  15   32358.4    309.0   0.040791471   0.41501   0.32520  -0.01713  -0.55584
  16   33040.2    302.7   0.058789631   0.58578   0.36377  -0.35307   0.57340
  17   33373.2    299.6   0.152733505   1.50665  -0.98410   0.64536   0.34886
  18   33810.1    295.8   0.092489408   0.90058   0.76142  -0.15756  -0.54405
  19   33986.6    294.2   0.045316760   0.43896   0.41140   0.36541  -0.36903
  20   34375.0    290.9   0.051503624   0.49325   0.01723  -0.68983   0.13073
  21   35314.0    283.2   0.040426009   0.37687   0.60785   0.08546   0.00878
  22   35607.2    280.8   0.073854645   0.68283  -0.02031  -0.71166  -0.41947
  23   35864.5    278.8   0.002975700   0.02731   0.08139   0.08974   0.11242
  24   36140.2    276.7   0.067226803   0.61239  -0.61421   0.31673   0.36718
  25   36271.1    275.7   0.087029883   0.78992   0.69136   0.34976  -0.43544
  26   36466.3    274.2   0.301991508   2.72633   0.65538   1.19843  -0.92767
  27   36952.3    270.6   0.114012943   1.01575   0.88520  -0.23632   0.41990
  28   37359.1    267.7   0.424606028   3.74167  -0.89066  -0.76141  -1.53904
  29   37561.1    266.2   0.280342382   2.45712   0.62757   0.70404  -1.25204
  30   37881.8    264.0   0.099051932   0.86081  -0.28491  -0.71914   0.51232
  31   38281.0    261.2   0.302488608   2.60137  -0.42149  -0.56800   1.44951
  32   38408.8    260.4   0.293253882   2.51356   1.11137   1.12001  -0.15487
  33   39116.2    255.6   0.022915363   0.19286   0.04526  -0.41848   0.12525
  34   39611.1    252.5   0.008975611   0.07460  -0.10066  -0.10124  -0.23284
  35   39885.5    250.7   0.008092488   0.06679   0.23709  -0.10279  -0.00411
  36   40166.0    249.0   0.027950778   0.22909  -0.43544  -0.14323   0.13773
  37   40263.8    248.4   0.040413843   0.33044   0.08384   0.28702  -0.49095
  38   40290.9    248.2   0.029033108   0.23723   0.09019  -0.36775   0.30636

FINAL SINGLE POINT ENERGY     -4957.746693476852

DIPOLE MOMENT
-------------
                                X             Y             Z
Electronic contribution:     15.10871      36.58670     -17.20699
Nuclear contribution   :    -15.34210     -35.21827      19.36416
                        -----------------------------------------
Total Dipole Moment    :     -0.23339       1.36842       2.15716
                        -----------------------------------------
Magnitude (a.u.)       :      2.56523
Magnitude (Debye)      :      6.52030

Rotational constants in cm-1:     0.001815     0.000539     0.000454
Rotational constants in MHz :    54.405968    16.173307    13.625471

                             ****ORCA TERMINATED NORMALLY****
TOTAL RUN TIME: 0 days 0 hours 5 minutes 54 seconds 517 msec
