                         Program Version 4.2.0 -  RELEASE  -
|  1> # ORCA input file
|  2> # SCF done       -169.753710234560          0.000746945135
|  3> ! CAM-B3LYP def2-SVP def2/J RIJCOSX Grid4 TightSCF
|  4> %maxcore 5000
|  5> %tddft
|  6>     Mode sTDDFT
|  7>     Ethresh 5.0
|  8>     maxcore 5000
|  9> end
| 10>
| 11> %pal
| 12>   nprocs 6
| 13>   end
| 14> * xyz 0 1
| 15>    C        4.54642         2.83915         1.46674
| 16>    C        4.43614         4.15533         1.79551
| 17>    S        3.87682         5.08738         0.45590
| 18>    C        3.78398         3.67469        -0.57137
| 19>   Cl        3.27397         3.78560        -2.18205
| 20>    C        4.17545         2.56314         0.11193
| 21>    C        4.30382         1.12546        -0.16838
| 22>    O        3.99404         0.54723        -1.17822
| 23>    C        4.79982         0.53964         1.12341
| 24>    C        4.94579         1.60280         2.10699
| 25>    C        5.41963         1.51025         3.38925
| 26>    C        5.51603         2.64880         4.21785
| 27>    N        5.59468         3.56173         4.90821
| 28>    C        5.86779         0.33624         4.02664
| 29>    N        6.25607        -0.57717         4.60373
| 30>    C        4.95275        -0.78800         1.38525
| 31>    C        4.93352        -1.84430         0.44596
| 32>    N        5.13669        -1.77366        -0.83259
| 33>    C        5.04884        -2.95878        -1.41341
| 34>    C        4.76138        -4.05271        -0.55306
| 35>    S        4.63119        -3.50973         1.06237
| 36>    N        4.64580        -5.23786        -1.13340
| 37>    C        4.83834        -5.14088        -2.42538
| 38>    S        5.19420        -3.50343        -3.03312
| 39>    C        4.77066        -6.21062        -3.34850
| 40>    N        4.47960        -7.51860        -3.05717
| 41>    C        4.12910        -8.06502        -1.76765
| 42>    C        2.67322        -7.77907        -1.41410
| 43>    C        4.48269        -8.31883        -4.21593
| 44>    O        4.24797        -9.51002        -4.20873
| 45>    C        4.82033        -7.40545        -5.28834
| 46>    C        4.99189        -6.12319        -4.71819
| 47>    C        5.34510        -5.19834        -5.76929
| 48>    O        5.58829        -4.00967        -5.74694
| 49>    N        5.37290        -5.99353        -6.92860
| 50>    C        5.63392        -5.41643        -8.22600
| 51>    C        4.34574        -5.17693        -9.00910
| 52>    C        5.05245        -7.30410        -6.66135
| 53>    C        4.98559        -8.31744        -7.65007
| 54>    C        4.60544        -9.58772        -7.36317
| 55>    C        4.50731       -10.58536        -8.36755
| 56>    S        3.89982       -12.19885        -8.02787
| 57>    C        4.13591       -12.50361        -9.74199
| 58>    N        4.62383       -11.46921       -10.37200
| 59>    N        4.82326       -10.42770        -9.62715
| 60>    C        3.77085       -13.73789       -10.34604
| 61>    C        3.86196       -13.94865       -11.67878
| 62>    C        3.51999       -15.15928       -12.34210
| 63>    C        2.62329       -16.12835       -12.01833
| 64>    C        2.75056       -17.45258       -12.71632
| 65>    O        3.44414       -17.68742       -13.67527
| 66>    C        1.89672       -18.36016       -11.94546
| 67>    C        1.59485       -19.68939       -11.93847
| 68>    S        0.44835       -20.04885       -10.66907
| 69>    C        0.38252       -18.39732       -10.17234
| 70>    C        1.19959       -17.62145       -10.93389
| 71>    C        1.54627       -16.21503       -11.04567
| 72>    C        0.81685       -15.20757       -10.47237
| 73>    C       -0.25478       -15.48487        -9.59628
| 74>    N       -1.11801       -15.68952        -8.86928
| 75>    C        0.98198       -13.83034       -10.70964
| 76>    N        1.04783       -12.69607       -10.87119
| 77>   Cl        2.18577       -20.90156       -12.96286
| 78>    H        4.63809         4.64446         2.72763
| 79>    H        5.08764        -1.10638         2.41132
| 80>    H        4.79035        -7.63933        -1.01139
| 81>    H        4.29014        -9.14377        -1.84177
| 82>    H        2.51081        -6.70863        -1.32215
| 83>    H        2.42941        -8.25024        -0.46661
| 84>    H        2.01390        -8.17587        -2.18237
| 85>    H        6.31375        -6.06550        -8.78394
| 86>    H        6.13142        -4.46131        -8.03594
| 87>    H        3.81564        -6.11027        -9.18412
| 88>    H        4.57913        -4.72262        -9.96776
| 89>    H        3.69425        -4.50486        -8.45594
| 90>    H        5.23313        -8.07044        -8.67185
| 91>    H        4.34587        -9.87456        -6.35343
| 92>    H        3.42897       -14.51561        -9.67709
| 93>    H        4.29628       -13.16308       -12.28198
| 94>    H        4.09745       -15.38001       -13.23652
| 95>    H       -0.24739       -18.12163        -9.35007
| 96> *
| 97>
| 98>                          ****END OF INPUT****

CARTESIAN COORDINATES (ANGSTROEM)
---------------------------------
  C      4.546420    2.839150    1.466740
  C      4.436140    4.155330    1.795510
  S      3.876820    5.087380    0.455900
  C      3.783980    3.674690   -0.571370
  Cl     3.273970    3.785600   -2.182050
  C      4.175450    2.563140    0.111930
  C      4.303820    1.125460   -0.168380
  O      3.994040    0.547230   -1.178220
  C      4.799820    0.539640    1.123410
  C      4.945790    1.602800    2.106990
  C      5.419630    1.510250    3.389250
  C      5.516030    2.648800    4.217850
  N      5.594680    3.561730    4.908210
  C      5.867790    0.336240    4.026640
  N      6.256070   -0.577170    4.603730
  C      4.952750   -0.788000    1.385250
  C      4.933520   -1.844300    0.445960
  N      5.136690   -1.773660   -0.832590
  C      5.048840   -2.958780   -1.413410
  C      4.761380   -4.052710   -0.553060
  S      4.631190   -3.509730    1.062370
  N      4.645800   -5.237860   -1.133400
  C      4.838340   -5.140880   -2.425380
  S      5.194200   -3.503430   -3.033120
  C      4.770660   -6.210620   -3.348500
  N      4.479600   -7.518600   -3.057170
  C      4.129100   -8.065020   -1.767650
  C      2.673220   -7.779070   -1.414100
  C      4.482690   -8.318830   -4.215930
  O      4.247970   -9.510020   -4.208730
  C      4.820330   -7.405450   -5.288340
  C      4.991890   -6.123190   -4.718190
  C      5.345100   -5.198340   -5.769290
  O      5.588290   -4.009670   -5.746940
  N      5.372900   -5.993530   -6.928600
  C      5.633920   -5.416430   -8.226000
  C      4.345740   -5.176930   -9.009100
  C      5.052450   -7.304100   -6.661350
  C      4.985590   -8.317440   -7.650070
  C      4.605440   -9.587720   -7.363170
  C      4.507310  -10.585360   -8.367550
  S      3.899820  -12.198850   -8.027870
  C      4.135910  -12.503610   -9.741990
  N      4.623830  -11.469210  -10.372000
  N      4.823260  -10.427700   -9.627150
  C      3.770850  -13.737890  -10.346040
  C      3.861960  -13.948650  -11.678780
  C      3.519990  -15.159280  -12.342100
  C      2.623290  -16.128350  -12.018330
  C      2.750560  -17.452580  -12.716320
  O      3.444140  -17.687420  -13.675270
  C      1.896720  -18.360160  -11.945460
  C      1.594850  -19.689390  -11.938470
  S      0.448350  -20.048850  -10.669070
  C      0.382520  -18.397320  -10.172340
  C      1.199590  -17.621450  -10.933890
  C      1.546270  -16.215030  -11.045670
  C      0.816850  -15.207570  -10.472370
  C     -0.254780  -15.484870   -9.596280
  N     -1.118010  -15.689520   -8.869280
  C      0.981980  -13.830340  -10.709640
  N      1.047830  -12.696070  -10.871190
  Cl     2.185770  -20.901560  -12.962860
  H      4.638090    4.644460    2.727630
  H      5.087640   -1.106380    2.411320
  H      4.790350   -7.639330   -1.011390
  H      4.290140   -9.143770   -1.841770
  H      2.510810   -6.708630   -1.322150
  H      2.429410   -8.250240   -0.466610
  H      2.013900   -8.175870   -2.182370
  H      6.313750   -6.065500   -8.783940
  H      6.131420   -4.461310   -8.035940
  H      3.815640   -6.110270   -9.184120
  H      4.579130   -4.722620   -9.967760
  H      3.694250   -4.504860   -8.455940
  H      5.233130   -8.070440   -8.671850
  H      4.345870   -9.874560   -6.353430
  H      3.428970  -14.515610   -9.677090
  H      4.296280  -13.163080  -12.281980
  H      4.097450  -15.380010  -13.236520
  H     -0.247390  -18.121630   -9.350070

 Total Charge           Charge          ....    0
 Multiplicity           Mult            ....    1
 Number of Electrons    NEL             ....  486
 Basis Dimension        Dim             .... 1000

ORBITAL ENERGIES
----------------

  NO   OCC          E(Eh)            E(eV)
   0   2.0000    -101.621570     -2765.2635
   1   2.0000    -101.615154     -2765.0889
   2   2.0000     -88.998105     -2421.7616
   3   2.0000     -88.992706     -2421.6146
   4   2.0000     -88.985047     -2421.4062
   5   2.0000     -88.981577     -2421.3118
   6   2.0000     -88.979700     -2421.2607
   7   2.0000     -19.224742      -523.1318
   8   2.0000     -19.215339      -522.8760
   9   2.0000     -19.205535      -522.6092
  10   2.0000     -19.200471      -522.4714
  11   2.0000     -14.465558      -393.6279
  12   2.0000     -14.463676      -393.5766
  13   2.0000     -14.450772      -393.2255
  14   2.0000     -14.450400      -393.2154
  15   2.0000     -14.440501      -392.9460
  16   2.0000     -14.435767      -392.8172
  17   2.0000     -14.427387      -392.5892
  18   2.0000     -14.426878      -392.5753
  19   2.0000     -14.423982      -392.4965
  20   2.0000     -14.421590      -392.4314
  21   2.0000     -10.387375      -282.6548
  22   2.0000     -10.383982      -282.5625
  23   2.0000     -10.381069      -282.4832
  24   2.0000     -10.380691      -282.4730
  25   2.0000     -10.374673      -282.3092
  26   2.0000     -10.373988      -282.2906
  27   2.0000     -10.366779      -282.0944
  28   2.0000     -10.358469      -281.8683
  29   2.0000     -10.357547      -281.8432
  30   2.0000     -10.355930      -281.7992
  31   2.0000     -10.353721      -281.7391
  32   2.0000     -10.353510      -281.7333
  33   2.0000     -10.353186      -281.7245
  34   2.0000     -10.352576      -281.7079
  35   2.0000     -10.351079      -281.6672
  36   2.0000     -10.350429      -281.6495
  37   2.0000     -10.348772      -281.6044
  38   2.0000     -10.341625      -281.4099
  39   2.0000     -10.334150      -281.2065
  40   2.0000     -10.329373      -281.0765
  41   2.0000     -10.328842      -281.0621
  42   2.0000     -10.328781      -281.0604
  43   2.0000     -10.327947      -281.0377
  44   2.0000     -10.326013      -280.9851
  45   2.0000     -10.325777      -280.9787
  46   2.0000     -10.323608      -280.9197
  47   2.0000     -10.319807      -280.8162
  48   2.0000     -10.318588      -280.7831
  49   2.0000     -10.315254      -280.6923
  50   2.0000     -10.314787      -280.6796
  51   2.0000     -10.313400      -280.6419
  52   2.0000     -10.312344      -280.6131
  53   2.0000     -10.308360      -280.5047
  54   2.0000     -10.305725      -280.4330
  55   2.0000     -10.305311      -280.4218
  56   2.0000     -10.305225      -280.4194
  57   2.0000     -10.301256      -280.3114
  58   2.0000     -10.298039      -280.2239
  59   2.0000     -10.278037      -279.6796
  60   2.0000     -10.274137      -279.5735
  61   2.0000     -10.267753      -279.3998
  62   2.0000     -10.256128      -279.0834
  63   2.0000      -9.576339      -260.5854
  64   2.0000      -9.569932      -260.4111
  65   2.0000      -8.093863      -220.2452
  66   2.0000      -8.088433      -220.0974
  67   2.0000      -8.081357      -219.9049
  68   2.0000      -8.077554      -219.8014
  69   2.0000      -8.074429      -219.7164
  70   2.0000      -7.346998      -199.9220
  71   2.0000      -7.340587      -199.7475
  72   2.0000      -7.336366      -199.6327
  73   2.0000      -7.335821      -199.6178
  74   2.0000      -7.329962      -199.4584
  75   2.0000      -7.329416      -199.4435
  76   2.0000      -6.063249      -164.9894
  77   2.0000      -6.058622      -164.8635
  78   2.0000      -6.057820      -164.8417
  79   2.0000      -6.056102      -164.7949
  80   2.0000      -6.053185      -164.7155
  81   2.0000      -6.050698      -164.6479
  82   2.0000      -6.049873      -164.6254
  83   2.0000      -6.046598      -164.5363
  84   2.0000      -6.046457      -164.5325
  85   2.0000      -6.043902      -164.4629
  86   2.0000      -6.043549      -164.4533
  87   2.0000      -6.042962      -164.4374
  88   2.0000      -6.039682      -164.3481
  89   2.0000      -6.039572      -164.3451
  90   2.0000      -6.036293      -164.2559
  91   2.0000      -1.155049       -31.4305
  92   2.0000      -1.146356       -31.1939
  93   2.0000      -1.142071       -31.0773
  94   2.0000      -1.138238       -30.9730
  95   2.0000      -1.134687       -30.8764
  96   2.0000      -1.109689       -30.1962
  97   2.0000      -1.078113       -29.3369
  98   2.0000      -1.072433       -29.1824
  99   2.0000      -1.058991       -28.8166
 100   2.0000      -1.043447       -28.3936
 101   2.0000      -1.037512       -28.2321
 102   2.0000      -1.024245       -27.8711
 103   2.0000      -1.019436       -27.7403
 104   2.0000      -1.005725       -27.3672
 105   2.0000      -1.001240       -27.2451
 106   2.0000      -0.993761       -27.0416
 107   2.0000      -0.988422       -26.8963
 108   2.0000      -0.965061       -26.2606
 109   2.0000      -0.957917       -26.0662
 110   2.0000      -0.955272       -25.9943
 111   2.0000      -0.943435       -25.6722
 112   2.0000      -0.939176       -25.5563
 113   2.0000      -0.930878       -25.3305
 114   2.0000      -0.918501       -24.9937
 115   2.0000      -0.913556       -24.8591
 116   2.0000      -0.907018       -24.6812
 117   2.0000      -0.900566       -24.5057
 118   2.0000      -0.896659       -24.3993
 119   2.0000      -0.888462       -24.1763
 120   2.0000      -0.877066       -23.8662
 121   2.0000      -0.860582       -23.4176
 122   2.0000      -0.853782       -23.2326
 123   2.0000      -0.838016       -22.8036
 124   2.0000      -0.832150       -22.6439
 125   2.0000      -0.824290       -22.4301
 126   2.0000      -0.818745       -22.2792
 127   2.0000      -0.808851       -22.0099
 128   2.0000      -0.797156       -21.6917
 129   2.0000      -0.767939       -20.8967
 130   2.0000      -0.764571       -20.8050
 131   2.0000      -0.763064       -20.7640
 132   2.0000      -0.754437       -20.5293
 133   2.0000      -0.737933       -20.0802
 134   2.0000      -0.733398       -19.9568
 135   2.0000      -0.721316       -19.6280
 136   2.0000      -0.712576       -19.3902
 137   2.0000      -0.707474       -19.2513
 138   2.0000      -0.701741       -19.0953
 139   2.0000      -0.694161       -18.8891
 140   2.0000      -0.685518       -18.6539
 141   2.0000      -0.681951       -18.5568
 142   2.0000      -0.681318       -18.5396
 143   2.0000      -0.677547       -18.4370
 144   2.0000      -0.676308       -18.4033
 145   2.0000      -0.659000       -17.9323
 146   2.0000      -0.651242       -17.7212
 147   2.0000      -0.647352       -17.6153
 148   2.0000      -0.629100       -17.1187
 149   2.0000      -0.623339       -16.9619
 150   2.0000      -0.619427       -16.8555
 151   2.0000      -0.613287       -16.6884
 152   2.0000      -0.610730       -16.6188
 153   2.0000      -0.609890       -16.5959
 154   2.0000      -0.600893       -16.3511
 155   2.0000      -0.592148       -16.1132
 156   2.0000      -0.587471       -15.9859
 157   2.0000      -0.585862       -15.9421
 158   2.0000      -0.571573       -15.5533
 159   2.0000      -0.567829       -15.4514
 160   2.0000      -0.563233       -15.3264
 161   2.0000      -0.560203       -15.2439
 162   2.0000      -0.556771       -15.1505
 163   2.0000      -0.553676       -15.0663
 164   2.0000      -0.553387       -15.0584
 165   2.0000      -0.552634       -15.0379
 166   2.0000      -0.546892       -14.8817
 167   2.0000      -0.544865       -14.8265
 168   2.0000      -0.541139       -14.7252
 169   2.0000      -0.536842       -14.6082
 170   2.0000      -0.535159       -14.5624
 171   2.0000      -0.531053       -14.4507
 172   2.0000      -0.529412       -14.4060
 173   2.0000      -0.528488       -14.3809
 174   2.0000      -0.524380       -14.2691
 175   2.0000      -0.520684       -14.1685
 176   2.0000      -0.519495       -14.1362
 177   2.0000      -0.516802       -14.0629
 178   2.0000      -0.514911       -14.0114
 179   2.0000      -0.512974       -13.9587
 180   2.0000      -0.512083       -13.9345
 181   2.0000      -0.507867       -13.8198
 182   2.0000      -0.506782       -13.7902
 183   2.0000      -0.503736       -13.7073
 184   2.0000      -0.502024       -13.6608
 185   2.0000      -0.494435       -13.4543
 186   2.0000      -0.493219       -13.4212
 187   2.0000      -0.492280       -13.3956
 188   2.0000      -0.486466       -13.2374
 189   2.0000      -0.483071       -13.1450
 190   2.0000      -0.481470       -13.1015
 191   2.0000      -0.479572       -13.0498
 192   2.0000      -0.479332       -13.0433
 193   2.0000      -0.470605       -12.8058
 194   2.0000      -0.468435       -12.7468
 195   2.0000      -0.464245       -12.6328
 196   2.0000      -0.460061       -12.5189
 197   2.0000      -0.459570       -12.5055
 198   2.0000      -0.457302       -12.4438
 199   2.0000      -0.456121       -12.4117
 200   2.0000      -0.455425       -12.3927
 201   2.0000      -0.452262       -12.3067
 202   2.0000      -0.450460       -12.2576
 203   2.0000      -0.448932       -12.2161
 204   2.0000      -0.447584       -12.1794
 205   2.0000      -0.444988       -12.1088
 206   2.0000      -0.444375       -12.0921
 207   2.0000      -0.439460       -11.9583
 208   2.0000      -0.435959       -11.8630
 209   2.0000      -0.434169       -11.8143
 210   2.0000      -0.433949       -11.8084
 211   2.0000      -0.432825       -11.7778
 212   2.0000      -0.432126       -11.7587
 213   2.0000      -0.427140       -11.6231
 214   2.0000      -0.422018       -11.4837
 215   2.0000      -0.419474       -11.4145
 216   2.0000      -0.419022       -11.4022
 217   2.0000      -0.412694       -11.2300
 218   2.0000      -0.411070       -11.1858
 219   2.0000      -0.407509       -11.0889
 220   2.0000      -0.402961       -10.9651
 221   2.0000      -0.402566       -10.9544
 222   2.0000      -0.401487       -10.9250
 223   2.0000      -0.391115       -10.6428
 224   2.0000      -0.389420       -10.5967
 225   2.0000      -0.379310       -10.3215
 226   2.0000      -0.368266       -10.0210
 227   2.0000      -0.362203        -9.8561
 228   2.0000      -0.356679        -9.7057
 229   2.0000      -0.349505        -9.5105
 230   2.0000      -0.347684        -9.4610
 231   2.0000      -0.343102        -9.3363
 232   2.0000      -0.339991        -9.2516
 233   2.0000      -0.338460        -9.2100
 234   2.0000      -0.335443        -9.1279
 235   2.0000      -0.334281        -9.0963
 236   2.0000      -0.326310        -8.8793
 237   2.0000      -0.323666        -8.8074
 238   2.0000      -0.319865        -8.7040
 239   2.0000      -0.316096        -8.6014
 240   2.0000      -0.301501        -8.2043
 241   2.0000      -0.296383        -8.0650
 242   2.0000      -0.249099        -6.7783
 243   0.0000      -0.119326        -3.2470
 244   0.0000      -0.105808        -2.8792
 245   0.0000      -0.084995        -2.3128
 246   0.0000      -0.059310        -1.6139
 247   0.0000      -0.050739        -1.3807

MULLIKEN ATOMIC CHARGES
-----------------------
   0 C :    0.031080
   1 C :   -0.127901
   2 S :    0.186623
   3 C :   -0.173758
   4 Cl:   -0.000160
   5 C :    0.071887
   6 C :    0.148227
   7 O :   -0.094384
   8 C :   -0.083254
   9 C :    0.293196
  10 C :   -0.332305
  11 C :   -0.193043
  12 N :    0.155818
  13 C :   -0.184914
  14 N :    0.161888
  15 C :    0.034332
  16 C :   -0.145412
  17 N :    0.043286
  18 C :   -0.041694
  19 C :   -0.052721
  20 S :    0.140136
  21 N :   -0.038505
  22 C :   -0.212231
  23 S :    0.208689
  24 C :    0.213662
  25 N :   -0.253675
  26 C :    0.125756
  27 C :    0.002155
  28 C :    0.163218
  29 O :   -0.204316
  30 C :   -0.057622
  31 C :   -0.094604
  32 C :    0.157071
  33 O :   -0.189653
  34 N :   -0.259203
  35 C :    0.095604
  36 C :    0.002829
  37 C :    0.144082
  38 C :   -0.024241
  39 C :    0.084323
  40 C :   -0.108891
  41 S :    0.140341
  42 C :   -0.114342
  43 N :   -0.033067
  44 N :   -0.042180
  45 C :    0.080116
  46 C :    0.030969
  47 C :    0.039650
  48 C :   -0.126800
  49 C :    0.127643
  50 O :   -0.126591
  51 C :    0.098155
  52 C :   -0.171725
  53 S :    0.188723
  54 C :   -0.128170
  55 C :    0.008360
  56 C :    0.276088
  57 C :   -0.328688
  58 C :   -0.183127
  59 N :    0.156368
  60 C :   -0.203829
  61 N :    0.186880
  62 Cl:    0.002355
  63 H :    0.053365
  64 H :    0.023269
  65 H :    0.031956
  66 H :    0.035933
  67 H :    0.019745
  68 H :    0.019880
  69 H :    0.020352
  70 H :    0.031526
  71 H :    0.046131
  72 H :    0.022863
  73 H :    0.028337
  74 H :    0.029818
  75 H :    0.007149
  76 H :    0.015823
  77 H :    0.010967
  78 H :    0.038957
  79 H :    0.040072
  80 H :    0.055356
Sum of atomic charges:   -0.0000000

LOEWDIN ATOMIC CHARGES
----------------------
   0 C :   -0.061322
   1 C :   -0.149186
   2 S :    0.475787
   3 C :   -0.273874
   4 Cl:    0.192215
   5 C :   -0.115195
   6 C :    0.073205
   7 O :   -0.103548
   8 C :   -0.062078
   9 C :    0.072556
  10 C :   -0.133777
  11 C :   -0.014841
  12 N :   -0.049362
  13 C :   -0.024365
  14 N :   -0.044167
  15 C :    0.028059
  16 C :   -0.126052
  17 N :   -0.043882
  18 C :   -0.207311
  19 C :   -0.200019
  20 S :    0.423825
  21 N :   -0.091359
  22 C :   -0.121250
  23 S :    0.498138
  24 C :    0.039883
  25 N :    0.012794
  26 C :    0.036934
  27 C :   -0.060337
  28 C :    0.081612
  29 O :   -0.195821
  30 C :   -0.119049
  31 C :   -0.113819
  32 C :    0.073892
  33 O :   -0.189478
  34 N :    0.002290
  35 C :    0.037493
  36 C :   -0.059584
  37 C :    0.083137
  38 C :   -0.012576
  39 C :   -0.000504
  40 C :   -0.148208
  41 S :    0.421711
  42 C :   -0.149026
  43 N :   -0.059477
  44 N :   -0.067294
  45 C :   -0.004860
  46 C :   -0.000240
  47 C :    0.067302
  48 C :   -0.081354
  49 C :    0.080799
  50 O :   -0.129116
  51 C :   -0.118966
  52 C :   -0.271415
  53 S :    0.477676
  54 C :   -0.151678
  55 C :   -0.058363
  56 C :    0.064510
  57 C :   -0.136097
  58 C :   -0.016885
  59 N :   -0.047701
  60 C :   -0.021442
  61 N :   -0.031715
  62 Cl:    0.194252
  63 H :    0.037365
  64 H :    0.045832
  65 H :    0.026383
  66 H :    0.032568
  67 H :    0.021086
  68 H :    0.030487
  69 H :    0.026731
  70 H :    0.026797
  71 H :    0.038965
  72 H :    0.025033
  73 H :    0.033303
  74 H :    0.032220
  75 H :    0.039275
  76 H :    0.039245
  77 H :    0.035340
  78 H :    0.048186
  79 H :    0.051975
  80 H :    0.037733

  Mayer bond orders larger than 0.100000
B(  0-C ,  1-C ) :   1.5391 B(  0-C ,  5-C ) :   1.2235 B(  0-C ,  9-C ) :   0.9994
B(  1-C ,  2-S ) :   1.1664 B(  1-C , 63-H ) :   0.9541 B(  2-S ,  3-C ) :   1.1487
B(  3-C ,  4-Cl) :   1.1285 B(  3-C ,  5-C ) :   1.4851 B(  5-C ,  6-C ) :   0.9407
B(  6-C ,  7-O ) :   2.2917 B(  6-C ,  8-C ) :   0.9091 B(  8-C ,  9-C ) :   1.0764
B(  8-C , 15-C ) :   1.6683 B(  9-C , 10-C ) :   1.6485 B( 10-C , 11-C ) :   1.1487
B( 10-C , 13-C ) :   1.1360 B( 11-C , 12-N ) :   2.9901 B( 13-C , 14-N ) :   2.9767
B( 15-C , 16-C ) :   1.1492 B( 15-C , 64-H ) :   0.9193 B( 16-C , 17-N ) :   1.6596
B( 16-C , 20-S ) :   1.0491 B( 17-N , 18-C ) :   1.4462 B( 17-N , 20-S ) :   0.1183
B( 18-C , 19-C ) :   1.2051 B( 18-C , 23-S ) :   1.0823 B( 19-C , 20-S ) :   1.1331
B( 19-C , 21-N ) :   1.4205 B( 21-N , 22-C ) :   1.5995 B( 21-N , 23-S ) :   0.1069
B( 22-C , 23-S ) :   1.1283 B( 22-C , 24-C ) :   1.1457 B( 24-C , 25-N ) :   1.2054
B( 24-C , 31-C ) :   1.3547 B( 25-N , 26-C ) :   0.9341 B( 25-N , 28-C ) :   1.0581
B( 26-C , 27-C ) :   1.1239 B( 26-C , 65-H ) :   0.9385 B( 26-C , 66-H ) :   0.9297
B( 27-C , 67-H ) :   0.9662 B( 27-C , 68-H ) :   0.9681 B( 27-C , 69-H ) :   0.9659
B( 28-C , 29-O ) :   2.0345 B( 28-C , 30-C ) :   0.9817 B( 29-O , 76-H ) :   0.1099
B( 30-C , 31-C ) :   1.2650 B( 30-C , 37-C ) :   1.3295 B( 31-C , 32-C ) :   0.9628
B( 32-C , 33-O ) :   2.1065 B( 32-C , 34-N ) :   1.0514 B( 34-N , 35-C ) :   0.9393
B( 34-N , 37-C ) :   1.1697 B( 35-C , 36-C ) :   1.1224 B( 35-C , 70-H ) :   0.9501
B( 35-C , 71-H ) :   0.9288 B( 36-C , 72-H ) :   0.9684 B( 36-C , 73-H ) :   0.9674
B( 36-C , 74-H ) :   0.9636 B( 37-C , 38-C ) :   1.1345 B( 38-C , 39-C ) :   1.6505
B( 38-C , 75-H ) :   0.9727 B( 39-C , 40-C ) :   1.1113 B( 39-C , 76-H ) :   0.9244
B( 40-C , 41-S ) :   1.1131 B( 40-C , 44-N ) :   1.6445 B( 41-S , 42-C ) :   1.1066
B( 42-C , 43-N ) :   1.6606 B( 42-C , 45-C ) :   1.1310 B( 43-N , 44-N ) :   1.2544
B( 45-C , 46-C ) :   1.7128 B( 45-C , 77-H ) :   0.9397 B( 46-C , 47-C ) :   1.1158
B( 46-C , 78-H ) :   0.9538 B( 47-C , 48-C ) :   1.7018 B( 47-C , 79-H ) :   0.9258
B( 48-C , 49-C ) :   0.9349 B( 48-C , 56-C ) :   1.0280 B( 49-C , 50-O ) :   2.2747
B( 49-C , 51-C ) :   0.9280 B( 51-C , 52-C ) :   1.4783 B( 51-C , 55-C ) :   1.2221
B( 52-C , 53-S ) :   1.1531 B( 52-C , 62-Cl) :   1.1313 B( 53-S , 54-C ) :   1.1608
B( 54-C , 55-C ) :   1.5486 B( 54-C , 80-H ) :   0.9557 B( 55-C , 56-C ) :   1.0106
B( 56-C , 57-C ) :   1.6583 B( 57-C , 58-C ) :   1.1281 B( 57-C , 60-C ) :   1.1681
B( 58-C , 59-N ) :   2.9971 B( 60-C , 61-N ) :   2.9912

-----------------------------------------------------------------------------
         ABSORPTION SPECTRUM VIA TRANSITION ELECTRIC DIPOLE MOMENTS
-----------------------------------------------------------------------------
State   Energy  Wavelength   fosc         T2         TX        TY        TZ
        (cm-1)    (nm)                  (au**2)     (au)      (au)      (au)
-----------------------------------------------------------------------------
   0   13872.9    720.8   1.377510877  32.68903  -0.32974  -3.94485  -4.12534
   1   19002.8    526.2   0.033286526   0.57667  -0.72035  -0.00225   0.24032
   2   21843.6    457.8   0.159017448   2.39660   0.67396   1.38813   0.12439
   3   22421.1    446.0   0.106060418   1.55730  -0.60711  -0.98201   0.47369
   4   24262.5    412.2   0.187655290   2.54625   1.04704   1.02789   0.62721
   5   24966.7    400.5   0.528647431   6.97078   0.41069   2.30560   1.21914
   6   25736.1    388.6   0.008467538   0.10832   0.11368  -0.17346  -0.25555
   7   25997.0    384.7   0.006646800   0.08417  -0.16559  -0.22340  -0.08271
   8   27162.6    368.2   0.182571218   2.21277  -0.08894   1.45168   0.31223
   9   27640.8    361.8   0.031183753   0.37141  -0.05738   0.60183   0.07690
  10   27790.8    359.8   0.003732222   0.04421  -0.08596   0.19147  -0.01270
  11   28617.4    349.4   0.179290183   2.06254   0.38411  -1.14426  -0.77824
  12   28807.6    347.1   0.004684333   0.05353   0.03098  -0.05308  -0.22306
  13   29135.2    343.2   0.092699660   1.04746  -0.31402  -0.90517  -0.35988
  14   30474.0    328.1   0.066115085   0.71424  -0.05442   0.80519  -0.25090
  15   30590.3    326.9   0.030780968   0.33126  -0.16614  -0.48992  -0.25227
  16   30979.6    322.8   0.132867840   1.41195   0.15723  -0.66096   0.97486
  17   30995.6    322.6   0.008036601   0.08536   0.09437   0.09967  -0.25791
  18   31228.1    320.2   0.047128942   0.49684  -0.23534   0.58511   0.31480
  19   31936.5    313.1   0.089947552   0.92721  -0.11036   0.87159   0.39415
  20   32062.1    311.9   0.013032948   0.13382   0.06712  -0.35344   0.06631
  21   32121.7    311.3   0.081038588   0.83056   0.34366  -0.82180   0.19262
  22   32406.2    308.6   0.118911021   1.20801  -0.04944   1.01286   0.42387
  23   33021.5    302.8   0.002840629   0.02832  -0.07366   0.05119   0.14238
  24   34842.5    287.0   0.114302831   1.08000   0.02192  -0.81160  -0.64871
  25   35094.8    284.9   0.015197638   0.14256  -0.09451  -0.36440  -0.02903
  26   35156.2    284.4   0.051828802   0.48534   0.30392  -0.49626  -0.38301
  27   35307.0    283.2   0.038486746   0.35886   0.10129  -0.54429  -0.22881
  28   35591.5    281.0   0.021382062   0.19778  -0.12816  -0.42339   0.04578
  29   35882.1    278.7   0.083612777   0.76713   0.00069  -0.87306   0.06993
  30   36595.7    273.3   0.006631564   0.05966  -0.20548  -0.10851  -0.07523
  31   36642.8    272.9   0.034396670   0.30903   0.01603   0.02630   0.55505
  32   36728.7    272.3   0.305356138   2.73701  -0.43245   1.53309  -0.44681
  33   37519.5    266.5   0.087454982   0.76737  -0.35832  -0.39212  -0.69657
  34   37648.5    265.6   0.143484231   1.25468  -0.15926  -1.02583  -0.42069
  35   38222.9    261.6   0.270574357   2.33044   0.39322  -1.19944   0.85858
  36   38284.2    261.2   0.004324566   0.03719   0.10160  -0.01470   0.16324
  37   38439.1    260.2   0.226361624   1.93867  -0.15776  -1.27065  -0.54703
  38   38675.7    258.6   0.025488368   0.21696   0.11051  -0.41607   0.17786
  39   38838.0    257.5   0.041559269   0.35228   0.17035  -0.49340   0.28252
  40   39404.4    253.8   0.062937160   0.52582  -0.28351   0.58117  -0.32815
  41   39761.1    251.5   0.044842193   0.37128   0.45821   0.36433   0.16909
  42   40133.6    249.2   0.062338700   0.51136   0.21840   0.08893   0.67509
  43   40246.9    248.5   0.130180662   1.06485   0.34755  -0.10202   0.96626

FINAL SINGLE POINT ENERGY     -5366.978041770788

DIPOLE MOMENT
-------------
                                X             Y             Z
Electronic contribution:     -6.13550       3.80707       5.78297
Nuclear contribution   :      5.91270      -5.25968      -6.99338
                        -----------------------------------------
Total Dipole Moment    :     -0.22281      -1.45261      -1.21040
                        -----------------------------------------
Magnitude (a.u.)       :      1.90389
Magnitude (Debye)      :      4.83929

Rotational constants in cm-1:     0.003244     0.000204     0.000199
Rotational constants in MHz :    97.261444     6.124392     5.952693

                             ****ORCA TERMINATED NORMALLY****
TOTAL RUN TIME: 0 days 0 hours 8 minutes 56 seconds 650 msec
