                         Program Version 4.2.0 -  RELEASE  -
|  1> # ORCA input file
|  2> # SCF done       -169.878319661652          0.000772907896
|  3> ! CAM-B3LYP def2-SVP def2/J RIJCOSX Grid4 TightSCF
|  4> %maxcore 5000
|  5> %tddft
|  6>     Mode sTDDFT
|  7>     Ethresh 5.0
|  8>     maxcore 5000
|  9> end
| 10>
| 11> %pal
| 12>   nprocs 6
| 13>   end
| 14> * xyz 0 1
| 15>    C        0.95810         1.92021         1.47692
| 16>    C        0.17155         2.93055         1.93891
| 17>    S       -0.24562         2.68849         3.59484
| 18>    C        0.65795         1.19459         3.67288
| 19>   Cl        0.73243         0.28084         5.09651
| 20>    C        1.23699         0.92493         2.46794
| 21>    C        2.08197        -0.13131         1.90304
| 22>    O        2.51694        -1.10616         2.46878
| 23>    C        2.34024         0.30600         0.49020
| 24>    C        1.60478         1.54535         0.23791
| 25>    C        1.47730         2.22249        -0.94303
| 26>    C        0.71450         3.40808        -1.02800
| 27>    N        0.10241         4.37428        -1.11162
| 28>    C        2.03630         1.84339        -2.18106
| 29>    N        2.44902         1.58644        -3.22078
| 30>    C        3.24368        -0.23486        -0.36152
| 31>    C        3.98280        -1.46887        -0.22822
| 32>    C        5.27975        -1.51957        -0.74625
| 33>    C        6.03610        -2.67179        -0.64814
| 34>    N        7.42065        -2.57253        -1.05342
| 35>    O        7.66020        -1.91361        -2.04087
| 36>    O        8.25047        -3.11392        -0.35717
| 37>    C        5.51006        -3.85237        -0.09720
| 38>    C        4.20819        -3.78623         0.41182
| 39>    C        3.46026        -2.63188         0.35168
| 40>    C        6.21075        -5.11962        -0.10446
| 41>    C        6.97112        -5.55785        -1.12344
| 42>    C        7.65862        -6.80998        -1.14582
| 43>    S        8.43542        -7.33136        -2.61395
| 44>    C        9.00433        -8.79033        -1.87430
| 45>    C        8.62648        -8.84095        -0.53284
| 46>    C        7.85247        -7.72942        -0.14500
| 47>    C        9.07695        -9.82612         0.44521
| 48>    O        8.53782       -10.04592         1.50039
| 49>    C        9.69507        -9.74255        -2.68173
| 50>    C        9.78230       -11.06207        -2.42006
| 51>    C       10.49471       -12.03551        -3.21483
| 52>    C       11.02792       -11.76054        -4.47253
| 53>    C       11.69992       -12.73252        -5.19576
| 54>    N       12.15083       -12.34191        -6.50548
| 55>    O       12.33931       -11.16073        -6.69827
| 56>    O       12.31118       -13.20345        -7.34940
| 57>    C       11.89632       -14.03281        -4.68850
| 58>    C       11.35855       -14.29085        -3.42098
| 59>    C       10.66789       -13.33534        -2.71470
| 60>    C       12.63097       -15.04130        -5.41599
| 61>    C       12.49567       -16.36958        -5.25020
| 62>    C       13.23352       -17.32731        -6.01949
| 63>    C       13.56110       -17.27090        -7.33038
| 64>    C       14.63085       -18.18895        -7.84860
| 65>    O       15.10542       -19.13131        -7.26255
| 66>    C       14.97652       -17.64027        -9.16205
| 67>    C       15.89901       -17.87959       -10.13765
| 68>    S       15.69123       -16.76191       -11.46374
| 69>    C       14.35416       -15.99089       -10.69044
| 70>    C       14.09142       -16.55822        -9.48351
| 71>    C       13.12178       -16.39870        -8.41492
| 72>    C       11.93911       -15.72942        -8.54877
| 73>    C       11.62261       -15.02696        -9.73284
| 74>    N       11.34334       -14.47257       -10.69676
| 75>    C       10.89337       -15.70745        -7.60607
| 76>    N        9.99178       -15.67795        -6.89641
| 77>   Cl       17.11271       -19.06118       -10.16057
| 78>    H       -0.18905         3.80076         1.42731
| 79>    H        3.49104         0.33068        -1.25268
| 80>    H        5.72624        -0.64173        -1.19133
| 81>    H        3.77579        -4.67847         0.83822
| 82>    H        2.45123        -2.63625         0.72739
| 83>    H        6.02960        -5.76093         0.74579
| 84>    H        7.07587        -4.96107        -2.02087
| 85>    H        7.49413        -7.61381         0.86150
| 86>    H       10.01401       -10.34499         0.16298
| 87>    H       10.13250        -9.33891        -3.58473
| 88>    H        9.28219       -11.46111        -1.54839
| 89>    H       10.90610       -10.79098        -4.93027
| 90>    H       11.50763       -15.26392        -2.98134
| 91>    H       10.26113       -13.58278        -1.74521
| 92>    H       13.32762       -14.69686        -6.16813
| 93>    H       11.84016       -16.77227        -4.49019
| 94>    H       13.61349       -18.19254        -5.48332
| 95>    H       13.86590       -15.16906       -11.17510
| 96> *
| 97>
| 98>                          ****END OF INPUT****

CARTESIAN COORDINATES (ANGSTROEM)
---------------------------------
  C      0.958100    1.920210    1.476920
  C      0.171550    2.930550    1.938910
  S     -0.245620    2.688490    3.594840
  C      0.657950    1.194590    3.672880
  Cl     0.732430    0.280840    5.096510
  C      1.236990    0.924930    2.467940
  C      2.081970   -0.131310    1.903040
  O      2.516940   -1.106160    2.468780
  C      2.340240    0.306000    0.490200
  C      1.604780    1.545350    0.237910
  C      1.477300    2.222490   -0.943030
  C      0.714500    3.408080   -1.028000
  N      0.102410    4.374280   -1.111620
  C      2.036300    1.843390   -2.181060
  N      2.449020    1.586440   -3.220780
  C      3.243680   -0.234860   -0.361520
  C      3.982800   -1.468870   -0.228220
  C      5.279750   -1.519570   -0.746250
  C      6.036100   -2.671790   -0.648140
  N      7.420650   -2.572530   -1.053420
  O      7.660200   -1.913610   -2.040870
  O      8.250470   -3.113920   -0.357170
  C      5.510060   -3.852370   -0.097200
  C      4.208190   -3.786230    0.411820
  C      3.460260   -2.631880    0.351680
  C      6.210750   -5.119620   -0.104460
  C      6.971120   -5.557850   -1.123440
  C      7.658620   -6.809980   -1.145820
  S      8.435420   -7.331360   -2.613950
  C      9.004330   -8.790330   -1.874300
  C      8.626480   -8.840950   -0.532840
  C      7.852470   -7.729420   -0.145000
  C      9.076950   -9.826120    0.445210
  O      8.537820  -10.045920    1.500390
  C      9.695070   -9.742550   -2.681730
  C      9.782300  -11.062070   -2.420060
  C     10.494710  -12.035510   -3.214830
  C     11.027920  -11.760540   -4.472530
  C     11.699920  -12.732520   -5.195760
  N     12.150830  -12.341910   -6.505480
  O     12.339310  -11.160730   -6.698270
  O     12.311180  -13.203450   -7.349400
  C     11.896320  -14.032810   -4.688500
  C     11.358550  -14.290850   -3.420980
  C     10.667890  -13.335340   -2.714700
  C     12.630970  -15.041300   -5.415990
  C     12.495670  -16.369580   -5.250200
  C     13.233520  -17.327310   -6.019490
  C     13.561100  -17.270900   -7.330380
  C     14.630850  -18.188950   -7.848600
  O     15.105420  -19.131310   -7.262550
  C     14.976520  -17.640270   -9.162050
  C     15.899010  -17.879590  -10.137650
  S     15.691230  -16.761910  -11.463740
  C     14.354160  -15.990890  -10.690440
  C     14.091420  -16.558220   -9.483510
  C     13.121780  -16.398700   -8.414920
  C     11.939110  -15.729420   -8.548770
  C     11.622610  -15.026960   -9.732840
  N     11.343340  -14.472570  -10.696760
  C     10.893370  -15.707450   -7.606070
  N      9.991780  -15.677950   -6.896410
  Cl    17.112710  -19.061180  -10.160570
  H     -0.189050    3.800760    1.427310
  H      3.491040    0.330680   -1.252680
  H      5.726240   -0.641730   -1.191330
  H      3.775790   -4.678470    0.838220
  H      2.451230   -2.636250    0.727390
  H      6.029600   -5.760930    0.745790
  H      7.075870   -4.961070   -2.020870
  H      7.494130   -7.613810    0.861500
  H     10.014010  -10.344990    0.162980
  H     10.132500   -9.338910   -3.584730
  H      9.282190  -11.461110   -1.548390
  H     10.906100  -10.790980   -4.930270
  H     11.507630  -15.263920   -2.981340
  H     10.261130  -13.582780   -1.745210
  H     13.327620  -14.696860   -6.168130
  H     11.840160  -16.772270   -4.490190
  H     13.613490  -18.192540   -5.483320
  H     13.865900  -15.169060  -11.175100

 Total Charge           Charge          ....    0
 Multiplicity           Mult            ....    1
 Number of Electrons    NEL             ....  468
 Basis Dimension        Dim             ....  992

ORBITAL ENERGIES
----------------

  NO   OCC          E(Eh)            E(eV)
   0   2.0000    -101.624532     -2765.3441
   1   2.0000    -101.615743     -2765.1049
   2   2.0000     -89.001487     -2421.8536
   3   2.0000     -88.990714     -2421.5605
   4   2.0000     -88.975558     -2421.1480
   5   2.0000     -19.258795      -524.0585
   6   2.0000     -19.257525      -524.0239
   7   2.0000     -19.250730      -523.8390
   8   2.0000     -19.249467      -523.8046
   9   2.0000     -19.231211      -523.3079
  10   2.0000     -19.219001      -522.9756
  11   2.0000     -19.216529      -522.9083
  12   2.0000     -14.663281      -399.0082
  13   2.0000     -14.654859      -398.7790
  14   2.0000     -14.428101      -392.6086
  15   2.0000     -14.427154      -392.5828
  16   2.0000     -14.415347      -392.2615
  17   2.0000     -14.414615      -392.2416
  18   2.0000     -10.388954      -282.6978
  19   2.0000     -10.384107      -282.5659
  20   2.0000     -10.374903      -282.3155
  21   2.0000     -10.374341      -282.3002
  22   2.0000     -10.362679      -281.9828
  23   2.0000     -10.357115      -281.8314
  24   2.0000     -10.356521      -281.8153
  25   2.0000     -10.345569      -281.5172
  26   2.0000     -10.345059      -281.5034
  27   2.0000     -10.344438      -281.4865
  28   2.0000     -10.340071      -281.3676
  29   2.0000     -10.337277      -281.2916
  30   2.0000     -10.332416      -281.1593
  31   2.0000     -10.329906      -281.0910
  32   2.0000     -10.329747      -281.0867
  33   2.0000     -10.328909      -281.0639
  34   2.0000     -10.325316      -280.9661
  35   2.0000     -10.323465      -280.9158
  36   2.0000     -10.323156      -280.9074
  37   2.0000     -10.320511      -280.8354
  38   2.0000     -10.318866      -280.7906
  39   2.0000     -10.318461      -280.7796
  40   2.0000     -10.318353      -280.7767
  41   2.0000     -10.317929      -280.7651
  42   2.0000     -10.316330      -280.7216
  43   2.0000     -10.313823      -280.6534
  44   2.0000     -10.312913      -280.6286
  45   2.0000     -10.312378      -280.6141
  46   2.0000     -10.310001      -280.5494
  47   2.0000     -10.309328      -280.5311
  48   2.0000     -10.308453      -280.5073
  49   2.0000     -10.307955      -280.4937
  50   2.0000     -10.306250      -280.4473
  51   2.0000     -10.305836      -280.4360
  52   2.0000     -10.305150      -280.4174
  53   2.0000     -10.304990      -280.4130
  54   2.0000     -10.304752      -280.4066
  55   2.0000     -10.304571      -280.4016
  56   2.0000     -10.303829      -280.3814
  57   2.0000     -10.301654      -280.3223
  58   2.0000     -10.299439      -280.2620
  59   2.0000     -10.298182      -280.2278
  60   2.0000     -10.296044      -280.1696
  61   2.0000     -10.292999      -280.0867
  62   2.0000     -10.290884      -280.0292
  63   2.0000      -9.579309      -260.6662
  64   2.0000      -9.570522      -260.4271
  65   2.0000      -8.097178      -220.3354
  66   2.0000      -8.086493      -220.0447
  67   2.0000      -8.071551      -219.6381
  68   2.0000      -7.349956      -200.0025
  69   2.0000      -7.341102      -199.7615
  70   2.0000      -7.339342      -199.7137
  71   2.0000      -7.338789      -199.6986
  72   2.0000      -7.330598      -199.4757
  73   2.0000      -7.330056      -199.4610
  74   2.0000      -6.066556      -165.0794
  75   2.0000      -6.061914      -164.9531
  76   2.0000      -6.059465      -164.8864
  77   2.0000      -6.055866      -164.7885
  78   2.0000      -6.051273      -164.6635
  79   2.0000      -6.048730      -164.5943
  80   2.0000      -6.040635      -164.3740
  81   2.0000      -6.036568      -164.2634
  82   2.0000      -6.033920      -164.1913
  83   2.0000      -1.338565       -36.4242
  84   2.0000      -1.331706       -36.2376
  85   2.0000      -1.156694       -31.4752
  86   2.0000      -1.150581       -31.3089
  87   2.0000      -1.149070       -31.2678
  88   2.0000      -1.135878       -30.9088
  89   2.0000      -1.129985       -30.7485
  90   2.0000      -1.046189       -28.4683
  91   2.0000      -1.035582       -28.1796
  92   2.0000      -1.025141       -27.8955
  93   2.0000      -1.013259       -27.5722
  94   2.0000      -1.006973       -27.4011
  95   2.0000      -1.006177       -27.3795
  96   2.0000      -1.003174       -27.2977
  97   2.0000      -1.001702       -27.2577
  98   2.0000      -0.995046       -27.0766
  99   2.0000      -0.993474       -27.0338
 100   2.0000      -0.985499       -26.8168
 101   2.0000      -0.963142       -26.2084
 102   2.0000      -0.954208       -25.9653
 103   2.0000      -0.942190       -25.6383
 104   2.0000      -0.935207       -25.4483
 105   2.0000      -0.924264       -25.1505
 106   2.0000      -0.915938       -24.9240
 107   2.0000      -0.911699       -24.8086
 108   2.0000      -0.905097       -24.6289
 109   2.0000      -0.900848       -24.5133
 110   2.0000      -0.891870       -24.2690
 111   2.0000      -0.878686       -23.9103
 112   2.0000      -0.864789       -23.5321
 113   2.0000      -0.855624       -23.2827
 114   2.0000      -0.841500       -22.8984
 115   2.0000      -0.840113       -22.8606
 116   2.0000      -0.829815       -22.5804
 117   2.0000      -0.817381       -22.2421
 118   2.0000      -0.805643       -21.9227
 119   2.0000      -0.797739       -21.7076
 120   2.0000      -0.792390       -21.5620
 121   2.0000      -0.778682       -21.1890
 122   2.0000      -0.763093       -20.7648
 123   2.0000      -0.759345       -20.6628
 124   2.0000      -0.746061       -20.3014
 125   2.0000      -0.743495       -20.2315
 126   2.0000      -0.726016       -19.7559
 127   2.0000      -0.715106       -19.4590
 128   2.0000      -0.704920       -19.1818
 129   2.0000      -0.701931       -19.1005
 130   2.0000      -0.691136       -18.8068
 131   2.0000      -0.686148       -18.6710
 132   2.0000      -0.684980       -18.6393
 133   2.0000      -0.681703       -18.5501
 134   2.0000      -0.675726       -18.3874
 135   2.0000      -0.672715       -18.3055
 136   2.0000      -0.660212       -17.9653
 137   2.0000      -0.652840       -17.7647
 138   2.0000      -0.649184       -17.6652
 139   2.0000      -0.643470       -17.5097
 140   2.0000      -0.637426       -17.3453
 141   2.0000      -0.635573       -17.2948
 142   2.0000      -0.629795       -17.1376
 143   2.0000      -0.623875       -16.9765
 144   2.0000      -0.620439       -16.8830
 145   2.0000      -0.616276       -16.7697
 146   2.0000      -0.612771       -16.6743
 147   2.0000      -0.608954       -16.5705
 148   2.0000      -0.607043       -16.5185
 149   2.0000      -0.603100       -16.4112
 150   2.0000      -0.602042       -16.3824
 151   2.0000      -0.597550       -16.2602
 152   2.0000      -0.593354       -16.1460
 153   2.0000      -0.581536       -15.8244
 154   2.0000      -0.575736       -15.6666
 155   2.0000      -0.573347       -15.6016
 156   2.0000      -0.567838       -15.4516
 157   2.0000      -0.559336       -15.2203
 158   2.0000      -0.557159       -15.1611
 159   2.0000      -0.546846       -14.8804
 160   2.0000      -0.545149       -14.8343
 161   2.0000      -0.543680       -14.7943
 162   2.0000      -0.542359       -14.7583
 163   2.0000      -0.540234       -14.7005
 164   2.0000      -0.539135       -14.6706
 165   2.0000      -0.536831       -14.6079
 166   2.0000      -0.533135       -14.5073
 167   2.0000      -0.530180       -14.4269
 168   2.0000      -0.526021       -14.3138
 169   2.0000      -0.523634       -14.2488
 170   2.0000      -0.521082       -14.1794
 171   2.0000      -0.514316       -13.9952
 172   2.0000      -0.513902       -13.9840
 173   2.0000      -0.508486       -13.8366
 174   2.0000      -0.506096       -13.7716
 175   2.0000      -0.503794       -13.7089
 176   2.0000      -0.500605       -13.6221
 177   2.0000      -0.498208       -13.5569
 178   2.0000      -0.497001       -13.5241
 179   2.0000      -0.495399       -13.4805
 180   2.0000      -0.491590       -13.3769
 181   2.0000      -0.489756       -13.3270
 182   2.0000      -0.487387       -13.2625
 183   2.0000      -0.484227       -13.1765
 184   2.0000      -0.475896       -12.9498
 185   2.0000      -0.474328       -12.9071
 186   2.0000      -0.469140       -12.7660
 187   2.0000      -0.465047       -12.6546
 188   2.0000      -0.463621       -12.6158
 189   2.0000      -0.459540       -12.5047
 190   2.0000      -0.458284       -12.4705
 191   2.0000      -0.456420       -12.4198
 192   2.0000      -0.453228       -12.3329
 193   2.0000      -0.452678       -12.3180
 194   2.0000      -0.451835       -12.2951
 195   2.0000      -0.451716       -12.2918
 196   2.0000      -0.451278       -12.2799
 197   2.0000      -0.448762       -12.2114
 198   2.0000      -0.442375       -12.0376
 199   2.0000      -0.440238       -11.9795
 200   2.0000      -0.439148       -11.9498
 201   2.0000      -0.438590       -11.9347
 202   2.0000      -0.438442       -11.9306
 203   2.0000      -0.431353       -11.7377
 204   2.0000      -0.428583       -11.6623
 205   2.0000      -0.424367       -11.5476
 206   2.0000      -0.422192       -11.4884
 207   2.0000      -0.419572       -11.4171
 208   2.0000      -0.410545       -11.1715
 209   2.0000      -0.409652       -11.1472
 210   2.0000      -0.407407       -11.0861
 211   2.0000      -0.401577       -10.9275
 212   2.0000      -0.400030       -10.8854
 213   2.0000      -0.394942       -10.7469
 214   2.0000      -0.392307       -10.6752
 215   2.0000      -0.390524       -10.6267
 216   2.0000      -0.387083       -10.5331
 217   2.0000      -0.382172       -10.3994
 218   2.0000      -0.378754       -10.3064
 219   2.0000      -0.371696       -10.1144
 220   2.0000      -0.358302        -9.7499
 221   2.0000      -0.357585        -9.7304
 222   2.0000      -0.353220        -9.6116
 223   2.0000      -0.344209        -9.3664
 224   2.0000      -0.343333        -9.3426
 225   2.0000      -0.342930        -9.3316
 226   2.0000      -0.339036        -9.2256
 227   2.0000      -0.334809        -9.1106
 228   2.0000      -0.332304        -9.0425
 229   2.0000      -0.327567        -8.9136
 230   2.0000      -0.316532        -8.6133
 231   2.0000      -0.309648        -8.4260
 232   2.0000      -0.297828        -8.1043
 233   2.0000      -0.268025        -7.2933
 234   0.0000      -0.104072        -2.8319
 235   0.0000      -0.094674        -2.5762
 236   0.0000      -0.070722        -1.9244
 237   0.0000      -0.061065        -1.6617
 238   0.0000      -0.058711        -1.5976

MULLIKEN ATOMIC CHARGES
-----------------------
   0 C :    0.031462
   1 C :   -0.126562
   2 S :    0.194029
   3 C :   -0.169211
   4 Cl:    0.003423
   5 C :    0.072817
   6 C :    0.144745
   7 O :   -0.126708
   8 C :   -0.084309
   9 C :    0.284377
  10 C :   -0.323740
  11 C :   -0.192576
  12 N :    0.160411
  13 C :   -0.196468
  14 N :    0.172264
  15 C :   -0.035532
  16 C :    0.057766
  17 C :   -0.027800
  18 C :    0.102331
  19 N :    0.223688
  20 O :   -0.230520
  21 O :   -0.215235
  22 C :    0.099199
  23 C :   -0.040036
  24 C :    0.098297
  25 C :   -0.028274
  26 C :    0.099798
  27 C :   -0.089126
  28 S :    0.161830
  29 C :   -0.100799
  30 C :    0.017767
  31 C :   -0.008584
  32 C :    0.119294
  33 O :   -0.183157
  34 C :    0.059675
  35 C :   -0.016684
  36 C :    0.105634
  37 C :   -0.054826
  38 C :    0.146810
  39 N :    0.260178
  40 O :   -0.219243
  41 O :   -0.243792
  42 C :    0.063436
  43 C :   -0.023629
  44 C :    0.016534
  45 C :    0.013428
  46 C :    0.001343
  47 C :    0.025859
  48 C :   -0.127817
  49 C :    0.129941
  50 O :   -0.128403
  51 C :    0.089621
  52 C :   -0.174349
  53 S :    0.184663
  54 C :   -0.126509
  55 C :    0.012468
  56 C :    0.269713
  57 C :   -0.302785
  58 C :   -0.184027
  59 N :    0.158091
  60 C :   -0.181832
  61 N :    0.165173
  62 Cl:   -0.001009
  63 H :    0.055905
  64 H :    0.035838
  65 H :    0.006442
  66 H :   -0.008074
  67 H :   -0.001066
  68 H :    0.008917
  69 H :    0.001027
  70 H :   -0.001260
  71 H :   -0.005563
  72 H :    0.003052
  73 H :    0.000734
  74 H :    0.002025
  75 H :   -0.012642
  76 H :   -0.007156
  77 H :    0.028882
  78 H :    0.019963
  79 H :    0.034557
  80 H :    0.055894
Sum of atomic charges:   -0.0000000

LOEWDIN ATOMIC CHARGES
----------------------
   0 C :   -0.060090
   1 C :   -0.147614
   2 S :    0.482326
   3 C :   -0.271366
   4 Cl:    0.195000
   5 C :   -0.118200
   6 C :    0.080657
   7 O :   -0.124309
   8 C :   -0.081848
   9 C :    0.073664
  10 C :   -0.130712
  11 C :   -0.015058
  12 N :   -0.046119
  13 C :   -0.026830
  14 N :   -0.038282
  15 C :    0.078912
  16 C :   -0.041243
  17 C :    0.024846
  18 C :   -0.029701
  19 N :    0.278639
  20 O :   -0.198941
  21 O :   -0.188817
  22 C :    0.010981
  23 C :   -0.009006
  24 C :    0.041197
  25 C :   -0.019257
  26 C :   -0.015896
  27 C :   -0.167862
  28 S :    0.466362
  29 C :   -0.148638
  30 C :   -0.110337
  31 C :   -0.016496
  32 C :    0.098591
  33 O :   -0.135557
  34 C :   -0.031660
  35 C :   -0.009389
  36 C :   -0.021727
  37 C :    0.016207
  38 C :   -0.019199
  39 N :    0.291701
  40 O :   -0.186840
  41 O :   -0.192684
  42 C :   -0.001551
  43 C :    0.003293
  44 C :    0.012460
  45 C :    0.013800
  46 C :   -0.017167
  47 C :    0.062817
  48 C :   -0.075966
  49 C :    0.080859
  50 O :   -0.132471
  51 C :   -0.120560
  52 C :   -0.273298
  53 S :    0.474774
  54 C :   -0.151383
  55 C :   -0.055484
  56 C :    0.059738
  57 C :   -0.117381
  58 C :   -0.011988
  59 N :   -0.047699
  60 C :   -0.014956
  61 N :   -0.051044
  62 Cl:    0.190696
  63 H :    0.038562
  64 H :    0.049198
  65 H :    0.043716
  66 H :    0.037416
  67 H :    0.036946
  68 H :    0.035836
  69 H :    0.029045
  70 H :    0.037075
  71 H :   -0.002442
  72 H :    0.033116
  73 H :    0.033358
  74 H :    0.037986
  75 H :    0.035495
  76 H :    0.036059
  77 H :    0.031861
  78 H :    0.036959
  79 H :    0.048365
  80 H :    0.038556

  Mayer bond orders larger than 0.100000
B(  0-C ,  1-C ) :   1.5415 B(  0-C ,  5-C ) :   1.2190 B(  0-C ,  9-C ) :   1.0048
B(  1-C ,  2-S ) :   1.1662 B(  1-C , 63-H ) :   0.9539 B(  2-S ,  3-C ) :   1.1549
B(  3-C ,  4-Cl) :   1.1314 B(  3-C ,  5-C ) :   1.4738 B(  5-C ,  6-C ) :   0.9541
B(  6-C ,  7-O ) :   2.2435 B(  6-C ,  8-C ) :   0.9192 B(  8-C ,  9-C ) :   1.0440
B(  8-C , 15-C ) :   1.6880 B(  9-C , 10-C ) :   1.6728 B( 10-C , 11-C ) :   1.1432
B( 10-C , 13-C ) :   1.1333 B( 11-C , 12-N ) :   2.9932 B( 13-C , 14-N ) :   2.9872
B( 15-C , 16-C ) :   1.0590 B( 15-C , 64-H ) :   0.9488 B( 16-C , 17-C ) :   1.2854
B( 16-C , 24-C ) :   1.3386 B( 17-C , 18-C ) :   1.4012 B( 17-C , 65-H ) :   0.9991
B( 18-C , 19-N ) :   0.8555 B( 18-C , 22-C ) :   1.3555 B( 19-N , 20-O ) :   1.5377
B( 19-N , 21-O ) :   1.5529 B( 20-O , 21-O ) :   0.2727 B( 22-C , 23-C ) :   1.3356
B( 22-C , 25-C ) :   1.0577 B( 23-C , 24-C ) :   1.4099 B( 23-C , 66-H ) :   0.9950
B( 24-C , 67-H ) :   0.9833 B( 25-C , 26-C ) :   1.7644 B( 25-C , 68-H ) :   0.9579
B( 26-C , 27-C ) :   1.1196 B( 26-C , 69-H ) :   0.9522 B( 27-C , 28-S ) :   1.1087
B( 27-C , 31-C ) :   1.5063 B( 28-S , 29-C ) :   1.1646 B( 29-C , 30-C ) :   1.4251
B( 29-C , 34-C ) :   1.1078 B( 30-C , 31-C ) :   1.2605 B( 30-C , 32-C ) :   0.9691
B( 31-C , 70-H ) :   0.9999 B( 32-C , 33-O ) :   2.1771 B( 32-C , 71-H ) :   0.9558
B( 34-C , 35-C ) :   1.7138 B( 34-C , 72-H ) :   0.9464 B( 35-C , 36-C ) :   1.0761
B( 35-C , 73-H ) :   0.9805 B( 36-C , 37-C ) :   1.3060 B( 36-C , 44-C ) :   1.3132
B( 37-C , 38-C ) :   1.3896 B( 37-C , 74-H ) :   0.9843 B( 38-C , 39-N ) :   0.8824
B( 38-C , 42-C ) :   1.3444 B( 39-N , 40-O ) :   1.5672 B( 39-N , 41-O ) :   1.4872
B( 40-O , 41-O ) :   0.2592 B( 42-C , 43-C ) :   1.3478 B( 42-C , 45-C ) :   1.0832
B( 43-C , 44-C ) :   1.3992 B( 43-C , 75-H ) :   0.9888 B( 44-C , 76-H ) :   0.9980
B( 45-C , 46-C ) :   1.7601 B( 45-C , 77-H ) :   0.9494 B( 46-C , 47-C ) :   1.0711
B( 46-C , 78-H ) :   0.9457 B( 47-C , 48-C ) :   1.7661 B( 47-C , 79-H ) :   0.9251
B( 48-C , 49-C ) :   0.9305 B( 48-C , 56-C ) :   1.0116 B( 49-C , 50-O ) :   2.2806
B( 49-C , 51-C ) :   0.9265 B( 51-C , 52-C ) :   1.4766 B( 51-C , 55-C ) :   1.2213
B( 52-C , 53-S ) :   1.1562 B( 52-C , 62-Cl) :   1.1278 B( 53-S , 54-C ) :   1.1558
B( 54-C , 55-C ) :   1.5577 B( 54-C , 80-H ) :   0.9549 B( 55-C , 56-C ) :   1.0060
B( 56-C , 57-C ) :   1.7087 B( 57-C , 58-C ) :   1.1289 B( 57-C , 60-C ) :   1.1572
B( 58-C , 59-N ) :   3.0045 B( 60-C , 61-N ) :   2.9849

-----------------------------------------------------------------------------
         ABSORPTION SPECTRUM VIA TRANSITION ELECTRIC DIPOLE MOMENTS
-----------------------------------------------------------------------------
State   Energy  Wavelength   fosc         T2         TX        TY        TZ
        (cm-1)    (nm)                  (au**2)     (au)      (au)      (au)
-----------------------------------------------------------------------------
   0   21995.3    454.6   1.833542768  27.44327  -2.59840   4.22144   1.69441
   1   23680.1    422.3   0.144777952   2.01277   0.33412   0.28914   1.34816
   2   27127.0    368.6   0.132340901   1.60608  -0.62081   0.82485   0.73505
   3   27909.7    358.3   0.153449207   1.81002   0.85844  -0.92228  -0.47171
   4   28431.7    351.7   0.037852220   0.43829   0.21255   0.62508   0.04887
   5   28774.4    347.5   0.071030343   0.81267  -0.17033   0.31632  -0.82680
   6   29338.9    340.8   0.115155975   1.29217   0.78834  -0.69958  -0.42576
   7   29751.7    336.1   0.023320396   0.25805   0.10300  -0.11180   0.48470
   8   30246.0    330.6   0.052098763   0.56707   0.34832  -0.59959  -0.29366
   9   31071.2    321.8   0.163843497   1.73599   0.39272  -0.53314  -1.13909
  10   31742.8    315.0   0.165026690   1.71153  -0.72456   1.08890  -0.02902
  11   32786.9    305.0   0.042347565   0.42521   0.45821  -0.30001  -0.35390
  12   33424.8    299.2   0.036090710   0.35547  -0.38728   0.21710   0.39794
  13   33861.8    295.3   0.057463836   0.55868  -0.11708  -0.03294   0.73748
  14   34403.5    290.7   0.111613597   1.06805  -0.57555   0.79187   0.33125
  15   34541.3    289.5   0.038465265   0.36661   0.13562  -0.58218   0.09634
  16   34826.1    287.1   0.047391857   0.44800   0.32484  -0.25868  -0.52494
  17   35309.1    283.2   0.381894225   3.56068  -1.37788   1.11076   0.65446
  18   35642.7    280.6   0.008503563   0.07854  -0.07458  -0.24833  -0.10637
  19   35964.3    278.1   0.080624055   0.73802  -0.55556   0.60538   0.25077
  20   36686.4    272.6   0.072677038   0.65218  -0.45985   0.65487  -0.10890
  21   37058.3    269.8   0.019898634   0.17677  -0.19699   0.35915   0.09474
  22   37550.9    266.3   0.164571491   1.44281  -1.05828   0.56584  -0.05179
  23   37848.7    264.2   0.782167759   6.80337   1.11593  -0.30045  -2.33833
  24   38026.0    263.0   0.195346145   1.69122  -1.02195   0.76339  -0.25313
  25   38309.8    261.0   0.008620332   0.07408  -0.01176  -0.25910  -0.08251
  26   38696.8    258.4   0.378612215   3.22103  -0.66527  -0.36011   1.62750
  27   38967.5    256.6   0.046767572   0.39511  -0.51758   0.35392   0.04430
  28   39023.8    256.3   0.003577734   0.03018   0.00438   0.08133   0.15346
  29   39220.7    255.0   0.042526883   0.35696  -0.36980   0.22511  -0.41174
  30   39431.8    253.6   0.167644788   1.39965  -0.85432  -0.03983   0.81744
  31   39785.8    251.3   0.059869754   0.49540  -0.51882  -0.16364   0.44660
  32   40081.0    249.5   0.065551402   0.53842  -0.35011   0.48498   0.42501

FINAL SINGLE POINT ENERGY     -4691.459476832619

DIPOLE MOMENT
-------------
                                X             Y             Z
Electronic contribution:     -1.33077       8.11656      -9.49099
Nuclear contribution   :      1.04560      -8.57417      11.86974
                        -----------------------------------------
Total Dipole Moment    :     -0.28517      -0.45761       2.37875
                        -----------------------------------------
Magnitude (a.u.)       :      2.43910
Magnitude (Debye)      :      6.19970

Rotational constants in cm-1:     0.003464     0.000184     0.000178
Rotational constants in MHz :   103.846828     5.522400     5.345322

                             ****ORCA TERMINATED NORMALLY****
TOTAL RUN TIME: 0 days 0 hours 8 minutes 51 seconds 684 msec
