                         Program Version 4.2.0 -  RELEASE  -
|  1> # ORCA input file
|  2> # SCF done       -148.493394515919          0.000508153323
|  3> ! CAM-B3LYP def2-SVP def2/J RIJCOSX Grid4 TightSCF
|  4> %maxcore 5000
|  5> %tddft
|  6>     Mode sTDDFT
|  7>     Ethresh 5.0
|  8>     maxcore 5000
|  9> end
| 10>
| 11> %pal
| 12>   nprocs 6
| 13>   end
| 14> * xyz 0 1
| 15>    C        4.15579         1.90243        -7.06810
| 16>    C        3.72097         2.87417        -7.91540
| 17>    S        3.68914         2.31092        -9.54596
| 18>    C        4.27648         0.73195        -9.08069
| 19>   Cl        4.53278        -0.48715       -10.22818
| 20>    C        4.47552         0.67493        -7.73326
| 21>    C        4.94346        -0.32158        -6.76301
| 22>    O        5.29301        -1.45659        -6.98526
| 23>    C        4.82312         0.36396        -5.43436
| 24>    C        4.41098         1.74891        -5.65178
| 25>    C        4.34417         2.75402        -4.72814
| 26>    C        3.93406         4.05473        -5.09254
| 27>    N        3.59583         5.11309        -5.37736
| 28>    C        4.70482         2.64510        -3.36845
| 29>    N        5.01394         2.63846        -2.26349
| 30>    C        4.86694        -0.24728        -4.22708
| 31>    C        5.29731        -1.59647        -3.93939
| 32>    C        4.60367        -2.31826        -2.96827
| 33>    C        4.98200        -3.60882        -2.64285
| 34>    N        4.09640        -4.33601        -1.77551
| 35>    O        3.49271        -3.70121        -0.93314
| 36>    O        3.95586        -5.52761        -1.95607
| 37>    C        6.12534        -4.20320        -3.20900
| 38>    C        6.79490        -3.47279        -4.19583
| 39>    C        6.39625        -2.20590        -4.55901
| 40>    C        6.66898        -5.46015        -2.73639
| 41>    C        6.70216        -5.77656        -1.43163
| 42>    C        7.23915        -6.99096        -0.89164
| 43>    C        8.03033        -7.96290        -1.53962
| 44>    C        8.72536        -8.54131        -2.75093
| 45>    C        9.22976        -9.68125        -1.81123
| 46>    C        8.47835        -8.96098        -0.72935
| 47>    S        7.97804        -8.79952         0.90179
| 48>    C        7.11270        -7.34126         0.45742
| 49>    C        6.35654        -6.62152         1.44118
| 50>    C        6.79493        -6.43277         2.76158
| 51>    N        6.17385        -5.64716         3.60691
| 52>    C        5.10147        -4.98618         3.16287
| 53>    N        4.51891        -5.20966         1.98520
| 54>    C        5.10903        -6.03733         1.15717
| 55>    C        4.49545        -4.05050         4.08093
| 56>    C        3.69925        -2.99379         3.81910
| 57>    C        2.92324        -2.39605         4.96355
| 58>    O        3.10161        -2.61296         6.13584
| 59>    C        1.90884        -1.55877         4.31913
| 60>    C        0.82767        -0.82098         4.70116
| 61>    S        0.06776        -0.08592         3.31018
| 62>    C        1.22637        -0.77391         2.23189
| 63>    C        2.13611        -1.52841         2.90386
| 64>    C        3.31958        -2.30801         2.58868
| 65>    C        4.00810        -2.18877         1.41710
| 66>    C        3.56137        -1.33829         0.38011
| 67>    N        3.24933        -0.63493        -0.47102
| 68>    C        5.24004        -2.78505         1.09019
| 69>    N        6.25690        -3.17925         0.72947
| 70>   Cl        0.22171        -0.58730         6.26494
| 71>    H        3.41180         3.87741        -7.69888
| 72>    H        4.50013         0.29598        -3.36322
| 73>    H        3.73537        -1.89046        -2.48737
| 74>    H        7.66978        -3.90833        -4.65409
| 75>    H        6.96282        -1.66204        -5.29632
| 76>    H        7.11001        -6.11473        -3.47431
| 77>    H        6.34551        -5.05778        -0.70400
| 78>    H        9.51434        -7.91818        -3.16655
| 79>    H        8.05711        -8.87385        -3.54244
| 80>    H       10.30893        -9.72123        -1.67478
| 81>    H        8.85600       -10.67494        -2.05085
| 82>    H        7.68554        -6.92898         3.12740
| 83>    H        4.57619        -6.26732         0.24293
| 84>    H        4.67337        -4.26876         5.12870
| 85>    H        1.14563        -0.58300         1.18055
| 86> *
| 87>
| 88>                          ****END OF INPUT****

CARTESIAN COORDINATES (ANGSTROEM)
---------------------------------
  C      4.155790    1.902430   -7.068100
  C      3.720970    2.874170   -7.915400
  S      3.689140    2.310920   -9.545960
  C      4.276480    0.731950   -9.080690
  Cl     4.532780   -0.487150  -10.228180
  C      4.475520    0.674930   -7.733260
  C      4.943460   -0.321580   -6.763010
  O      5.293010   -1.456590   -6.985260
  C      4.823120    0.363960   -5.434360
  C      4.410980    1.748910   -5.651780
  C      4.344170    2.754020   -4.728140
  C      3.934060    4.054730   -5.092540
  N      3.595830    5.113090   -5.377360
  C      4.704820    2.645100   -3.368450
  N      5.013940    2.638460   -2.263490
  C      4.866940   -0.247280   -4.227080
  C      5.297310   -1.596470   -3.939390
  C      4.603670   -2.318260   -2.968270
  C      4.982000   -3.608820   -2.642850
  N      4.096400   -4.336010   -1.775510
  O      3.492710   -3.701210   -0.933140
  O      3.955860   -5.527610   -1.956070
  C      6.125340   -4.203200   -3.209000
  C      6.794900   -3.472790   -4.195830
  C      6.396250   -2.205900   -4.559010
  C      6.668980   -5.460150   -2.736390
  C      6.702160   -5.776560   -1.431630
  C      7.239150   -6.990960   -0.891640
  C      8.030330   -7.962900   -1.539620
  C      8.725360   -8.541310   -2.750930
  C      9.229760   -9.681250   -1.811230
  C      8.478350   -8.960980   -0.729350
  S      7.978040   -8.799520    0.901790
  C      7.112700   -7.341260    0.457420
  C      6.356540   -6.621520    1.441180
  C      6.794930   -6.432770    2.761580
  N      6.173850   -5.647160    3.606910
  C      5.101470   -4.986180    3.162870
  N      4.518910   -5.209660    1.985200
  C      5.109030   -6.037330    1.157170
  C      4.495450   -4.050500    4.080930
  C      3.699250   -2.993790    3.819100
  C      2.923240   -2.396050    4.963550
  O      3.101610   -2.612960    6.135840
  C      1.908840   -1.558770    4.319130
  C      0.827670   -0.820980    4.701160
  S      0.067760   -0.085920    3.310180
  C      1.226370   -0.773910    2.231890
  C      2.136110   -1.528410    2.903860
  C      3.319580   -2.308010    2.588680
  C      4.008100   -2.188770    1.417100
  C      3.561370   -1.338290    0.380110
  N      3.249330   -0.634930   -0.471020
  C      5.240040   -2.785050    1.090190
  N      6.256900   -3.179250    0.729470
  Cl     0.221710   -0.587300    6.264940
  H      3.411800    3.877410   -7.698880
  H      4.500130    0.295980   -3.363220
  H      3.735370   -1.890460   -2.487370
  H      7.669780   -3.908330   -4.654090
  H      6.962820   -1.662040   -5.296320
  H      7.110010   -6.114730   -3.474310
  H      6.345510   -5.057780   -0.704000
  H      9.514340   -7.918180   -3.166550
  H      8.057110   -8.873850   -3.542440
  H     10.308930   -9.721230   -1.674780
  H      8.856000  -10.674940   -2.050850
  H      7.685540   -6.928980    3.127400
  H      4.576190   -6.267320    0.242930
  H      4.673370   -4.268760    5.128700
  H      1.145630   -0.583000    1.180550

 Total Charge           Charge          ....    0
 Multiplicity           Mult            ....    1
 Number of Electrons    NEL             ....  418
 Basis Dimension        Dim             ....  879

ORBITAL ENERGIES
----------------

  NO   OCC          E(Eh)            E(eV)
   0   2.0000    -101.619619     -2765.2104
   1   2.0000    -101.613332     -2765.0393
   2   2.0000     -88.995653     -2421.6948
   3   2.0000     -88.989295     -2421.5218
   4   2.0000     -88.966571     -2420.9035
   5   2.0000     -19.250301      -523.8273
   6   2.0000     -19.249727      -523.8117
   7   2.0000     -19.224212      -523.1174
   8   2.0000     -19.216269      -522.9013
   9   2.0000     -14.654187      -398.7607
  10   2.0000     -14.420765      -392.4090
  11   2.0000     -14.417990      -392.3334
  12   2.0000     -14.417969      -392.3329
  13   2.0000     -14.417646      -392.3241
  14   2.0000     -14.417407      -392.3176
  15   2.0000     -14.416876      -392.3031
  16   2.0000     -10.381848      -282.5044
  17   2.0000     -10.378362      -282.4096
  18   2.0000     -10.372109      -282.2394
  19   2.0000     -10.372042      -282.2376
  20   2.0000     -10.349195      -281.6159
  21   2.0000     -10.349123      -281.6140
  22   2.0000     -10.348500      -281.5970
  23   2.0000     -10.344571      -281.4901
  24   2.0000     -10.343973      -281.4738
  25   2.0000     -10.331249      -281.1276
  26   2.0000     -10.331226      -281.1269
  27   2.0000     -10.325457      -280.9700
  28   2.0000     -10.324130      -280.9339
  29   2.0000     -10.323124      -280.9065
  30   2.0000     -10.322733      -280.8958
  31   2.0000     -10.322595      -280.8921
  32   2.0000     -10.321848      -280.8718
  33   2.0000     -10.321488      -280.8620
  34   2.0000     -10.319393      -280.8050
  35   2.0000     -10.314316      -280.6668
  36   2.0000     -10.313748      -280.6514
  37   2.0000     -10.309834      -280.5448
  38   2.0000     -10.309012      -280.5225
  39   2.0000     -10.308259      -280.5020
  40   2.0000     -10.308175      -280.4997
  41   2.0000     -10.304557      -280.4013
  42   2.0000     -10.304083      -280.3883
  43   2.0000     -10.302043      -280.3329
  44   2.0000     -10.301864      -280.3280
  45   2.0000     -10.301443      -280.3165
  46   2.0000     -10.297635      -280.2129
  47   2.0000     -10.295985      -280.1680
  48   2.0000     -10.291817      -280.0546
  49   2.0000     -10.291762      -280.0531
  50   2.0000     -10.291756      -280.0529
  51   2.0000     -10.289637      -279.9953
  52   2.0000     -10.288734      -279.9707
  53   2.0000     -10.283287      -279.8225
  54   2.0000     -10.280775      -279.7541
  55   2.0000     -10.271558      -279.5033
  56   2.0000      -9.574353      -260.5314
  57   2.0000      -9.568139      -260.3623
  58   2.0000      -8.091405      -220.1783
  59   2.0000      -8.085000      -220.0040
  60   2.0000      -8.061110      -219.3539
  61   2.0000      -7.344978      -199.8670
  62   2.0000      -7.338771      -199.6981
  63   2.0000      -7.334400      -199.5792
  64   2.0000      -7.333869      -199.5647
  65   2.0000      -7.328169      -199.4096
  66   2.0000      -7.327646      -199.3954
  67   2.0000      -6.060763      -164.9217
  68   2.0000      -6.056172      -164.7968
  69   2.0000      -6.054372      -164.7478
  70   2.0000      -6.053678      -164.7290
  71   2.0000      -6.049767      -164.6225
  72   2.0000      -6.047266      -164.5545
  73   2.0000      -6.030486      -164.0979
  74   2.0000      -6.026297      -163.9839
  75   2.0000      -6.023317      -163.9028
  76   2.0000      -1.329962       -36.1901
  77   2.0000      -1.147430       -31.2231
  78   2.0000      -1.141888       -31.0724
  79   2.0000      -1.133581       -30.8463
  80   2.0000      -1.091461       -29.7002
  81   2.0000      -1.040031       -28.3007
  82   2.0000      -1.033762       -28.1301
  83   2.0000      -1.017229       -27.6802
  84   2.0000      -1.014920       -27.6174
  85   2.0000      -1.005422       -27.3589
  86   2.0000      -0.997782       -27.1510
  87   2.0000      -0.996939       -27.1281
  88   2.0000      -0.994183       -27.0531
  89   2.0000      -0.988254       -26.8918
  90   2.0000      -0.984352       -26.7856
  91   2.0000      -0.983271       -26.7562
  92   2.0000      -0.956718       -26.0336
  93   2.0000      -0.950406       -25.8619
  94   2.0000      -0.940544       -25.5935
  95   2.0000      -0.926568       -25.2132
  96   2.0000      -0.908366       -24.7179
  97   2.0000      -0.905820       -24.6486
  98   2.0000      -0.901914       -24.5423
  99   2.0000      -0.896777       -24.4026
 100   2.0000      -0.883483       -24.0408
 101   2.0000      -0.863605       -23.4999
 102   2.0000      -0.855074       -23.2677
 103   2.0000      -0.834259       -22.7013
 104   2.0000      -0.828709       -22.5503
 105   2.0000      -0.820146       -22.3173
 106   2.0000      -0.803415       -21.8620
 107   2.0000      -0.791434       -21.5360
 108   2.0000      -0.777696       -21.1622
 109   2.0000      -0.764571       -20.8050
 110   2.0000      -0.755606       -20.5611
 111   2.0000      -0.753020       -20.4907
 112   2.0000      -0.745452       -20.2848
 113   2.0000      -0.733352       -19.9555
 114   2.0000      -0.723978       -19.7004
 115   2.0000      -0.715171       -19.4608
 116   2.0000      -0.703441       -19.1416
 117   2.0000      -0.687240       -18.7007
 118   2.0000      -0.685441       -18.6518
 119   2.0000      -0.678276       -18.4568
 120   2.0000      -0.674859       -18.3638
 121   2.0000      -0.672643       -18.3035
 122   2.0000      -0.658678       -17.9236
 123   2.0000      -0.655818       -17.8457
 124   2.0000      -0.650383       -17.6978
 125   2.0000      -0.635545       -17.2941
 126   2.0000      -0.632138       -17.2014
 127   2.0000      -0.625084       -17.0094
 128   2.0000      -0.616770       -16.7832
 129   2.0000      -0.614170       -16.7124
 130   2.0000      -0.607434       -16.5291
 131   2.0000      -0.606090       -16.4925
 132   2.0000      -0.601336       -16.3632
 133   2.0000      -0.596922       -16.2431
 134   2.0000      -0.584197       -15.8968
 135   2.0000      -0.580458       -15.7951
 136   2.0000      -0.573522       -15.6063
 137   2.0000      -0.565627       -15.3915
 138   2.0000      -0.563893       -15.3443
 139   2.0000      -0.558791       -15.2055
 140   2.0000      -0.554591       -15.0912
 141   2.0000      -0.551473       -15.0063
 142   2.0000      -0.543708       -14.7950
 143   2.0000      -0.536428       -14.5969
 144   2.0000      -0.536163       -14.5897
 145   2.0000      -0.532977       -14.5030
 146   2.0000      -0.531774       -14.4703
 147   2.0000      -0.529805       -14.4167
 148   2.0000      -0.527614       -14.3571
 149   2.0000      -0.524872       -14.2825
 150   2.0000      -0.519857       -14.1460
 151   2.0000      -0.516510       -14.0550
 152   2.0000      -0.511049       -13.9064
 153   2.0000      -0.506037       -13.7700
 154   2.0000      -0.505166       -13.7463
 155   2.0000      -0.498989       -13.5782
 156   2.0000      -0.496819       -13.5191
 157   2.0000      -0.492400       -13.3989
 158   2.0000      -0.490371       -13.3437
 159   2.0000      -0.488641       -13.2966
 160   2.0000      -0.482146       -13.1199
 161   2.0000      -0.481510       -13.1025
 162   2.0000      -0.471940       -12.8421
 163   2.0000      -0.471189       -12.8217
 164   2.0000      -0.465070       -12.6552
 165   2.0000      -0.462497       -12.5852
 166   2.0000      -0.458138       -12.4666
 167   2.0000      -0.455908       -12.4059
 168   2.0000      -0.455777       -12.4023
 169   2.0000      -0.452215       -12.3054
 170   2.0000      -0.451326       -12.2812
 171   2.0000      -0.448625       -12.2077
 172   2.0000      -0.445943       -12.1347
 173   2.0000      -0.445432       -12.1208
 174   2.0000      -0.444633       -12.0991
 175   2.0000      -0.441899       -12.0247
 176   2.0000      -0.440260       -11.9801
 177   2.0000      -0.435128       -11.8404
 178   2.0000      -0.433214       -11.7884
 179   2.0000      -0.432251       -11.7622
 180   2.0000      -0.430424       -11.7124
 181   2.0000      -0.422923       -11.5083
 182   2.0000      -0.418914       -11.3992
 183   2.0000      -0.417280       -11.3548
 184   2.0000      -0.415503       -11.3064
 185   2.0000      -0.408146       -11.1062
 186   2.0000      -0.405476       -11.0336
 187   2.0000      -0.403980       -10.9928
 188   2.0000      -0.399299       -10.8655
 189   2.0000      -0.394744       -10.7415
 190   2.0000      -0.391069       -10.6415
 191   2.0000      -0.388051       -10.5594
 192   2.0000      -0.386738       -10.5237
 193   2.0000      -0.384775       -10.4703
 194   2.0000      -0.379563       -10.3284
 195   2.0000      -0.372253       -10.1295
 196   2.0000      -0.365609        -9.9487
 197   2.0000      -0.352993        -9.6054
 198   2.0000      -0.341621        -9.2960
 199   2.0000      -0.340176        -9.2566
 200   2.0000      -0.339910        -9.2494
 201   2.0000      -0.337876        -9.1941
 202   2.0000      -0.328246        -8.9320
 203   2.0000      -0.324729        -8.8363
 204   2.0000      -0.323255        -8.7962
 205   2.0000      -0.308844        -8.4041
 206   2.0000      -0.306590        -8.3427
 207   2.0000      -0.291665        -7.9366
 208   2.0000      -0.266514        -7.2522
 209   0.0000      -0.094444        -2.5700
 210   0.0000      -0.090965        -2.4753
 211   0.0000      -0.060231        -1.6390
 212   0.0000      -0.051799        -1.4095
 213   0.0000      -0.042512        -1.1568

MULLIKEN ATOMIC CHARGES
-----------------------
   0 C :    0.032279
   1 C :   -0.128089
   2 S :    0.188374
   3 C :   -0.172153
   4 Cl:   -0.000606
   5 C :    0.074549
   6 C :    0.143819
   7 O :   -0.128767
   8 C :   -0.093571
   9 C :    0.279179
  10 C :   -0.314890
  11 C :   -0.193666
  12 N :    0.156621
  13 C :   -0.206767
  14 N :    0.181385
  15 C :   -0.031037
  16 C :    0.045446
  17 C :   -0.023995
  18 C :    0.095346
  19 N :    0.246366
  20 O :   -0.236398
  21 O :   -0.212993
  22 C :    0.111645
  23 C :   -0.041408
  24 C :    0.105368
  25 C :   -0.022079
  26 C :   -0.005889
  27 C :    0.095427
  28 C :   -0.150328
  29 C :    0.142896
  30 C :    0.091569
  31 C :   -0.166466
  32 S :    0.153961
  33 C :   -0.145145
  34 C :    0.003333
  35 C :    0.044532
  36 N :   -0.048039
  37 C :   -0.080970
  38 N :   -0.063121
  39 C :    0.005990
  40 C :    0.082946
  41 C :   -0.107367
  42 C :    0.125687
  43 O :   -0.121815
  44 C :    0.094229
  45 C :   -0.171503
  46 S :    0.185647
  47 C :   -0.121661
  48 C :    0.003400
  49 C :    0.313420
  50 C :   -0.304493
  51 C :   -0.154933
  52 N :    0.123930
  53 C :   -0.155254
  54 N :    0.158421
  55 Cl:   -0.000899
  56 H :    0.054433
  57 H :    0.053229
  58 H :    0.009005
  59 H :   -0.013743
  60 H :   -0.003196
  61 H :   -0.009511
  62 H :    0.012085
  63 H :    0.017431
  64 H :    0.020632
  65 H :    0.026671
  66 H :    0.026362
  67 H :    0.009059
  68 H :    0.025052
  69 H :    0.037005
  70 H :    0.054022
Sum of atomic charges:    0.0000000

LOEWDIN ATOMIC CHARGES
----------------------
   0 C :   -0.059350
   1 C :   -0.149033
   2 S :    0.477318
   3 C :   -0.272831
   4 Cl:    0.191684
   5 C :   -0.117200
   6 C :    0.080734
   7 O :   -0.126063
   8 C :   -0.085921
   9 C :    0.072638
  10 C :   -0.129776
  11 C :   -0.014500
  12 N :   -0.050018
  13 C :   -0.029650
  14 N :   -0.032906
  15 C :    0.086135
  16 C :   -0.043350
  17 C :    0.032067
  18 C :   -0.035941
  19 N :    0.292203
  20 O :   -0.187013
  21 O :   -0.186541
  22 C :    0.020719
  23 C :   -0.013113
  24 C :    0.044971
  25 C :   -0.032188
  26 C :    0.008136
  27 C :   -0.048359
  28 C :   -0.062813
  29 C :   -0.001297
  30 C :   -0.005980
  31 C :   -0.197001
  32 S :    0.436319
  33 C :   -0.163384
  34 C :   -0.068003
  35 C :    0.049023
  36 N :   -0.065716
  37 C :    0.006364
  38 N :   -0.060108
  39 C :    0.053116
  40 C :    0.066422
  41 C :   -0.060128
  42 C :    0.082628
  43 O :   -0.125803
  44 C :   -0.118684
  45 C :   -0.272591
  46 S :    0.476207
  47 C :   -0.151503
  48 C :   -0.054738
  49 C :    0.077273
  50 C :   -0.113882
  51 C :    0.003115
  52 N :   -0.069075
  53 C :   -0.003428
  54 N :   -0.065237
  55 Cl:    0.191789
  56 H :    0.038032
  57 H :    0.054031
  58 H :    0.041145
  59 H :    0.035444
  60 H :    0.036185
  61 H :    0.031459
  62 H :    0.027773
  63 H :    0.028738
  64 H :    0.028920
  65 H :    0.031146
  66 H :    0.031135
  67 H :    0.023625
  68 H :    0.025346
  69 H :    0.053842
  70 H :    0.037442

  Mayer bond orders larger than 0.100000
B(  0-C ,  1-C ) :   1.5466 B(  0-C ,  5-C ) :   1.2191 B(  0-C ,  9-C ) :   1.0030
B(  1-C ,  2-S ) :   1.1621 B(  1-C , 56-H ) :   0.9537 B(  2-S ,  3-C ) :   1.1542
B(  3-C ,  4-Cl) :   1.1272 B(  3-C ,  5-C ) :   1.4767 B(  5-C ,  6-C ) :   0.9526
B(  6-C ,  7-O ) :   2.2405 B(  6-C ,  8-C ) :   0.9256 B(  8-C ,  9-C ) :   1.0401
B(  8-C , 15-C ) :   1.6876 B(  9-C , 10-C ) :   1.6820 B( 10-C , 11-C ) :   1.1425
B( 10-C , 13-C ) :   1.1289 B( 11-C , 12-N ) :   2.9948 B( 13-C , 14-N ) :   3.0050
B( 15-C , 16-C ) :   1.0593 B( 15-C , 57-H ) :   0.9513 B( 16-C , 17-C ) :   1.2981
B( 16-C , 24-C ) :   1.3339 B( 17-C , 18-C ) :   1.3829 B( 17-C , 58-H ) :   0.9902
B( 18-C , 19-N ) :   0.8729 B( 18-C , 22-C ) :   1.3418 B( 19-N , 20-O ) :   1.5108
B( 19-N , 21-O ) :   1.5384 B( 20-O , 21-O ) :   0.2544 B( 22-C , 23-C ) :   1.3434
B( 22-C , 25-C ) :   1.0354 B( 23-C , 24-C ) :   1.4029 B( 23-C , 59-H ) :   0.9955
B( 24-C , 60-H ) :   0.9845 B( 25-C , 26-C ) :   1.7586 B( 25-C , 61-H ) :   0.9596
B( 26-C , 27-C ) :   1.1340 B( 26-C , 62-H ) :   0.9324 B( 27-C , 28-C ) :   1.1879
B( 27-C , 33-C ) :   1.4833 B( 28-C , 29-C ) :   1.1114 B( 28-C , 31-C ) :   1.6483
B( 29-C , 30-C ) :   1.1762 B( 29-C , 63-H ) :   0.8929 B( 29-C , 64-H ) :   0.8928
B( 30-C , 31-C ) :   1.1234 B( 30-C , 65-H ) :   0.9006 B( 30-C , 66-H ) :   0.8996
B( 31-C , 32-S ) :   1.0797 B( 32-S , 33-C ) :   1.1240 B( 33-C , 34-C ) :   1.0455
B( 34-C , 35-C ) :   1.3193 B( 34-C , 39-C ) :   1.3074 B( 35-C , 36-N ) :   1.5808
B( 35-C , 67-H ) :   0.9844 B( 36-N , 37-C ) :   1.4947 B( 37-C , 38-N ) :   1.4789
B( 37-C , 40-C ) :   1.0036 B( 38-N , 39-C ) :   1.5475 B( 39-C , 68-H ) :   0.9802
B( 40-C , 41-C ) :   1.7305 B( 40-C , 69-H ) :   0.9428 B( 41-C , 42-C ) :   0.9252
B( 41-C , 49-C ) :   1.0056 B( 42-C , 43-O ) :   2.2854 B( 42-C , 44-C ) :   0.9264
B( 44-C , 45-C ) :   1.4773 B( 44-C , 48-C ) :   1.2220 B( 45-C , 46-S ) :   1.1552
B( 45-C , 55-Cl) :   1.1285 B( 46-S , 47-C ) :   1.1593 B( 47-C , 48-C ) :   1.5535
B( 47-C , 70-H ) :   0.9532 B( 48-C , 49-C ) :   1.0036 B( 49-C , 50-C ) :   1.7007
B( 50-C , 51-C ) :   1.1403 B( 50-C , 53-C ) :   1.1785 B( 51-C , 52-N ) :   2.9137
B( 53-C , 54-N ) :   2.9116

-----------------------------------------------------------------------------
         ABSORPTION SPECTRUM VIA TRANSITION ELECTRIC DIPOLE MOMENTS
-----------------------------------------------------------------------------
State   Energy  Wavelength   fosc         T2         TX        TY        TZ
        (cm-1)    (nm)                  (au**2)     (au)      (au)      (au)
-----------------------------------------------------------------------------
   0   21131.7    473.2   0.157551477   2.45451   0.66440  -0.36626  -1.37074
   1   22969.4    435.4   0.584989950   8.38443   0.76665  -2.34931   1.50912
   2   25480.7    392.5   0.118946043   1.53679  -0.13191   1.23028  -0.07623
   3   26833.6    372.7   0.040243764   0.49374   0.29734  -0.60300  -0.20425
   4   27694.6    361.1   0.037115617   0.44120  -0.24304   0.61547   0.05771
   5   28135.1    355.4   0.107425629   1.25700   0.11294  -0.89573   0.66477
   6   28901.7    346.0   0.119899512   1.36574   0.75248  -0.87063  -0.20379
   7   29699.1    336.7   0.018130653   0.20098   0.42092  -0.15092  -0.03196
   8   30116.5    332.0   0.147019785   1.60712   0.46391  -1.15073  -0.26021
   9   30518.8    327.7   0.070038393   0.75552   0.54370  -0.59849   0.31894
  10   31938.0    313.1   0.028385237   0.29259  -0.51935  -0.14114  -0.05429
  11   32495.3    307.7   0.279099188   2.82757  -0.56566   0.31085   1.55273
  12   32951.1    303.5   0.112683284   1.12581  -0.45203  -0.07418   0.95707
  13   33262.2    300.6   0.071599369   0.70865   0.55851  -0.40840  -0.47951
  14   33566.7    297.9   0.061867423   0.60678  -0.37638  -0.30581   0.60959
  15   33900.3    295.0   0.132715900   1.28883   0.36972  -0.24389  -1.04530
  16   34118.1    293.1   0.043272264   0.41754   0.47311   0.03449  -0.43877
  17   34796.5    287.4   0.017852739   0.16891   0.39870  -0.07255   0.06843
  18   34979.7    285.9   0.015843141   0.14911   0.23035  -0.14071  -0.27613
  19   35438.2    282.2   0.107977439   1.00308   0.01375  -0.64832   0.76326
  20   35562.2    281.2   0.001346051   0.01246   0.08047   0.05025   0.05883
  21   35812.2    279.2   0.049499297   0.45503  -0.38732   0.43579  -0.33927
  22   36190.3    276.3   0.063780678   0.58019   0.36349  -0.04166  -0.66808
  23   36435.0    274.5   0.142382721   1.28651   0.51243  -0.97329   0.27684
  24   36833.6    271.5   0.092527978   0.82700  -0.55368   0.13258   0.70913
  25   36950.6    270.6   0.042000598   0.37420   0.40311  -0.45379  -0.07602
  26   37248.3    268.5   0.096433657   0.85231  -0.42257   0.69928  -0.42982
  27   37597.8    266.0   0.231693300   2.02874  -0.19909  -0.51671  -1.31229
  28   37916.2    263.7   0.642667133   5.58003   0.01101   0.34565   2.33676
  29   38458.8    260.0   0.573218248   4.90682   1.73471  -1.08185  -0.85276
  30   39086.0    255.8   0.014581166   0.12281  -0.25649  -0.19137   0.14283
  31   39296.6    254.5   0.031548907   0.26430   0.00838   0.50007   0.11903
  32   39380.5    253.9   0.072480969   0.60592   0.48653  -0.08178  -0.60210
  33   39467.0    253.4   0.025941026   0.21639  -0.06173  -0.15219   0.43522
  34   39701.8    251.9   0.055469207   0.45996  -0.49708   0.02479   0.46070
  35   39912.5    250.5   0.059375762   0.48975   0.37406  -0.54168  -0.23753
  36   40255.5    248.4   0.061092268   0.49962   0.00460  -0.34196   0.61859

FINAL SINGLE POINT ENERGY     -4328.717819743294

DIPOLE MOMENT
-------------
                                X             Y             Z
Electronic contribution:    -29.81289      34.95595       3.07705
Nuclear contribution   :     30.18497     -36.59234      -5.26345
                        -----------------------------------------
Total Dipole Moment    :      0.37208      -1.63638      -2.18640
                        -----------------------------------------
Magnitude (a.u.)       :      2.75618
Magnitude (Debye)      :      7.00565

Rotational constants in cm-1:     0.001457     0.000806     0.000543
Rotational constants in MHz :    43.669828    24.155609    16.290162

                             ****ORCA TERMINATED NORMALLY****
TOTAL RUN TIME: 0 days 0 hours 5 minutes 40 seconds 513 msec
