                         Program Version 4.2.0 -  RELEASE  -
|  1> # ORCA input file
|  2> # SCF done       -149.510947141274          0.000969577630
|  3> ! CAM-B3LYP def2-SVP def2/J RIJCOSX Grid4 TightSCF
|  4> %maxcore 5000
|  5> %tddft
|  6>     Mode sTDDFT
|  7>     Ethresh 5.0
|  8>     maxcore 5000
|  9> end
| 10>
| 11> %pal
| 12>   nprocs 6
| 13>   end
| 14> * xyz 0 1
| 15>    C        0.89813         0.05709         5.55439
| 16>    C       -0.16839         0.62966         6.17817
| 17>    S       -1.02065        -0.52134         7.13775
| 18>    C        0.08268        -1.80470         6.69727
| 19>   Cl       -0.10970        -3.37782         7.29090
| 20>    C        1.04143        -1.33733         5.84862
| 21>    C        2.21628        -1.88423         5.15799
| 22>    O        2.69289        -2.98393         5.26795
| 23>    C        2.76191        -0.71961         4.37499
| 24>    C        1.95529         0.46420         4.65327
| 25>    C        2.10318         1.72577         4.14389
| 26>    C        1.21536         2.76687         4.49338
| 27>    N        0.50696         3.62586         4.76824
| 28>    C        3.10447         2.14448         3.24432
| 29>    N        3.89119         2.54874         2.51274
| 30>    C        3.88734        -0.74715         3.62113
| 31>    C        4.59110        -1.91695         3.21253
| 32>    S        6.31449        -1.84882         2.83584
| 33>    C        6.14916        -3.54241         2.40934
| 34>    N        4.92243        -3.97319         2.54707
| 35>    N        4.08335        -3.09221         2.98252
| 36>    C        7.24660        -4.32965         1.96030
| 37>    C        7.10090        -5.61435         1.57327
| 38>    C        8.20429        -6.40552         1.13705
| 39>    N        8.04407        -7.68571         0.83960
| 40>    N        9.01833        -8.47286         0.62770
| 41>    C       10.23319        -7.98901         1.01757
| 42>    N       10.39786        -6.68407         0.95177
| 43>    N        9.42713        -5.86653         0.85125
| 44>    C       11.32465        -8.88473         1.32604
| 45>    C       12.60272        -8.39538         1.57088
| 46>    C       13.63739        -9.26689         1.87384
| 47>    N       14.93243        -8.67132         2.08649
| 48>    O       14.96108        -7.49830         2.38153
| 49>    O       15.92132        -9.36866         1.96390
| 50>    C       13.43117       -10.65897         1.94712
| 51>    C       12.13020       -11.12042         1.70546
| 52>    C       11.09939       -10.26393         1.39816
| 53>    C       14.48895       -11.58738         2.28682
| 54>    C       14.54936       -12.85403         1.84173
| 55>    C       15.59827       -13.76706         2.19392
| 56>    C       16.91918       -13.52141         2.33318
| 57>    C       17.76964       -14.53002         3.05319
| 58>    O       17.44325       -15.65336         3.34898
| 59>    C       19.01411       -13.81476         3.34217
| 60>    C       20.16881       -14.05071         4.02907
| 61>    S       21.23128       -12.66806         3.93219
| 62>    C       20.10967       -11.79156         2.95533
| 63>    C       18.98481       -12.51944         2.72602
| 64>    C       17.74639       -12.37097         1.98315
| 65>    C       17.54443       -11.44786         0.99811
| 66>    C       18.51166       -10.45871         0.71262
| 67>    N       19.29638        -9.66176         0.46113
| 68>    C       16.43550       -11.41126         0.13031
| 69>    N       15.57711       -11.36284        -0.62942
| 70>   Cl       20.60742       -15.44445         4.88582
| 71>    H       -0.51190         1.64457         6.14524
| 72>    H        4.31675         0.18286         3.27091
| 73>    H        8.21894        -3.85906         1.92891
| 74>    H        6.13385        -6.09302         1.59849
| 75>    H       12.80102        -7.33538         1.51142
| 76>    H       11.93145       -12.17702         1.78833
| 77>    H       10.10533       -10.63951         1.21089
| 78>    H       15.28348       -11.22640         2.92537
| 79>    H       13.76345       -13.25423         1.21513
| 80>    H       15.29097       -14.78462         2.42022
| 81>    H       20.35508       -10.80043         2.62946
| 82> *
| 83>
| 84>                          ****END OF INPUT****

CARTESIAN COORDINATES (ANGSTROEM)
---------------------------------
  C      0.898130    0.057090    5.554390
  C     -0.168390    0.629660    6.178170
  S     -1.020650   -0.521340    7.137750
  C      0.082680   -1.804700    6.697270
  Cl    -0.109700   -3.377820    7.290900
  C      1.041430   -1.337330    5.848620
  C      2.216280   -1.884230    5.157990
  O      2.692890   -2.983930    5.267950
  C      2.761910   -0.719610    4.374990
  C      1.955290    0.464200    4.653270
  C      2.103180    1.725770    4.143890
  C      1.215360    2.766870    4.493380
  N      0.506960    3.625860    4.768240
  C      3.104470    2.144480    3.244320
  N      3.891190    2.548740    2.512740
  C      3.887340   -0.747150    3.621130
  C      4.591100   -1.916950    3.212530
  S      6.314490   -1.848820    2.835840
  C      6.149160   -3.542410    2.409340
  N      4.922430   -3.973190    2.547070
  N      4.083350   -3.092210    2.982520
  C      7.246600   -4.329650    1.960300
  C      7.100900   -5.614350    1.573270
  C      8.204290   -6.405520    1.137050
  N      8.044070   -7.685710    0.839600
  N      9.018330   -8.472860    0.627700
  C     10.233190   -7.989010    1.017570
  N     10.397860   -6.684070    0.951770
  N      9.427130   -5.866530    0.851250
  C     11.324650   -8.884730    1.326040
  C     12.602720   -8.395380    1.570880
  C     13.637390   -9.266890    1.873840
  N     14.932430   -8.671320    2.086490
  O     14.961080   -7.498300    2.381530
  O     15.921320   -9.368660    1.963900
  C     13.431170  -10.658970    1.947120
  C     12.130200  -11.120420    1.705460
  C     11.099390  -10.263930    1.398160
  C     14.488950  -11.587380    2.286820
  C     14.549360  -12.854030    1.841730
  C     15.598270  -13.767060    2.193920
  C     16.919180  -13.521410    2.333180
  C     17.769640  -14.530020    3.053190
  O     17.443250  -15.653360    3.348980
  C     19.014110  -13.814760    3.342170
  C     20.168810  -14.050710    4.029070
  S     21.231280  -12.668060    3.932190
  C     20.109670  -11.791560    2.955330
  C     18.984810  -12.519440    2.726020
  C     17.746390  -12.370970    1.983150
  C     17.544430  -11.447860    0.998110
  C     18.511660  -10.458710    0.712620
  N     19.296380   -9.661760    0.461130
  C     16.435500  -11.411260    0.130310
  N     15.577110  -11.362840   -0.629420
  Cl    20.607420  -15.444450    4.885820
  H     -0.511900    1.644570    6.145240
  H      4.316750    0.182860    3.270910
  H      8.218940   -3.859060    1.928910
  H      6.133850   -6.093020    1.598490
  H     12.801020   -7.335380    1.511420
  H     11.931450  -12.177020    1.788330
  H     10.105330  -10.639510    1.210890
  H     15.283480  -11.226400    2.925370
  H     13.763450  -13.254230    1.215130
  H     15.290970  -14.784620    2.420220
  H     20.355080  -10.800430    2.629460

 Total Charge           Charge          ....    0
 Multiplicity           Mult            ....    1
 Number of Electrons    NEL             ....  418
 Basis Dimension        Dim             ....  859

ORBITAL ENERGIES
----------------

  NO   OCC          E(Eh)            E(eV)
   0   2.0000    -101.621262     -2765.2551
   1   2.0000    -101.617692     -2765.1580
   2   2.0000     -89.000072     -2421.8151
   3   2.0000     -88.993503     -2421.6363
   4   2.0000     -88.993104     -2421.6255
   5   2.0000     -19.259656      -524.0819
   6   2.0000     -19.258500      -524.0504
   7   2.0000     -19.224369      -523.1217
   8   2.0000     -19.221571      -523.0455
   9   2.0000     -14.664853      -399.0509
  10   2.0000     -14.486091      -394.1866
  11   2.0000     -14.484721      -394.1493
  12   2.0000     -14.483652      -394.1202
  13   2.0000     -14.483180      -394.1074
  14   2.0000     -14.458073      -393.4242
  15   2.0000     -14.456078      -393.3699
  16   2.0000     -14.432263      -392.7218
  17   2.0000     -14.429428      -392.6447
  18   2.0000     -14.416390      -392.2899
  19   2.0000     -14.416103      -392.2821
  20   2.0000     -10.382826      -282.5310
  21   2.0000     -10.381102      -282.4842
  22   2.0000     -10.377320      -282.3812
  23   2.0000     -10.376429      -282.3570
  24   2.0000     -10.374559      -282.3061
  25   2.0000     -10.371709      -282.2286
  26   2.0000     -10.363536      -282.0062
  27   2.0000     -10.360826      -281.9324
  28   2.0000     -10.360191      -281.9151
  29   2.0000     -10.359149      -281.8868
  30   2.0000     -10.348467      -281.5961
  31   2.0000     -10.347927      -281.5814
  32   2.0000     -10.346387      -281.5395
  33   2.0000     -10.338022      -281.3119
  34   2.0000     -10.336529      -281.2713
  35   2.0000     -10.333851      -281.1984
  36   2.0000     -10.331511      -281.1347
  37   2.0000     -10.330970      -281.1200
  38   2.0000     -10.327410      -281.0231
  39   2.0000     -10.324931      -280.9557
  40   2.0000     -10.321293      -280.8566
  41   2.0000     -10.320177      -280.8263
  42   2.0000     -10.319971      -280.8207
  43   2.0000     -10.318896      -280.7914
  44   2.0000     -10.318479      -280.7801
  45   2.0000     -10.317894      -280.7642
  46   2.0000     -10.315465      -280.6981
  47   2.0000     -10.312382      -280.6142
  48   2.0000     -10.312378      -280.6141
  49   2.0000     -10.311818      -280.5988
  50   2.0000     -10.309127      -280.5256
  51   2.0000     -10.308622      -280.5119
  52   2.0000     -10.307775      -280.4888
  53   2.0000     -10.305903      -280.4379
  54   2.0000     -10.305650      -280.4310
  55   2.0000     -10.300388      -280.2878
  56   2.0000      -9.576059      -260.5778
  57   2.0000      -9.572481      -260.4804
  58   2.0000      -8.095742      -220.2963
  59   2.0000      -8.089740      -220.1330
  60   2.0000      -8.088713      -220.1051
  61   2.0000      -7.346716      -199.9143
  62   2.0000      -7.343123      -199.8165
  63   2.0000      -7.336086      -199.6250
  64   2.0000      -7.335533      -199.6100
  65   2.0000      -7.332511      -199.5278
  66   2.0000      -7.331979      -199.5133
  67   2.0000      -6.065075      -165.0391
  68   2.0000      -6.060488      -164.9143
  69   2.0000      -6.058256      -164.8535
  70   2.0000      -6.058088      -164.8489
  71   2.0000      -6.058080      -164.8487
  72   2.0000      -6.054972      -164.7642
  73   2.0000      -6.053482      -164.7236
  74   2.0000      -6.052308      -164.6917
  75   2.0000      -6.051021      -164.6567
  76   2.0000      -1.340289       -36.4711
  77   2.0000      -1.214403       -33.0456
  78   2.0000      -1.164636       -31.6914
  79   2.0000      -1.158558       -31.5260
  80   2.0000      -1.142713       -31.0948
  81   2.0000      -1.138491       -30.9799
  82   2.0000      -1.113648       -30.3039
  83   2.0000      -1.044921       -28.4337
  84   2.0000      -1.037702       -28.2373
  85   2.0000      -1.027263       -27.9533
  86   2.0000      -1.017815       -27.6961
  87   2.0000      -1.014505       -27.6061
  88   2.0000      -1.009120       -27.4595
  89   2.0000      -0.997288       -27.1376
  90   2.0000      -0.996448       -27.1147
  91   2.0000      -0.994398       -27.0589
  92   2.0000      -0.987416       -26.8690
  93   2.0000      -0.968580       -26.3564
  94   2.0000      -0.958328       -26.0774
  95   2.0000      -0.955833       -26.0095
  96   2.0000      -0.944019       -25.6881
  97   2.0000      -0.933416       -25.3995
  98   2.0000      -0.921801       -25.0835
  99   2.0000      -0.914549       -24.8862
 100   2.0000      -0.906816       -24.6757
 101   2.0000      -0.898625       -24.4528
 102   2.0000      -0.885787       -24.1035
 103   2.0000      -0.872774       -23.7494
 104   2.0000      -0.853767       -23.2322
 105   2.0000      -0.839452       -22.8426
 106   2.0000      -0.837494       -22.7894
 107   2.0000      -0.831701       -22.6317
 108   2.0000      -0.818052       -22.2603
 109   2.0000      -0.806113       -21.9354
 110   2.0000      -0.802367       -21.8335
 111   2.0000      -0.779763       -21.2184
 112   2.0000      -0.762969       -20.7614
 113   2.0000      -0.757167       -20.6036
 114   2.0000      -0.747867       -20.3505
 115   2.0000      -0.737660       -20.0727
 116   2.0000      -0.730618       -19.8811
 117   2.0000      -0.710543       -19.3349
 118   2.0000      -0.702299       -19.1105
 119   2.0000      -0.699247       -19.0275
 120   2.0000      -0.691347       -18.8125
 121   2.0000      -0.686991       -18.6940
 122   2.0000      -0.685779       -18.6610
 123   2.0000      -0.684039       -18.6136
 124   2.0000      -0.675119       -18.3709
 125   2.0000      -0.657816       -17.9001
 126   2.0000      -0.647892       -17.6300
 127   2.0000      -0.636844       -17.3294
 128   2.0000      -0.631137       -17.1741
 129   2.0000      -0.622221       -16.9315
 130   2.0000      -0.619329       -16.8528
 131   2.0000      -0.618610       -16.8332
 132   2.0000      -0.613609       -16.6971
 133   2.0000      -0.610764       -16.6197
 134   2.0000      -0.609601       -16.5881
 135   2.0000      -0.604400       -16.4466
 136   2.0000      -0.597189       -16.2503
 137   2.0000      -0.595992       -16.2178
 138   2.0000      -0.592040       -16.1102
 139   2.0000      -0.575406       -15.6576
 140   2.0000      -0.566948       -15.4274
 141   2.0000      -0.564307       -15.3556
 142   2.0000      -0.560549       -15.2533
 143   2.0000      -0.552662       -15.0387
 144   2.0000      -0.549501       -14.9527
 145   2.0000      -0.546323       -14.8662
 146   2.0000      -0.543563       -14.7911
 147   2.0000      -0.540431       -14.7059
 148   2.0000      -0.535858       -14.5814
 149   2.0000      -0.532654       -14.4942
 150   2.0000      -0.527455       -14.3528
 151   2.0000      -0.523654       -14.2494
 152   2.0000      -0.523228       -14.2377
 153   2.0000      -0.514935       -14.0121
 154   2.0000      -0.513506       -13.9732
 155   2.0000      -0.508941       -13.8490
 156   2.0000      -0.504672       -13.7328
 157   2.0000      -0.501707       -13.6521
 158   2.0000      -0.500071       -13.6076
 159   2.0000      -0.498849       -13.5744
 160   2.0000      -0.496941       -13.5224
 161   2.0000      -0.491872       -13.3845
 162   2.0000      -0.491126       -13.3642
 163   2.0000      -0.486638       -13.2421
 164   2.0000      -0.476262       -12.9597
 165   2.0000      -0.472283       -12.8515
 166   2.0000      -0.469555       -12.7772
 167   2.0000      -0.463350       -12.6084
 168   2.0000      -0.462891       -12.5959
 169   2.0000      -0.462146       -12.5756
 170   2.0000      -0.457965       -12.4619
 171   2.0000      -0.456080       -12.4106
 172   2.0000      -0.454067       -12.3558
 173   2.0000      -0.452017       -12.3000
 174   2.0000      -0.451120       -12.2756
 175   2.0000      -0.450942       -12.2707
 176   2.0000      -0.446735       -12.1563
 177   2.0000      -0.443983       -12.0814
 178   2.0000      -0.443431       -12.0664
 179   2.0000      -0.441670       -12.0185
 180   2.0000      -0.438981       -11.9453
 181   2.0000      -0.432241       -11.7619
 182   2.0000      -0.428992       -11.6735
 183   2.0000      -0.427262       -11.6264
 184   2.0000      -0.422469       -11.4960
 185   2.0000      -0.413670       -11.2565
 186   2.0000      -0.410617       -11.1735
 187   2.0000      -0.409844       -11.1524
 188   2.0000      -0.406488       -11.0611
 189   2.0000      -0.403691       -10.9850
 190   2.0000      -0.401675       -10.9301
 191   2.0000      -0.396532       -10.7902
 192   2.0000      -0.393980       -10.7207
 193   2.0000      -0.391288       -10.6475
 194   2.0000      -0.383793       -10.4435
 195   2.0000      -0.382039       -10.3958
 196   2.0000      -0.369212       -10.0468
 197   2.0000      -0.361694        -9.8422
 198   2.0000      -0.353401        -9.6165
 199   2.0000      -0.348758        -9.4902
 200   2.0000      -0.345279        -9.3955
 201   2.0000      -0.342001        -9.3063
 202   2.0000      -0.334593        -9.1047
 203   2.0000      -0.331185        -9.0120
 204   2.0000      -0.323508        -8.8031
 205   2.0000      -0.316924        -8.6239
 206   2.0000      -0.309599        -8.4246
 207   2.0000      -0.302414        -8.2291
 208   2.0000      -0.296377        -8.0648
 209   0.0000      -0.116590        -3.1726
 210   0.0000      -0.097374        -2.6497
 211   0.0000      -0.082099        -2.2340
 212   0.0000      -0.063488        -1.7276
 213   0.0000      -0.056517        -1.5379

MULLIKEN ATOMIC CHARGES
-----------------------
   0 C :    0.031220
   1 C :   -0.127819
   2 S :    0.193648
   3 C :   -0.167902
   4 Cl:    0.004922
   5 C :    0.067802
   6 C :    0.151850
   7 O :   -0.092146
   8 C :   -0.079270
   9 C :    0.293272
  10 C :   -0.322072
  11 C :   -0.191545
  12 N :    0.161744
  13 C :   -0.182480
  14 N :    0.161863
  15 C :    0.029432
  16 C :   -0.120107
  17 S :    0.137013
  18 C :   -0.088945
  19 N :   -0.048220
  20 N :    0.010782
  21 C :    0.077775
  22 C :    0.042240
  23 C :    0.002114
  24 N :   -0.031683
  25 N :   -0.040466
  26 C :   -0.029644
  27 N :   -0.025003
  28 N :   -0.048754
  29 C :    0.087885
  30 C :   -0.062028
  31 C :    0.160035
  32 N :    0.261131
  33 O :   -0.214029
  34 O :   -0.246379
  35 C :    0.070602
  36 C :   -0.026507
  37 C :    0.032891
  38 C :    0.020231
  39 C :   -0.002941
  40 C :    0.030503
  41 C :   -0.129139
  42 C :    0.128488
  43 O :   -0.126120
  44 C :    0.090871
  45 C :   -0.173252
  46 S :    0.185882
  47 C :   -0.126099
  48 C :    0.013850
  49 C :    0.262776
  50 C :   -0.293837
  51 C :   -0.182929
  52 N :    0.160462
  53 C :   -0.185790
  54 N :    0.165539
  55 Cl:   -0.000616
  56 H :    0.055957
  57 H :    0.031959
  58 H :    0.024075
  59 H :    0.035417
  60 H :    0.026303
  61 H :   -0.006497
  62 H :    0.014834
  63 H :    0.031889
  64 H :    0.025008
  65 H :    0.035103
  66 H :    0.054850
Sum of atomic charges:   -0.0000000

LOEWDIN ATOMIC CHARGES
----------------------
   0 C :   -0.061400
   1 C :   -0.148428
   2 S :    0.482912
   3 C :   -0.272155
   4 Cl:    0.196409
   5 C :   -0.116058
   6 C :    0.075946
   7 O :   -0.099733
   8 C :   -0.051577
   9 C :    0.072206
  10 C :   -0.127016
  11 C :   -0.014973
  12 N :   -0.043127
  13 C :   -0.023014
  14 N :   -0.039150
  15 C :    0.030088
  16 C :   -0.156902
  17 S :    0.418533
  18 C :   -0.141218
  19 N :   -0.063187
  20 N :   -0.026337
  21 C :   -0.013492
  22 C :    0.005726
  23 C :   -0.018090
  24 N :   -0.007108
  25 N :   -0.031350
  26 C :   -0.008199
  27 N :   -0.009630
  28 N :   -0.030905
  29 C :   -0.047942
  30 C :    0.037181
  31 C :   -0.023530
  32 N :    0.291273
  33 O :   -0.181029
  34 O :   -0.191141
  35 C :    0.013399
  36 C :   -0.001675
  37 C :    0.033888
  38 C :    0.011615
  39 C :   -0.012225
  40 C :    0.061527
  41 C :   -0.073547
  42 C :    0.081012
  43 O :   -0.130900
  44 C :   -0.120888
  45 C :   -0.272570
  46 S :    0.475916
  47 C :   -0.151623
  48 C :   -0.055520
  49 C :    0.058311
  50 C :   -0.115270
  51 C :   -0.012274
  52 N :   -0.045169
  53 C :   -0.016161
  54 N :   -0.050701
  55 Cl:    0.191603
  56 H :    0.038334
  57 H :    0.047938
  58 H :    0.042039
  59 H :    0.052280
  60 H :    0.048005
  61 H :    0.036833
  62 H :    0.042278
  63 H :    0.033206
  64 H :    0.039072
  65 H :    0.049146
  66 H :    0.038537

  Mayer bond orders larger than 0.100000
B(  0-C ,  1-C ) :   1.5342 B(  0-C ,  5-C ) :   1.2237 B(  0-C ,  9-C ) :   1.0057
B(  1-C ,  2-S ) :   1.1710 B(  1-C , 56-H ) :   0.9538 B(  2-S ,  3-C ) :   1.1512
B(  3-C ,  4-Cl) :   1.1323 B(  3-C ,  5-C ) :   1.4819 B(  5-C ,  6-C ) :   0.9418
B(  6-C ,  7-O ) :   2.2946 B(  6-C ,  8-C ) :   0.9014 B(  8-C ,  9-C ) :   1.0579
B(  8-C , 15-C ) :   1.7350 B(  9-C , 10-C ) :   1.6629 B( 10-C , 11-C ) :   1.1454
B( 10-C , 13-C ) :   1.1333 B( 11-C , 12-N ) :   2.9905 B( 13-C , 14-N ) :   2.9712
B( 15-C , 16-C ) :   1.0911 B( 15-C , 57-H ) :   0.9213 B( 16-C , 17-S ) :   1.0922
B( 16-C , 20-N ) :   1.6378 B( 17-S , 18-C ) :   1.1249 B( 17-S , 20-N ) :   0.1060
B( 18-C , 19-N ) :   1.6460 B( 18-C , 21-C ) :   1.0842 B( 19-N , 20-N ) :   1.2722
B( 21-C , 22-C ) :   1.7013 B( 21-C , 58-H ) :   0.9548 B( 22-C , 23-C ) :   1.0888
B( 22-C , 59-H ) :   0.9747 B( 23-C , 24-N ) :   1.4691 B( 23-C , 28-N ) :   1.3618
B( 24-N , 25-N ) :   1.3964 B( 25-N , 26-C ) :   1.4069 B( 25-N , 28-N ) :   0.1003
B( 26-C , 27-N ) :   1.5475 B( 26-C , 29-C ) :   1.0028 B( 27-N , 28-N ) :   1.3912
B( 29-C , 30-C ) :   1.3081 B( 29-C , 37-C ) :   1.3364 B( 30-C , 31-C ) :   1.3494
B( 30-C , 60-H ) :   1.0016 B( 31-C , 32-N ) :   0.8829 B( 31-C , 35-C ) :   1.3486
B( 32-N , 33-O ) :   1.5791 B( 32-N , 34-O ) :   1.4857 B( 33-O , 34-O ) :   0.2600
B( 35-C , 36-C ) :   1.3477 B( 35-C , 38-C ) :   1.0709 B( 36-C , 37-C ) :   1.3778
B( 36-C , 61-H ) :   0.9937 B( 37-C , 62-H ) :   0.9934 B( 38-C , 39-C ) :   1.7744
B( 38-C , 63-H ) :   0.9463 B( 39-C , 40-C ) :   1.0687 B( 39-C , 64-H ) :   0.9454
B( 40-C , 41-C ) :   1.7793 B( 40-C , 65-H ) :   0.9227 B( 41-C , 42-C ) :   0.9286
B( 41-C , 49-C ) :   1.0087 B( 42-C , 43-O ) :   2.2832 B( 42-C , 44-C ) :   0.9261
B( 44-C , 45-C ) :   1.4741 B( 44-C , 48-C ) :   1.2235 B( 45-C , 46-S ) :   1.1572
B( 45-C , 55-Cl) :   1.1287 B( 46-S , 47-C ) :   1.1564 B( 47-C , 48-C ) :   1.5573
B( 47-C , 66-H ) :   0.9548 B( 48-C , 49-C ) :   1.0052 B( 49-C , 50-C ) :   1.7119
B( 50-C , 51-C ) :   1.1296 B( 50-C , 53-C ) :   1.1549 B( 51-C , 52-N ) :   3.0042
B( 53-C , 54-N ) :   2.9895

-----------------------------------------------------------------------------
         ABSORPTION SPECTRUM VIA TRANSITION ELECTRIC DIPOLE MOMENTS
-----------------------------------------------------------------------------
State   Energy  Wavelength   fosc         T2         TX        TY        TZ
        (cm-1)    (nm)                  (au**2)     (au)      (au)      (au)
-----------------------------------------------------------------------------
   0   18827.0    531.2   0.005897749   0.10313  -0.16230   0.27025  -0.06126
   1   21900.9    456.6   0.421181507   6.33114  -1.61921   1.80296   0.67723
   2   22491.8    444.6   0.049930137   0.73083  -0.57296   0.56923  -0.28020
   3   24254.3    412.3   1.157444760  15.71041   2.87317  -2.61117  -0.79822
   4   25948.8    385.4   0.348212566   4.41777   1.85019  -0.97517  -0.20885
   5   26903.3    371.7   0.055107825   0.67435  -0.12308   0.81059   0.04635
   6   27652.0    361.6   0.217766134   2.59262   1.15516  -0.98349  -0.53941
   7   28883.7    346.2   0.066769460   0.76103   0.68651  -0.26578   0.46807
   8   29771.3    335.9   0.026474181   0.29275   0.46522  -0.23947   0.13774
   9   30359.4    329.4   0.020728538   0.22478   0.46544   0.01077   0.08958
  10   30796.4    324.7   0.045856969   0.49021   0.69525  -0.08172  -0.01275
  11   31202.3    320.5   0.074709066   0.78825  -0.14578  -0.76665   0.42338
  12   31537.3    317.1   0.058551598   0.61121   0.72692   0.11451  -0.26396
  13   31984.6    312.7   0.067073541   0.69038  -0.08173  -0.05465   0.82505
  14   32646.6    306.3   0.050417280   0.50841   0.51460  -0.48171   0.10748
  15   33067.6    302.4   0.007741330   0.07707  -0.02591  -0.15991   0.22545
  16   33206.2    301.1   0.012889634   0.12779   0.24780   0.05257  -0.25224
  17   33642.4    297.2   0.078870434   0.77180  -0.49306   0.27152   0.67451
  18   34034.3    293.8   0.199132347   1.92619  -0.61455   1.15312  -0.46780
  19   35468.6    281.9   0.041010957   0.38065   0.58297   0.04819  -0.19615
  20   35553.2    281.3   0.148770008   1.37757   1.11271  -0.08986  -0.36244
  21   35848.2    279.0   0.010000068   0.09184   0.19831  -0.22910  -0.00484
  22   36013.0    277.7   0.284102464   2.59712   0.63544  -1.17739   0.89838
  23   36604.2    273.2   0.073212991   0.65847  -0.32250   0.56136  -0.48922
  24   37145.2    269.2   0.327044077   2.89854   1.24097   0.65540  -0.96384
  25   37255.0    268.4   0.196123460   1.73309   0.55013  -0.61351   1.02667
  26   37591.2    266.0   0.006268516   0.05490   0.18091   0.14854   0.01031
  27   37931.9    263.6   0.141929706   1.23181  -0.88924   0.22709  -0.62410
  28   38143.6    262.2   0.052239795   0.45087   0.42696   0.39149  -0.33958
  29   38301.4    261.1   0.254200483   2.18493  -0.34006   1.14582  -0.86970
  30   38581.9    259.2   0.059180077   0.50497  -0.56798  -0.42492  -0.04267
  31   38789.1    257.8   0.174256145   1.47895   1.01200  -0.26370   0.62070
  32   39287.7    254.5   0.059260701   0.49658   0.28931   0.30341  -0.56641
  33   39513.5    253.1   0.059043655   0.49193  -0.47848  -0.24873   0.44847
  34   39700.6    251.9   0.010301250   0.08542   0.13272   0.24858  -0.07755
  35   39852.5    250.9   0.050692773   0.41876  -0.60274  -0.17031  -0.16268

FINAL SINGLE POINT ENERGY     -4392.747249553248

DIPOLE MOMENT
-------------
                                X             Y             Z
Electronic contribution:     -7.57935       4.55815      17.90768
Nuclear contribution   :      6.68105      -5.70616     -15.60460
                        -----------------------------------------
Total Dipole Moment    :     -0.89830      -1.14801       2.30308
                        -----------------------------------------
Magnitude (a.u.)       :      2.72563
Magnitude (Debye)      :      6.92800

Rotational constants in cm-1:     0.003482     0.000245     0.000241
Rotational constants in MHz :   104.378992     7.346936     7.213406

                             ****ORCA TERMINATED NORMALLY****
TOTAL RUN TIME: 0 days 0 hours 7 minutes 11 seconds 478 msec
