                         Program Version 4.2.0 -  RELEASE  -
|  1> # ORCA input file
|  2> # SCF done       -206.011199896662          0.000829497522
|  3> ! CAM-B3LYP def2-SVP def2/J RIJCOSX Grid4 TightSCF
|  4> %maxcore 5000
|  5> %tddft
|  6>     Mode sTDDFT
|  7>     Ethresh 5.0
|  8>     maxcore 5000
|  9> end
| 10>
| 11> %pal
| 12>   nprocs 6
| 13>   end
| 14> * xyz 0 1
| 15>    C        0.21536         1.63339        -1.84181
| 16>    C       -0.63887         2.62244        -2.22137
| 17>    S       -1.29249         2.31440        -3.78818
| 18>    C       -0.40046         0.81802        -3.93883
| 19>   Cl       -0.51796        -0.14775        -5.32345
| 20>    C        0.35346         0.60128        -2.82411
| 21>    C        1.28580        -0.42609        -2.35014
| 22>    O        1.57286        -1.46485        -2.89530
| 23>    C        1.72701         0.05730        -1.00043
| 24>    C        1.05437         1.31519        -0.70472
| 25>    C        1.19304         2.11131         0.40201
| 26>    C        0.47706         3.32127         0.52707
| 27>    N       -0.09906         4.30563         0.64951
| 28>    C        2.02554         1.86012         1.51068
| 29>    N        2.68253         1.72226         2.44228
| 30>    C        2.51159        -0.62861        -0.12169
| 31>    C        3.30313        -1.78399        -0.35632
| 32>    C        3.86094        -2.25724        -1.52183
| 33>    C        4.61843        -3.43447        -1.23372
| 34>    C        4.49747        -3.65720         0.21790
| 35>    C        3.73607        -2.65816         0.73117
| 36>    C        5.06554        -4.70414         0.95467
| 37>    N        5.51484        -5.55313         1.58323
| 38>    C        5.30107        -4.21369        -2.13673
| 39>    C        5.98337        -5.43902        -1.89446
| 40>    C        6.47207        -5.93061        -3.08929
| 41>    C        6.11810        -4.98039        -4.13979
| 42>    C        5.43027        -3.95131        -3.58756
| 43>    C        4.98384        -2.82645        -4.29380
| 44>    N        4.67058        -1.91337        -4.91545
| 45>    C        7.18567        -7.13550        -3.29992
| 46>    C        7.66138        -8.00896        -2.33847
| 47>    C        8.32759        -9.08943        -2.97884
| 48>    C        8.20436        -8.84603        -4.43084
| 49>    C        7.53544        -7.67881        -4.60627
| 50>    C        8.62955        -9.68245        -5.47113
| 51>    N        8.91868       -10.35158        -6.35816
| 52>    C        8.98533       -10.14431        -2.38784
| 53>    C        9.70886       -11.18201        -3.03997
| 54>    C       10.19042       -12.06139        -2.09501
| 55>    C        9.77258       -11.57651        -0.77950
| 56>    C        9.08193       -10.42047        -0.94014
| 57>    C        8.56502        -9.64379         0.10370
| 58>    N        8.15600        -9.03160         0.98458
| 59>    C       10.97059       -13.23530        -2.27988
| 60>    C       12.03725       -13.47140        -3.13648
| 61>    N       12.65678       -12.59190        -4.04991
| 62>    O       13.65761       -13.00177        -4.61128
| 63>    O       12.18963       -11.47931        -4.21137
| 64>    C       12.60161       -14.76183        -2.84560
| 65>    C       11.92776       -15.31465        -1.80359
| 66>    C       10.87202       -14.42578        -1.41644
| 67>    C        9.83670       -14.69901        -0.54368
| 68>    C        8.50188       -14.20441        -0.63496
| 69>    C        7.72867       -14.87767         0.26250
| 70>    C        8.54362       -15.79145         1.00570
| 71>    N        7.96416       -16.57664         2.01743
| 72>    O        6.83661       -16.28123         2.37044
| 73>    O        8.59027       -17.51810         2.48410
| 74>    C        9.86915       -15.68672         0.55964
| 75>    C       11.10757       -16.11185         1.07189
| 76>    C       11.35967       -17.06504         2.02514
| 77>    C       12.67147       -17.36257         2.43593
| 78>    N       12.97709       -18.33355         3.35610
| 79>    C       12.03764       -19.20380         4.02701
| 80>    C       11.58785       -20.35258         3.12931
| 81>    C       14.35929       -18.45355         3.56682
| 82>    O       14.85933       -19.24407         4.33712
| 83>    C       14.94234       -17.44893         2.69363
| 84>    C       13.88931       -16.79264         2.02285
| 85>    C       14.47347       -15.78994         1.15824
| 86>    O       13.98301       -14.97748         0.39936
| 87>    N       15.86311       -15.92578         1.35448
| 88>    C       16.79433       -15.05084         0.68122
| 89>    C       17.27285       -13.92360         1.59226
| 90>    C       16.15558       -16.89937         2.26842
| 91>    C       17.48817       -17.25317         2.65364
| 92>    C       17.75367       -18.19554         3.56433
| 93>    H       -0.93391         3.50782        -1.69411
| 94>    H        2.54387        -0.27216         0.90192
| 95>    H        3.76653        -1.82403        -2.49610
| 96>    H        3.46536        -2.52421         1.76247
| 97>    H        6.07019        -5.90928        -0.93488
| 98>    H        6.38114        -5.07775        -5.17639
| 99>    H        7.57370        -7.88642        -1.27696
|100>    H        7.28299        -7.23464        -5.55072
|101>    H        9.83217       -11.26503        -4.10053
|102>    H       10.03843       -12.03734         0.15343
|103>    H       13.42720       -15.17918        -3.38981
|104>    H       12.07236       -16.30207        -1.41241
|105>    H        8.15017       -13.51563        -1.37785
|106>    H        6.66991       -14.77948         0.41331
|107>    H       11.96220       -15.59748         0.65334
|108>    H       10.54713       -17.62365         2.46233
|109>    H       11.17765       -18.62064         4.36387
|110>    H       12.56358       -19.60154         4.89905
|111>    H       11.06254       -19.98007         2.25345
|112>    H       10.91695       -21.00262         3.68280
|113>    H       12.44745       -20.93415         2.80443
|114>    H       16.25234       -14.62881        -0.16964
|115>    H       17.63817       -15.63529         0.30576
|116>    H       16.42651       -13.32549         1.92084
|117>    H       17.95965       -13.28148         1.04844
|118>    H       17.78069       -14.31708         2.47002
|119>    H       18.29441       -16.72161         2.16774
|120>    H       16.96855       -18.73819         4.06496
|121>    H       18.76775       -18.44127         3.82810
|122> *
|123>
|124>                          ****END OF INPUT****

CARTESIAN COORDINATES (ANGSTROEM)
---------------------------------
  C      0.215360    1.633390   -1.841810
  C     -0.638870    2.622440   -2.221370
  S     -1.292490    2.314400   -3.788180
  C     -0.400460    0.818020   -3.938830
  Cl    -0.517960   -0.147750   -5.323450
  C      0.353460    0.601280   -2.824110
  C      1.285800   -0.426090   -2.350140
  O      1.572860   -1.464850   -2.895300
  C      1.727010    0.057300   -1.000430
  C      1.054370    1.315190   -0.704720
  C      1.193040    2.111310    0.402010
  C      0.477060    3.321270    0.527070
  N     -0.099060    4.305630    0.649510
  C      2.025540    1.860120    1.510680
  N      2.682530    1.722260    2.442280
  C      2.511590   -0.628610   -0.121690
  C      3.303130   -1.783990   -0.356320
  C      3.860940   -2.257240   -1.521830
  C      4.618430   -3.434470   -1.233720
  C      4.497470   -3.657200    0.217900
  C      3.736070   -2.658160    0.731170
  C      5.065540   -4.704140    0.954670
  N      5.514840   -5.553130    1.583230
  C      5.301070   -4.213690   -2.136730
  C      5.983370   -5.439020   -1.894460
  C      6.472070   -5.930610   -3.089290
  C      6.118100   -4.980390   -4.139790
  C      5.430270   -3.951310   -3.587560
  C      4.983840   -2.826450   -4.293800
  N      4.670580   -1.913370   -4.915450
  C      7.185670   -7.135500   -3.299920
  C      7.661380   -8.008960   -2.338470
  C      8.327590   -9.089430   -2.978840
  C      8.204360   -8.846030   -4.430840
  C      7.535440   -7.678810   -4.606270
  C      8.629550   -9.682450   -5.471130
  N      8.918680  -10.351580   -6.358160
  C      8.985330  -10.144310   -2.387840
  C      9.708860  -11.182010   -3.039970
  C     10.190420  -12.061390   -2.095010
  C      9.772580  -11.576510   -0.779500
  C      9.081930  -10.420470   -0.940140
  C      8.565020   -9.643790    0.103700
  N      8.156000   -9.031600    0.984580
  C     10.970590  -13.235300   -2.279880
  C     12.037250  -13.471400   -3.136480
  N     12.656780  -12.591900   -4.049910
  O     13.657610  -13.001770   -4.611280
  O     12.189630  -11.479310   -4.211370
  C     12.601610  -14.761830   -2.845600
  C     11.927760  -15.314650   -1.803590
  C     10.872020  -14.425780   -1.416440
  C      9.836700  -14.699010   -0.543680
  C      8.501880  -14.204410   -0.634960
  C      7.728670  -14.877670    0.262500
  C      8.543620  -15.791450    1.005700
  N      7.964160  -16.576640    2.017430
  O      6.836610  -16.281230    2.370440
  O      8.590270  -17.518100    2.484100
  C      9.869150  -15.686720    0.559640
  C     11.107570  -16.111850    1.071890
  C     11.359670  -17.065040    2.025140
  C     12.671470  -17.362570    2.435930
  N     12.977090  -18.333550    3.356100
  C     12.037640  -19.203800    4.027010
  C     11.587850  -20.352580    3.129310
  C     14.359290  -18.453550    3.566820
  O     14.859330  -19.244070    4.337120
  C     14.942340  -17.448930    2.693630
  C     13.889310  -16.792640    2.022850
  C     14.473470  -15.789940    1.158240
  O     13.983010  -14.977480    0.399360
  N     15.863110  -15.925780    1.354480
  C     16.794330  -15.050840    0.681220
  C     17.272850  -13.923600    1.592260
  C     16.155580  -16.899370    2.268420
  C     17.488170  -17.253170    2.653640
  C     17.753670  -18.195540    3.564330
  H     -0.933910    3.507820   -1.694110
  H      2.543870   -0.272160    0.901920
  H      3.766530   -1.824030   -2.496100
  H      3.465360   -2.524210    1.762470
  H      6.070190   -5.909280   -0.934880
  H      6.381140   -5.077750   -5.176390
  H      7.573700   -7.886420   -1.276960
  H      7.282990   -7.234640   -5.550720
  H      9.832170  -11.265030   -4.100530
  H     10.038430  -12.037340    0.153430
  H     13.427200  -15.179180   -3.389810
  H     12.072360  -16.302070   -1.412410
  H      8.150170  -13.515630   -1.377850
  H      6.669910  -14.779480    0.413310
  H     11.962200  -15.597480    0.653340
  H     10.547130  -17.623650    2.462330
  H     11.177650  -18.620640    4.363870
  H     12.563580  -19.601540    4.899050
  H     11.062540  -19.980070    2.253450
  H     10.916950  -21.002620    3.682800
  H     12.447450  -20.934150    2.804430
  H     16.252340  -14.628810   -0.169640
  H     17.638170  -15.635290    0.305760
  H     16.426510  -13.325490    1.920840
  H     17.959650  -13.281480    1.048440
  H     17.780690  -14.317080    2.470020
  H     18.294410  -16.721610    2.167740
  H     16.968550  -18.738190    4.064960
  H     18.767750  -18.441270    3.828100

 Total Charge           Charge          ....    0
 Multiplicity           Mult            ....    1
 Number of Electrons    NEL             ....  542
 Basis Dimension        Dim             .... 1245

ORBITAL ENERGIES
----------------

  NO   OCC          E(Eh)            E(eV)
   0   2.0000    -101.618365     -2765.1763
   1   2.0000     -88.996172     -2421.7090
   2   2.0000     -19.244723      -523.6755
   3   2.0000     -19.242883      -523.6255
   4   2.0000     -19.241524      -523.5885
   5   2.0000     -19.240539      -523.5617
   6   2.0000     -19.225757      -523.1594
   7   2.0000     -19.221351      -523.0395
   8   2.0000     -19.203338      -522.5494
   9   2.0000     -14.653325      -398.7372
  10   2.0000     -14.650491      -398.6601
  11   2.0000     -14.477508      -393.9530
  12   2.0000     -14.466870      -393.6636
  13   2.0000     -14.426071      -392.5533
  14   2.0000     -14.423659      -392.4877
  15   2.0000     -14.416701      -392.2984
  16   2.0000     -14.413139      -392.2015
  17   2.0000     -14.411138      -392.1470
  18   2.0000     -14.410671      -392.1343
  19   2.0000     -10.399768      -282.9921
  20   2.0000     -10.388135      -282.6755
  21   2.0000     -10.383152      -282.5399
  22   2.0000     -10.378477      -282.4127
  23   2.0000     -10.363070      -281.9935
  24   2.0000     -10.353826      -281.7419
  25   2.0000     -10.353511      -281.7334
  26   2.0000     -10.352875      -281.7161
  27   2.0000     -10.339575      -281.3541
  28   2.0000     -10.338668      -281.3295
  29   2.0000     -10.336649      -281.2745
  30   2.0000     -10.335763      -281.2504
  31   2.0000     -10.335181      -281.2346
  32   2.0000     -10.333934      -281.2006
  33   2.0000     -10.332906      -281.1727
  34   2.0000     -10.332527      -281.1623
  35   2.0000     -10.332387      -281.1585
  36   2.0000     -10.332365      -281.1579
  37   2.0000     -10.329655      -281.0842
  38   2.0000     -10.329479      -281.0794
  39   2.0000     -10.328122      -281.0425
  40   2.0000     -10.326163      -280.9892
  41   2.0000     -10.325578      -280.9733
  42   2.0000     -10.325329      -280.9665
  43   2.0000     -10.324843      -280.9533
  44   2.0000     -10.322657      -280.8938
  45   2.0000     -10.321589      -280.8647
  46   2.0000     -10.321500      -280.8623
  47   2.0000     -10.320242      -280.8281
  48   2.0000     -10.319146      -280.7983
  49   2.0000     -10.318026      -280.7678
  50   2.0000     -10.317930      -280.7652
  51   2.0000     -10.316803      -280.7345
  52   2.0000     -10.316642      -280.7301
  53   2.0000     -10.316210      -280.7183
  54   2.0000     -10.315892      -280.7097
  55   2.0000     -10.315649      -280.7031
  56   2.0000     -10.314748      -280.6786
  57   2.0000     -10.314631      -280.6754
  58   2.0000     -10.312806      -280.6257
  59   2.0000     -10.312127      -280.6073
  60   2.0000     -10.311573      -280.5922
  61   2.0000     -10.308811      -280.5170
  62   2.0000     -10.308756      -280.5155
  63   2.0000     -10.308032      -280.4958
  64   2.0000     -10.306372      -280.4506
  65   2.0000     -10.304318      -280.3947
  66   2.0000     -10.302215      -280.3375
  67   2.0000     -10.299972      -280.2765
  68   2.0000     -10.299596      -280.2663
  69   2.0000     -10.298084      -280.2251
  70   2.0000     -10.297184      -280.2006
  71   2.0000     -10.295045      -280.1424
  72   2.0000     -10.293054      -280.0882
  73   2.0000     -10.291774      -280.0534
  74   2.0000     -10.288370      -279.9608
  75   2.0000     -10.280365      -279.7429
  76   2.0000     -10.278510      -279.6925
  77   2.0000     -10.267943      -279.4049
  78   2.0000      -9.573135      -260.4983
  79   2.0000      -8.091821      -220.1897
  80   2.0000      -7.343784      -199.8345
  81   2.0000      -7.333174      -199.5458
  82   2.0000      -7.332608      -199.5304
  83   2.0000      -6.061211      -164.9339
  84   2.0000      -6.056560      -164.8074
  85   2.0000      -6.054115      -164.7408
  86   2.0000      -1.323209       -36.0064
  87   2.0000      -1.321363       -35.9561
  88   2.0000      -1.158335       -31.5199
  89   2.0000      -1.143964       -31.1288
  90   2.0000      -1.143680       -31.1211
  91   2.0000      -1.139576       -31.0094
  92   2.0000      -1.138520       -30.9807
  93   2.0000      -1.086705       -29.5707
  94   2.0000      -1.073062       -29.1995
  95   2.0000      -1.041170       -28.3317
  96   2.0000      -1.030403       -28.0387
  97   2.0000      -1.027443       -27.9582
  98   2.0000      -1.021954       -27.8088
  99   2.0000      -1.020740       -27.7757
 100   2.0000      -1.010028       -27.4842
 101   2.0000      -1.006408       -27.3858
 102   2.0000      -1.003287       -27.3008
 103   2.0000      -1.000860       -27.2348
 104   2.0000      -0.994489       -27.0614
 105   2.0000      -0.992307       -27.0020
 106   2.0000      -0.989117       -26.9152
 107   2.0000      -0.987278       -26.8652
 108   2.0000      -0.982656       -26.7394
 109   2.0000      -0.957419       -26.0527
 110   2.0000      -0.946132       -25.7456
 111   2.0000      -0.925495       -25.1840
 112   2.0000      -0.917817       -24.9751
 113   2.0000      -0.916549       -24.9406
 114   2.0000      -0.910510       -24.7762
 115   2.0000      -0.905375       -24.6365
 116   2.0000      -0.896747       -24.4017
 117   2.0000      -0.887370       -24.1466
 118   2.0000      -0.884598       -24.0711
 119   2.0000      -0.881556       -23.9884
 120   2.0000      -0.868998       -23.6467
 121   2.0000      -0.862420       -23.4676
 122   2.0000      -0.856095       -23.2955
 123   2.0000      -0.851197       -23.1623
 124   2.0000      -0.843407       -22.9503
 125   2.0000      -0.835694       -22.7404
 126   2.0000      -0.834524       -22.7085
 127   2.0000      -0.831975       -22.6392
 128   2.0000      -0.815458       -22.1897
 129   2.0000      -0.806883       -21.9564
 130   2.0000      -0.800018       -21.7696
 131   2.0000      -0.783693       -21.3254
 132   2.0000      -0.774141       -21.0654
 133   2.0000      -0.772218       -21.0131
 134   2.0000      -0.768677       -20.9168
 135   2.0000      -0.758290       -20.6341
 136   2.0000      -0.739612       -20.1259
 137   2.0000      -0.736633       -20.0448
 138   2.0000      -0.730319       -19.8730
 139   2.0000      -0.727015       -19.7831
 140   2.0000      -0.722974       -19.6731
 141   2.0000      -0.719360       -19.5748
 142   2.0000      -0.712181       -19.3794
 143   2.0000      -0.706079       -19.2134
 144   2.0000      -0.697991       -18.9933
 145   2.0000      -0.685993       -18.6668
 146   2.0000      -0.683155       -18.5896
 147   2.0000      -0.681714       -18.5504
 148   2.0000      -0.679478       -18.4895
 149   2.0000      -0.678410       -18.4605
 150   2.0000      -0.677875       -18.4459
 151   2.0000      -0.664603       -18.0848
 152   2.0000      -0.659686       -17.9510
 153   2.0000      -0.655173       -17.8282
 154   2.0000      -0.650785       -17.7088
 155   2.0000      -0.646728       -17.5984
 156   2.0000      -0.640518       -17.4294
 157   2.0000      -0.633882       -17.2488
 158   2.0000      -0.631899       -17.1948
 159   2.0000      -0.627109       -17.0645
 160   2.0000      -0.626876       -17.0582
 161   2.0000      -0.625625       -17.0241
 162   2.0000      -0.618231       -16.8229
 163   2.0000      -0.610663       -16.6170
 164   2.0000      -0.608421       -16.5560
 165   2.0000      -0.602171       -16.3859
 166   2.0000      -0.598743       -16.2926
 167   2.0000      -0.596416       -16.2293
 168   2.0000      -0.591096       -16.0845
 169   2.0000      -0.587797       -15.9948
 170   2.0000      -0.582314       -15.8456
 171   2.0000      -0.580018       -15.7831
 172   2.0000      -0.578328       -15.7371
 173   2.0000      -0.571124       -15.5411
 174   2.0000      -0.566027       -15.4024
 175   2.0000      -0.559681       -15.2297
 176   2.0000      -0.555714       -15.1217
 177   2.0000      -0.553873       -15.0717
 178   2.0000      -0.550476       -14.9792
 179   2.0000      -0.547443       -14.8967
 180   2.0000      -0.547002       -14.8847
 181   2.0000      -0.542808       -14.7706
 182   2.0000      -0.541719       -14.7409
 183   2.0000      -0.540951       -14.7200
 184   2.0000      -0.538612       -14.6564
 185   2.0000      -0.537951       -14.6384
 186   2.0000      -0.536160       -14.5897
 187   2.0000      -0.533926       -14.5289
 188   2.0000      -0.530377       -14.4323
 189   2.0000      -0.529552       -14.4099
 190   2.0000      -0.526969       -14.3396
 191   2.0000      -0.524574       -14.2744
 192   2.0000      -0.522776       -14.2255
 193   2.0000      -0.521476       -14.1901
 194   2.0000      -0.518605       -14.1120
 195   2.0000      -0.515048       -14.0152
 196   2.0000      -0.513064       -13.9612
 197   2.0000      -0.510045       -13.8790
 198   2.0000      -0.509695       -13.8695
 199   2.0000      -0.507830       -13.8188
 200   2.0000      -0.502362       -13.6700
 201   2.0000      -0.501241       -13.6395
 202   2.0000      -0.500746       -13.6260
 203   2.0000      -0.497853       -13.5473
 204   2.0000      -0.496954       -13.5228
 205   2.0000      -0.495165       -13.4741
 206   2.0000      -0.491536       -13.3754
 207   2.0000      -0.490183       -13.3386
 208   2.0000      -0.489998       -13.3335
 209   2.0000      -0.486764       -13.2455
 210   2.0000      -0.485024       -13.1982
 211   2.0000      -0.482785       -13.1373
 212   2.0000      -0.480308       -13.0698
 213   2.0000      -0.478950       -13.0329
 214   2.0000      -0.475560       -12.9406
 215   2.0000      -0.469764       -12.7829
 216   2.0000      -0.468660       -12.7529
 217   2.0000      -0.465018       -12.6538
 218   2.0000      -0.462399       -12.5825
 219   2.0000      -0.458777       -12.4840
 220   2.0000      -0.458183       -12.4678
 221   2.0000      -0.457048       -12.4369
 222   2.0000      -0.454844       -12.3769
 223   2.0000      -0.451456       -12.2848
 224   2.0000      -0.451204       -12.2779
 225   2.0000      -0.449452       -12.2302
 226   2.0000      -0.447557       -12.1786
 227   2.0000      -0.446684       -12.1549
 228   2.0000      -0.445141       -12.1129
 229   2.0000      -0.441866       -12.0238
 230   2.0000      -0.441227       -12.0064
 231   2.0000      -0.440420       -11.9844
 232   2.0000      -0.439641       -11.9632
 233   2.0000      -0.437853       -11.9146
 234   2.0000      -0.436935       -11.8896
 235   2.0000      -0.435345       -11.8463
 236   2.0000      -0.433902       -11.8071
 237   2.0000      -0.432255       -11.7623
 238   2.0000      -0.425977       -11.5914
 239   2.0000      -0.421976       -11.4825
 240   2.0000      -0.420856       -11.4521
 241   2.0000      -0.420298       -11.4369
 242   2.0000      -0.412706       -11.2303
 243   2.0000      -0.404774       -11.0145
 244   2.0000      -0.403722       -10.9858
 245   2.0000      -0.402328       -10.9479
 246   2.0000      -0.393571       -10.7096
 247   2.0000      -0.391929       -10.6649
 248   2.0000      -0.389297       -10.5933
 249   2.0000      -0.382889       -10.4189
 250   2.0000      -0.381478       -10.3806
 251   2.0000      -0.379489       -10.3264
 252   2.0000      -0.372714       -10.1421
 253   2.0000      -0.368954       -10.0398
 254   2.0000      -0.368188       -10.0189
 255   2.0000      -0.366463        -9.9720
 256   2.0000      -0.360500        -9.8097
 257   2.0000      -0.349214        -9.5026
 258   2.0000      -0.348771        -9.4905
 259   2.0000      -0.345958        -9.4140
 260   2.0000      -0.341960        -9.3052
 261   2.0000      -0.337488        -9.1835
 262   2.0000      -0.334823        -9.1110
 263   2.0000      -0.334134        -9.0922
 264   2.0000      -0.330239        -8.9863
 265   2.0000      -0.317827        -8.6485
 266   2.0000      -0.309806        -8.4303
 267   2.0000      -0.302614        -8.2345
 268   2.0000      -0.295206        -8.0330
 269   2.0000      -0.279628        -7.6091
 270   2.0000      -0.252400        -6.8682
 271   0.0000      -0.157737        -4.2923
 272   0.0000      -0.141552        -3.8518
 273   0.0000      -0.114861        -3.1255
 274   0.0000      -0.087022        -2.3680
 275   0.0000      -0.084420        -2.2972

MULLIKEN ATOMIC CHARGES
-----------------------
   0 C :    0.031828
   1 C :   -0.127709
   2 S :    0.190764
   3 C :   -0.168872
   4 Cl:    0.006863
   5 C :    0.074403
   6 C :    0.149213
   7 O :   -0.122411
   8 C :   -0.084516
   9 C :    0.296419
  10 C :   -0.332439
  11 C :   -0.193073
  12 N :    0.158897
  13 C :   -0.182432
  14 N :    0.160445
  15 C :   -0.029008
  16 C :    0.084299
  17 C :   -0.036155
  18 C :    0.080693
  19 C :   -0.090766
  20 C :    0.006082
  21 C :   -0.183883
  22 N :    0.154358
  23 C :    0.131400
  24 C :   -0.123659
  25 C :    0.113369
  26 C :   -0.013415
  27 C :   -0.085200
  28 C :   -0.169573
  29 N :    0.145102
  30 C :    0.105796
  31 C :   -0.111857
  32 C :    0.103726
  33 C :   -0.073680
  34 C :   -0.024799
  35 C :   -0.176035
  36 N :    0.142119
  37 C :    0.106768
  38 C :   -0.041172
  39 C :   -0.027691
  40 C :   -0.012857
  41 C :   -0.093417
  42 C :   -0.184270
  43 N :    0.160024
  44 C :    0.090800
  45 C :    0.090389
  46 N :    0.262524
  47 O :   -0.242180
  48 O :   -0.236694
  49 C :    0.000461
  50 C :    0.043370
  51 C :    0.040916
  52 C :   -0.023070
  53 C :    0.008057
  54 C :    0.030726
  55 C :    0.057663
  56 N :    0.279755
  57 O :   -0.243952
  58 O :   -0.261103
  59 C :    0.103161
  60 C :   -0.090954
  61 C :    0.003078
  62 C :    0.132709
  63 N :   -0.254344
  64 C :    0.098096
  65 C :    0.004371
  66 C :    0.169508
  67 O :   -0.199539
  68 C :   -0.072992
  69 C :   -0.058592
  70 C :    0.169182
  71 O :   -0.193513
  72 N :   -0.250703
  73 C :    0.094954
  74 C :    0.001628
  75 C :    0.120768
  76 C :   -0.040511
  77 C :    0.024977
  78 H :    0.054343
  79 H :    0.019123
  80 H :    0.021431
  81 H :    0.010183
  82 H :    0.016950
  83 H :    0.003284
  84 H :    0.015390
  85 H :   -0.001010
  86 H :    0.010464
  87 H :    0.014195
  88 H :    0.003100
  89 H :   -0.004237
  90 H :    0.010727
  91 H :    0.013185
  92 H :    0.026271
  93 H :    0.002038
  94 H :    0.038228
  95 H :    0.043336
  96 H :    0.021852
  97 H :    0.030320
  98 H :    0.025372
  99 H :    0.047927
 100 H :    0.029786
 101 H :    0.031522
 102 H :    0.031154
 103 H :    0.020076
 104 H :   -0.011456
 105 H :    0.064866
 106 H :    0.038952
Sum of atomic charges:   -0.0000000

LOEWDIN ATOMIC CHARGES
----------------------
   0 C :   -0.060056
   1 C :   -0.148061
   2 S :    0.479695
   3 C :   -0.270256
   4 Cl:    0.198001
   5 C :   -0.116922
   6 C :    0.082178
   7 O :   -0.119135
   8 C :   -0.071118
   9 C :    0.073203
  10 C :   -0.132516
  11 C :   -0.014941
  12 N :   -0.047692
  13 C :   -0.024141
  14 N :   -0.043161
  15 C :    0.066571
  16 C :   -0.038638
  17 C :    0.044346
  18 C :    0.034666
  19 C :   -0.086622
  20 C :    0.062695
  21 C :   -0.036078
  22 N :   -0.048610
  23 C :    0.053492
  24 C :   -0.009706
  25 C :   -0.002222
  26 C :    0.053823
  27 C :   -0.071173
  28 C :   -0.032646
  29 N :   -0.049031
  30 C :   -0.016827
  31 C :    0.003725
  32 C :    0.034531
  33 C :   -0.073374
  34 C :    0.045983
  35 C :   -0.032830
  36 N :   -0.051460
  37 C :    0.049101
  38 C :    0.007032
  39 C :   -0.020782
  40 C :    0.062726
  41 C :   -0.088743
  42 C :   -0.037383
  43 N :   -0.049562
  44 C :   -0.000129
  45 C :   -0.023850
  46 N :    0.283521
  47 O :   -0.206382
  48 O :   -0.197985
  49 C :    0.008596
  50 C :   -0.020390
  51 C :    0.038595
  52 C :    0.043252
  53 C :   -0.048326
  54 C :    0.033920
  55 C :   -0.056131
  56 N :    0.287358
  57 O :   -0.207881
  58 O :   -0.222920
  59 C :    0.011892
  60 C :    0.000593
  61 C :    0.002113
  62 C :    0.063572
  63 N :    0.005714
  64 C :    0.038900
  65 C :   -0.058734
  66 C :    0.079883
  67 O :   -0.192312
  68 C :   -0.121900
  69 C :   -0.099179
  70 C :    0.084636
  71 O :   -0.177170
  72 N :    0.007502
  73 C :    0.037484
  74 C :   -0.059377
  75 C :    0.094644
  76 C :   -0.056620
  77 C :    0.045006
  78 H :    0.037934
  79 H :    0.047893
  80 H :    0.037541
  81 H :    0.041748
  82 H :    0.039941
  83 H :    0.037891
  84 H :    0.039746
  85 H :    0.036158
  86 H :    0.035589
  87 H :    0.040044
  88 H :    0.037689
  89 H :    0.030739
  90 H :    0.035350
  91 H :    0.041895
  92 H :    0.038990
  93 H :    0.029899
  94 H :    0.029750
  95 H :    0.038157
  96 H :    0.024524
  97 H :    0.034476
  98 H :    0.030227
  99 H :    0.039130
 100 H :    0.025908
 101 H :    0.033104
 102 H :    0.034226
 103 H :    0.023771
 104 H :    0.032506
 105 H :    0.035378
 106 H :    0.033819

  Mayer bond orders larger than 0.100000
B(  0-C ,  1-C ) :   1.5424 B(  0-C ,  5-C ) :   1.2203 B(  0-C ,  9-C ) :   0.9993
B(  1-C ,  2-S ) :   1.1652 B(  1-C , 78-H ) :   0.9540 B(  2-S ,  3-C ) :   1.1520
B(  3-C ,  4-Cl) :   1.1351 B(  3-C ,  5-C ) :   1.4754 B(  5-C ,  6-C ) :   0.9503
B(  6-C ,  7-O ) :   2.2385 B(  6-C ,  8-C ) :   0.9226 B(  8-C ,  9-C ) :   1.0647
B(  8-C , 15-C ) :   1.6313 B(  9-C , 10-C ) :   1.6520 B( 10-C , 11-C ) :   1.1482
B( 10-C , 13-C ) :   1.1371 B( 11-C , 12-N ) :   2.9901 B( 13-C , 14-N ) :   2.9722
B( 15-C , 16-C ) :   1.1085 B( 15-C , 79-H ) :   0.9404 B( 16-C , 17-C ) :   1.5482
B( 16-C , 20-C ) :   1.0287 B( 17-C , 18-C ) :   1.1109 B( 17-C , 80-H ) :   0.9864
B( 18-C , 19-C ) :   1.1096 B( 18-C , 23-C ) :   1.4161 B( 19-C , 20-C ) :   1.6693
B( 19-C , 21-C ) :   1.0842 B( 20-C , 81-H ) :   1.0237 B( 21-C , 22-N ) :   2.9803
B( 23-C , 24-C ) :   1.1141 B( 23-C , 27-C ) :   1.0893 B( 24-C , 25-C ) :   1.5576
B( 24-C , 82-H ) :   1.0055 B( 25-C , 26-C ) :   1.0375 B( 25-C , 30-C ) :   1.0194
B( 26-C , 27-C ) :   1.6940 B( 26-C , 83-H ) :   1.0181 B( 27-C , 28-C ) :   1.0811
B( 28-C , 29-N ) :   2.9687 B( 30-C , 31-C ) :   1.5448 B( 30-C , 34-C ) :   1.0533
B( 31-C , 32-C ) :   1.1181 B( 31-C , 84-H ) :   1.0060 B( 32-C , 33-C ) :   1.1037
B( 32-C , 37-C ) :   1.3882 B( 33-C , 34-C ) :   1.6751 B( 33-C , 35-C ) :   1.0803
B( 34-C , 85-H ) :   1.0186 B( 35-C , 36-N ) :   2.9687 B( 37-C , 38-C ) :   1.1111
B( 37-C , 41-C ) :   1.1040 B( 38-C , 39-C ) :   1.5848 B( 38-C , 86-H ) :   0.9948
B( 39-C , 40-C ) :   1.0501 B( 39-C , 44-C ) :   0.9884 B( 40-C , 41-C ) :   1.6743
B( 40-C , 87-H ) :   1.0130 B( 41-C , 42-C ) :   1.0851 B( 42-C , 43-N ) :   2.9799
B( 44-C , 45-C ) :   1.5603 B( 44-C , 51-C ) :   1.0714 B( 45-C , 46-N ) :   0.9381
B( 45-C , 49-C ) :   1.1283 B( 46-N , 47-O ) :   1.5344 B( 46-N , 48-O ) :   1.5128
B( 47-O , 48-O ) :   0.2674 B( 49-C , 50-C ) :   1.5742 B( 49-C , 88-H ) :   1.0101
B( 50-C , 51-C ) :   1.1250 B( 50-C , 89-H ) :   1.0034 B( 51-C , 52-C ) :   1.4762
B( 52-C , 53-C ) :   1.1639 B( 52-C , 59-C ) :   1.0106 B( 53-C , 54-C ) :   1.5334
B( 53-C , 90-H ) :   0.9913 B( 54-C , 55-C ) :   1.1634 B( 54-C , 91-H ) :   1.0069
B( 55-C , 56-N ) :   0.9651 B( 55-C , 59-C ) :   1.4179 B( 56-N , 57-O ) :   1.5400
B( 56-N , 58-O ) :   1.4570 B( 57-O , 58-O ) :   0.2479 B( 58-O , 93-H ) :   0.1081
B( 59-C , 60-C ) :   1.2092 B( 60-C , 61-C ) :   1.5092 B( 60-C , 92-H ) :   0.9404
B( 61-C , 62-C ) :   1.1836 B( 61-C , 93-H ) :   0.9460 B( 62-C , 63-N ) :   1.1657
B( 62-C , 69-C ) :   1.2844 B( 63-N , 64-C ) :   0.9353 B( 63-N , 66-C ) :   1.0632
B( 64-C , 65-C ) :   1.1237 B( 64-C , 94-H ) :   0.9484 B( 64-C , 95-H ) :   0.9282
B( 65-C , 96-H ) :   0.9679 B( 65-C , 97-H ) :   0.9677 B( 65-C , 98-H ) :   0.9637
B( 66-C , 67-O ) :   2.0561 B( 66-C , 68-C ) :   0.9757 B( 68-C , 69-C ) :   1.2911
B( 68-C , 75-C ) :   1.3203 B( 69-C , 70-C ) :   0.9826 B( 70-C , 71-O ) :   2.0157
B( 70-C , 72-N ) :   1.0537 B( 71-O , 92-H ) :   0.1053 B( 72-N , 73-C ) :   0.9381
B( 72-N , 75-C ) :   1.1925 B( 73-C , 74-C ) :   1.1189 B( 73-C , 99-H ) :   0.9295
B( 73-C ,100-H ) :   0.9504 B( 74-C ,101-H ) :   0.9641 B( 74-C ,102-H ) :   0.9682
B( 74-C ,103-H ) :   0.9690 B( 75-C , 76-C ) :   1.1401 B( 76-C , 77-C ) :   1.8678
B( 76-C ,104-H ) :   0.9536 B( 77-C ,105-H ) :   0.9263 B( 77-C ,106-H ) :   0.9451

-----------------------------------------------------------------------------
         ABSORPTION SPECTRUM VIA TRANSITION ELECTRIC DIPOLE MOMENTS
-----------------------------------------------------------------------------
State   Energy  Wavelength   fosc         T2         TX        TY        TZ
        (cm-1)    (nm)                  (au**2)     (au)      (au)      (au)
-----------------------------------------------------------------------------
   0    6081.8   1644.3   0.284092117  15.37819   2.70342  -2.36254   1.57738
   1   10561.0    946.9   0.212360645   6.61981  -0.99535   2.36802   0.14689
   2   12167.1    821.9   0.221614801   5.99635   0.81507  -2.29280  -0.27406
   3   13523.3    739.5   0.128798172   3.13547   1.42645  -0.84362  -0.62370
   4   15174.9    659.0   0.016575101   0.35959   0.59584  -0.00041   0.06751
   5   15480.9    646.0   0.016157969   0.34361  -0.34989   0.19988   0.42572
   6   16669.6    599.9   0.063943688   1.26284   0.64121   0.61326  -0.68964
   7   16878.9    592.5   0.020625007   0.40228  -0.02006  -0.22497  -0.59267
   8   19082.3    524.0   0.175477375   3.02738   1.72993   0.09702  -0.15910
   9   19802.2    505.0   0.056642528   0.94168  -0.19796   0.93514  -0.16735
  10   20492.5    488.0   0.019640648   0.31553   0.47912   0.09681   0.27676
  11   21288.4    469.7   0.007735564   0.11963  -0.11798  -0.32512  -0.00095
  12   22083.2    452.8   0.247655884   3.69201  -0.99370   1.49104   0.69379
  13   22280.1    448.8   0.012075805   0.17843   0.00658  -0.13787   0.39923
  14   22505.6    444.3   0.001086930   0.01590   0.10890  -0.01465   0.06185
  15   22941.3    435.9   0.218608926   3.13707  -0.87027   1.54023   0.08605
  16   23163.6    431.7   0.091243167   1.29679  -0.59302   0.97210   0.01152
  17   23775.3    420.6   0.036637593   0.50731   0.28241   0.51272  -0.40580
  18   24225.1    412.8   0.193627420   2.63134   1.06387  -1.22137  -0.08815
  19   24486.4    408.4   0.355828687   4.78400  -1.45893   1.62226   0.15431
  20   24623.4    406.1   0.016476134   0.22028  -0.28193   0.37098   0.05631
  21   24954.7    400.7   0.134910921   1.77979  -0.50914  -0.83791   0.90469
  22   25263.1    395.8   0.113178453   1.47487  -0.81496   0.42306   0.79482
  23   25695.5    389.2   0.043977959   0.56345   0.72085  -0.00582  -0.20925
  24   26209.5    381.5   0.189480935   2.38003  -1.22919   0.92353  -0.12735
  25   26717.7    374.3   0.089214672   1.09929  -0.29189  -0.81616   0.58989
  26   27215.6    367.4   0.103901942   1.25684   0.09469  -1.05255   0.37419
  27   27417.3    364.7   0.091464183   1.09825   0.73854  -0.35302  -0.65436
  28   27940.4    357.9   0.007103575   0.08370   0.23972   0.10595  -0.12251
  29   28402.4    352.1   0.004689478   0.05436   0.20998  -0.09955  -0.01876
  30   28755.0    347.8   0.005386262   0.06167   0.11190   0.19784   0.10002
  31   28826.5    346.9   0.094346933   1.07749   0.70683  -0.57513  -0.49710
  32   29126.3    343.3   0.011730053   0.13258  -0.15523  -0.21418   0.25023
  33   29501.7    339.0   0.031927589   0.35628   0.13019  -0.46597   0.34958
  34   29818.4    335.4   0.083432423   0.92114   0.24932  -0.60030   0.70613
  35   29898.6    334.5   0.017526717   0.19299  -0.06224  -0.28387   0.32944
  36   30097.5    332.3   0.018397867   0.20124  -0.09873   0.35833   0.25118
  37   30525.7    327.6   0.099376262   1.07175   0.95847   0.09897  -0.37854
  38   30621.9    326.6   0.000335262   0.00360  -0.01493   0.05691  -0.01196
  39   30857.6    324.1   0.145674921   1.55417   0.98259  -0.42836   0.63655
  40   31079.6    321.8   0.081305206   0.86123   0.92046  -0.07502  -0.09141
  41   31290.5    319.6   0.126594433   1.33192   0.99069  -0.52369   0.27606
  42   31309.9    319.4   0.014886481   0.15653   0.24833  -0.27236  -0.14380
  43   31496.0    317.5   0.027766477   0.29023  -0.50300  -0.16288   0.10339
  44   31753.0    314.9   0.023151772   0.24004   0.04430   0.34129   0.34870
  45   31993.9    312.6   0.049410558   0.50843  -0.19189   0.51644  -0.45265
  46   32407.0    308.6   0.141306019   1.43548   1.06539   0.08710  -0.54115
  47   32560.6    307.1   0.078211662   0.79078   0.76549  -0.27271   0.36115
  48   32688.4    305.9   0.141865886   1.42876  -0.51462  -0.37910   1.01006
  49   33050.0    302.6   0.056705991   0.56485  -0.37075   0.42669  -0.49531
  50   33243.9    300.8   0.013933643   0.13798  -0.21461  -0.11995  -0.27846
  51   33443.7    299.0   0.004913493   0.04837   0.14616   0.08282   0.14193
  52   33576.7    297.8   0.002161863   0.02120   0.02421   0.06341  -0.12880
  53   33756.1    296.2   0.002767235   0.02699   0.14684   0.05657   0.04719
  54   33928.1    294.7   0.012843443   0.12462   0.19750   0.02865  -0.29120
  55   34057.7    293.6   0.003209292   0.03102   0.07573   0.15577   0.03200
  56   34144.3    292.9   0.030594207   0.29498   0.34787   0.04899  -0.41421
  57   34374.6    290.9   0.009987447   0.09565  -0.22444   0.15770  -0.14287
  58   34495.3    289.9   0.062910985   0.60040   0.72847  -0.25182  -0.07954
  59   34689.4    288.3   0.102303943   0.97089   0.53025   0.05228  -0.82885
  60   34915.1    286.4   0.139057002   1.31116  -0.95464   0.46181  -0.43193
  61   35400.3    282.5   0.055734082   0.51831   0.31222   0.02695  -0.64815
  62   35417.5    282.3   0.061541924   0.57204  -0.66861  -0.23140  -0.26731
  63   35775.5    279.5   0.026685723   0.24557   0.10443  -0.01716   0.48411
  64   35851.3    278.9   0.022711562   0.20855   0.20973   0.09330  -0.39480
  65   36125.1    276.8   0.142953438   1.30275  -0.43750   0.29748  -1.01136
  66   36557.0    273.5   0.009447701   0.08508  -0.21335   0.19441  -0.04204
  67   36597.7    273.2   0.071508430   0.64325  -0.19571   0.18714  -0.75493
  68   36776.6    271.9   0.013747979   0.12307  -0.15764   0.11423  -0.29184
  69   37068.6    269.8   0.017882320   0.15882   0.16368  -0.01930  -0.36284
  70   37091.4    269.6   0.026624610   0.23631   0.28421  -0.38147   0.10008
  71   37178.3    269.0   0.009662494   0.08556  -0.27676  -0.09159  -0.02400
  72   37224.3    268.6   0.002737353   0.02421   0.00347  -0.02337  -0.15379
  73   37321.8    267.9   0.006190118   0.05460  -0.08259  -0.16459  -0.14385
  74   37494.3    266.7   0.012756552   0.11201   0.19689   0.22221  -0.15448
  75   37780.8    264.7   0.047931334   0.41766   0.15201   0.27534   0.56457
  76   38000.9    263.2   0.019953164   0.17286  -0.38242   0.07273   0.14603
  77   38304.6    261.1   0.188376932   1.61902   0.43774   0.51963   1.07582
  78   38381.6    260.5   0.105668511   0.90635   0.54470   0.23391   0.74494
  79   38776.3    257.9   0.008320665   0.07064   0.03901   0.03211   0.26094
  80   39150.4    255.4   0.017245717   0.14502  -0.19294   0.20324  -0.25785
  81   39276.4    254.6   0.014873476   0.12467   0.02148  -0.08067  -0.34307
  82   39409.5    253.7   0.001460002   0.01220   0.01567  -0.04006   0.10172
  83   39637.1    252.3   0.005917490   0.04915  -0.12084  -0.14979   0.11004
  84   39662.4    252.1   0.001596059   0.01325  -0.07590   0.07873  -0.03590
  85   39803.6    251.2   0.053398027   0.44165   0.61155   0.05010  -0.25523
  86   39890.8    250.7   0.123934616   1.02281  -0.25834  -0.23358   0.94948
  87   40100.2    249.4   0.174831279   1.43532   0.35683   0.15155   1.13359
  88   40149.9    249.1   0.297363485   2.43825   0.01231   0.55303  -1.46022

FINAL SINGLE POINT ENERGY     -4193.261254461290

DIPOLE MOMENT
-------------
                                X             Y             Z
Electronic contribution:    -94.87891     114.06098     -41.37865
Nuclear contribution   :     96.76740    -116.48406      40.89848
                        -----------------------------------------
Total Dipole Moment    :      1.88850      -2.42308      -0.48017
                        -----------------------------------------
Magnitude (a.u.)       :      3.10939
Magnitude (Debye)      :      7.90344

Rotational constants in cm-1:     0.001778     0.000194     0.000188
Rotational constants in MHz :    53.300584     5.808138     5.627613

                             ****ORCA TERMINATED NORMALLY****
TOTAL RUN TIME: 0 days 0 hours 13 minutes 48 seconds 720 msec
