                         Program Version 4.2.0 -  RELEASE  -
|  1> # ORCA input file
|  2> # SCF done       -188.778801461418          0.000839271092
|  3> ! CAM-B3LYP def2-SVP def2/J RIJCOSX Grid4 TightSCF
|  4> %maxcore 5000
|  5> %tddft
|  6>     Mode sTDDFT
|  7>     Ethresh 5.0
|  8>     maxcore 5000
|  9> end
| 10>
| 11> %pal
| 12>   nprocs 6
| 13>   end
| 14> * xyz 0 1
| 15>    C        0.36439         0.54349         0.05472
| 16>    C       -0.81960         1.21463         0.08000
| 17>    S       -2.15144         0.13676        -0.11642
| 18>    C       -1.09662        -1.25100        -0.23964
| 19>   Cl       -1.71211        -2.81182        -0.46580
| 20>    C        0.20822        -0.86861        -0.12959
| 21>    C        1.51756        -1.52572        -0.15135
| 22>    O        1.75333        -2.70379        -0.27698
| 23>    C        2.49983        -0.41411         0.08890
| 24>    C        1.77384         0.85359         0.15652
| 25>    C        2.29706         2.11364         0.23591
| 26>    C        1.46308         3.25280         0.27230
| 27>    N        0.79636         4.18507         0.30628
| 28>    C        3.67120         2.42976         0.26285
| 29>    N        4.77395         2.74751         0.27103
| 30>    C        3.80608        -0.58589         0.39177
| 31>    C        4.55462        -1.82229         0.29878
| 32>    C        5.46540        -2.13793         1.30330
| 33>    C        6.17922        -3.32521         1.26542
| 34>    N        7.11544        -3.55928         2.33369
| 35>    O        6.97714        -2.91276         3.34911
| 36>    O        7.99523        -4.38001         2.15933
| 37>    C        6.03458        -4.23493         0.20010
| 38>    C        5.16090        -3.86806        -0.83116
| 39>    C        4.43688        -2.69890        -0.78793
| 40>    C        6.71517        -5.51211         0.17591
| 41>    C        7.16534        -6.07879        -0.96100
| 42>    C        7.85034        -7.31704        -1.13346
| 43>    N        8.43773        -8.13711        -0.20267
| 44>    C        8.56081        -7.94829         1.22494
| 45>    C        7.37034        -8.53918         1.97776
| 46>    C        9.01249        -9.27485        -0.80445
| 47>    O        9.59700       -10.13831        -0.18132
| 48>    C        8.74779        -9.11836        -2.21811
| 49>    C        8.04714        -7.89991        -2.38168
| 50>    C        7.78677        -7.71039        -3.78981
| 51>    O        7.22184        -6.83096        -4.40408
| 52>    N        8.36610        -8.84432        -4.39810
| 53>    C        8.31194        -9.02534        -5.82797
| 54>    C        9.64468        -8.70981        -6.50403
| 55>    C        8.93827        -9.68809        -3.47452
| 56>    C        9.60606       -10.89805        -3.80014
| 57>    C       10.13221       -11.71052        -2.85020
| 58>    C       10.85108       -12.91532        -3.13098
| 59>    C       11.31458       -13.74052        -2.14883
| 60>    C       12.04727       -14.92124        -2.47300
| 61>    C       12.53299       -15.78941        -1.50833
| 62>    C       13.26208       -16.94053        -1.84939
| 63>    N       13.86049       -17.87738        -2.13822
| 64>    C       12.33525       -15.56894        -0.13493
| 65>    N       12.18268       -15.39395         0.98944
| 66>    C       12.26100       -15.15508        -3.86801
| 67>    C       11.73988       -14.30757        -4.79492
| 68>    O       11.05966       -13.18460        -4.45112
| 69>    C       11.90616       -14.50987        -6.20994
| 70>    C       11.15337       -13.98297        -7.20335
| 71>    C       11.70338       -13.91448        -8.60196
| 72>    O       12.65594       -14.51652        -9.02616
| 73>    C       10.85646       -12.91724        -9.26569
| 74>    C       10.82229       -12.27895       -10.47087
| 75>    S        9.46430       -11.18107       -10.54281
| 76>    C        8.95053       -11.60665        -8.95040
| 77>    C        9.78188       -12.52915        -8.39688
| 78>    C        9.87541       -13.29131        -7.16792
| 79>    C        8.85625       -13.48491        -6.27502
| 80>    C        7.65281       -12.75918        -6.37080
| 81>    N        6.69706       -12.12613        -6.42034
| 82>    C        8.88832       -14.43628        -5.23530
| 83>    N        8.88015       -15.23219        -4.40904
| 84>   Cl       11.88766       -12.45146       -11.77477
| 85>    H       -1.00419         2.26303         0.20641
| 86>    H        4.36126         0.25621         0.78764
| 87>    H        5.61725        -1.47097         2.13978
| 88>    H        5.02971        -4.54224        -1.66279
| 89>    H        3.78653        -2.44620        -1.60911
| 90>    H        6.85320        -5.99702         1.12792
| 91>    H        7.01537        -5.56431        -1.90256
| 92>    H        8.69431        -6.88686         1.44240
| 93>    H        9.46690        -8.48310         1.52510
| 94>    H        6.42862        -8.12870         1.61879
| 95>    H        7.46674        -8.32617         3.03856
| 96>    H        7.34686        -9.61744         1.84051
| 97>    H        7.55082        -8.32520        -6.18467
| 98>    H        7.98267       -10.04303        -6.05431
| 99>    H        9.93729        -7.68612        -6.28404
|100>    H        9.54515        -8.81713        -7.58100
|101>    H       10.43381        -9.37407        -6.15832
|102>    H        9.69552       -11.16078        -4.84447
|103>    H       10.03247       -11.45570        -1.80454
|104>    H       11.12165       -13.49552        -1.11688
|105>    H       12.80690       -16.02919        -4.18577
|106>    H       12.77370       -15.08417        -6.51099
|107>    H        8.07544       -11.14416        -8.53855
|108> *
|109>
|110>                          ****END OF INPUT****

CARTESIAN COORDINATES (ANGSTROEM)
---------------------------------
  C      0.364390    0.543490    0.054720
  C     -0.819600    1.214630    0.080000
  S     -2.151440    0.136760   -0.116420
  C     -1.096620   -1.251000   -0.239640
  Cl    -1.712110   -2.811820   -0.465800
  C      0.208220   -0.868610   -0.129590
  C      1.517560   -1.525720   -0.151350
  O      1.753330   -2.703790   -0.276980
  C      2.499830   -0.414110    0.088900
  C      1.773840    0.853590    0.156520
  C      2.297060    2.113640    0.235910
  C      1.463080    3.252800    0.272300
  N      0.796360    4.185070    0.306280
  C      3.671200    2.429760    0.262850
  N      4.773950    2.747510    0.271030
  C      3.806080   -0.585890    0.391770
  C      4.554620   -1.822290    0.298780
  C      5.465400   -2.137930    1.303300
  C      6.179220   -3.325210    1.265420
  N      7.115440   -3.559280    2.333690
  O      6.977140   -2.912760    3.349110
  O      7.995230   -4.380010    2.159330
  C      6.034580   -4.234930    0.200100
  C      5.160900   -3.868060   -0.831160
  C      4.436880   -2.698900   -0.787930
  C      6.715170   -5.512110    0.175910
  C      7.165340   -6.078790   -0.961000
  C      7.850340   -7.317040   -1.133460
  N      8.437730   -8.137110   -0.202670
  C      8.560810   -7.948290    1.224940
  C      7.370340   -8.539180    1.977760
  C      9.012490   -9.274850   -0.804450
  O      9.597000  -10.138310   -0.181320
  C      8.747790   -9.118360   -2.218110
  C      8.047140   -7.899910   -2.381680
  C      7.786770   -7.710390   -3.789810
  O      7.221840   -6.830960   -4.404080
  N      8.366100   -8.844320   -4.398100
  C      8.311940   -9.025340   -5.827970
  C      9.644680   -8.709810   -6.504030
  C      8.938270   -9.688090   -3.474520
  C      9.606060  -10.898050   -3.800140
  C     10.132210  -11.710520   -2.850200
  C     10.851080  -12.915320   -3.130980
  C     11.314580  -13.740520   -2.148830
  C     12.047270  -14.921240   -2.473000
  C     12.532990  -15.789410   -1.508330
  C     13.262080  -16.940530   -1.849390
  N     13.860490  -17.877380   -2.138220
  C     12.335250  -15.568940   -0.134930
  N     12.182680  -15.393950    0.989440
  C     12.261000  -15.155080   -3.868010
  C     11.739880  -14.307570   -4.794920
  O     11.059660  -13.184600   -4.451120
  C     11.906160  -14.509870   -6.209940
  C     11.153370  -13.982970   -7.203350
  C     11.703380  -13.914480   -8.601960
  O     12.655940  -14.516520   -9.026160
  C     10.856460  -12.917240   -9.265690
  C     10.822290  -12.278950  -10.470870
  S      9.464300  -11.181070  -10.542810
  C      8.950530  -11.606650   -8.950400
  C      9.781880  -12.529150   -8.396880
  C      9.875410  -13.291310   -7.167920
  C      8.856250  -13.484910   -6.275020
  C      7.652810  -12.759180   -6.370800
  N      6.697060  -12.126130   -6.420340
  C      8.888320  -14.436280   -5.235300
  N      8.880150  -15.232190   -4.409040
  Cl    11.887660  -12.451460  -11.774770
  H     -1.004190    2.263030    0.206410
  H      4.361260    0.256210    0.787640
  H      5.617250   -1.470970    2.139780
  H      5.029710   -4.542240   -1.662790
  H      3.786530   -2.446200   -1.609110
  H      6.853200   -5.997020    1.127920
  H      7.015370   -5.564310   -1.902560
  H      8.694310   -6.886860    1.442400
  H      9.466900   -8.483100    1.525100
  H      6.428620   -8.128700    1.618790
  H      7.466740   -8.326170    3.038560
  H      7.346860   -9.617440    1.840510
  H      7.550820   -8.325200   -6.184670
  H      7.982670  -10.043030   -6.054310
  H      9.937290   -7.686120   -6.284040
  H      9.545150   -8.817130   -7.581000
  H     10.433810   -9.374070   -6.158320
  H      9.695520  -11.160780   -4.844470
  H     10.032470  -11.455700   -1.804540
  H     11.121650  -13.495520   -1.116880
  H     12.806900  -16.029190   -4.185770
  H     12.773700  -15.084170   -6.510990
  H      8.075440  -11.144160   -8.538550

 Total Charge           Charge          ....    0
 Multiplicity           Mult            ....    1
 Number of Electrons    NEL             ....  508
 Basis Dimension        Dim             .... 1111

ORBITAL ENERGIES
----------------

  NO   OCC          E(Eh)            E(eV)
   0   2.0000    -101.633892     -2765.5988
   1   2.0000    -101.627871     -2765.4350
   2   2.0000     -89.013049     -2422.1682
   3   2.0000     -89.005473     -2421.9621
   4   2.0000     -19.328946      -525.9674
   5   2.0000     -19.258905      -524.0615
   6   2.0000     -19.257579      -524.0254
   7   2.0000     -19.242029      -523.6022
   8   2.0000     -19.235688      -523.4297
   9   2.0000     -19.205551      -522.6096
  10   2.0000     -19.197957      -522.4030
  11   2.0000     -14.664480      -399.0408
  12   2.0000     -14.464487      -393.5987
  13   2.0000     -14.462819      -393.5533
  14   2.0000     -14.445895      -393.0928
  15   2.0000     -14.438306      -392.8863
  16   2.0000     -14.432375      -392.7249
  17   2.0000     -14.431293      -392.6955
  18   2.0000     -14.406712      -392.0266
  19   2.0000     -14.404945      -391.9785
  20   2.0000     -10.398582      -282.9598
  21   2.0000     -10.396779      -282.9107
  22   2.0000     -10.395741      -282.8825
  23   2.0000     -10.393090      -282.8104
  24   2.0000     -10.387990      -282.6716
  25   2.0000     -10.387528      -282.6590
  26   2.0000     -10.386237      -282.6239
  27   2.0000     -10.382297      -282.5167
  28   2.0000     -10.372938      -282.2620
  29   2.0000     -10.371177      -282.2141
  30   2.0000     -10.361835      -281.9599
  31   2.0000     -10.361007      -281.9373
  32   2.0000     -10.352366      -281.7022
  33   2.0000     -10.350553      -281.6529
  34   2.0000     -10.349594      -281.6268
  35   2.0000     -10.347246      -281.5629
  36   2.0000     -10.346996      -281.5561
  37   2.0000     -10.346456      -281.5414
  38   2.0000     -10.345093      -281.5043
  39   2.0000     -10.341139      -281.3967
  40   2.0000     -10.339723      -281.3582
  41   2.0000     -10.336926      -281.2821
  42   2.0000     -10.335339      -281.2389
  43   2.0000     -10.334597      -281.2187
  44   2.0000     -10.334005      -281.2026
  45   2.0000     -10.332875      -281.1718
  46   2.0000     -10.332825      -281.1705
  47   2.0000     -10.330562      -281.1089
  48   2.0000     -10.326503      -280.9984
  49   2.0000     -10.324629      -280.9474
  50   2.0000     -10.323404      -280.9141
  51   2.0000     -10.320721      -280.8411
  52   2.0000     -10.318866      -280.7906
  53   2.0000     -10.318217      -280.7730
  54   2.0000     -10.315804      -280.7073
  55   2.0000     -10.315239      -280.6919
  56   2.0000     -10.313186      -280.6361
  57   2.0000     -10.312712      -280.6232
  58   2.0000     -10.311993      -280.6036
  59   2.0000     -10.310256      -280.5563
  60   2.0000     -10.310153      -280.5535
  61   2.0000     -10.309433      -280.5339
  62   2.0000     -10.309130      -280.5257
  63   2.0000     -10.306943      -280.4662
  64   2.0000     -10.304973      -280.4126
  65   2.0000     -10.304611      -280.4027
  66   2.0000     -10.276514      -279.6382
  67   2.0000     -10.274018      -279.5702
  68   2.0000     -10.270985      -279.4877
  69   2.0000     -10.265553      -279.3399
  70   2.0000      -9.588644      -260.9203
  71   2.0000      -9.582640      -260.7569
  72   2.0000      -8.108567      -220.6453
  73   2.0000      -8.101087      -220.4418
  74   2.0000      -7.359309      -200.2570
  75   2.0000      -7.353291      -200.0932
  76   2.0000      -7.348674      -199.9676
  77   2.0000      -7.348106      -199.9521
  78   2.0000      -7.342671      -199.8042
  79   2.0000      -7.342121      -199.7893
  80   2.0000      -6.077922      -165.3887
  81   2.0000      -6.073319      -165.2634
  82   2.0000      -6.070898      -165.1975
  83   2.0000      -6.070440      -165.1851
  84   2.0000      -6.065814      -165.0592
  85   2.0000      -6.063428      -164.9943
  86   2.0000      -1.339398       -36.4469
  87   2.0000      -1.239997       -33.7420
  88   2.0000      -1.159580       -31.5538
  89   2.0000      -1.157698       -31.5026
  90   2.0000      -1.153463       -31.3873
  91   2.0000      -1.144754       -31.1503
  92   2.0000      -1.136431       -30.9239
  93   2.0000      -1.073846       -29.2208
  94   2.0000      -1.064963       -28.9791
  95   2.0000      -1.058454       -28.8020
  96   2.0000      -1.050095       -28.5745
  97   2.0000      -1.039261       -28.2797
  98   2.0000      -1.029148       -28.0046
  99   2.0000      -1.020797       -27.7773
 100   2.0000      -1.010396       -27.4943
 101   2.0000      -1.009292       -27.4642
 102   2.0000      -1.009092       -27.4588
 103   2.0000      -1.006459       -27.3871
 104   2.0000      -0.999373       -27.1943
 105   2.0000      -0.984115       -26.7791
 106   2.0000      -0.978431       -26.6245
 107   2.0000      -0.968914       -26.3655
 108   2.0000      -0.967295       -26.3214
 109   2.0000      -0.962567       -26.1928
 110   2.0000      -0.941780       -25.6271
 111   2.0000      -0.938226       -25.5304
 112   2.0000      -0.930184       -25.3116
 113   2.0000      -0.921875       -25.0855
 114   2.0000      -0.917590       -24.9689
 115   2.0000      -0.917073       -24.9548
 116   2.0000      -0.895481       -24.3673
 117   2.0000      -0.887907       -24.1612
 118   2.0000      -0.881902       -23.9978
 119   2.0000      -0.877424       -23.8759
 120   2.0000      -0.863410       -23.4946
 121   2.0000      -0.852961       -23.2102
 122   2.0000      -0.844463       -22.9790
 123   2.0000      -0.829113       -22.5613
 124   2.0000      -0.828832       -22.5537
 125   2.0000      -0.820242       -22.3199
 126   2.0000      -0.811338       -22.0776
 127   2.0000      -0.803495       -21.8642
 128   2.0000      -0.784912       -21.3585
 129   2.0000      -0.780143       -21.2288
 130   2.0000      -0.769102       -20.9283
 131   2.0000      -0.767018       -20.8716
 132   2.0000      -0.764804       -20.8114
 133   2.0000      -0.759621       -20.6703
 134   2.0000      -0.739568       -20.1247
 135   2.0000      -0.721293       -19.6274
 136   2.0000      -0.718032       -19.5386
 137   2.0000      -0.715006       -19.4563
 138   2.0000      -0.709985       -19.3197
 139   2.0000      -0.698709       -19.0128
 140   2.0000      -0.697841       -18.9892
 141   2.0000      -0.696699       -18.9581
 142   2.0000      -0.693852       -18.8807
 143   2.0000      -0.689242       -18.7552
 144   2.0000      -0.688431       -18.7332
 145   2.0000      -0.669631       -18.2216
 146   2.0000      -0.665235       -18.1020
 147   2.0000      -0.657947       -17.9037
 148   2.0000      -0.648359       -17.6427
 149   2.0000      -0.643509       -17.5108
 150   2.0000      -0.641442       -17.4545
 151   2.0000      -0.636336       -17.3156
 152   2.0000      -0.628373       -17.0989
 153   2.0000      -0.626844       -17.0573
 154   2.0000      -0.621753       -16.9188
 155   2.0000      -0.616595       -16.7784
 156   2.0000      -0.612548       -16.6683
 157   2.0000      -0.609202       -16.5772
 158   2.0000      -0.605564       -16.4782
 159   2.0000      -0.601623       -16.3710
 160   2.0000      -0.598349       -16.2819
 161   2.0000      -0.596254       -16.2249
 162   2.0000      -0.593358       -16.1461
 163   2.0000      -0.588795       -16.0219
 164   2.0000      -0.579613       -15.7721
 165   2.0000      -0.576567       -15.6892
 166   2.0000      -0.575267       -15.6538
 167   2.0000      -0.570583       -15.5264
 168   2.0000      -0.568293       -15.4640
 169   2.0000      -0.563714       -15.3394
 170   2.0000      -0.563512       -15.3339
 171   2.0000      -0.555425       -15.1139
 172   2.0000      -0.552832       -15.0433
 173   2.0000      -0.550395       -14.9770
 174   2.0000      -0.547758       -14.9053
 175   2.0000      -0.544716       -14.8225
 176   2.0000      -0.543760       -14.7965
 177   2.0000      -0.541021       -14.7219
 178   2.0000      -0.538668       -14.6579
 179   2.0000      -0.536832       -14.6079
 180   2.0000      -0.535088       -14.5605
 181   2.0000      -0.527570       -14.3559
 182   2.0000      -0.526462       -14.3258
 183   2.0000      -0.523458       -14.2440
 184   2.0000      -0.521675       -14.1955
 185   2.0000      -0.518939       -14.1210
 186   2.0000      -0.517260       -14.0754
 187   2.0000      -0.515950       -14.0397
 188   2.0000      -0.511296       -13.9131
 189   2.0000      -0.507799       -13.8179
 190   2.0000      -0.505949       -13.7676
 191   2.0000      -0.502748       -13.6805
 192   2.0000      -0.502094       -13.6627
 193   2.0000      -0.496419       -13.5082
 194   2.0000      -0.495051       -13.4710
 195   2.0000      -0.494118       -13.4456
 196   2.0000      -0.486396       -13.2355
 197   2.0000      -0.481711       -13.1080
 198   2.0000      -0.478106       -13.0099
 199   2.0000      -0.476907       -12.9773
 200   2.0000      -0.475692       -12.9442
 201   2.0000      -0.473426       -12.8826
 202   2.0000      -0.472350       -12.8533
 203   2.0000      -0.469330       -12.7711
 204   2.0000      -0.467366       -12.7177
 205   2.0000      -0.465937       -12.6788
 206   2.0000      -0.464271       -12.6335
 207   2.0000      -0.463811       -12.6209
 208   2.0000      -0.463351       -12.6084
 209   2.0000      -0.460375       -12.5274
 210   2.0000      -0.459392       -12.5007
 211   2.0000      -0.457606       -12.4521
 212   2.0000      -0.456082       -12.4106
 213   2.0000      -0.455451       -12.3935
 214   2.0000      -0.453869       -12.3504
 215   2.0000      -0.452184       -12.3045
 216   2.0000      -0.444626       -12.0989
 217   2.0000      -0.444233       -12.0882
 218   2.0000      -0.442075       -12.0295
 219   2.0000      -0.440403       -11.9840
 220   2.0000      -0.439187       -11.9509
 221   2.0000      -0.435630       -11.8541
 222   2.0000      -0.434622       -11.8267
 223   2.0000      -0.430034       -11.7018
 224   2.0000      -0.429272       -11.6811
 225   2.0000      -0.427764       -11.6400
 226   2.0000      -0.424392       -11.5483
 227   2.0000      -0.422546       -11.4981
 228   2.0000      -0.422025       -11.4839
 229   2.0000      -0.420523       -11.4430
 230   2.0000      -0.418490       -11.3877
 231   2.0000      -0.415118       -11.2959
 232   2.0000      -0.413915       -11.2632
 233   2.0000      -0.408587       -11.1182
 234   2.0000      -0.405889       -11.0448
 235   2.0000      -0.398465       -10.8428
 236   2.0000      -0.395891       -10.7727
 237   2.0000      -0.383381       -10.4323
 238   2.0000      -0.378780       -10.3071
 239   2.0000      -0.368388       -10.0244
 240   2.0000      -0.365332        -9.9412
 241   2.0000      -0.364634        -9.9222
 242   2.0000      -0.359338        -9.7781
 243   2.0000      -0.353758        -9.6263
 244   2.0000      -0.349132        -9.5004
 245   2.0000      -0.345801        -9.4097
 246   2.0000      -0.342457        -9.3187
 247   2.0000      -0.340648        -9.2695
 248   2.0000      -0.329433        -8.9643
 249   2.0000      -0.328982        -8.9521
 250   2.0000      -0.324591        -8.8326
 251   2.0000      -0.314344        -8.5537
 252   2.0000      -0.291276        -7.9260
 253   2.0000      -0.251541        -6.8448
 254   0.0000      -0.125730        -3.4213
 255   0.0000      -0.111123        -3.0238
 256   0.0000      -0.096951        -2.6382
 257   0.0000      -0.072001        -1.9592
 258   0.0000      -0.067521        -1.8373

MULLIKEN ATOMIC CHARGES
-----------------------
   0 C :    0.031817
   1 C :   -0.126100
   2 S :    0.196136
   3 C :   -0.167090
   4 Cl:    0.006035
   5 C :    0.070679
   6 C :    0.145705
   7 O :   -0.124933
   8 C :   -0.088601
   9 C :    0.280688
  10 C :   -0.312419
  11 C :   -0.195176
  12 N :    0.165824
  13 C :   -0.198817
  14 N :    0.171099
  15 C :   -0.031434
  16 C :    0.059789
  17 C :   -0.056738
  18 C :    0.143987
  19 N :    0.252409
  20 O :   -0.225288
  21 O :   -0.239073
  22 C :    0.061707
  23 C :   -0.050406
  24 C :    0.113501
  25 C :    0.016400
  26 C :   -0.037170
  27 C :    0.105464
  28 N :   -0.259699
  29 C :    0.089592
  30 C :   -0.000837
  31 C :    0.172069
  32 O :   -0.204621
  33 C :   -0.059956
  34 C :   -0.040712
  35 C :    0.151928
  36 O :   -0.195363
  37 N :   -0.267745
  38 C :    0.105634
  39 C :    0.001101
  40 C :    0.144468
  41 C :    0.005153
  42 C :   -0.026900
  43 C :    0.241566
  44 C :   -0.118688
  45 C :    0.293872
  46 C :   -0.319746
  47 C :   -0.175860
  48 N :    0.137564
  49 C :   -0.172657
  50 N :    0.146010
  51 C :   -0.083604
  52 C :    0.189538
  53 O :   -0.250560
  54 C :    0.021441
  55 C :   -0.111597
  56 C :    0.139343
  57 O :   -0.109970
  58 C :    0.083099
  59 C :   -0.166779
  60 S :    0.197775
  61 C :   -0.135494
  62 C :    0.028245
  63 C :    0.269870
  64 C :   -0.311391
  65 C :   -0.162785
  66 N :    0.149900
  67 C :   -0.196093
  68 N :    0.186162
  69 Cl:    0.013638
  70 H :    0.057611
  71 H :    0.040979
  72 H :    0.013210
  73 H :    0.008804
  74 H :   -0.000234
  75 H :    0.017041
  76 H :    0.018541
  77 H :    0.046595
  78 H :    0.042134
  79 H :    0.016975
  80 H :    0.030411
  81 H :    0.033226
  82 H :    0.044239
  83 H :    0.011867
  84 H :    0.030484
  85 H :    0.015541
  86 H :    0.012329
  87 H :   -0.012140
  88 H :    0.028787
  89 H :    0.043897
  90 H :    0.037344
  91 H :    0.044757
  92 H :    0.052699
Sum of atomic charges:   -0.0000000

LOEWDIN ATOMIC CHARGES
----------------------
   0 C :   -0.060044
   1 C :   -0.147198
   2 S :    0.485308
   3 C :   -0.270619
   4 Cl:    0.197160
   5 C :   -0.118630
   6 C :    0.081385
   7 O :   -0.122239
   8 C :   -0.078019
   9 C :    0.072833
  10 C :   -0.127788
  11 C :   -0.015820
  12 N :   -0.043162
  13 C :   -0.025735
  14 N :   -0.037365
  15 C :    0.077972
  16 C :   -0.036768
  17 C :    0.025455
  18 C :   -0.032756
  19 N :    0.288172
  20 O :   -0.192359
  21 O :   -0.197757
  22 C :    0.010377
  23 C :   -0.003157
  24 C :    0.047936
  25 C :    0.006582
  26 C :   -0.021874
  27 C :    0.078991
  28 N :    0.004411
  29 C :    0.035587
  30 C :   -0.062644
  31 C :    0.085415
  32 O :   -0.189872
  33 C :   -0.113877
  34 C :   -0.115929
  35 C :    0.079489
  36 O :   -0.197370
  37 N :   -0.001620
  38 C :    0.031954
  39 C :   -0.062912
  40 C :    0.074620
  41 C :   -0.018812
  42 C :    0.005294
  43 C :    0.085695
  44 C :   -0.023676
  45 C :    0.049337
  46 C :   -0.150722
  47 C :   -0.029377
  48 N :   -0.056897
  49 C :   -0.029235
  50 N :   -0.050209
  51 C :    0.000986
  52 C :    0.065119
  53 O :   -0.004387
  54 C :    0.053040
  55 C :   -0.056258
  56 C :    0.082645
  57 O :   -0.116312
  58 C :   -0.119356
  59 C :   -0.267648
  60 S :    0.485894
  61 C :   -0.152822
  62 C :   -0.057368
  63 C :    0.064934
  64 C :   -0.124915
  65 C :   -0.012389
  66 N :   -0.040181
  67 C :   -0.027018
  68 N :   -0.034897
  69 Cl:    0.202951
  70 H :    0.039173
  71 H :    0.049619
  72 H :    0.044919
  73 H :    0.042685
  74 H :    0.038562
  75 H :    0.031529
  76 H :    0.046089
  77 H :    0.030124
  78 H :    0.038162
  79 H :    0.019899
  80 H :    0.033972
  81 H :    0.033953
  82 H :    0.039410
  83 H :    0.017938
  84 H :    0.033368
  85 H :    0.025313
  86 H :    0.019467
  87 H :    0.029246
  88 H :    0.046464
  89 H :    0.057616
  90 H :    0.054986
  91 H :    0.059697
  92 H :    0.036265

  Mayer bond orders larger than 0.100000
B(  0-C ,  1-C ) :   1.5406 B(  0-C ,  5-C ) :   1.2199 B(  0-C ,  9-C ) :   1.0088
B(  1-C ,  2-S ) :   1.1662 B(  1-C , 70-H ) :   0.9543 B(  2-S ,  3-C ) :   1.1558
B(  3-C ,  4-Cl) :   1.1334 B(  3-C ,  5-C ) :   1.4716 B(  5-C ,  6-C ) :   0.9566
B(  6-C ,  7-O ) :   2.2412 B(  6-C ,  8-C ) :   0.9185 B(  8-C ,  9-C ) :   1.0362
B(  8-C , 15-C ) :   1.7222 B(  9-C , 10-C ) :   1.6819 B( 10-C , 11-C ) :   1.1397
B( 10-C , 13-C ) :   1.1343 B( 11-C , 12-N ) :   2.9968 B( 13-C , 14-N ) :   2.9896
B( 15-C , 16-C ) :   1.0357 B( 15-C , 71-H ) :   0.9492 B( 16-C , 17-C ) :   1.2980
B( 16-C , 24-C ) :   1.3304 B( 17-C , 18-C ) :   1.3688 B( 17-C , 72-H ) :   0.9976
B( 18-C , 19-N ) :   0.8877 B( 18-C , 22-C ) :   1.3368 B( 19-N , 20-O ) :   1.5653
B( 19-N , 21-O ) :   1.5031 B( 20-O , 21-O ) :   0.2620 B( 22-C , 23-C ) :   1.3480
B( 22-C , 25-C ) :   1.0526 B( 23-C , 24-C ) :   1.4092 B( 23-C , 73-H ) :   0.9922
B( 24-C , 74-H ) :   0.9833 B( 25-C , 26-C ) :   1.6817 B( 25-C , 75-H ) :   0.9419
B( 26-C , 27-C ) :   1.1657 B( 26-C , 76-H ) :   0.9453 B( 27-C , 28-N ) :   1.1832
B( 27-C , 34-C ) :   1.3506 B( 28-N , 29-C ) :   0.9303 B( 28-N , 31-C ) :   1.0629
B( 29-C , 30-C ) :   1.1160 B( 29-C , 77-H ) :   0.9500 B( 29-C , 78-H ) :   0.9279
B( 30-C , 79-H ) :   0.9667 B( 30-C , 80-H ) :   0.9692 B( 30-C , 81-H ) :   0.9606
B( 31-C , 32-O ) :   2.0190 B( 31-C , 33-C ) :   0.9798 B( 32-O , 88-H ) :   0.1176
B( 33-C , 34-C ) :   1.2428 B( 33-C , 40-C ) :   1.3581 B( 34-C , 35-C ) :   0.9789
B( 35-C , 36-O ) :   2.1295 B( 35-C , 37-N ) :   1.0336 B( 37-N , 38-C ) :   0.9410
B( 37-N , 40-C ) :   1.1650 B( 38-C , 39-C ) :   1.1167 B( 38-C , 82-H ) :   0.9238
B( 38-C , 83-H ) :   0.9442 B( 39-C , 84-H ) :   0.9599 B( 39-C , 85-H ) :   0.9650
B( 39-C , 86-H ) :   0.9686 B( 40-C , 41-C ) :   1.1355 B( 41-C , 42-C ) :   1.5846
B( 41-C , 87-H ) :   0.9659 B( 42-C , 43-C ) :   1.1183 B( 42-C , 88-H ) :   0.9491
B( 43-C , 44-C ) :   1.5356 B( 43-C , 53-O ) :   1.0819 B( 44-C , 45-C ) :   1.1015
B( 44-C , 89-H ) :   0.9794 B( 45-C , 46-C ) :   1.5569 B( 45-C , 51-C ) :   1.0893
B( 46-C , 47-C ) :   1.1356 B( 46-C , 49-C ) :   1.1326 B( 47-C , 48-N ) :   3.0030
B( 49-C , 50-N ) :   3.0101 B( 51-C , 52-C ) :   1.5668 B( 51-C , 90-H ) :   0.9756
B( 52-C , 53-O ) :   1.1010 B( 52-C , 54-C ) :   1.0513 B( 54-C , 55-C ) :   1.7075
B( 54-C , 91-H ) :   0.9511 B( 55-C , 56-C ) :   0.9188 B( 55-C , 63-C ) :   1.0228
B( 56-C , 57-O ) :   2.2996 B( 56-C , 58-C ) :   0.9243 B( 58-C , 59-C ) :   1.4778
B( 58-C , 62-C ) :   1.2243 B( 59-C , 60-S ) :   1.1577 B( 59-C , 69-Cl) :   1.1401
B( 60-S , 61-C ) :   1.1551 B( 61-C , 62-C ) :   1.5457 B( 61-C , 92-H ) :   0.9589
B( 62-C , 63-C ) :   1.0133 B( 63-C , 64-C ) :   1.6823 B( 64-C , 65-C ) :   1.1481
B( 64-C , 67-C ) :   1.1508 B( 65-C , 66-N ) :   2.9257 B( 67-C , 68-N ) :   3.0064

-----------------------------------------------------------------------------
         ABSORPTION SPECTRUM VIA TRANSITION ELECTRIC DIPOLE MOMENTS
-----------------------------------------------------------------------------
State   Energy  Wavelength   fosc         T2         TX        TY        TZ
        (cm-1)    (nm)                  (au**2)     (au)      (au)      (au)
-----------------------------------------------------------------------------
   0   13037.5    767.0   0.180657933   4.56183  -0.98368   1.80371   0.58381
   1   16257.3    615.1   0.681900881  13.80855   1.60721  -2.82507  -1.80122
   2   19821.6    504.5   0.307411420   5.10572  -1.09456   1.14801  -1.60927
   3   20886.0    478.8   0.006173861   0.09731  -0.25016   0.07588   0.17023
   4   24779.1    403.6   0.006476163   0.08604  -0.13408  -0.05290  -0.25547
   5   25393.4    393.8   0.276820011   3.58882   0.87510  -1.25752   1.11430
   6   25838.5    387.0   0.022690521   0.28910   0.14724   0.51567  -0.03879
   7   26108.9    383.0   0.009419277   0.11877   0.13058  -0.26418   0.17868
   8   26297.9    380.3   0.042272110   0.52919  -0.68783  -0.20370  -0.12078
   9   26368.5    379.2   0.214290999   2.67543  -0.83021   1.40236   0.13983
  10   27915.5    358.2   0.015338969   0.18089   0.11892  -0.13989  -0.38365
  11   28033.5    356.7   0.010237987   0.12023   0.00719  -0.10454  -0.33053
  12   28386.3    352.3   0.065414296   0.75865  -0.21785  -0.02524  -0.84294
  13   29244.9    341.9   0.187289691   2.10834  -0.44777   1.05982  -0.88579
  14   29373.6    340.4   0.038559512   0.43217  -0.02753   0.63517   0.16724
  15   29929.3    334.1   0.020785848   0.22864  -0.32971   0.33973  -0.06714
  16   30368.8    329.3   0.096871433   1.05013  -0.07719   0.51057   0.88515
  17   30882.1    323.8   0.429852098   4.58234  -1.58810   1.42101   0.20247
  18   31412.7    318.3   0.001091609   0.01144  -0.07516  -0.02613  -0.07148
  19   31826.7    314.2   0.107344222   1.11036   0.00775  -0.52763   0.91209
  20   31896.4    313.5   0.097630901   1.00768   0.01527  -0.45283   0.89576
  21   32513.3    307.6   0.072204935   0.73111  -0.23314   0.66791  -0.48027
  22   32851.9    304.4   0.128065838   1.28336  -0.82299   0.70497   0.33025
  23   33417.7    299.2   0.019529824   0.19240  -0.10047  -0.19878   0.37787
  24   33440.8    299.0   0.044318610   0.43630  -0.64462   0.14386   0.00833
  25   33716.8    296.6   0.020481163   0.19998  -0.42987   0.12113  -0.02276
  26   33793.2    295.9   0.022474340   0.21894   0.32564  -0.25026   0.22421
  27   33992.4    294.2   0.014705182   0.14242   0.26461   0.21786  -0.15791
  28   34849.2    287.0   0.074735373   0.70601   0.74531   0.03996   0.38590
  29   35025.8    285.5   0.089197353   0.83838   0.57479  -0.01558  -0.71257
  30   35424.1    282.3   0.149384048   1.38829  -0.96175   0.67684   0.07217
  31   35835.1    279.1   0.037889329   0.34808  -0.21468  -0.54786  -0.04294
  32   36462.2    274.3   0.067142431   0.60622   0.27809  -0.71669  -0.12344
  33   36677.6    272.6   0.066953692   0.60096   0.57533  -0.51930  -0.01690
  34   36927.8    270.8   0.027855667   0.24833   0.04280  -0.36081  -0.34105
  35   37191.6    268.9   0.516280920   4.57000   2.09272   0.39013  -0.19578
  36   37337.1    267.8   0.258864665   2.28248   0.81677   0.84524   0.94918
  37   37461.9    266.9   0.872052997   7.66353  -0.07732  -2.03020   1.88038
  38   37573.3    266.1   0.192505091   1.68670   0.08280  -0.46949   1.20807
  39   37663.4    265.5   0.048299783   0.42218   0.20711  -0.33962   0.51376
  40   38622.0    258.9   0.077745951   0.66270  -0.34273   0.33237  -0.65937
  41   38767.0    258.0   0.120376677   1.02225  -0.64652  -0.61768  -0.47195
  42   38921.9    256.9   0.044108659   0.37308   0.26695   0.45005  -0.31508
  43   39383.3    253.9   0.005539663   0.04631   0.04599  -0.11128  -0.17835
  44   39712.4    251.8   0.071610308   0.59364   0.35883  -0.40343   0.54966
  45   39847.5    251.0   0.016714946   0.13810  -0.29504   0.22266  -0.03835
  46   39873.0    250.8   0.007659348   0.06324   0.01903  -0.25033   0.01463
  47   40215.7    248.7   0.100148779   0.81983  -0.07316   0.51620  -0.74028

FINAL SINGLE POINT ENERGY     -4650.846430196473

DIPOLE MOMENT
-------------
                                X             Y             Z
Electronic contribution:    -23.36918       5.12940     -25.71906
Nuclear contribution   :     20.79637      -2.94585      22.39631
                        -----------------------------------------
Total Dipole Moment    :     -2.57281       2.18355      -3.32276
                        -----------------------------------------
Magnitude (a.u.)       :      4.73582
Magnitude (Debye)      :     12.03749

Rotational constants in cm-1:     0.001486     0.000282     0.000256
Rotational constants in MHz :    44.535861     8.457577     7.683409

                             ****ORCA TERMINATED NORMALLY****
TOTAL RUN TIME: 0 days 0 hours 12 minutes 7 seconds 15 msec
