                         Program Version 4.2.0 -  RELEASE  -
|  1> # ORCA input file
|  2> # SCF done       -156.715740812842          0.000604752821
|  3> ! CAM-B3LYP def2-SVP def2/J RIJCOSX Grid4 TightSCF
|  4> %maxcore 5000
|  5> %tddft
|  6>     Mode sTDDFT
|  7>     Ethresh 5.0
|  8>     maxcore 5000
|  9> end
| 10>
| 11> %pal
| 12>   nprocs 6
| 13>   end
| 14> * xyz 0 1
| 15>    C        4.09378         2.60909         2.35603
| 16>    C        3.68503         3.72880         3.01249
| 17>    S        3.45997         3.41828         4.69474
| 18>    C        3.92802         1.74323         4.51503
| 19>   Cl        3.95808         0.68772         5.83892
| 20>    C        4.23233         1.47105         3.21472
| 21>    C        4.66941         0.30479         2.43927
| 22>    O        4.90576        -0.80792         2.84792
| 23>    C        4.81682         0.81734         1.03953
| 24>    C        4.43701         2.22468         1.00284
| 25>    C        4.36370         3.05190        -0.08537
| 26>    C        3.96063         4.39829         0.04283
| 27>    N        3.63806         5.49578         0.12886
| 28>    C        4.65293         2.69250        -1.41682
| 29>    N        4.86814         2.46544        -2.52162
| 30>    C        5.37127         0.12590         0.01245
| 31>    C        5.72659        -1.26377         0.00681
| 32>    C        4.95569        -2.29663         0.56629
| 33>    N        5.35551        -3.54499         0.58041
| 34>    C        6.52042        -3.83538        -0.00174
| 35>    N        7.26988        -2.94811        -0.66924
| 36>    C        6.89114        -1.69730        -0.65451
| 37>    C        7.03344        -5.17092         0.04264
| 38>    S        8.53510        -5.47166        -0.76033
| 39>    C        8.48454        -7.12550        -0.26370
| 40>    C        7.36210        -7.42276         0.48265
| 41>    C        6.52895        -6.30204         0.65874
| 42>    C        5.27030        -6.35216         1.45676
| 43>    C        4.81156        -7.80201         1.66496
| 44>    C        3.74696        -7.83498         2.64136
| 45>    N        2.91696        -7.83194         3.42624
| 46>    C        5.97878        -8.68905         2.14232
| 47>    O        5.43849        -9.95897         2.43942
| 48>    C        6.25753       -10.78082         3.23251
| 49>    C        7.04564        -8.76848         1.04062
| 50>    C        9.61656        -7.92916        -0.64391
| 51>    N        9.70608        -9.21186        -0.28263
| 52>    C       10.80582        -9.84789        -0.64825
| 53>    C       11.83272        -9.24118        -1.35580
| 54>    C       11.64773        -7.89347        -1.69186
| 55>    N       10.53114        -7.26671        -1.33971
| 56>    C       12.63630        -7.10511        -2.40023
| 57>    C       12.38824        -5.81338        -2.69635
| 58>    C       13.30168        -4.95154        -3.36023
| 59>    C       13.17202        -3.60930        -3.51478
| 60>    C       14.01516        -2.90224        -4.53295
| 61>    O       15.00341        -3.33778        -5.07098
| 62>    C       13.32889        -1.62358        -4.74493
| 63>    C       13.45935        -0.54226        -5.56491
| 64>    S       12.20903         0.63223        -5.23208
| 65>    C       11.53210        -0.34714        -3.98256
| 66>    C       12.22406        -1.50854        -3.83675
| 67>    C       12.19895        -2.67412        -2.97055
| 68>    C       11.52265        -2.74101        -1.78218
| 69>    C       10.64482        -1.70631        -1.39529
| 70>    N        9.93697        -0.85975        -1.08129
| 71>    C       11.72265        -3.71182        -0.77734
| 72>    N       11.90741        -4.41619         0.10898
| 73>   Cl       14.62598        -0.27381        -6.76249
| 74>    H        3.50311         4.71366         2.63045
| 75>    H        5.62274         0.66246        -0.89479
| 76>    H        3.97085        -2.11152         0.97071
| 77>    H        7.54907        -0.99584        -1.15106
| 78>    H        4.49305        -5.76632         0.96294
| 79>    H        5.44642        -5.87733         2.42748
| 80>    H        4.42642        -8.22266         0.72944
| 81>    H        6.41599        -8.24553         3.05308
| 82>    H        5.66248       -11.66112         3.46624
| 83>    H        6.53989       -10.27600         4.16399
| 84>    H        7.16571       -11.08759         2.70257
| 85>    H        6.66676        -9.41475         0.24223
| 86>    H        7.96187        -9.22894         1.41267
| 87>    H       10.86278       -10.88770        -0.35128
| 88>    H       12.72637        -9.77664        -1.63079
| 89>    H       13.58006        -7.57591        -2.63697
| 90>    H       11.41807        -5.42641        -2.41708
| 91>    H       14.15757        -5.40251        -3.85169
| 92>    H       10.66814         0.00164        -3.45310
| 93> *
| 94>
| 95>                          ****END OF INPUT****

CARTESIAN COORDINATES (ANGSTROEM)
---------------------------------
  C      4.093780    2.609090    2.356030
  C      3.685030    3.728800    3.012490
  S      3.459970    3.418280    4.694740
  C      3.928020    1.743230    4.515030
  Cl     3.958080    0.687720    5.838920
  C      4.232330    1.471050    3.214720
  C      4.669410    0.304790    2.439270
  O      4.905760   -0.807920    2.847920
  C      4.816820    0.817340    1.039530
  C      4.437010    2.224680    1.002840
  C      4.363700    3.051900   -0.085370
  C      3.960630    4.398290    0.042830
  N      3.638060    5.495780    0.128860
  C      4.652930    2.692500   -1.416820
  N      4.868140    2.465440   -2.521620
  C      5.371270    0.125900    0.012450
  C      5.726590   -1.263770    0.006810
  C      4.955690   -2.296630    0.566290
  N      5.355510   -3.544990    0.580410
  C      6.520420   -3.835380   -0.001740
  N      7.269880   -2.948110   -0.669240
  C      6.891140   -1.697300   -0.654510
  C      7.033440   -5.170920    0.042640
  S      8.535100   -5.471660   -0.760330
  C      8.484540   -7.125500   -0.263700
  C      7.362100   -7.422760    0.482650
  C      6.528950   -6.302040    0.658740
  C      5.270300   -6.352160    1.456760
  C      4.811560   -7.802010    1.664960
  C      3.746960   -7.834980    2.641360
  N      2.916960   -7.831940    3.426240
  C      5.978780   -8.689050    2.142320
  O      5.438490   -9.958970    2.439420
  C      6.257530  -10.780820    3.232510
  C      7.045640   -8.768480    1.040620
  C      9.616560   -7.929160   -0.643910
  N      9.706080   -9.211860   -0.282630
  C     10.805820   -9.847890   -0.648250
  C     11.832720   -9.241180   -1.355800
  C     11.647730   -7.893470   -1.691860
  N     10.531140   -7.266710   -1.339710
  C     12.636300   -7.105110   -2.400230
  C     12.388240   -5.813380   -2.696350
  C     13.301680   -4.951540   -3.360230
  C     13.172020   -3.609300   -3.514780
  C     14.015160   -2.902240   -4.532950
  O     15.003410   -3.337780   -5.070980
  C     13.328890   -1.623580   -4.744930
  C     13.459350   -0.542260   -5.564910
  S     12.209030    0.632230   -5.232080
  C     11.532100   -0.347140   -3.982560
  C     12.224060   -1.508540   -3.836750
  C     12.198950   -2.674120   -2.970550
  C     11.522650   -2.741010   -1.782180
  C     10.644820   -1.706310   -1.395290
  N      9.936970   -0.859750   -1.081290
  C     11.722650   -3.711820   -0.777340
  N     11.907410   -4.416190    0.108980
  Cl    14.625980   -0.273810   -6.762490
  H      3.503110    4.713660    2.630450
  H      5.622740    0.662460   -0.894790
  H      3.970850   -2.111520    0.970710
  H      7.549070   -0.995840   -1.151060
  H      4.493050   -5.766320    0.962940
  H      5.446420   -5.877330    2.427480
  H      4.426420   -8.222660    0.729440
  H      6.415990   -8.245530    3.053080
  H      5.662480  -11.661120    3.466240
  H      6.539890  -10.276000    4.163990
  H      7.165710  -11.087590    2.702570
  H      6.666760   -9.414750    0.242230
  H      7.961870   -9.228940    1.412670
  H     10.862780  -10.887700   -0.351280
  H     12.726370   -9.776640   -1.630790
  H     13.580060   -7.575910   -2.636970
  H     11.418070   -5.426410   -2.417080
  H     14.157570   -5.402510   -3.851690
  H     10.668140    0.001640   -3.453100

 Total Charge           Charge          ....    0
 Multiplicity           Mult            ....    1
 Number of Electrons    NEL             ....  440
 Basis Dimension        Dim             ....  941

ORBITAL ENERGIES
----------------

  NO   OCC          E(Eh)            E(eV)
   0   2.0000    -101.620895     -2765.2451
   1   2.0000    -101.618319     -2765.1750
   2   2.0000     -88.997198     -2421.7369
   3   2.0000     -88.995906     -2421.7017
   4   2.0000     -88.953799     -2420.5559
   5   2.0000     -19.224798      -523.1333
   6   2.0000     -19.224581      -523.1274
   7   2.0000     -19.213034      -522.8132
   8   2.0000     -14.430076      -392.6623
   9   2.0000     -14.424292      -392.5049
  10   2.0000     -14.422484      -392.4558
  11   2.0000     -14.422458      -392.4550
  12   2.0000     -14.420853      -392.4113
  13   2.0000     -14.420208      -392.3938
  14   2.0000     -14.416508      -392.2931
  15   2.0000     -14.416023      -392.2799
  16   2.0000     -14.380746      -391.3200
  17   2.0000     -10.381786      -282.5028
  18   2.0000     -10.380748      -282.4745
  19   2.0000     -10.380195      -282.4595
  20   2.0000     -10.378262      -282.4069
  21   2.0000     -10.359149      -281.8868
  22   2.0000     -10.357682      -281.8469
  23   2.0000     -10.356768      -281.8220
  24   2.0000     -10.355443      -281.7859
  25   2.0000     -10.351841      -281.6879
  26   2.0000     -10.350816      -281.6600
  27   2.0000     -10.343717      -281.4669
  28   2.0000     -10.334740      -281.2226
  29   2.0000     -10.333290      -281.1831
  30   2.0000     -10.333068      -281.1771
  31   2.0000     -10.332929      -281.1733
  32   2.0000     -10.332003      -281.1481
  33   2.0000     -10.328689      -281.0579
  34   2.0000     -10.327313      -281.0205
  35   2.0000     -10.326470      -280.9975
  36   2.0000     -10.326181      -280.9897
  37   2.0000     -10.324486      -280.9436
  38   2.0000     -10.323926      -280.9283
  39   2.0000     -10.321867      -280.8723
  40   2.0000     -10.318003      -280.7671
  41   2.0000     -10.314994      -280.6853
  42   2.0000     -10.312521      -280.6180
  43   2.0000     -10.311105      -280.5794
  44   2.0000     -10.308495      -280.5084
  45   2.0000     -10.305881      -280.4373
  46   2.0000     -10.304585      -280.4020
  47   2.0000     -10.302003      -280.3317
  48   2.0000     -10.301928      -280.3297
  49   2.0000     -10.301622      -280.3214
  50   2.0000     -10.299440      -280.2620
  51   2.0000     -10.298750      -280.2432
  52   2.0000     -10.296036      -280.1694
  53   2.0000     -10.294896      -280.1384
  54   2.0000     -10.285393      -279.8798
  55   2.0000     -10.284819      -279.8642
  56   2.0000     -10.281570      -279.7757
  57   2.0000     -10.275903      -279.6215
  58   2.0000     -10.267061      -279.3809
  59   2.0000      -9.575658      -260.5669
  60   2.0000      -9.573074      -260.4966
  61   2.0000      -8.092924      -220.2197
  62   2.0000      -8.091602      -220.1837
  63   2.0000      -8.047652      -218.9877
  64   2.0000      -7.346296      -199.9029
  65   2.0000      -7.343700      -199.8322
  66   2.0000      -7.335706      -199.6147
  67   2.0000      -7.335148      -199.5995
  68   2.0000      -7.333125      -199.5445
  69   2.0000      -7.332568      -199.5293
  70   2.0000      -6.062291      -164.9633
  71   2.0000      -6.060957      -164.9270
  72   2.0000      -6.057696      -164.8383
  73   2.0000      -6.056363      -164.8020
  74   2.0000      -6.055177      -164.7697
  75   2.0000      -6.053885      -164.7346
  76   2.0000      -6.016873      -163.7274
  77   2.0000      -6.012613      -163.6115
  78   2.0000      -6.010145      -163.5444
  79   2.0000      -1.142022       -31.0760
  80   2.0000      -1.141660       -31.0661
  81   2.0000      -1.116809       -30.3899
  82   2.0000      -1.098471       -29.8909
  83   2.0000      -1.093410       -29.7532
  84   2.0000      -1.042597       -28.3705
  85   2.0000      -1.040401       -28.3107
  86   2.0000      -1.022955       -27.8360
  87   2.0000      -1.020418       -27.7670
  88   2.0000      -1.003292       -27.3010
  89   2.0000      -1.001867       -27.2622
  90   2.0000      -0.997608       -27.1463
  91   2.0000      -0.992872       -27.0174
  92   2.0000      -0.992171       -26.9983
  93   2.0000      -0.990428       -26.9509
  94   2.0000      -0.987056       -26.8592
  95   2.0000      -0.970011       -26.3953
  96   2.0000      -0.959725       -26.1154
  97   2.0000      -0.958092       -26.0710
  98   2.0000      -0.934019       -25.4160
  99   2.0000      -0.930213       -25.3124
 100   2.0000      -0.920238       -25.0410
 101   2.0000      -0.912022       -24.8174
 102   2.0000      -0.907378       -24.6910
 103   2.0000      -0.901394       -24.5282
 104   2.0000      -0.874835       -23.8055
 105   2.0000      -0.858233       -23.3537
 106   2.0000      -0.850804       -23.1516
 107   2.0000      -0.840691       -22.8764
 108   2.0000      -0.836867       -22.7723
 109   2.0000      -0.835044       -22.7227
 110   2.0000      -0.817990       -22.2586
 111   2.0000      -0.799893       -21.7662
 112   2.0000      -0.791592       -21.5403
 113   2.0000      -0.767741       -20.8913
 114   2.0000      -0.765314       -20.8253
 115   2.0000      -0.760702       -20.6998
 116   2.0000      -0.756149       -20.5759
 117   2.0000      -0.751198       -20.4411
 118   2.0000      -0.747078       -20.3290
 119   2.0000      -0.737864       -20.0783
 120   2.0000      -0.717353       -19.5202
 121   2.0000      -0.701252       -19.0820
 122   2.0000      -0.694903       -18.9093
 123   2.0000      -0.691443       -18.8151
 124   2.0000      -0.680897       -18.5282
 125   2.0000      -0.680750       -18.5242
 126   2.0000      -0.679234       -18.4829
 127   2.0000      -0.667863       -18.1735
 128   2.0000      -0.662799       -18.0357
 129   2.0000      -0.646621       -17.5954
 130   2.0000      -0.633452       -17.2371
 131   2.0000      -0.627600       -17.0779
 132   2.0000      -0.623206       -16.9583
 133   2.0000      -0.619246       -16.8506
 134   2.0000      -0.617592       -16.8055
 135   2.0000      -0.616788       -16.7837
 136   2.0000      -0.608296       -16.5526
 137   2.0000      -0.606299       -16.4982
 138   2.0000      -0.598742       -16.2926
 139   2.0000      -0.580712       -15.8020
 140   2.0000      -0.574961       -15.6455
 141   2.0000      -0.568125       -15.4595
 142   2.0000      -0.561219       -15.2715
 143   2.0000      -0.558504       -15.1977
 144   2.0000      -0.556900       -15.1540
 145   2.0000      -0.551065       -14.9952
 146   2.0000      -0.549829       -14.9616
 147   2.0000      -0.546575       -14.8731
 148   2.0000      -0.545286       -14.8380
 149   2.0000      -0.541052       -14.7228
 150   2.0000      -0.537142       -14.6164
 151   2.0000      -0.536623       -14.6023
 152   2.0000      -0.533917       -14.5286
 153   2.0000      -0.529705       -14.4140
 154   2.0000      -0.528314       -14.3761
 155   2.0000      -0.526494       -14.3266
 156   2.0000      -0.520450       -14.1622
 157   2.0000      -0.516295       -14.0491
 158   2.0000      -0.513338       -13.9686
 159   2.0000      -0.512004       -13.9323
 160   2.0000      -0.508424       -13.8349
 161   2.0000      -0.507826       -13.8187
 162   2.0000      -0.506120       -13.7722
 163   2.0000      -0.502986       -13.6869
 164   2.0000      -0.498881       -13.5752
 165   2.0000      -0.496887       -13.5210
 166   2.0000      -0.493513       -13.4292
 167   2.0000      -0.491765       -13.3816
 168   2.0000      -0.489271       -13.3137
 169   2.0000      -0.486081       -13.2269
 170   2.0000      -0.480437       -13.0733
 171   2.0000      -0.476439       -12.9646
 172   2.0000      -0.467125       -12.7111
 173   2.0000      -0.463665       -12.6170
 174   2.0000      -0.458311       -12.4713
 175   2.0000      -0.456580       -12.4242
 176   2.0000      -0.456202       -12.4139
 177   2.0000      -0.454841       -12.3768
 178   2.0000      -0.451379       -12.2826
 179   2.0000      -0.450708       -12.2644
 180   2.0000      -0.450219       -12.2511
 181   2.0000      -0.446928       -12.1615
 182   2.0000      -0.446517       -12.1503
 183   2.0000      -0.441180       -12.0051
 184   2.0000      -0.439619       -11.9626
 185   2.0000      -0.438963       -11.9448
 186   2.0000      -0.436661       -11.8821
 187   2.0000      -0.435038       -11.8380
 188   2.0000      -0.434749       -11.8301
 189   2.0000      -0.432421       -11.7668
 190   2.0000      -0.427270       -11.6266
 191   2.0000      -0.420946       -11.4545
 192   2.0000      -0.419793       -11.4232
 193   2.0000      -0.418095       -11.3770
 194   2.0000      -0.412932       -11.2364
 195   2.0000      -0.411291       -11.1918
 196   2.0000      -0.407026       -11.0757
 197   2.0000      -0.404824       -11.0158
 198   2.0000      -0.400194       -10.8898
 199   2.0000      -0.397813       -10.8250
 200   2.0000      -0.393163       -10.6985
 201   2.0000      -0.390597       -10.6287
 202   2.0000      -0.385904       -10.5010
 203   2.0000      -0.381937       -10.3930
 204   2.0000      -0.377599       -10.2750
 205   2.0000      -0.374430       -10.1888
 206   2.0000      -0.368268       -10.0211
 207   2.0000      -0.350732        -9.5439
 208   2.0000      -0.349075        -9.4988
 209   2.0000      -0.340328        -9.2608
 210   2.0000      -0.339478        -9.2377
 211   2.0000      -0.338017        -9.1979
 212   2.0000      -0.332074        -9.0362
 213   2.0000      -0.328128        -8.9288
 214   2.0000      -0.323199        -8.7947
 215   2.0000      -0.321844        -8.7578
 216   2.0000      -0.310630        -8.4527
 217   2.0000      -0.307871        -8.3776
 218   2.0000      -0.305581        -8.3153
 219   2.0000      -0.275992        -7.5101
 220   0.0000      -0.105951        -2.8831
 221   0.0000      -0.098581        -2.6825
 222   0.0000      -0.059013        -1.6058
 223   0.0000      -0.057268        -1.5584
 224   0.0000      -0.044756        -1.2179

MULLIKEN ATOMIC CHARGES
-----------------------
   0 C :    0.029164
   1 C :   -0.127559
   2 S :    0.190421
   3 C :   -0.171690
   4 Cl:    0.005645
   5 C :    0.074829
   6 C :    0.145007
   7 O :   -0.123460
   8 C :   -0.097012
   9 C :    0.292658
  10 C :   -0.324722
  11 C :   -0.195406
  12 N :    0.157895
  13 C :   -0.188472
  14 N :    0.158560
  15 C :   -0.014179
  16 C :   -0.027457
  17 C :    0.121758
  18 N :   -0.069234
  19 C :   -0.072372
  20 N :   -0.073761
  21 C :    0.061763
  22 C :   -0.071420
  23 S :    0.217394
  24 C :   -0.086857
  25 C :   -0.146864
  26 C :   -0.077660
  27 C :    0.195790
  28 C :   -0.086457
  29 C :   -0.247687
  30 N :    0.138086
  31 C :    0.081321
  32 O :   -0.371000
  33 C :    0.194824
  34 C :    0.272793
  35 C :   -0.039545
  36 N :   -0.073731
  37 C :    0.091107
  38 C :   -0.043036
  39 C :    0.064038
  40 N :   -0.080785
  41 C :    0.005668
  42 C :    0.045662
  43 C :    0.039978
  44 C :   -0.113766
  45 C :    0.140093
  46 O :   -0.124735
  47 C :    0.081052
  48 C :   -0.171482
  49 S :    0.191328
  50 C :   -0.128162
  51 C :    0.025265
  52 C :    0.269059
  53 C :   -0.305533
  54 C :   -0.139945
  55 N :    0.122348
  56 C :   -0.207794
  57 N :    0.185028
  58 Cl:    0.002820
  59 H :    0.054296
  60 H :    0.034689
  61 H :    0.009411
  62 H :    0.012277
  63 H :    0.036619
  64 H :    0.031332
  65 H :    0.030451
  66 H :   -0.004682
  67 H :    0.032741
  68 H :    0.004528
  69 H :    0.005407
  70 H :    0.011278
  71 H :    0.018913
  72 H :    0.010026
  73 H :   -0.002067
  74 H :   -0.004123
  75 H :    0.047731
  76 H :    0.020708
  77 H :    0.050895
Sum of atomic charges:    0.0000000

LOEWDIN ATOMIC CHARGES
----------------------
   0 C :   -0.060090
   1 C :   -0.147978
   2 S :    0.479432
   3 C :   -0.271120
   4 Cl:    0.196151
   5 C :   -0.117330
   6 C :    0.081547
   7 O :   -0.122203
   8 C :   -0.085139
   9 C :    0.075626
  10 C :   -0.134805
  11 C :   -0.015430
  12 N :   -0.049606
  13 C :   -0.023273
  14 N :   -0.045871
  15 C :    0.079659
  16 C :   -0.096967
  17 C :    0.093216
  18 N :   -0.077907
  19 C :    0.032783
  20 N :   -0.096631
  21 C :    0.075390
  22 C :   -0.193303
  23 S :    0.515547
  24 C :   -0.188378
  25 C :   -0.038778
  26 C :   -0.033466
  27 C :   -0.006973
  28 C :   -0.055243
  29 C :   -0.028796
  30 N :   -0.073246
  31 C :    0.079321
  32 O :   -0.161683
  33 C :    0.071405
  34 C :   -0.034321
  35 C :    0.024600
  36 N :   -0.084776
  37 C :    0.058171
  38 C :   -0.063282
  39 C :    0.036263
  40 N :   -0.086488
  41 C :    0.009218
  42 C :    0.006649
  43 C :    0.066331
  44 C :   -0.072896
  45 C :    0.080231
  46 O :   -0.129450
  47 C :   -0.119091
  48 C :   -0.271906
  49 S :    0.479365
  50 C :   -0.151659
  51 C :   -0.057023
  52 C :    0.069879
  53 C :   -0.124592
  54 C :    0.006334
  55 N :   -0.054622
  56 C :   -0.029511
  57 N :   -0.034034
  58 Cl:    0.194321
  59 H :    0.038014
  60 H :    0.048715
  61 H :    0.028376
  62 H :    0.024170
  63 H :    0.041952
  64 H :    0.045802
  65 H :    0.052463
  66 H :    0.011953
  67 H :    0.026283
  68 H :    0.009550
  69 H :    0.005520
  70 H :    0.040487
  71 H :    0.033682
  72 H :    0.028917
  73 H :    0.035325
  74 H :    0.034272
  75 H :    0.038098
  76 H :    0.046418
  77 H :    0.036434

  Mayer bond orders larger than 0.100000
B(  0-C ,  1-C ) :   1.5425 B(  0-C ,  5-C ) :   1.2209 B(  0-C ,  9-C ) :   1.0033
B(  1-C ,  2-S ) :   1.1645 B(  1-C , 59-H ) :   0.9538 B(  2-S ,  3-C ) :   1.1531
B(  3-C ,  4-Cl) :   1.1332 B(  3-C ,  5-C ) :   1.4747 B(  5-C ,  6-C ) :   0.9510
B(  6-C ,  7-O ) :   2.2452 B(  6-C ,  8-C ) :   0.9236 B(  8-C ,  9-C ) :   1.0506
B(  8-C , 15-C ) :   1.6945 B(  9-C , 10-C ) :   1.6662 B( 10-C , 11-C ) :   1.1439
B( 10-C , 13-C ) :   1.1358 B( 11-C , 12-N ) :   2.9926 B( 13-C , 14-N ) :   2.9777
B( 15-C , 16-C ) :   1.0650 B( 15-C , 60-H ) :   0.9434 B( 16-C , 17-C ) :   1.3016
B( 16-C , 21-C ) :   1.2882 B( 17-C , 18-N ) :   1.5690 B( 17-C , 61-H ) :   0.9809
B( 18-N , 19-C ) :   1.5326 B( 19-C , 20-N ) :   1.5620 B( 19-C , 22-C ) :   1.0386
B( 20-N , 21-C ) :   1.5802 B( 21-C , 62-H ) :   0.9723 B( 22-C , 23-S ) :   1.1341
B( 22-C , 24-C ) :   0.1225 B( 22-C , 26-C ) :   1.5272 B( 23-S , 24-C ) :   1.1584
B( 24-C , 25-C ) :   1.5425 B( 24-C , 35-C ) :   1.0007 B( 25-C , 26-C ) :   1.3117
B( 25-C , 34-C ) :   1.0412 B( 26-C , 27-C ) :   1.0667 B( 27-C , 28-C ) :   1.0480
B( 27-C , 63-H ) :   0.8950 B( 27-C , 64-H ) :   0.8923 B( 28-C , 29-C ) :   1.0938
B( 28-C , 31-C ) :   1.0073 B( 28-C , 65-H ) :   0.8601 B( 29-C , 30-N ) :   3.1240
B( 31-C , 32-O ) :   1.0359 B( 31-C , 34-C ) :   1.0502 B( 31-C , 66-H ) :   0.9135
B( 32-O , 33-C ) :   0.9857 B( 33-C , 67-H ) :   0.9823 B( 33-C , 68-H ) :   0.9650
B( 33-C , 69-H ) :   0.9668 B( 34-C , 70-H ) :   0.8747 B( 34-C , 71-H ) :   0.8928
B( 35-C , 36-N ) :   1.5337 B( 35-C , 40-N ) :   1.5774 B( 36-N , 37-C ) :   1.5353
B( 37-C , 38-C ) :   1.3721 B( 37-C , 72-H ) :   0.9786 B( 38-C , 39-C ) :   1.3299
B( 38-C , 73-H ) :   0.9757 B( 39-C , 40-N ) :   1.5193 B( 39-C , 41-C ) :   1.0412
B( 41-C , 42-C ) :   1.7233 B( 41-C , 74-H ) :   0.9874 B( 42-C , 43-C ) :   1.0754
B( 42-C , 75-H ) :   0.9424 B( 43-C , 44-C ) :   1.6766 B( 43-C , 76-H ) :   0.9573
B( 44-C , 45-C ) :   0.9292 B( 44-C , 52-C ) :   1.0243 B( 45-C , 46-O ) :   2.2824
B( 45-C , 47-C ) :   0.9278 B( 47-C , 48-C ) :   1.4822 B( 47-C , 51-C ) :   1.2222
B( 48-C , 49-S ) :   1.1548 B( 48-C , 58-Cl) :   1.1318 B( 49-S , 50-C ) :   1.1616
B( 50-C , 51-C ) :   1.5477 B( 50-C , 77-H ) :   0.9571 B( 51-C , 52-C ) :   1.0130
B( 52-C , 53-C ) :   1.6661 B( 53-C , 54-C ) :   1.1482 B( 53-C , 56-C ) :   1.1491
B( 54-C , 55-N ) :   2.9120 B( 56-C , 57-N ) :   3.0035

-----------------------------------------------------------------------------
         ABSORPTION SPECTRUM VIA TRANSITION ELECTRIC DIPOLE MOMENTS
-----------------------------------------------------------------------------
State   Energy  Wavelength   fosc         T2         TX        TY        TZ
        (cm-1)    (nm)                  (au**2)     (au)      (au)      (au)
-----------------------------------------------------------------------------
   0   21698.3    460.9   0.012707137   0.19280   0.12651   0.37785  -0.18445
   1   22501.2    444.4   0.847105800  12.39390   1.63328  -3.05531  -0.62561
   2   26141.7    382.5   0.231886944   2.92024  -0.03750  -1.70088  -0.16077
   3   27266.6    366.7   0.089237156   1.07743  -0.32019  -0.97250   0.17074
   4   27381.5    365.2   0.003898688   0.04687  -0.06773   0.20541  -0.00967
   5   28247.4    354.0   0.050026798   0.58304  -0.50511   0.05631   0.56986
   6   28404.2    352.1   0.063010103   0.73030  -0.34462   0.77777   0.08134
   7   28895.3    346.1   0.310202140   3.53422  -0.00885   1.87025  -0.19050
   8   29087.9    343.8   0.033065921   0.37423   0.16837  -0.54604   0.21847
   9   29686.6    336.9   0.021514025   0.23858   0.02455  -0.02337  -0.48727
  10   31322.6    319.3   0.027674811   0.29087   0.01980  -0.44267  -0.30745
  11   31522.4    317.2   0.148053977   1.54624  -0.74909   0.43231   0.89342
  12   31813.9    314.3   0.016023678   0.16581   0.15349   0.20711  -0.31522
  13   32410.8    308.5   0.020164171   0.20482   0.11015   0.24417  -0.36478
  14   32653.0    306.3   0.022628573   0.22814   0.07999  -0.39875   0.25049
  15   33186.7    301.3   0.001955056   0.01939  -0.05053  -0.12723  -0.02556
  16   33337.1    300.0   0.084475777   0.83422  -0.16337  -0.39060   0.80930
  17   34034.0    293.8   0.510362466   4.93675  -1.59448   1.42417   0.60509
  18   34501.4    289.8   0.001761568   0.01681   0.05792   0.11383   0.02228
  19   35489.9    281.8   0.051282251   0.47570  -0.23098  -0.32747   0.56135
  20   35954.0    278.1   0.017826783   0.16323   0.40335  -0.01491  -0.01784
  21   36140.9    276.7   0.072066124   0.65646   0.27264  -0.60327  -0.46711
  22   36619.4    273.1   0.275520993   2.47696   0.16477   1.54508  -0.25005
  23   36744.6    272.1   0.969735305   8.68832   0.65612   2.22078  -1.82372
  24   37084.4    269.7   0.000235356   0.00209  -0.03151  -0.00203   0.03305
  25   37439.0    267.1   0.008460910   0.07440  -0.02396   0.21211  -0.16981
  26   37718.0    265.1   0.024639314   0.21506   0.22013   0.13109   0.38654
  27   37960.4    263.4   0.154035603   1.33588   0.03842   0.50231  -1.04023
  28   38099.0    262.5   0.539615286   4.66279  -0.36840  -0.49122   2.07021
  29   38205.0    261.7   0.250625634   2.15964   0.15330  -0.04641  -1.46081
  30   38616.6    259.0   0.009183830   0.07829  -0.02616  -0.09279   0.26268
  31   38709.0    258.3   0.095150467   0.80923  -0.38180  -0.37709   0.72199
  32   39198.9    255.1   0.051582462   0.43322   0.05969  -0.64475   0.11810
  33   39680.6    252.0   0.021384852   0.17742  -0.25864  -0.19228   0.27120

FINAL SINGLE POINT ENERGY     -4441.618490321941

DIPOLE MOMENT
-------------
                                X             Y             Z
Electronic contribution:     10.29749      67.37583     -13.09992
Nuclear contribution   :     -8.08032     -68.11619      12.31037
                        -----------------------------------------
Total Dipole Moment    :      2.21717      -0.74036      -0.78954
                        -----------------------------------------
Magnitude (a.u.)       :      2.46726
Magnitude (Debye)      :      6.27127

Rotational constants in cm-1:     0.001105     0.000773     0.000483
Rotational constants in MHz :    33.132091    23.163496    14.485856

                             ****ORCA TERMINATED NORMALLY****
TOTAL RUN TIME: 0 days 0 hours 6 minutes 2 seconds 9 msec
