                         Program Version 4.2.0 -  RELEASE  -
|  1> # ORCA input file
|  2> # SCF done       -170.467820210687          0.000575860503
|  3> ! CAM-B3LYP def2-SVP def2/J RIJCOSX Grid4 TightSCF
|  4> %maxcore 5000
|  5> %tddft
|  6>     Mode sTDDFT
|  7>     Ethresh 5.0
|  8>     maxcore 5000
|  9> end
| 10>
| 11> %pal
| 12>   nprocs 6
| 13>   end
| 14> * xyz 0 1
| 15>    C        4.90098         0.05446         5.38004
| 16>    C        4.56618         0.74916         6.50117
| 17>    S        3.57363         2.10755         6.11951
| 18>    C        3.60249         1.73222         4.41168
| 19>   Cl        2.78902         2.69568         3.28243
| 20>    C        4.35209         0.61751         4.18218
| 21>    C        4.74452        -0.18842         3.02164
| 22>    O        4.37625        -0.07774         1.87755
| 23>    C        5.59930        -1.27961         3.59547
| 24>    C        5.68179        -1.11635         5.03868
| 25>    C        6.41064        -1.86250         5.92537
| 26>    C        6.41507        -1.56539         7.30489
| 27>    N        6.42472        -1.33773         8.42905
| 28>    C        7.23016        -2.95832         5.58840
| 29>    N        7.92388        -3.84728         5.37356
| 30>    C        6.06047        -2.33767         2.87773
| 31>    C        6.13666        -2.39333         1.45687
| 32>    C        6.45257        -1.38241         0.56482
| 33>    F        6.79772        -0.15020         0.93076
| 34>    C        6.50455        -1.80569        -0.76628
| 35>    F        6.76256        -0.93772        -1.74795
| 36>    C        6.22760        -3.15641        -0.94332
| 37>    S        5.89208        -3.88270         0.60640
| 38>    C        6.13613        -4.00008        -2.09137
| 39>    N        6.58626        -3.78243        -3.37170
| 40>    C        7.45717        -2.74402        -3.87555
| 41>    C        8.83810        -2.79692        -3.23057
| 42>    C        6.25985        -4.86281        -4.22368
| 43>    O        6.56862        -4.89982        -5.39748
| 44>    C        5.54716        -5.79296        -3.38437
| 45>    C        5.51304        -5.24625        -2.07880
| 46>    C        4.81199        -6.17456        -1.22360
| 47>    O        4.57268        -6.15529        -0.03197
| 48>    N        4.44863        -7.22695        -2.07839
| 49>    C        3.67806        -8.34739        -1.59468
| 50>    C        2.20162        -8.22026        -1.96190
| 51>    C        4.88038        -7.01705        -3.36821
| 52>    C        4.66426        -7.93071        -4.43093
| 53>    C        5.08806        -7.68186        -5.69574
| 54>    C        4.89674        -8.55782        -6.79849
| 55>    S        5.40517        -8.05606        -8.37516
| 56>    C        4.82529        -9.52051        -9.09255
| 57>    C        5.04804        -9.72433       -10.50068
| 58>    O        4.66493       -10.66522       -11.16231
| 59>    C        4.27481       -10.37264        -8.12729
| 60>    C        4.34711        -9.82617        -6.83972
| 61>    C        3.74435       -11.69553        -8.37055
| 62>    C        2.93999       -12.10666        -9.36648
| 63>    C        2.79799       -13.57646        -9.64591
| 64>    O        3.08217       -14.47694        -8.89655
| 65>    C        2.30439       -13.62636       -11.02455
| 66>    C        2.06802       -14.58138       -11.96900
| 67>    S        1.49142       -13.84992       -13.44731
| 68>    C        1.56681       -12.26470       -12.77267
| 69>    C        2.01549       -12.29943       -11.48995
| 70>    C        2.26714       -11.35701       -10.42200
| 71>    C        1.78014       -10.08280       -10.35561
| 72>    C        1.10339        -9.49617       -11.44617
| 73>    N        0.55872        -9.00542       -12.32803
| 74>    C        1.84673        -9.26770        -9.20928
| 75>    N        1.83602        -8.58971        -8.28269
| 76>   Cl        2.26752       -16.25726       -11.83329
| 77>    H        4.82778         0.55836         7.52310
| 78>    H        6.38684        -3.23196         3.39366
| 79>    H        7.00019        -1.76334        -3.74767
| 80>    H        7.54502        -2.94411        -4.94757
| 81>    H        8.78464        -2.61523        -2.16008
| 82>    H        9.47290        -2.03665        -3.67586
| 83>    H        9.29275        -3.77154        -3.39417
| 84>    H        3.78786        -8.34075        -0.50659
| 85>    H        4.09995        -9.27788        -1.98445
| 86>    H        1.78761        -7.31589        -1.52330
| 87>    H        1.65231        -9.07477        -1.57665
| 88>    H        2.06760        -8.17342        -3.04041
| 89>    H        4.13964        -8.84678        -4.20520
| 90>    H        5.59910        -6.75191        -5.90829
| 91>    H        5.62813        -8.90428       -10.96398
| 92>    H        3.97347       -10.34006        -5.97275
| 93>    H        4.06784       -12.46320        -7.67391
| 94>    H        1.29180       -11.41976       -13.37228
| 95> *
| 96>
| 97>                          ****END OF INPUT****

CARTESIAN COORDINATES (ANGSTROEM)
---------------------------------
  C      4.900980    0.054460    5.380040
  C      4.566180    0.749160    6.501170
  S      3.573630    2.107550    6.119510
  C      3.602490    1.732220    4.411680
  Cl     2.789020    2.695680    3.282430
  C      4.352090    0.617510    4.182180
  C      4.744520   -0.188420    3.021640
  O      4.376250   -0.077740    1.877550
  C      5.599300   -1.279610    3.595470
  C      5.681790   -1.116350    5.038680
  C      6.410640   -1.862500    5.925370
  C      6.415070   -1.565390    7.304890
  N      6.424720   -1.337730    8.429050
  C      7.230160   -2.958320    5.588400
  N      7.923880   -3.847280    5.373560
  C      6.060470   -2.337670    2.877730
  C      6.136660   -2.393330    1.456870
  C      6.452570   -1.382410    0.564820
  F      6.797720   -0.150200    0.930760
  C      6.504550   -1.805690   -0.766280
  F      6.762560   -0.937720   -1.747950
  C      6.227600   -3.156410   -0.943320
  S      5.892080   -3.882700    0.606400
  C      6.136130   -4.000080   -2.091370
  N      6.586260   -3.782430   -3.371700
  C      7.457170   -2.744020   -3.875550
  C      8.838100   -2.796920   -3.230570
  C      6.259850   -4.862810   -4.223680
  O      6.568620   -4.899820   -5.397480
  C      5.547160   -5.792960   -3.384370
  C      5.513040   -5.246250   -2.078800
  C      4.811990   -6.174560   -1.223600
  O      4.572680   -6.155290   -0.031970
  N      4.448630   -7.226950   -2.078390
  C      3.678060   -8.347390   -1.594680
  C      2.201620   -8.220260   -1.961900
  C      4.880380   -7.017050   -3.368210
  C      4.664260   -7.930710   -4.430930
  C      5.088060   -7.681860   -5.695740
  C      4.896740   -8.557820   -6.798490
  S      5.405170   -8.056060   -8.375160
  C      4.825290   -9.520510   -9.092550
  C      5.048040   -9.724330  -10.500680
  O      4.664930  -10.665220  -11.162310
  C      4.274810  -10.372640   -8.127290
  C      4.347110   -9.826170   -6.839720
  C      3.744350  -11.695530   -8.370550
  C      2.939990  -12.106660   -9.366480
  C      2.797990  -13.576460   -9.645910
  O      3.082170  -14.476940   -8.896550
  C      2.304390  -13.626360  -11.024550
  C      2.068020  -14.581380  -11.969000
  S      1.491420  -13.849920  -13.447310
  C      1.566810  -12.264700  -12.772670
  C      2.015490  -12.299430  -11.489950
  C      2.267140  -11.357010  -10.422000
  C      1.780140  -10.082800  -10.355610
  C      1.103390   -9.496170  -11.446170
  N      0.558720   -9.005420  -12.328030
  C      1.846730   -9.267700   -9.209280
  N      1.836020   -8.589710   -8.282690
  Cl     2.267520  -16.257260  -11.833290
  H      4.827780    0.558360    7.523100
  H      6.386840   -3.231960    3.393660
  H      7.000190   -1.763340   -3.747670
  H      7.545020   -2.944110   -4.947570
  H      8.784640   -2.615230   -2.160080
  H      9.472900   -2.036650   -3.675860
  H      9.292750   -3.771540   -3.394170
  H      3.787860   -8.340750   -0.506590
  H      4.099950   -9.277880   -1.984450
  H      1.787610   -7.315890   -1.523300
  H      1.652310   -9.074770   -1.576650
  H      2.067600   -8.173420   -3.040410
  H      4.139640   -8.846780   -4.205200
  H      5.599100   -6.751910   -5.908290
  H      5.628130   -8.904280  -10.963980
  H      3.973470  -10.340060   -5.972750
  H      4.067840  -12.463200   -7.673910
  H      1.291800  -11.419760  -13.372280

 Total Charge           Charge          ....    0
 Multiplicity           Mult            ....    1
 Number of Electrons    NEL             ....  474
 Basis Dimension        Dim             ....  982

ORBITAL ENERGIES
----------------

  NO   OCC          E(Eh)            E(eV)
   0   2.0000    -101.618096     -2765.1690
   1   2.0000    -101.617131     -2765.1427
   2   2.0000     -88.994626     -2421.6669
   3   2.0000     -88.992856     -2421.6187
   4   2.0000     -88.985422     -2421.4164
   5   2.0000     -88.982916     -2421.3483
   6   2.0000     -24.815172      -675.2551
   7   2.0000     -24.807785      -675.0541
   8   2.0000     -19.226864      -523.1896
   9   2.0000     -19.222249      -523.0640
  10   2.0000     -19.222195      -523.0625
  11   2.0000     -19.202249      -522.5198
  12   2.0000     -19.201939      -522.5113
  13   2.0000     -14.466289      -393.6477
  14   2.0000     -14.465379      -393.6230
  15   2.0000     -14.422863      -392.4661
  16   2.0000     -14.421988      -392.4422
  17   2.0000     -14.420345      -392.3975
  18   2.0000     -14.419435      -392.3728
  19   2.0000     -10.388464      -282.6845
  20   2.0000     -10.386707      -282.6367
  21   2.0000     -10.385968      -282.6165
  22   2.0000     -10.384319      -282.5717
  23   2.0000     -10.378764      -282.4205
  24   2.0000     -10.378214      -282.4056
  25   2.0000     -10.377035      -282.3735
  26   2.0000     -10.375662      -282.3361
  27   2.0000     -10.375527      -282.3324
  28   2.0000     -10.362006      -281.9645
  29   2.0000     -10.352858      -281.7156
  30   2.0000     -10.351002      -281.6651
  31   2.0000     -10.350417      -281.6492
  32   2.0000     -10.349871      -281.6343
  33   2.0000     -10.347477      -281.5692
  34   2.0000     -10.343291      -281.4553
  35   2.0000     -10.333471      -281.1880
  36   2.0000     -10.332602      -281.1644
  37   2.0000     -10.331152      -281.1249
  38   2.0000     -10.328210      -281.0449
  39   2.0000     -10.327644      -281.0295
  40   2.0000     -10.324853      -280.9535
  41   2.0000     -10.323904      -280.9277
  42   2.0000     -10.322208      -280.8816
  43   2.0000     -10.322085      -280.8782
  44   2.0000     -10.321875      -280.8725
  45   2.0000     -10.321451      -280.8610
  46   2.0000     -10.319727      -280.8140
  47   2.0000     -10.318066      -280.7689
  48   2.0000     -10.314258      -280.6652
  49   2.0000     -10.312359      -280.6135
  50   2.0000     -10.311506      -280.5903
  51   2.0000     -10.310009      -280.5496
  52   2.0000     -10.309745      -280.5424
  53   2.0000     -10.306850      -280.4636
  54   2.0000     -10.305283      -280.4210
  55   2.0000     -10.302537      -280.3463
  56   2.0000     -10.301202      -280.3100
  57   2.0000     -10.300361      -280.2871
  58   2.0000     -10.275656      -279.6148
  59   2.0000     -10.272514      -279.5293
  60   2.0000     -10.271204      -279.4937
  61   2.0000     -10.265692      -279.3437
  62   2.0000      -9.572842      -260.4903
  63   2.0000      -9.571878      -260.4640
  64   2.0000      -8.090427      -220.1517
  65   2.0000      -8.088644      -220.1032
  66   2.0000      -8.080889      -219.8922
  67   2.0000      -8.077317      -219.7950
  68   2.0000      -7.343462      -199.8258
  69   2.0000      -7.342519      -199.8001
  70   2.0000      -7.332896      -199.5382
  71   2.0000      -7.332351      -199.5234
  72   2.0000      -7.331918      -199.5116
  73   2.0000      -7.331381      -199.4970
  74   2.0000      -6.059794      -164.8954
  75   2.0000      -6.057973      -164.8458
  76   2.0000      -6.055194      -164.7702
  77   2.0000      -6.053416      -164.7218
  78   2.0000      -6.052666      -164.7014
  79   2.0000      -6.050926      -164.6541
  80   2.0000      -6.049802      -164.6235
  81   2.0000      -6.046759      -164.5407
  82   2.0000      -6.045814      -164.5150
  83   2.0000      -6.043582      -164.4542
  84   2.0000      -6.042657      -164.4291
  85   2.0000      -6.038829      -164.3249
  86   2.0000      -1.333797       -36.2945
  87   2.0000      -1.319168       -35.8964
  88   2.0000      -1.145793       -31.1786
  89   2.0000      -1.139866       -31.0173
  90   2.0000      -1.139792       -31.0153
  91   2.0000      -1.138828       -30.9891
  92   2.0000      -1.138634       -30.9838
  93   2.0000      -1.075794       -29.2738
  94   2.0000      -1.067487       -29.0478
  95   2.0000      -1.039564       -28.2880
  96   2.0000      -1.037754       -28.2387
  97   2.0000      -1.019859       -27.7518
  98   2.0000      -1.019706       -27.7476
  99   2.0000      -1.015571       -27.6351
 100   2.0000      -1.012087       -27.5403
 101   2.0000      -1.000928       -27.2366
 102   2.0000      -0.997900       -27.1542
 103   2.0000      -0.989647       -26.9297
 104   2.0000      -0.988000       -26.8848
 105   2.0000      -0.956646       -26.0317
 106   2.0000      -0.954780       -25.9809
 107   2.0000      -0.940031       -25.5795
 108   2.0000      -0.928368       -25.2622
 109   2.0000      -0.917763       -24.9736
 110   2.0000      -0.910887       -24.7865
 111   2.0000      -0.903309       -24.5803
 112   2.0000      -0.897971       -24.4350
 113   2.0000      -0.883862       -24.0511
 114   2.0000      -0.867506       -23.6060
 115   2.0000      -0.864689       -23.5294
 116   2.0000      -0.850031       -23.1305
 117   2.0000      -0.848012       -23.0756
 118   2.0000      -0.834133       -22.6979
 119   2.0000      -0.832092       -22.6424
 120   2.0000      -0.827662       -22.5218
 121   2.0000      -0.811262       -22.0756
 122   2.0000      -0.798246       -21.7214
 123   2.0000      -0.783238       -21.3130
 124   2.0000      -0.772711       -21.0265
 125   2.0000      -0.768109       -20.9013
 126   2.0000      -0.755890       -20.5688
 127   2.0000      -0.755156       -20.5488
 128   2.0000      -0.735820       -20.0227
 129   2.0000      -0.726193       -19.7607
 130   2.0000      -0.718218       -19.5437
 131   2.0000      -0.711327       -19.3562
 132   2.0000      -0.702485       -19.1156
 133   2.0000      -0.699012       -19.0211
 134   2.0000      -0.692269       -18.8376
 135   2.0000      -0.683045       -18.5866
 136   2.0000      -0.678358       -18.4591
 137   2.0000      -0.678278       -18.4569
 138   2.0000      -0.675535       -18.3822
 139   2.0000      -0.675239       -18.3742
 140   2.0000      -0.657238       -17.8844
 141   2.0000      -0.652388       -17.7524
 142   2.0000      -0.637467       -17.3464
 143   2.0000      -0.630041       -17.1443
 144   2.0000      -0.622249       -16.9323
 145   2.0000      -0.618676       -16.8350
 146   2.0000      -0.618067       -16.8184
 147   2.0000      -0.613442       -16.6926
 148   2.0000      -0.609762       -16.5925
 149   2.0000      -0.601165       -16.3585
 150   2.0000      -0.599799       -16.3214
 151   2.0000      -0.598715       -16.2919
 152   2.0000      -0.587330       -15.9821
 153   2.0000      -0.583304       -15.8725
 154   2.0000      -0.579106       -15.7583
 155   2.0000      -0.576743       -15.6940
 156   2.0000      -0.572126       -15.5684
 157   2.0000      -0.566201       -15.4071
 158   2.0000      -0.559088       -15.2136
 159   2.0000      -0.552471       -15.0335
 160   2.0000      -0.552135       -15.0244
 161   2.0000      -0.546577       -14.8731
 162   2.0000      -0.544302       -14.8112
 163   2.0000      -0.541057       -14.7229
 164   2.0000      -0.538380       -14.6501
 165   2.0000      -0.537411       -14.6237
 166   2.0000      -0.534598       -14.5472
 167   2.0000      -0.533588       -14.5197
 168   2.0000      -0.532275       -14.4839
 169   2.0000      -0.530092       -14.4245
 170   2.0000      -0.528450       -14.3799
 171   2.0000      -0.525785       -14.3073
 172   2.0000      -0.523258       -14.2386
 173   2.0000      -0.518884       -14.1196
 174   2.0000      -0.517510       -14.0822
 175   2.0000      -0.514320       -13.9954
 176   2.0000      -0.513044       -13.9606
 177   2.0000      -0.506958       -13.7950
 178   2.0000      -0.504833       -13.7372
 179   2.0000      -0.502324       -13.6689
 180   2.0000      -0.501271       -13.6403
 181   2.0000      -0.498552       -13.5663
 182   2.0000      -0.495352       -13.4792
 183   2.0000      -0.491202       -13.3663
 184   2.0000      -0.489735       -13.3264
 185   2.0000      -0.485189       -13.2027
 186   2.0000      -0.482354       -13.1255
 187   2.0000      -0.480410       -13.0726
 188   2.0000      -0.478465       -13.0197
 189   2.0000      -0.476074       -12.9546
 190   2.0000      -0.471502       -12.8302
 191   2.0000      -0.467932       -12.7331
 192   2.0000      -0.464622       -12.6430
 193   2.0000      -0.459253       -12.4969
 194   2.0000      -0.457297       -12.4437
 195   2.0000      -0.456279       -12.4160
 196   2.0000      -0.455134       -12.3848
 197   2.0000      -0.454612       -12.3706
 198   2.0000      -0.454158       -12.3583
 199   2.0000      -0.449110       -12.2209
 200   2.0000      -0.448023       -12.1913
 201   2.0000      -0.447840       -12.1864
 202   2.0000      -0.446086       -12.1386
 203   2.0000      -0.442643       -12.0449
 204   2.0000      -0.442196       -12.0328
 205   2.0000      -0.440891       -11.9973
 206   2.0000      -0.436535       -11.8787
 207   2.0000      -0.434953       -11.8357
 208   2.0000      -0.434158       -11.8141
 209   2.0000      -0.433480       -11.7956
 210   2.0000      -0.431037       -11.7291
 211   2.0000      -0.428833       -11.6691
 212   2.0000      -0.421836       -11.4788
 213   2.0000      -0.421159       -11.4603
 214   2.0000      -0.419902       -11.4261
 215   2.0000      -0.411095       -11.1865
 216   2.0000      -0.409761       -11.1502
 217   2.0000      -0.404098       -10.9961
 218   2.0000      -0.403246       -10.9729
 219   2.0000      -0.384002       -10.4492
 220   2.0000      -0.371742       -10.1156
 221   2.0000      -0.369686       -10.0597
 222   2.0000      -0.357849        -9.7376
 223   2.0000      -0.351608        -9.5678
 224   2.0000      -0.348309        -9.4780
 225   2.0000      -0.343435        -9.3453
 226   2.0000      -0.342804        -9.3282
 227   2.0000      -0.337906        -9.1949
 228   2.0000      -0.334076        -9.0907
 229   2.0000      -0.328593        -8.9415
 230   2.0000      -0.326580        -8.8867
 231   2.0000      -0.325689        -8.8625
 232   2.0000      -0.320512        -8.7216
 233   2.0000      -0.314127        -8.5478
 234   2.0000      -0.307134        -8.3575
 235   2.0000      -0.303356        -8.2547
 236   2.0000      -0.248699        -6.7674
 237   0.0000      -0.111597        -3.0367
 238   0.0000      -0.096824        -2.6347
 239   0.0000      -0.082616        -2.2481
 240   0.0000      -0.053816        -1.4644
 241   0.0000      -0.046333        -1.2608

MULLIKEN ATOMIC CHARGES
-----------------------
   0 C :    0.031267
   1 C :   -0.129332
   2 S :    0.187556
   3 C :   -0.171689
   4 Cl:    0.001423
   5 C :    0.075577
   6 C :    0.147126
   7 O :   -0.124288
   8 C :   -0.101985
   9 C :    0.286639
  10 C :   -0.316381
  11 C :   -0.194047
  12 N :    0.156244
  13 C :   -0.196555
  14 N :    0.164777
  15 C :    0.027137
  16 C :   -0.167821
  17 C :    0.263226
  18 F :   -0.151648
  19 C :    0.198344
  20 F :   -0.163787
  21 C :   -0.258549
  22 S :    0.246125
  23 C :    0.215093
  24 N :   -0.264756
  25 C :    0.100010
  26 C :   -0.006793
  27 C :    0.165611
  28 O :   -0.206025
  29 C :   -0.061681
  30 C :   -0.096753
  31 C :    0.157919
  32 O :   -0.201725
  33 N :   -0.257700
  34 C :    0.097105
  35 C :    0.001657
  36 C :    0.136524
  37 C :   -0.017638
  38 C :    0.092466
  39 C :   -0.062012
  40 S :    0.201281
  41 C :   -0.193236
  42 C :    0.206498
  43 O :   -0.198416
  44 C :    0.085146
  45 C :    0.002173
  46 C :    0.000674
  47 C :   -0.102200
  48 C :    0.132371
  49 O :   -0.125234
  50 C :    0.093134
  51 C :   -0.174547
  52 S :    0.186865
  53 C :   -0.120571
  54 C :    0.026427
  55 C :    0.301435
  56 C :   -0.327136
  57 C :   -0.190895
  58 N :    0.162407
  59 C :   -0.194734
  60 N :    0.171936
  61 Cl:   -0.000715
  62 H :    0.054696
  63 H :    0.040055
  64 H :    0.037420
  65 H :    0.046077
  66 H :    0.021878
  67 H :    0.028096
  68 H :    0.022368
  69 H :    0.048193
  70 H :    0.022972
  71 H :    0.031745
  72 H :    0.026772
  73 H :    0.022805
  74 H :   -0.024592
  75 H :    0.012042
  76 H :   -0.006921
  77 H :   -0.010606
  78 H :    0.030911
  79 H :    0.052761
Sum of atomic charges:   -0.0000000

LOEWDIN ATOMIC CHARGES
----------------------
   0 C :   -0.059583
   1 C :   -0.148558
   2 S :    0.476707
   3 C :   -0.272727
   4 Cl:    0.193550
   5 C :   -0.115400
   6 C :    0.077041
   7 O :   -0.123366
   8 C :   -0.077253
   9 C :    0.072446
  10 C :   -0.132509
  11 C :   -0.015609
  12 N :   -0.048994
  13 C :   -0.024631
  14 N :   -0.042766
  15 C :    0.049359
  16 C :   -0.212022
  17 C :    0.050256
  18 F :   -0.027585
  19 C :    0.025891
  20 F :   -0.032219
  21 C :   -0.198833
  22 S :    0.549334
  23 C :    0.054063
  24 N :    0.002857
  25 C :    0.030726
  26 C :   -0.060996
  27 C :    0.083870
  28 O :   -0.193437
  29 C :   -0.122074
  30 C :   -0.123869
  31 C :    0.071730
  32 O :   -0.200715
  33 N :    0.001996
  34 C :    0.036639
  35 C :   -0.060270
  36 C :    0.082306
  37 C :   -0.034274
  38 C :    0.015470
  39 C :   -0.145637
  40 S :    0.509154
  41 C :   -0.230529
  42 C :    0.086008
  43 O :   -0.141373
  44 C :   -0.031242
  45 C :   -0.025805
  46 C :    0.058365
  47 C :   -0.055458
  48 C :    0.085059
  49 O :   -0.128675
  50 C :   -0.115255
  51 C :   -0.272706
  52 S :    0.479072
  53 C :   -0.146745
  54 C :   -0.048339
  55 C :    0.082051
  56 C :   -0.132242
  57 C :   -0.016052
  58 N :   -0.048341
  59 C :   -0.020612
  60 N :   -0.051055
  61 Cl:    0.191924
  62 H :    0.038058
  63 H :    0.048994
  64 H :    0.021052
  65 H :    0.036267
  66 H :    0.021151
  67 H :    0.034127
  68 H :    0.028783
  69 H :    0.039456
  70 H :    0.022778
  71 H :    0.033520
  72 H :    0.032240
  73 H :    0.024279
  74 H :    0.030078
  75 H :    0.038172
  76 H :    0.000660
  77 H :    0.033330
  78 H :    0.050290
  79 H :    0.038653

  Mayer bond orders larger than 0.100000
B(  0-C ,  1-C ) :   1.5422 B(  0-C ,  5-C ) :   1.2230 B(  0-C ,  9-C ) :   1.0022
B(  1-C ,  2-S ) :   1.1642 B(  1-C , 62-H ) :   0.9545 B(  2-S ,  3-C ) :   1.1493
B(  3-C ,  4-Cl) :   1.1297 B(  3-C ,  5-C ) :   1.4789 B(  5-C ,  6-C ) :   0.9501
B(  6-C ,  7-O ) :   2.2436 B(  6-C ,  8-C ) :   0.9304 B(  8-C ,  9-C ) :   1.0675
B(  8-C , 15-C ) :   1.6757 B(  9-C , 10-C ) :   1.6626 B( 10-C , 11-C ) :   1.1441
B( 10-C , 13-C ) :   1.1339 B( 11-C , 12-N ) :   2.9920 B( 13-C , 14-N ) :   2.9878
B( 15-C , 16-C ) :   1.1083 B( 15-C , 63-H ) :   0.9351 B( 16-C , 17-C ) :   1.4322
B( 16-C , 21-C ) :   0.1353 B( 16-C , 22-S ) :   1.0871 B( 17-C , 18-F ) :   1.1776
B( 17-C , 19-C ) :   1.2525 B( 19-C , 20-F ) :   1.1496 B( 19-C , 21-C ) :   1.3657
B( 21-C , 22-S ) :   1.1708 B( 21-C , 23-C ) :   1.1229 B( 23-C , 24-N ) :   1.2084
B( 23-C , 30-C ) :   1.3652 B( 24-N , 25-C ) :   0.9341 B( 24-N , 27-C ) :   1.0472
B( 25-C , 26-C ) :   1.1171 B( 25-C , 64-H ) :   0.9467 B( 25-C , 65-H ) :   0.9244
B( 26-C , 66-H ) :   0.9704 B( 26-C , 67-H ) :   0.9671 B( 26-C , 68-H ) :   0.9645
B( 27-C , 28-O ) :   2.0190 B( 27-C , 29-C ) :   0.9956 B( 28-O , 75-H ) :   0.1136
B( 29-C , 30-C ) :   1.2503 B( 29-C , 36-C ) :   1.3354 B( 30-C , 31-C ) :   0.9690
B( 31-C , 32-O ) :   2.0875 B( 31-C , 33-N ) :   1.0551 B( 33-N , 34-C ) :   0.9403
B( 33-N , 36-C ) :   1.1637 B( 34-C , 35-C ) :   1.1210 B( 34-C , 69-H ) :   0.9275
B( 34-C , 70-H ) :   0.9497 B( 35-C , 71-H ) :   0.9633 B( 35-C , 72-H ) :   0.9680
B( 35-C , 73-H ) :   0.9689 B( 36-C , 37-C ) :   1.1641 B( 37-C , 38-C ) :   1.6340
B( 37-C , 74-H ) :   0.9624 B( 38-C , 39-C ) :   1.1162 B( 38-C , 75-H ) :   0.9345
B( 39-C , 40-S ) :   1.1732 B( 39-C , 45-C ) :   1.4357 B( 40-S , 41-C ) :   1.1236
B( 41-C , 42-C ) :   1.0383 B( 41-C , 44-C ) :   1.4178 B( 42-C , 43-O ) :   2.0853
B( 42-C , 76-H ) :   0.9553 B( 44-C , 45-C ) :   1.3153 B( 44-C , 46-C ) :   1.0030
B( 45-C , 77-H ) :   0.9989 B( 46-C , 47-C ) :   1.8163 B( 46-C , 78-H ) :   0.9414
B( 47-C , 48-C ) :   0.9271 B( 47-C , 55-C ) :   0.9849 B( 48-C , 49-O ) :   2.2865
B( 48-C , 50-C ) :   0.9253 B( 50-C , 51-C ) :   1.4755 B( 50-C , 54-C ) :   1.2246
B( 51-C , 52-S ) :   1.1579 B( 51-C , 61-Cl) :   1.1276 B( 52-S , 53-C ) :   1.1593
B( 53-C , 54-C ) :   1.5503 B( 53-C , 79-H ) :   0.9568 B( 54-C , 55-C ) :   1.0207
B( 55-C , 56-C ) :   1.6933 B( 56-C , 57-C ) :   1.1318 B( 56-C , 59-C ) :   1.1626
B( 57-C , 58-N ) :   3.0095 B( 59-C , 60-N ) :   3.0113

-----------------------------------------------------------------------------
         ABSORPTION SPECTRUM VIA TRANSITION ELECTRIC DIPOLE MOMENTS
-----------------------------------------------------------------------------
State   Energy  Wavelength   fosc         T2         TX        TY        TZ
        (cm-1)    (nm)                  (au**2)     (au)      (au)      (au)
-----------------------------------------------------------------------------
   0   14700.6    680.2   0.987881738  22.12306   0.71281   3.03955   3.51797
   1   19747.0    506.4   0.009453581   0.15761   0.21753   0.30276  -0.13648
   2   21840.2    457.9   0.107789516   1.62478   0.69517   1.05278  -0.18216
   3   25117.8    398.1   0.200730029   2.63091   0.09700  -0.04535  -1.61847
   4   26134.1    382.6   0.017142419   0.21594  -0.45943  -0.06200  -0.03194
   5   26697.8    374.6   0.009996927   0.12327  -0.07190  -0.29176  -0.18161
   6   27097.7    369.0   0.048311768   0.58694   0.62225  -0.42140  -0.14890
   7   27726.0    360.7   0.018407825   0.21857  -0.17971  -0.29513  -0.31492
   8   27935.1    358.0   0.004775865   0.05628   0.13711   0.12362  -0.14901
   9   28097.2    355.9   0.042681380   0.50009  -0.17350   0.38659  -0.56616
  10   28576.6    349.9   0.268736129   3.09593   0.15932   0.54918   1.66401
  11   29260.1    341.8   0.255160461   2.87086  -0.32802  -1.00441  -1.32455
  12   30027.8    333.0   0.185914295   2.03829   0.39754   0.44773   1.29607
  13   30226.7    330.8   0.143883924   1.56710   0.30926  -0.80368  -0.90861
  14   30343.9    329.6   0.009854916   0.10692  -0.07156  -0.14132  -0.28606
  15   30780.7    324.9   0.046868454   0.50128   0.58971   0.34212   0.19099
  16   31152.2    321.0   0.439194346   4.64135  -0.61883   0.40066   2.02432
  17   32271.6    309.9   0.013563414   0.13836  -0.30917   0.14748  -0.14500
  18   32525.1    307.5   0.148853050   1.50666  -0.57706   1.03847   0.30861
  19   32743.4    305.4   0.018885595   0.18988   0.18271  -0.29972  -0.25820
  20   32870.4    304.2   0.028321697   0.28365   0.52000  -0.11508  -0.00269
  21   33176.3    301.4   0.044691084   0.44347  -0.18423   0.60659  -0.20391
  22   33513.8    298.4   0.151187802   1.48515  -0.30721  -0.96893  -0.67227
  23   34584.1    289.2   0.038544575   0.36691  -0.22450  -0.53980  -0.15852
  24   35134.3    284.6   0.026583715   0.24909  -0.19789   0.31859  -0.32929
  25   35542.0    281.4   0.050134023   0.46437  -0.05086  -0.11047   0.67051
  26   35766.1    279.6   0.035926620   0.33069  -0.09614   0.56684   0.01182
  27   35965.7    278.0   0.042124792   0.38559   0.09609  -0.28855  -0.54138
  28   36511.5    273.9   0.120558455   1.08704  -0.62849   0.31390   0.77039
  29   36915.7    270.9   0.092684575   0.82656   0.11616  -0.21255  -0.87629
  30   37088.7    269.6   0.448280087   3.97908   1.23907  -1.53010   0.32031
  31   37293.6    268.1   0.052880311   0.46681   0.24494  -0.17284   0.61395
  32   37733.8    265.0   0.302106525   2.63575   0.05410   1.53485   0.52638
  33   37885.8    264.0   0.085720797   0.74488  -0.31520   0.78778  -0.15791
  34   38315.9    261.0   0.399866452   3.43567   0.03153  -1.51434  -1.06839
  35   38448.8    260.1   0.003003829   0.02572  -0.02210  -0.11811   0.10622
  36   39000.9    256.4   0.052312986   0.44158   0.02756  -0.59453  -0.29556
  37   39157.1    255.4   0.006860077   0.05768  -0.04236   0.23374   0.03530
  38   39326.9    254.3   0.012867500   0.10772  -0.11762   0.29962   0.06411
  39   39379.5    253.9   0.064948687   0.54297   0.46226   0.57361   0.01616
  40   39820.7    251.1   0.015640800   0.12931   0.19480  -0.28593  -0.09802

FINAL SINGLE POINT ENERGY     -5062.850591891036

DIPOLE MOMENT
-------------
                                X             Y             Z
Electronic contribution:    -11.34773      15.88732       5.85771
Nuclear contribution   :     11.16393     -16.10875      -6.61610
                        -----------------------------------------
Total Dipole Moment    :     -0.18380      -0.22143      -0.75840
                        -----------------------------------------
Magnitude (a.u.)       :      0.81116
Magnitude (Debye)      :      2.06180

Rotational constants in cm-1:     0.003119     0.000265     0.000261
Rotational constants in MHz :    93.512395     7.932543     7.826151

                             ****ORCA TERMINATED NORMALLY****
TOTAL RUN TIME: 0 days 0 hours 7 minutes 1 seconds 343 msec
