                         Program Version 4.2.0 -  RELEASE  -
|  1> # ORCA input file
|  2> # SCF done       -196.058735416206          0.000938495692
|  3> ! CAM-B3LYP def2-SVP def2/J RIJCOSX Grid4 TightSCF
|  4> %maxcore 5000
|  5> %tddft
|  6>     Mode sTDDFT
|  7>     Ethresh 5.0
|  8>     maxcore 5000
|  9> end
| 10>
| 11> %pal
| 12>   nprocs 6
| 13>   end
| 14> * xyz 0 1
| 15>    C        1.06766        -0.61811        -4.81193
| 16>    C        0.28613        -0.35572        -5.89346
| 17>    S        0.63881        -1.43341        -7.19532
| 18>    C        1.86833        -2.25745        -6.26614
| 19>   Cl        2.74713        -3.55279        -6.91335
| 20>    C        1.97442        -1.70654        -5.02396
| 21>    C        2.77076        -1.92226        -3.81616
| 22>    O        3.63239        -2.76338        -3.63942
| 23>    C        2.31500        -0.89655        -2.85795
| 24>    C        1.25220        -0.11022        -3.46557
| 25>    C        0.51560         0.90605        -2.91570
| 26>    C       -0.48914         1.56345        -3.65688
| 27>    N       -1.30645         2.11087        -4.24699
| 28>    C        0.63838         1.39961        -1.60250
| 29>    N        0.68873         1.83553        -0.54093
| 30>    C        2.82209        -0.68413        -1.60271
| 31>    C        3.82249        -1.36759        -0.89201
| 32>    S        4.69478        -2.76373        -1.45714
| 33>    C        5.58455        -2.85821         0.02679
| 34>    C        5.23908        -1.83666         0.90986
| 35>    C        4.24579        -1.00333         0.39612
| 36>    C        3.72224         0.17826         1.14666
| 37>    C        4.17985         0.18698         2.60556
| 38>    F        3.96907         1.45121         3.10705
| 39>    C        5.66261        -0.16986         2.71114
| 40>    F        6.07018        -0.08494         4.02297
| 41>    C        5.88705        -1.59815         2.22818
| 42>    C        6.49017        -3.93165         0.27618
| 43>    N        7.32232        -4.48692        -0.66320
| 44>    C        7.55277        -4.05383        -2.02229
| 45>    C        6.77184        -4.89070        -3.03061
| 46>    C        8.07284        -5.55929        -0.13151
| 47>    O        8.90126        -6.18176        -0.76004
| 48>    C        7.61564        -5.66178         1.23222
| 49>    C        6.65994        -4.64185         1.46363
| 50>    C        6.16435        -4.82610         2.80843
| 51>    O        5.30274        -4.25078         3.44540
| 52>    N        6.90902        -5.90461         3.32650
| 53>    C        6.60613        -6.39590         4.65004
| 54>    C        5.81344        -7.69959         4.61102
| 55>    C        7.76441        -6.42889         2.38261
| 56>    C        8.66619        -7.52441         2.43773
| 57>    C        9.06104        -8.24971         3.51389
| 58>    C        9.96982        -9.34075         3.52370
| 59>    S       10.17100       -10.13779         5.06051
| 60>    C       11.25144       -11.31388         4.37950
| 61>    C       11.43035       -11.08179         3.02269
| 62>    C       10.74574        -9.95473         2.54379
| 63>    C       10.87100        -9.50162         1.12518
| 64>    C       12.02910       -10.18105         0.39242
| 65>    F       11.84614        -9.98827        -0.95770
| 66>    C       12.07018       -11.67924         0.69169
| 67>    F       13.08436       -12.27076        -0.02634
| 68>    C       12.33824       -11.90644         2.17549
| 69>    C       11.77106       -12.38698         5.14750
| 70>    C       12.04775       -12.40385         6.47773
| 71>    C       12.12465       -13.70793         7.20738
| 72>    O       12.17226       -14.80673         6.71035
| 73>    C       12.06804       -13.32943         8.62511
| 74>    C       12.00502       -13.96346         9.82992
| 75>    S       11.96857       -12.79956        11.13437
| 76>    C       12.05138       -11.46976        10.03655
| 77>    C       12.09362       -11.90005         8.74828
| 78>    C       12.21418       -11.31847         7.42599
| 79>    C       12.66052       -10.04980         7.16256
| 80>    C       12.85180        -9.10674         8.19209
| 81>    N       12.99052        -8.32760         9.02258
| 82>    C       13.04920        -9.61099         5.88240
| 83>    N       13.41690        -9.25745         4.85372
| 84>   Cl       11.96558       -15.62890        10.13490
| 85>    H       -0.47127         0.39173        -6.02235
| 86>    H        2.39358         0.14338        -1.05311
| 87>    H        2.63093         0.21577         1.11950
| 88>    H        4.08531         1.10112         0.68036
| 89>    H        3.59150        -0.49671         3.22940
| 90>    H        6.26610         0.56144         2.15753
| 91>    H        5.46078        -2.28314         2.97271
| 92>    H        6.95649        -1.81267         2.17708
| 93>    H        8.62373        -4.18221        -2.20872
| 94>    H        7.29586        -2.99684        -2.11257
| 95>    H        7.04010        -5.93849        -2.92324
| 96>    H        7.02232        -4.56816        -4.03681
| 97>    H        5.70032        -4.77737        -2.88955
| 98>    H        5.99726        -5.61613         5.11781
| 99>    H        7.52754        -6.50237         5.22776
|100>    H        4.86876        -7.54029         4.09703
|101>    H        5.60493        -8.03205         5.62397
|102>    H        6.36207        -8.48142         4.09094
|103>    H        9.07742        -7.74248         1.46458
|104>    H        8.66591        -8.01628         4.49138
|105>    H       11.02093        -8.42128         1.08007
|106>    H        9.95151        -9.73107         0.57564
|107>    H       12.99629        -9.72801         0.64163
|108>    H       11.13976       -12.15647         0.35855
|109>    H       13.37746       -11.62907         2.38130
|110>    H       12.23448       -12.96795         2.41093
|111>    H       11.88954       -13.33643         4.63352
|112>    H       12.05328       -10.46797        10.41809
|113> *
|114>
|115>                          ****END OF INPUT****

CARTESIAN COORDINATES (ANGSTROEM)
---------------------------------
  C      1.067660   -0.618110   -4.811930
  C      0.286130   -0.355720   -5.893460
  S      0.638810   -1.433410   -7.195320
  C      1.868330   -2.257450   -6.266140
  Cl     2.747130   -3.552790   -6.913350
  C      1.974420   -1.706540   -5.023960
  C      2.770760   -1.922260   -3.816160
  O      3.632390   -2.763380   -3.639420
  C      2.315000   -0.896550   -2.857950
  C      1.252200   -0.110220   -3.465570
  C      0.515600    0.906050   -2.915700
  C     -0.489140    1.563450   -3.656880
  N     -1.306450    2.110870   -4.246990
  C      0.638380    1.399610   -1.602500
  N      0.688730    1.835530   -0.540930
  C      2.822090   -0.684130   -1.602710
  C      3.822490   -1.367590   -0.892010
  S      4.694780   -2.763730   -1.457140
  C      5.584550   -2.858210    0.026790
  C      5.239080   -1.836660    0.909860
  C      4.245790   -1.003330    0.396120
  C      3.722240    0.178260    1.146660
  C      4.179850    0.186980    2.605560
  F      3.969070    1.451210    3.107050
  C      5.662610   -0.169860    2.711140
  F      6.070180   -0.084940    4.022970
  C      5.887050   -1.598150    2.228180
  C      6.490170   -3.931650    0.276180
  N      7.322320   -4.486920   -0.663200
  C      7.552770   -4.053830   -2.022290
  C      6.771840   -4.890700   -3.030610
  C      8.072840   -5.559290   -0.131510
  O      8.901260   -6.181760   -0.760040
  C      7.615640   -5.661780    1.232220
  C      6.659940   -4.641850    1.463630
  C      6.164350   -4.826100    2.808430
  O      5.302740   -4.250780    3.445400
  N      6.909020   -5.904610    3.326500
  C      6.606130   -6.395900    4.650040
  C      5.813440   -7.699590    4.611020
  C      7.764410   -6.428890    2.382610
  C      8.666190   -7.524410    2.437730
  C      9.061040   -8.249710    3.513890
  C      9.969820   -9.340750    3.523700
  S     10.171000  -10.137790    5.060510
  C     11.251440  -11.313880    4.379500
  C     11.430350  -11.081790    3.022690
  C     10.745740   -9.954730    2.543790
  C     10.871000   -9.501620    1.125180
  C     12.029100  -10.181050    0.392420
  F     11.846140   -9.988270   -0.957700
  C     12.070180  -11.679240    0.691690
  F     13.084360  -12.270760   -0.026340
  C     12.338240  -11.906440    2.175490
  C     11.771060  -12.386980    5.147500
  C     12.047750  -12.403850    6.477730
  C     12.124650  -13.707930    7.207380
  O     12.172260  -14.806730    6.710350
  C     12.068040  -13.329430    8.625110
  C     12.005020  -13.963460    9.829920
  S     11.968570  -12.799560   11.134370
  C     12.051380  -11.469760   10.036550
  C     12.093620  -11.900050    8.748280
  C     12.214180  -11.318470    7.425990
  C     12.660520  -10.049800    7.162560
  C     12.851800   -9.106740    8.192090
  N     12.990520   -8.327600    9.022580
  C     13.049200   -9.610990    5.882400
  N     13.416900   -9.257450    4.853720
  Cl    11.965580  -15.628900   10.134900
  H     -0.471270    0.391730   -6.022350
  H      2.393580    0.143380   -1.053110
  H      2.630930    0.215770    1.119500
  H      4.085310    1.101120    0.680360
  H      3.591500   -0.496710    3.229400
  H      6.266100    0.561440    2.157530
  H      5.460780   -2.283140    2.972710
  H      6.956490   -1.812670    2.177080
  H      8.623730   -4.182210   -2.208720
  H      7.295860   -2.996840   -2.112570
  H      7.040100   -5.938490   -2.923240
  H      7.022320   -4.568160   -4.036810
  H      5.700320   -4.777370   -2.889550
  H      5.997260   -5.616130    5.117810
  H      7.527540   -6.502370    5.227760
  H      4.868760   -7.540290    4.097030
  H      5.604930   -8.032050    5.623970
  H      6.362070   -8.481420    4.090940
  H      9.077420   -7.742480    1.464580
  H      8.665910   -8.016280    4.491380
  H     11.020930   -8.421280    1.080070
  H      9.951510   -9.731070    0.575640
  H     12.996290   -9.728010    0.641630
  H     11.139760  -12.156470    0.358550
  H     13.377460  -11.629070    2.381300
  H     12.234480  -12.967950    2.410930
  H     11.889540  -13.336430    4.633520
  H     12.053280  -10.467970   10.418090

 Total Charge           Charge          ....    0
 Multiplicity           Mult            ....    1
 Number of Electrons    NEL             ....  536
 Basis Dimension        Dim             .... 1144

ORBITAL ENERGIES
----------------

  NO   OCC          E(Eh)            E(eV)
   0   2.0000    -101.622777     -2765.2963
   1   2.0000    -101.620298     -2765.2289
   2   2.0000     -88.997746     -2421.7518
   3   2.0000     -88.996681     -2421.7228
   4   2.0000     -88.978812     -2421.2366
   5   2.0000     -88.977908     -2421.2120
   6   2.0000     -24.753933      -673.5888
   7   2.0000     -24.750981      -673.5084
   8   2.0000     -24.747205      -673.4057
   9   2.0000     -24.745433      -673.3575
  10   2.0000     -19.233302      -523.3648
  11   2.0000     -19.223053      -523.0859
  12   2.0000     -19.203045      -522.5414
  13   2.0000     -19.201072      -522.4877
  14   2.0000     -14.465551      -393.6276
  15   2.0000     -14.465394      -393.6234
  16   2.0000     -14.428026      -392.6065
  17   2.0000     -14.424223      -392.5031
  18   2.0000     -14.423621      -392.4867
  19   2.0000     -14.422710      -392.4619
  20   2.0000     -10.386922      -282.6425
  21   2.0000     -10.386658      -282.6353
  22   2.0000     -10.383192      -282.5410
  23   2.0000     -10.381725      -282.5011
  24   2.0000     -10.379981      -282.4537
  25   2.0000     -10.379672      -282.4452
  26   2.0000     -10.359586      -281.8987
  27   2.0000     -10.355576      -281.7895
  28   2.0000     -10.354099      -281.7493
  29   2.0000     -10.353482      -281.7326
  30   2.0000     -10.353241      -281.7260
  31   2.0000     -10.351949      -281.6909
  32   2.0000     -10.351355      -281.6747
  33   2.0000     -10.350791      -281.6593
  34   2.0000     -10.349320      -281.6193
  35   2.0000     -10.346303      -281.5372
  36   2.0000     -10.334780      -281.2237
  37   2.0000     -10.334290      -281.2103
  38   2.0000     -10.332710      -281.1673
  39   2.0000     -10.331475      -281.1337
  40   2.0000     -10.330876      -281.1174
  41   2.0000     -10.330459      -281.1061
  42   2.0000     -10.326373      -280.9949
  43   2.0000     -10.326134      -280.9884
  44   2.0000     -10.325893      -280.9818
  45   2.0000     -10.325503      -280.9712
  46   2.0000     -10.325203      -280.9631
  47   2.0000     -10.325080      -280.9597
  48   2.0000     -10.317227      -280.7460
  49   2.0000     -10.316865      -280.7362
  50   2.0000     -10.316501      -280.7263
  51   2.0000     -10.316334      -280.7217
  52   2.0000     -10.312486      -280.6170
  53   2.0000     -10.311692      -280.5954
  54   2.0000     -10.311606      -280.5931
  55   2.0000     -10.311371      -280.5867
  56   2.0000     -10.309735      -280.5422
  57   2.0000     -10.307337      -280.4769
  58   2.0000     -10.306930      -280.4658
  59   2.0000     -10.305347      -280.4228
  60   2.0000     -10.304125      -280.3895
  61   2.0000     -10.303912      -280.3837
  62   2.0000     -10.295825      -280.1636
  63   2.0000     -10.293074      -280.0888
  64   2.0000     -10.292160      -280.0639
  65   2.0000     -10.276512      -279.6381
  66   2.0000     -10.274786      -279.5912
  67   2.0000     -10.272560      -279.5306
  68   2.0000     -10.272110      -279.5183
  69   2.0000     -10.258638      -279.1517
  70   2.0000      -9.577573      -260.6190
  71   2.0000      -9.575103      -260.5518
  72   2.0000      -8.093551      -220.2367
  73   2.0000      -8.092270      -220.2019
  74   2.0000      -8.074056      -219.7062
  75   2.0000      -8.070831      -219.6185
  76   2.0000      -7.348209      -199.9549
  77   2.0000      -7.345755      -199.8882
  78   2.0000      -7.337592      -199.6660
  79   2.0000      -7.337081      -199.6521
  80   2.0000      -7.335128      -199.5990
  81   2.0000      -7.334585      -199.5842
  82   2.0000      -6.062955      -164.9814
  83   2.0000      -6.061655      -164.9460
  84   2.0000      -6.058331      -164.8556
  85   2.0000      -6.057069      -164.8212
  86   2.0000      -6.055738      -164.7850
  87   2.0000      -6.054541      -164.7524
  88   2.0000      -6.043271      -164.4458
  89   2.0000      -6.040319      -164.3654
  90   2.0000      -6.039277      -164.3371
  91   2.0000      -6.036149      -164.2520
  92   2.0000      -6.035561      -164.2360
  93   2.0000      -6.033104      -164.1691
  94   2.0000      -1.273396       -34.6509
  95   2.0000      -1.266892       -34.4739
  96   2.0000      -1.258253       -34.2388
  97   2.0000      -1.251948       -34.0672
  98   2.0000      -1.150217       -31.2990
  99   2.0000      -1.145082       -31.1593
 100   2.0000      -1.140194       -31.0262
 101   2.0000      -1.138008       -30.9668
 102   2.0000      -1.075434       -29.2640
 103   2.0000      -1.066443       -29.0194
 104   2.0000      -1.043692       -28.4003
 105   2.0000      -1.042029       -28.3551
 106   2.0000      -1.024067       -27.8663
 107   2.0000      -1.023326       -27.8461
 108   2.0000      -1.015121       -27.6229
 109   2.0000      -1.012298       -27.5460
 110   2.0000      -1.004166       -27.3247
 111   2.0000      -1.001744       -27.2588
 112   2.0000      -0.993578       -27.0366
 113   2.0000      -0.991827       -26.9890
 114   2.0000      -0.960267       -26.1302
 115   2.0000      -0.958941       -26.0941
 116   2.0000      -0.940075       -25.5807
 117   2.0000      -0.936593       -25.4860
 118   2.0000      -0.929687       -25.2981
 119   2.0000      -0.927969       -25.2513
 120   2.0000      -0.920027       -25.0352
 121   2.0000      -0.911221       -24.7956
 122   2.0000      -0.908750       -24.7284
 123   2.0000      -0.896332       -24.3904
 124   2.0000      -0.882030       -24.0012
 125   2.0000      -0.867568       -23.6077
 126   2.0000      -0.867257       -23.5992
 127   2.0000      -0.844430       -22.9781
 128   2.0000      -0.840178       -22.8624
 129   2.0000      -0.838271       -22.8105
 130   2.0000      -0.836392       -22.7594
 131   2.0000      -0.834729       -22.7141
 132   2.0000      -0.829099       -22.5609
 133   2.0000      -0.827135       -22.5075
 134   2.0000      -0.812667       -22.1138
 135   2.0000      -0.804133       -21.8816
 136   2.0000      -0.770945       -20.9785
 137   2.0000      -0.767240       -20.8777
 138   2.0000      -0.762991       -20.7620
 139   2.0000      -0.757428       -20.6107
 140   2.0000      -0.750802       -20.4303
 141   2.0000      -0.745092       -20.2750
 142   2.0000      -0.738510       -20.0959
 143   2.0000      -0.724665       -19.7191
 144   2.0000      -0.717154       -19.5148
 145   2.0000      -0.708421       -19.2771
 146   2.0000      -0.705725       -19.2038
 147   2.0000      -0.702111       -19.1054
 148   2.0000      -0.695698       -18.9309
 149   2.0000      -0.691091       -18.8055
 150   2.0000      -0.685044       -18.6410
 151   2.0000      -0.682533       -18.5727
 152   2.0000      -0.679060       -18.4782
 153   2.0000      -0.674651       -18.3582
 154   2.0000      -0.660695       -17.9784
 155   2.0000      -0.648807       -17.6549
 156   2.0000      -0.645148       -17.5554
 157   2.0000      -0.638200       -17.3663
 158   2.0000      -0.635834       -17.3019
 159   2.0000      -0.622991       -16.9524
 160   2.0000      -0.622193       -16.9307
 161   2.0000      -0.620848       -16.8941
 162   2.0000      -0.617653       -16.8072
 163   2.0000      -0.612215       -16.6592
 164   2.0000      -0.605574       -16.4785
 165   2.0000      -0.604057       -16.4372
 166   2.0000      -0.596250       -16.2248
 167   2.0000      -0.590289       -16.0626
 168   2.0000      -0.587730       -15.9929
 169   2.0000      -0.586904       -15.9705
 170   2.0000      -0.579229       -15.7616
 171   2.0000      -0.576506       -15.6875
 172   2.0000      -0.574508       -15.6332
 173   2.0000      -0.572495       -15.5784
 174   2.0000      -0.567823       -15.4512
 175   2.0000      -0.564654       -15.3650
 176   2.0000      -0.560297       -15.2465
 177   2.0000      -0.558468       -15.1967
 178   2.0000      -0.555741       -15.1225
 179   2.0000      -0.554088       -15.0775
 180   2.0000      -0.552020       -15.0212
 181   2.0000      -0.550551       -14.9812
 182   2.0000      -0.549013       -14.9394
 183   2.0000      -0.542518       -14.7627
 184   2.0000      -0.541026       -14.7221
 185   2.0000      -0.537034       -14.6134
 186   2.0000      -0.536224       -14.5914
 187   2.0000      -0.535161       -14.5625
 188   2.0000      -0.532609       -14.4930
 189   2.0000      -0.531797       -14.4709
 190   2.0000      -0.526342       -14.3225
 191   2.0000      -0.524558       -14.2740
 192   2.0000      -0.523839       -14.2544
 193   2.0000      -0.518431       -14.1072
 194   2.0000      -0.516515       -14.0551
 195   2.0000      -0.514646       -14.0042
 196   2.0000      -0.511151       -13.9091
 197   2.0000      -0.510105       -13.8807
 198   2.0000      -0.509042       -13.8517
 199   2.0000      -0.507938       -13.8217
 200   2.0000      -0.504485       -13.7277
 201   2.0000      -0.503605       -13.7038
 202   2.0000      -0.501592       -13.6490
 203   2.0000      -0.498446       -13.5634
 204   2.0000      -0.497590       -13.5401
 205   2.0000      -0.496234       -13.5032
 206   2.0000      -0.492437       -13.3999
 207   2.0000      -0.490362       -13.3434
 208   2.0000      -0.487482       -13.2651
 209   2.0000      -0.483258       -13.1501
 210   2.0000      -0.481624       -13.1056
 211   2.0000      -0.476598       -12.9689
 212   2.0000      -0.473879       -12.8949
 213   2.0000      -0.471009       -12.8168
 214   2.0000      -0.468618       -12.7518
 215   2.0000      -0.466094       -12.6831
 216   2.0000      -0.463025       -12.5995
 217   2.0000      -0.462091       -12.5741
 218   2.0000      -0.460288       -12.5251
 219   2.0000      -0.459790       -12.5115
 220   2.0000      -0.458237       -12.4693
 221   2.0000      -0.457527       -12.4499
 222   2.0000      -0.456371       -12.4185
 223   2.0000      -0.454349       -12.3635
 224   2.0000      -0.451938       -12.2978
 225   2.0000      -0.451376       -12.2826
 226   2.0000      -0.450812       -12.2672
 227   2.0000      -0.449712       -12.2373
 228   2.0000      -0.448409       -12.2018
 229   2.0000      -0.445524       -12.1233
 230   2.0000      -0.442893       -12.0517
 231   2.0000      -0.440718       -11.9925
 232   2.0000      -0.438399       -11.9295
 233   2.0000      -0.437178       -11.8962
 234   2.0000      -0.434127       -11.8132
 235   2.0000      -0.432147       -11.7593
 236   2.0000      -0.430306       -11.7092
 237   2.0000      -0.426446       -11.6042
 238   2.0000      -0.424329       -11.5466
 239   2.0000      -0.423584       -11.5263
 240   2.0000      -0.420578       -11.4445
 241   2.0000      -0.420112       -11.4318
 242   2.0000      -0.415090       -11.2952
 243   2.0000      -0.414361       -11.2753
 244   2.0000      -0.412832       -11.2337
 245   2.0000      -0.409869       -11.1531
 246   2.0000      -0.408754       -11.1228
 247   2.0000      -0.406376       -11.0580
 248   2.0000      -0.402294       -10.9470
 249   2.0000      -0.391725       -10.6594
 250   2.0000      -0.388131       -10.5616
 251   2.0000      -0.383613       -10.4386
 252   2.0000      -0.377438       -10.2706
 253   2.0000      -0.359980        -9.7955
 254   2.0000      -0.357295        -9.7225
 255   2.0000      -0.347954        -9.4683
 256   2.0000      -0.345765        -9.4087
 257   2.0000      -0.344526        -9.3750
 258   2.0000      -0.342529        -9.3207
 259   2.0000      -0.337493        -9.1836
 260   2.0000      -0.333358        -9.0711
 261   2.0000      -0.326762        -8.8916
 262   2.0000      -0.326096        -8.8735
 263   2.0000      -0.322556        -8.7772
 264   2.0000      -0.317092        -8.6285
 265   2.0000      -0.300816        -8.1856
 266   2.0000      -0.293963        -7.9991
 267   2.0000      -0.249369        -6.7857
 268   0.0000      -0.118203        -3.2165
 269   0.0000      -0.101294        -2.7563
 270   0.0000      -0.073380        -1.9968
 271   0.0000      -0.059733        -1.6254
 272   0.0000      -0.052035        -1.4159

MULLIKEN ATOMIC CHARGES
-----------------------
   0 C :    0.025534
   1 C :   -0.130291
   2 S :    0.188193
   3 C :   -0.170980
   4 Cl:   -0.000460
   5 C :    0.082816
   6 C :    0.167538
   7 O :   -0.167485
   8 C :   -0.100969
   9 C :    0.301065
  10 C :   -0.332113
  11 C :   -0.194089
  12 N :    0.156498
  13 C :   -0.180099
  14 N :    0.151197
  15 C :   -0.050670
  16 C :   -0.059315
  17 S :    0.191139
  18 C :   -0.177201
  19 C :   -0.045126
  20 C :   -0.121718
  21 C :    0.122752
  22 C :    0.211361
  23 F :   -0.241690
  24 C :    0.198136
  25 F :   -0.241972
  26 C :    0.131420
  27 C :    0.107077
  28 N :   -0.262134
  29 C :    0.098286
  30 C :   -0.000248
  31 C :    0.159127
  32 O :   -0.190034
  33 C :   -0.061396
  34 C :   -0.027665
  35 C :    0.148169
  36 O :   -0.207791
  37 N :   -0.266535
  38 C :    0.094705
  39 C :   -0.001722
  40 C :    0.127746
  41 C :   -0.052448
  42 C :    0.075496
  43 C :   -0.115779
  44 S :    0.155686
  45 C :   -0.164277
  46 C :   -0.031897
  47 C :   -0.086235
  48 C :    0.106902
  49 C :    0.216260
  50 F :   -0.240347
  51 C :    0.185270
  52 F :   -0.240644
  53 C :    0.139479
  54 C :    0.031279
  55 C :   -0.152710
  56 C :    0.137558
  57 O :   -0.127662
  58 C :    0.086469
  59 C :   -0.170082
  60 S :    0.184616
  61 C :   -0.126209
  62 C :    0.018144
  63 C :    0.249733
  64 C :   -0.314408
  65 C :   -0.186239
  66 N :    0.157952
  67 C :   -0.185026
  68 N :    0.166646
  69 Cl:    0.001141
  70 H :    0.056502
  71 H :    0.001114
  72 H :    0.056969
  73 H :    0.042123
  74 H :    0.016225
  75 H :    0.000473
  76 H :    0.066324
  77 H :    0.023324
  78 H :    0.036662
  79 H :    0.031683
  80 H :    0.031136
  81 H :    0.022684
  82 H :    0.033715
  83 H :    0.049444
  84 H :    0.031246
  85 H :    0.028858
  86 H :    0.025428
  87 H :    0.021116
  88 H :    0.003628
  89 H :   -0.023649
  90 H :    0.058119
  91 H :    0.047438
  92 H :    0.016745
  93 H :    0.007804
  94 H :    0.048826
  95 H :    0.032200
  96 H :    0.030975
  97 H :    0.053164
Sum of atomic charges:   -0.0000000

LOEWDIN ATOMIC CHARGES
----------------------
   0 C :   -0.058674
   1 C :   -0.146734
   2 S :    0.476207
   3 C :   -0.272016
   4 Cl:    0.191998
   5 C :   -0.116473
   6 C :    0.083216
   7 O :   -0.160630
   8 C :   -0.100908
   9 C :    0.076146
  10 C :   -0.141256
  11 C :   -0.015882
  12 N :   -0.051398
  13 C :   -0.022012
  14 N :   -0.048044
  15 C :    0.057410
  16 C :   -0.187489
  17 S :    0.540986
  18 C :   -0.178627
  19 C :   -0.037131
  20 C :   -0.020378
  21 C :   -0.039682
  22 C :    0.097626
  23 F :   -0.119533
  24 C :    0.093965
  25 F :   -0.120579
  26 C :   -0.048097
  27 C :    0.062496
  28 N :    0.001776
  29 C :    0.029902
  30 C :   -0.063140
  31 C :    0.079124
  32 O :   -0.190213
  33 C :   -0.111312
  34 C :   -0.121395
  35 C :    0.089325
  36 O :   -0.189186
  37 N :   -0.002934
  38 C :    0.034889
  39 C :   -0.062578
  40 C :    0.073829
  41 C :   -0.025970
  42 C :   -0.024933
  43 C :   -0.145559
  44 S :    0.470659
  45 C :   -0.186850
  46 C :   -0.019422
  47 C :   -0.046078
  48 C :   -0.037965
  49 C :    0.098103
  50 F :   -0.118115
  51 C :    0.093606
  52 F :   -0.119732
  53 C :   -0.034392
  54 C :    0.050937
  55 C :   -0.091980
  56 C :    0.079795
  57 O :   -0.133402
  58 C :   -0.118129
  59 C :   -0.272148
  60 S :    0.474432
  61 C :   -0.152089
  62 C :   -0.057095
  63 C :    0.060821
  64 C :   -0.139755
  65 C :   -0.018574
  66 N :   -0.049341
  67 C :   -0.027750
  68 N :   -0.051291
  69 Cl:    0.192921
  70 H :    0.038510
  71 H :    0.049476
  72 H :    0.047619
  73 H :    0.048040
  74 H :    0.024429
  75 H :    0.016233
  76 H :    0.046913
  77 H :    0.038720
  78 H :    0.035561
  79 H :    0.019420
  80 H :    0.030601
  81 H :    0.032306
  82 H :    0.016209
  83 H :    0.039734
  84 H :    0.021213
  85 H :    0.032992
  86 H :    0.032140
  87 H :    0.021597
  88 H :    0.045796
  89 H :    0.028144
  90 H :    0.048721
  91 H :    0.045880
  92 H :    0.024995
  93 H :    0.020271
  94 H :    0.051408
  95 H :    0.041966
  96 H :    0.049872
  97 H :    0.037941

  Mayer bond orders larger than 0.100000
B(  0-C ,  1-C ) :   1.5530 B(  0-C ,  5-C ) :   1.2241 B(  0-C ,  9-C ) :   0.9897
B(  1-C ,  2-S ) :   1.1590 B(  1-C , 70-H ) :   0.9537 B(  2-S ,  3-C ) :   1.1491
B(  3-C ,  4-Cl) :   1.1278 B(  3-C ,  5-C ) :   1.4739 B(  5-C ,  6-C ) :   0.9715
B(  6-C ,  7-O ) :   2.1342 B(  6-C ,  8-C ) :   0.9674 B(  8-C ,  9-C ) :   1.0848
B(  8-C , 15-C ) :   1.5318 B(  9-C , 10-C ) :   1.6406 B( 10-C , 11-C ) :   1.1499
B( 10-C , 13-C ) :   1.1417 B( 11-C , 12-N ) :   2.9893 B( 13-C , 14-N ) :   2.9591
B( 15-C , 16-C ) :   1.2494 B( 15-C , 71-H ) :   0.9326 B( 16-C , 17-S ) :   1.0994
B( 16-C , 18-C ) :   0.1074 B( 16-C , 20-C ) :   1.3805 B( 17-S , 18-C ) :   1.1209
B( 18-C , 19-C ) :   1.4545 B( 18-C , 27-C ) :   1.0657 B( 19-C , 20-C ) :   1.3747
B( 19-C , 26-C ) :   1.0281 B( 20-C , 21-C ) :   1.0204 B( 21-C , 22-C ) :   1.0197
B( 21-C , 72-H ) :   0.8959 B( 21-C , 73-H ) :   0.8996 B( 22-C , 23-F ) :   1.0354
B( 22-C , 24-C ) :   1.0169 B( 22-C , 74-H ) :   0.9368 B( 24-C , 25-F ) :   1.0383
B( 24-C , 26-C ) :   1.0277 B( 24-C , 75-H ) :   0.9396 B( 26-C , 76-H ) :   0.8529
B( 26-C , 77-H ) :   0.9033 B( 27-C , 28-N ) :   1.2164 B( 27-C , 34-C ) :   1.3859
B( 28-N , 29-C ) :   0.9353 B( 28-N , 31-C ) :   1.0279 B( 29-C , 30-C ) :   1.1154
B( 29-C , 78-H ) :   0.9312 B( 29-C , 79-H ) :   0.9465 B( 30-C , 80-H ) :   0.9641
B( 30-C , 81-H ) :   0.9661 B( 30-C , 82-H ) :   0.9626 B( 31-C , 32-O ) :   2.1164
B( 31-C , 33-C ) :   0.9840 B( 33-C , 34-C ) :   1.2154 B( 33-C , 40-C ) :   1.3596
B( 34-C , 35-C ) :   0.9816 B( 35-C , 36-O ) :   2.0287 B( 35-C , 37-N ) :   1.0533
B( 37-N , 38-C ) :   0.9416 B( 37-N , 40-C ) :   1.1581 B( 38-C , 39-C ) :   1.1177
B( 38-C , 83-H ) :   0.9221 B( 38-C , 84-H ) :   0.9500 B( 39-C , 85-H ) :   0.9616
B( 39-C , 86-H ) :   0.9678 B( 39-C , 87-H ) :   0.9679 B( 40-C , 41-C ) :   1.1885
B( 41-C , 42-C ) :   1.5835 B( 41-C , 88-H ) :   0.9390 B( 42-C , 43-C ) :   1.1486
B( 42-C , 89-H ) :   0.9465 B( 43-C , 44-S ) :   1.1403 B( 43-C , 47-C ) :   1.4736
B( 44-S , 45-C ) :   1.1238 B( 45-C , 46-C ) :   1.4414 B( 45-C , 54-C ) :   1.1058
B( 46-C , 47-C ) :   1.3454 B( 46-C , 53-C ) :   1.0323 B( 47-C , 48-C ) :   1.0188
B( 48-C , 49-C ) :   1.0151 B( 48-C , 90-H ) :   0.9034 B( 48-C , 91-H ) :   0.8992
B( 49-C , 50-F ) :   1.0383 B( 49-C , 51-C ) :   1.0163 B( 49-C , 92-H ) :   0.9354
B( 51-C , 52-F ) :   1.0372 B( 51-C , 53-C ) :   1.0309 B( 51-C , 93-H ) :   0.9411
B( 53-C , 94-H ) :   0.8961 B( 53-C , 95-H ) :   0.8996 B( 54-C , 55-C ) :   1.6822
B( 54-C , 96-H ) :   0.9371 B( 55-C , 56-C ) :   0.9352 B( 55-C , 63-C ) :   1.0397
B( 56-C , 57-O ) :   2.2788 B( 56-C , 58-C ) :   0.9270 B( 58-C , 59-C ) :   1.4847
B( 58-C , 62-C ) :   1.2229 B( 59-C , 60-S ) :   1.1510 B( 59-C , 69-Cl) :   1.1289
B( 60-S , 61-C ) :   1.1562 B( 61-C , 62-C ) :   1.5535 B( 61-C , 97-H ) :   0.9573
B( 62-C , 63-C ) :   1.0113 B( 63-C , 64-C ) :   1.6671 B( 64-C , 65-C ) :   1.1362
B( 64-C , 67-C ) :   1.1575 B( 65-C , 66-N ) :   3.0028 B( 67-C , 68-N ) :   3.0015

-----------------------------------------------------------------------------
         ABSORPTION SPECTRUM VIA TRANSITION ELECTRIC DIPOLE MOMENTS
-----------------------------------------------------------------------------
State   Energy  Wavelength   fosc         T2         TX        TY        TZ
        (cm-1)    (nm)                  (au**2)     (au)      (au)      (au)
-----------------------------------------------------------------------------
   0   14092.1    709.6   1.448797419  33.84595  -2.89508   3.40483  -3.72446
   1   18614.9    537.2   0.010359311   0.18321  -0.01082   0.08854  -0.41863
   2   23130.9    432.3   0.048999610   0.69739   0.71780   0.22253   0.36420
   3   24272.2    412.0   0.556435210   7.54713   1.76111  -1.61001   1.36143
   4   24555.8    407.2   0.100776542   1.35108  -1.13657  -0.06890  -0.23355
   5   26381.7    379.1   0.003441553   0.04295   0.20280   0.03486  -0.02457
   6   27441.2    364.4   0.028474040   0.34160  -0.37499  -0.02021   0.44785
   7   27582.8    362.5   0.049370723   0.58926  -0.05330   0.62859  -0.43737
   8   27747.9    360.4   0.094301808   1.11883   0.35232  -0.77902   0.62276
   9   28178.3    354.9   0.027106996   0.31670   0.09163  -0.43344  -0.34703
  10   28998.2    344.8   0.019438217   0.22068  -0.24336   0.40083  -0.02808
  11   29065.3    344.1   0.053379342   0.60461  -0.17122   0.71264   0.25970
  12   29283.9    341.5   0.085234344   0.95821  -0.49531  -0.10805  -0.83738
  13   29417.0    339.9   0.004166031   0.04662  -0.02351  -0.02452  -0.21323
  14   29871.2    334.8   0.110298787   1.21561   0.47389  -0.99523   0.02331
  15   30394.1    329.0   0.154854624   1.67730  -0.05918   0.02257  -1.29356
  16   31178.0    320.7   0.023456396   0.24768   0.32490   0.02128   0.37639
  17   32275.8    309.8   0.007382980   0.07531  -0.08956   0.18616  -0.18063
  18   32397.1    308.7   0.089979620   0.91435  -0.03065   0.83158  -0.47106
  19   32888.2    304.1   0.003554252   0.03558  -0.07281   0.00844  -0.17380
  20   33376.9    299.6   0.018956566   0.18698  -0.03101  -0.39345  -0.17666
  21   34142.8    292.9   0.142791718   1.37683   0.09843  -0.67329  -0.95594
  22   34355.8    291.1   0.088738712   0.85033  -0.30604   0.77349  -0.39797
  23   35018.3    285.6   0.063429933   0.59631   0.04967  -0.62050  -0.45697
  24   35139.3    284.6   0.072269060   0.67707  -0.01551   0.23131   0.78951
  25   35690.7    280.2   0.041479854   0.38261  -0.33088   0.52071  -0.04467
  26   35935.0    278.3   0.062750573   0.57488   0.26714   0.25673  -0.66152
  27   36221.5    276.1   0.160820684   1.46168   0.02767   1.20857  -0.01611
  28   36718.2    272.3   0.253333195   2.27136   0.01333   0.78522   1.28632
  29   36912.3    270.9   0.057628106   0.51397   0.18715  -0.42581  -0.54555
  30   37327.5    267.9   0.122943357   1.08431   0.17613  -1.02309   0.08107
  31   37654.2    265.6   0.371193630   3.24536   0.60246   0.60289  -1.58711
  32   37749.3    264.9   0.352474757   3.07394  -1.05826   1.37395   0.25743
  33   38120.5    262.3   0.002688525   0.02322  -0.07710   0.06928  -0.11169
  34   38328.3    260.9   0.067067625   0.57606   0.16107  -0.12355  -0.73134
  35   38670.2    258.6   0.002533373   0.02157  -0.09908   0.09152   0.05809
  36   38944.8    256.8   0.002273467   0.01922   0.12143   0.05745   0.03425
  37   39054.0    256.1   0.109539291   0.92338   0.51110   0.21228  -0.78555
  38   39728.4    251.7   0.082272892   0.68176   0.58832  -0.53798   0.21499
  39   40020.3    249.9   0.015500683   0.12751  -0.19842   0.26531  -0.13323

FINAL SINGLE POINT ENERGY     -5459.665567456666

DIPOLE MOMENT
-------------
                                X             Y             Z
Electronic contribution:      0.97215     -14.63626       3.25681
Nuclear contribution   :     -1.52155      12.60715      -3.63505
                        -----------------------------------------
Total Dipole Moment    :     -0.54940      -2.02912      -0.37824
                        -----------------------------------------
Magnitude (a.u.)       :      2.13593
Magnitude (Debye)      :      5.42911

Rotational constants in cm-1:     0.001757     0.000264     0.000241
Rotational constants in MHz :    52.668797     7.920381     7.227721

                             ****ORCA TERMINATED NORMALLY****
TOTAL RUN TIME: 0 days 0 hours 10 minutes 11 seconds 603 msec
