                         Program Version 4.2.0 -  RELEASE  -
|  1> # ORCA input file
|  2> # SCF done       -202.952311806166          0.000602797279
|  3> ! CAM-B3LYP def2-SVP def2/J RIJCOSX Grid4 TightSCF
|  4> %maxcore 5000
|  5> %tddft
|  6>     Mode sTDDFT
|  7>     Ethresh 5.0
|  8>     maxcore 5000
|  9> end
| 10>
| 11> %pal
| 12>   nprocs 6
| 13>   end
| 14> * xyz 0 1
| 15>    C        3.12522         3.56221        -5.38136
| 16>    C        2.58424         4.73214        -5.81694
| 17>    S        2.82439         4.93704        -7.51373
| 18>    C        3.67345         3.41383        -7.64255
| 19>   Cl        4.28173         2.86531        -9.12513
| 20>    C        3.74891         2.80769        -6.42462
| 21>    C        4.29888         1.55926        -5.88389
| 22>    O        4.84460         0.67845        -6.50711
| 23>    C        3.97865         1.60053        -4.42378
| 24>    C        3.26969         2.84089        -4.13272
| 25>    C        2.84576         3.31882        -2.91999
| 26>    C        2.17833         4.55838        -2.81854
| 27>    N        1.62999         5.56076        -2.71439
| 28>    C        3.02017         2.70963        -1.66087
| 29>    N        3.13362         2.29559        -0.59580
| 30>    C        4.20431         0.62966        -3.48768
| 31>    C        4.96340        -0.56451        -3.53086
| 32>    C        4.92548        -1.49834        -2.50899
| 33>    C        5.81962        -2.56504        -2.81021
| 34>    C        6.45639        -2.20995        -4.08817
| 35>    C        5.94573        -1.02219        -4.50659
| 36>    C        7.49429        -2.89800        -4.73184
| 37>    N        8.37767        -3.40381        -5.26308
| 38>    C        6.07294        -3.69033        -2.05504
| 39>    C        6.93119        -4.76942        -2.38588
| 40>    C        7.01458        -5.63625        -1.31019
| 41>    C        6.14969        -5.11716        -0.25788
| 42>    C        5.56162        -3.97602        -0.70111
| 43>    C        4.63765        -3.22123         0.03124
| 44>    N        3.87882        -2.63487         0.66300
| 45>    C        7.82526        -6.79859        -1.31706
| 46>    N        8.31315        -7.49705        -0.23883
| 47>    C        8.17968        -7.18333         1.16525
| 48>    C        8.88116        -5.88095         1.53638
| 49>    C        9.15693        -8.55155        -0.63903
| 50>    O        9.73222        -9.28189         0.14277
| 51>    C        9.13161        -8.50888        -2.08359
| 52>    C        8.31558        -7.42744        -2.46870
| 53>    C        8.22270        -7.42998        -3.91895
| 54>    O        7.60733        -6.74117        -4.69849
| 55>    N        9.03347        -8.51711        -4.31144
| 56>    C        9.27214        -8.79737        -5.70801
| 57>    C       10.58409        -8.18084        -6.18510
| 58>    C        9.58905        -9.15925        -3.23947
| 59>    C       10.46527       -10.26253        -3.35577
| 60>    C       11.04367       -10.85480        -2.27530
| 61>    C       11.95465       -11.93226        -2.37525
| 62>    S       12.69528       -12.55469        -0.91089
| 63>    C       12.43478       -12.63658        -3.46929
| 64>    C       12.24384       -12.69841        -4.93106
| 65>    O       11.54401       -12.03311        -5.65791
| 66>    N       13.06170       -13.73379        -5.36258
| 67>    C       13.17142       -14.12515        -6.75262
| 68>    C       14.24332       -13.31564        -7.47343
| 69>    C       13.78243       -14.34275        -4.34251
| 70>    O       14.55261       -15.26141        -4.47794
| 71>    C       13.37348       -13.62585        -3.12703
| 72>    C       13.64876       -13.73064        -1.77999
| 73>    C       14.52695       -14.67486        -1.19802
| 74>    C       14.69603       -14.88095         0.12958
| 75>    C       15.58181       -15.84366         0.68252
| 76>    C       16.09483       -16.98372         0.14509
| 77>    C       17.29995       -17.57740         0.81854
| 78>    O       17.73323       -17.26828         1.90171
| 79>    C       17.82425       -18.54372        -0.14895
| 80>    C       18.91251       -19.35655        -0.26602
| 81>    S       18.85447       -20.24095        -1.77218
| 82>    C       17.35549       -19.51079        -2.21859
| 83>    C       16.93282       -18.63560        -1.26786
| 84>    C       15.78900       -17.76907        -1.04045
| 85>    C       14.60705       -17.88357        -1.72324
| 86>    C       14.46420       -18.78161        -2.80322
| 87>    N       14.32652       -19.50636        -3.68127
| 88>    C       13.41466       -17.20368        -1.41691
| 89>    N       12.41151       -16.68986        -1.19849
| 90>   Cl       20.19137       -19.55468         0.82614
| 91>    H        2.05878         5.48750        -5.26737
| 92>    H        3.73224         0.78400        -2.52334
| 93>    H        4.30236        -1.44576        -1.63658
| 94>    H        6.21768        -0.49740        -5.40079
| 95>    H        7.43892        -4.88188        -3.32255
| 96>    H        5.96020        -5.57811         0.69219
| 97>    H        8.65036        -8.01815         1.69350
| 98>    H        7.12312        -7.15759         1.44262
| 99>    H        9.93807        -5.94320         1.28832
|100>    H        8.78507        -5.70647         2.60433
|101>    H        8.45026        -5.03433         1.00627
|102>    H        8.43714        -8.35018        -6.25398
|103>    H        9.27194        -9.87731        -5.87115
|104>    H       10.56342        -7.10294        -6.04369
|105>    H       10.72095        -8.39115        -7.24161
|106>    H       11.42745        -8.59376        -5.63628
|107>    H       10.68485       -10.63164        -4.34701
|108>    H       10.82754       -10.49529        -1.27732
|109>    H       12.19599       -13.96358        -7.21747
|110>    H       13.41963       -15.18882        -6.76959
|111>    H       13.99862       -12.25631        -7.44478
|112>    H       14.30494       -13.63200        -8.51056
|113>    H       15.21175       -13.46936        -7.00292
|114>    H       15.09619       -15.24707        -1.91980
|115>    H       14.17793       -14.23641         0.82841
|116>    H       15.96283       -15.61878         1.67533
|117>    H       16.90201       -19.77105        -3.15422
|118> *
|119>
|120>                          ****END OF INPUT****

CARTESIAN COORDINATES (ANGSTROEM)
---------------------------------
  C      3.125220    3.562210   -5.381360
  C      2.584240    4.732140   -5.816940
  S      2.824390    4.937040   -7.513730
  C      3.673450    3.413830   -7.642550
  Cl     4.281730    2.865310   -9.125130
  C      3.748910    2.807690   -6.424620
  C      4.298880    1.559260   -5.883890
  O      4.844600    0.678450   -6.507110
  C      3.978650    1.600530   -4.423780
  C      3.269690    2.840890   -4.132720
  C      2.845760    3.318820   -2.919990
  C      2.178330    4.558380   -2.818540
  N      1.629990    5.560760   -2.714390
  C      3.020170    2.709630   -1.660870
  N      3.133620    2.295590   -0.595800
  C      4.204310    0.629660   -3.487680
  C      4.963400   -0.564510   -3.530860
  C      4.925480   -1.498340   -2.508990
  C      5.819620   -2.565040   -2.810210
  C      6.456390   -2.209950   -4.088170
  C      5.945730   -1.022190   -4.506590
  C      7.494290   -2.898000   -4.731840
  N      8.377670   -3.403810   -5.263080
  C      6.072940   -3.690330   -2.055040
  C      6.931190   -4.769420   -2.385880
  C      7.014580   -5.636250   -1.310190
  C      6.149690   -5.117160   -0.257880
  C      5.561620   -3.976020   -0.701110
  C      4.637650   -3.221230    0.031240
  N      3.878820   -2.634870    0.663000
  C      7.825260   -6.798590   -1.317060
  N      8.313150   -7.497050   -0.238830
  C      8.179680   -7.183330    1.165250
  C      8.881160   -5.880950    1.536380
  C      9.156930   -8.551550   -0.639030
  O      9.732220   -9.281890    0.142770
  C      9.131610   -8.508880   -2.083590
  C      8.315580   -7.427440   -2.468700
  C      8.222700   -7.429980   -3.918950
  O      7.607330   -6.741170   -4.698490
  N      9.033470   -8.517110   -4.311440
  C      9.272140   -8.797370   -5.708010
  C     10.584090   -8.180840   -6.185100
  C      9.589050   -9.159250   -3.239470
  C     10.465270  -10.262530   -3.355770
  C     11.043670  -10.854800   -2.275300
  C     11.954650  -11.932260   -2.375250
  S     12.695280  -12.554690   -0.910890
  C     12.434780  -12.636580   -3.469290
  C     12.243840  -12.698410   -4.931060
  O     11.544010  -12.033110   -5.657910
  N     13.061700  -13.733790   -5.362580
  C     13.171420  -14.125150   -6.752620
  C     14.243320  -13.315640   -7.473430
  C     13.782430  -14.342750   -4.342510
  O     14.552610  -15.261410   -4.477940
  C     13.373480  -13.625850   -3.127030
  C     13.648760  -13.730640   -1.779990
  C     14.526950  -14.674860   -1.198020
  C     14.696030  -14.880950    0.129580
  C     15.581810  -15.843660    0.682520
  C     16.094830  -16.983720    0.145090
  C     17.299950  -17.577400    0.818540
  O     17.733230  -17.268280    1.901710
  C     17.824250  -18.543720   -0.148950
  C     18.912510  -19.356550   -0.266020
  S     18.854470  -20.240950   -1.772180
  C     17.355490  -19.510790   -2.218590
  C     16.932820  -18.635600   -1.267860
  C     15.789000  -17.769070   -1.040450
  C     14.607050  -17.883570   -1.723240
  C     14.464200  -18.781610   -2.803220
  N     14.326520  -19.506360   -3.681270
  C     13.414660  -17.203680   -1.416910
  N     12.411510  -16.689860   -1.198490
  Cl    20.191370  -19.554680    0.826140
  H      2.058780    5.487500   -5.267370
  H      3.732240    0.784000   -2.523340
  H      4.302360   -1.445760   -1.636580
  H      6.217680   -0.497400   -5.400790
  H      7.438920   -4.881880   -3.322550
  H      5.960200   -5.578110    0.692190
  H      8.650360   -8.018150    1.693500
  H      7.123120   -7.157590    1.442620
  H      9.938070   -5.943200    1.288320
  H      8.785070   -5.706470    2.604330
  H      8.450260   -5.034330    1.006270
  H      8.437140   -8.350180   -6.253980
  H      9.271940   -9.877310   -5.871150
  H     10.563420   -7.102940   -6.043690
  H     10.720950   -8.391150   -7.241610
  H     11.427450   -8.593760   -5.636280
  H     10.684850  -10.631640   -4.347010
  H     10.827540  -10.495290   -1.277320
  H     12.195990  -13.963580   -7.217470
  H     13.419630  -15.188820   -6.769590
  H     13.998620  -12.256310   -7.444780
  H     14.304940  -13.632000   -8.510560
  H     15.211750  -13.469360   -7.002920
  H     15.096190  -15.247070   -1.919800
  H     14.177930  -14.236410    0.828410
  H     15.962830  -15.618780    1.675330
  H     16.902010  -19.771050   -3.154220

 Total Charge           Charge          ....    0
 Multiplicity           Mult            ....    1
 Number of Electrons    NEL             ....  556
 Basis Dimension        Dim             .... 1219

ORBITAL ENERGIES
----------------

  NO   OCC          E(Eh)            E(eV)
   0   2.0000    -101.619313     -2765.2021
   1   2.0000    -101.618608     -2765.1829
   2   2.0000     -88.995013     -2421.6774
   3   2.0000     -88.994931     -2421.6752
   4   2.0000     -88.991290     -2421.5761
   5   2.0000     -19.231394      -523.3128
   6   2.0000     -19.227774      -523.2143
   7   2.0000     -19.226284      -523.1738
   8   2.0000     -19.222175      -523.0620
   9   2.0000     -19.206166      -522.6263
  10   2.0000     -19.203564      -522.5555
  11   2.0000     -14.469518      -393.7356
  12   2.0000     -14.467510      -393.6809
  13   2.0000     -14.465285      -393.6204
  14   2.0000     -14.425673      -392.5425
  15   2.0000     -14.421897      -392.4398
  16   2.0000     -14.421669      -392.4336
  17   2.0000     -14.420927      -392.4134
  18   2.0000     -14.415828      -392.2746
  19   2.0000     -14.402226      -391.9045
  20   2.0000     -10.413392      -283.3628
  21   2.0000     -10.408935      -283.2415
  22   2.0000     -10.387611      -282.6613
  23   2.0000     -10.386390      -282.6280
  24   2.0000     -10.383754      -282.5563
  25   2.0000     -10.378259      -282.4068
  26   2.0000     -10.378196      -282.4051
  27   2.0000     -10.377927      -282.3977
  28   2.0000     -10.355856      -281.7972
  29   2.0000     -10.353539      -281.7341
  30   2.0000     -10.352856      -281.7155
  31   2.0000     -10.351925      -281.6902
  32   2.0000     -10.350652      -281.6556
  33   2.0000     -10.349845      -281.6336
  34   2.0000     -10.347832      -281.5788
  35   2.0000     -10.343415      -281.4586
  36   2.0000     -10.332424      -281.1595
  37   2.0000     -10.330812      -281.1157
  38   2.0000     -10.330688      -281.1123
  39   2.0000     -10.328569      -281.0546
  40   2.0000     -10.327407      -281.0230
  41   2.0000     -10.326584      -281.0006
  42   2.0000     -10.326522      -280.9989
  43   2.0000     -10.324026      -280.9310
  44   2.0000     -10.323645      -280.9206
  45   2.0000     -10.323625      -280.9201
  46   2.0000     -10.323020      -280.9036
  47   2.0000     -10.322115      -280.8790
  48   2.0000     -10.320235      -280.8279
  49   2.0000     -10.318658      -280.7850
  50   2.0000     -10.318557      -280.7822
  51   2.0000     -10.317056      -280.7414
  52   2.0000     -10.316012      -280.7130
  53   2.0000     -10.315060      -280.6870
  54   2.0000     -10.313997      -280.6581
  55   2.0000     -10.313983      -280.6578
  56   2.0000     -10.312761      -280.6245
  57   2.0000     -10.312071      -280.6057
  58   2.0000     -10.311152      -280.5807
  59   2.0000     -10.310854      -280.5726
  60   2.0000     -10.310799      -280.5711
  61   2.0000     -10.310225      -280.5555
  62   2.0000     -10.309423      -280.5337
  63   2.0000     -10.308090      -280.4974
  64   2.0000     -10.305021      -280.4139
  65   2.0000     -10.303816      -280.3811
  66   2.0000     -10.302616      -280.3484
  67   2.0000     -10.302565      -280.3470
  68   2.0000     -10.302230      -280.3379
  69   2.0000     -10.301453      -280.3168
  70   2.0000     -10.290216      -280.0110
  71   2.0000     -10.281116      -279.7634
  72   2.0000     -10.275968      -279.6233
  73   2.0000     -10.274009      -279.5700
  74   2.0000     -10.268162      -279.4109
  75   2.0000     -10.262440      -279.2552
  76   2.0000      -9.574088      -260.5242
  77   2.0000      -9.573368      -260.5046
  78   2.0000      -8.090718      -220.1596
  79   2.0000      -8.090664      -220.1582
  80   2.0000      -8.086350      -220.0408
  81   2.0000      -7.344709      -199.8597
  82   2.0000      -7.343980      -199.8398
  83   2.0000      -7.334139      -199.5721
  84   2.0000      -7.333591      -199.5571
  85   2.0000      -7.333429      -199.5527
  86   2.0000      -7.332880      -199.5378
  87   2.0000      -6.060120      -164.9042
  88   2.0000      -6.060055      -164.9025
  89   2.0000      -6.055548      -164.7798
  90   2.0000      -6.055485      -164.7781
  91   2.0000      -6.055428      -164.7766
  92   2.0000      -6.052963      -164.7095
  93   2.0000      -6.052903      -164.7079
  94   2.0000      -6.051399      -164.6669
  95   2.0000      -6.048614      -164.5911
  96   2.0000      -1.174609       -31.9627
  97   2.0000      -1.151181       -31.3252
  98   2.0000      -1.147744       -31.2317
  99   2.0000      -1.143941       -31.1282
 100   2.0000      -1.141051       -31.0496
 101   2.0000      -1.139519       -31.0079
 102   2.0000      -1.077855       -29.3299
 103   2.0000      -1.069067       -29.0908
 104   2.0000      -1.066119       -29.0106
 105   2.0000      -1.040323       -28.3086
 106   2.0000      -1.040009       -28.3001
 107   2.0000      -1.022429       -27.8217
 108   2.0000      -1.021638       -27.8002
 109   2.0000      -1.018953       -27.7271
 110   2.0000      -1.017541       -27.6887
 111   2.0000      -1.003865       -27.3165
 112   2.0000      -1.002038       -27.2668
 113   2.0000      -0.999772       -27.2052
 114   2.0000      -0.990945       -26.9650
 115   2.0000      -0.990681       -26.9578
 116   2.0000      -0.989346       -26.9215
 117   2.0000      -0.980389       -26.6777
 118   2.0000      -0.958756       -26.0891
 119   2.0000      -0.956004       -26.0142
 120   2.0000      -0.943144       -25.6642
 121   2.0000      -0.939112       -25.5545
 122   2.0000      -0.926009       -25.1980
 123   2.0000      -0.912785       -24.8381
 124   2.0000      -0.912185       -24.8218
 125   2.0000      -0.905740       -24.6464
 126   2.0000      -0.901517       -24.5315
 127   2.0000      -0.890450       -24.2304
 128   2.0000      -0.879861       -23.9422
 129   2.0000      -0.875548       -23.8249
 130   2.0000      -0.862313       -23.4647
 131   2.0000      -0.847663       -23.0661
 132   2.0000      -0.845961       -23.0198
 133   2.0000      -0.839315       -22.8389
 134   2.0000      -0.834661       -22.7123
 135   2.0000      -0.834136       -22.6980
 136   2.0000      -0.829133       -22.5619
 137   2.0000      -0.820042       -22.3145
 138   2.0000      -0.807905       -21.9842
 139   2.0000      -0.791531       -21.5387
 140   2.0000      -0.786767       -21.4090
 141   2.0000      -0.768719       -20.9179
 142   2.0000      -0.768141       -20.9022
 143   2.0000      -0.764181       -20.7944
 144   2.0000      -0.757707       -20.6182
 145   2.0000      -0.756696       -20.5908
 146   2.0000      -0.749647       -20.3989
 147   2.0000      -0.731010       -19.8918
 148   2.0000      -0.725450       -19.7405
 149   2.0000      -0.719567       -19.5804
 150   2.0000      -0.715804       -19.4780
 151   2.0000      -0.712771       -19.3955
 152   2.0000      -0.698387       -19.0041
 153   2.0000      -0.696614       -18.9558
 154   2.0000      -0.691280       -18.8107
 155   2.0000      -0.679394       -18.4873
 156   2.0000      -0.678813       -18.4714
 157   2.0000      -0.678477       -18.4623
 158   2.0000      -0.676580       -18.4107
 159   2.0000      -0.672698       -18.3050
 160   2.0000      -0.663199       -18.0466
 161   2.0000      -0.656289       -17.8585
 162   2.0000      -0.648552       -17.6480
 163   2.0000      -0.640218       -17.4212
 164   2.0000      -0.635269       -17.2866
 165   2.0000      -0.629759       -17.1366
 166   2.0000      -0.620059       -16.8727
 167   2.0000      -0.616924       -16.7873
 168   2.0000      -0.615609       -16.7516
 169   2.0000      -0.607063       -16.5190
 170   2.0000      -0.605503       -16.4766
 171   2.0000      -0.601872       -16.3778
 172   2.0000      -0.592247       -16.1158
 173   2.0000      -0.591548       -16.0968
 174   2.0000      -0.585247       -15.9254
 175   2.0000      -0.583654       -15.8820
 176   2.0000      -0.576736       -15.6938
 177   2.0000      -0.573913       -15.6170
 178   2.0000      -0.566589       -15.4177
 179   2.0000      -0.561227       -15.2718
 180   2.0000      -0.559915       -15.2361
 181   2.0000      -0.557818       -15.1790
 182   2.0000      -0.555633       -15.1196
 183   2.0000      -0.553698       -15.0669
 184   2.0000      -0.553001       -15.0479
 185   2.0000      -0.550473       -14.9791
 186   2.0000      -0.548474       -14.9247
 187   2.0000      -0.543137       -14.7795
 188   2.0000      -0.540734       -14.7141
 189   2.0000      -0.537101       -14.6153
 190   2.0000      -0.534530       -14.5453
 191   2.0000      -0.533151       -14.5078
 192   2.0000      -0.531338       -14.4584
 193   2.0000      -0.527011       -14.3407
 194   2.0000      -0.526088       -14.3156
 195   2.0000      -0.525048       -14.2873
 196   2.0000      -0.523578       -14.2473
 197   2.0000      -0.522104       -14.2072
 198   2.0000      -0.518151       -14.0996
 199   2.0000      -0.516263       -14.0482
 200   2.0000      -0.515311       -14.0223
 201   2.0000      -0.512811       -13.9543
 202   2.0000      -0.511283       -13.9127
 203   2.0000      -0.508711       -13.8427
 204   2.0000      -0.507153       -13.8003
 205   2.0000      -0.506670       -13.7872
 206   2.0000      -0.505214       -13.7476
 207   2.0000      -0.502857       -13.6834
 208   2.0000      -0.500460       -13.6182
 209   2.0000      -0.498131       -13.5548
 210   2.0000      -0.497533       -13.5386
 211   2.0000      -0.491494       -13.3742
 212   2.0000      -0.489740       -13.3265
 213   2.0000      -0.488309       -13.2876
 214   2.0000      -0.486015       -13.2252
 215   2.0000      -0.485244       -13.2042
 216   2.0000      -0.484140       -13.1741
 217   2.0000      -0.481789       -13.1101
 218   2.0000      -0.477974       -13.0063
 219   2.0000      -0.475316       -12.9340
 220   2.0000      -0.472086       -12.8461
 221   2.0000      -0.469840       -12.7850
 222   2.0000      -0.466488       -12.6938
 223   2.0000      -0.463775       -12.6200
 224   2.0000      -0.462682       -12.5902
 225   2.0000      -0.460690       -12.5360
 226   2.0000      -0.458095       -12.4654
 227   2.0000      -0.456580       -12.4242
 228   2.0000      -0.456319       -12.4171
 229   2.0000      -0.453606       -12.3432
 230   2.0000      -0.452974       -12.3261
 231   2.0000      -0.449799       -12.2396
 232   2.0000      -0.449358       -12.2277
 233   2.0000      -0.447855       -12.1867
 234   2.0000      -0.447471       -12.1763
 235   2.0000      -0.446475       -12.1492
 236   2.0000      -0.444920       -12.1069
 237   2.0000      -0.443982       -12.0814
 238   2.0000      -0.441568       -12.0157
 239   2.0000      -0.437364       -11.9013
 240   2.0000      -0.436240       -11.8707
 241   2.0000      -0.435580       -11.8527
 242   2.0000      -0.434930       -11.8350
 243   2.0000      -0.433897       -11.8069
 244   2.0000      -0.431646       -11.7457
 245   2.0000      -0.430726       -11.7206
 246   2.0000      -0.429546       -11.6885
 247   2.0000      -0.427561       -11.6345
 248   2.0000      -0.420526       -11.4431
 249   2.0000      -0.418136       -11.3781
 250   2.0000      -0.416201       -11.3254
 251   2.0000      -0.415885       -11.3168
 252   2.0000      -0.408493       -11.1156
 253   2.0000      -0.405811       -11.0427
 254   2.0000      -0.404475       -11.0063
 255   2.0000      -0.402746       -10.9593
 256   2.0000      -0.397981       -10.8296
 257   2.0000      -0.383790       -10.4435
 258   2.0000      -0.378475       -10.2988
 259   2.0000      -0.373872       -10.1736
 260   2.0000      -0.368724       -10.0335
 261   2.0000      -0.362738        -9.8706
 262   2.0000      -0.360890        -9.8203
 263   2.0000      -0.348802        -9.4914
 264   2.0000      -0.347160        -9.4467
 265   2.0000      -0.346283        -9.4228
 266   2.0000      -0.345689        -9.4067
 267   2.0000      -0.343803        -9.3554
 268   2.0000      -0.339800        -9.2464
 269   2.0000      -0.335075        -9.1179
 270   2.0000      -0.331449        -9.0192
 271   2.0000      -0.329797        -8.9742
 272   2.0000      -0.320516        -8.7217
 273   2.0000      -0.316317        -8.6074
 274   2.0000      -0.316144        -8.6027
 275   2.0000      -0.296374        -8.0648
 276   2.0000      -0.291225        -7.9246
 277   2.0000      -0.246396        -6.7048
 278   0.0000      -0.144199        -3.9238
 279   0.0000      -0.110641        -3.0107
 280   0.0000      -0.089696        -2.4408
 281   0.0000      -0.080167        -2.1814
 282   0.0000      -0.058951        -1.6041

MULLIKEN ATOMIC CHARGES
-----------------------
   0 C :    0.031065
   1 C :   -0.129246
   2 S :    0.188758
   3 C :   -0.170873
   4 Cl:    0.002564
   5 C :    0.074972
   6 C :    0.153546
   7 O :   -0.134232
   8 C :   -0.083710
   9 C :    0.299166
  10 C :   -0.335034
  11 C :   -0.192661
  12 N :    0.156424
  13 C :   -0.188358
  14 N :    0.169255
  15 C :   -0.041341
  16 C :    0.086131
  17 C :   -0.085710
  18 C :    0.108717
  19 C :   -0.104917
  20 C :    0.023141
  21 C :   -0.175297
  22 N :    0.139260
  23 C :    0.137087
  24 C :   -0.108084
  25 C :    0.036085
  26 C :   -0.022711
  27 C :   -0.098603
  28 C :   -0.180972
  29 N :    0.154854
  30 C :    0.144966
  31 N :   -0.255993
  32 C :    0.097095
  33 C :   -0.011241
  34 C :    0.162091
  35 O :   -0.207996
  36 C :   -0.074804
  37 C :   -0.042449
  38 C :    0.152184
  39 O :   -0.165392
  40 N :   -0.253168
  41 C :    0.091102
  42 C :    0.004352
  43 C :    0.147037
  44 C :   -0.024521
  45 C :    0.070477
  46 C :   -0.153004
  47 S :    0.197384
  48 C :    0.022615
  49 C :    0.212945
  50 O :   -0.178365
  51 N :   -0.304287
  52 C :    0.130845
  53 C :   -0.006126
  54 C :    0.194018
  55 O :   -0.165095
  56 C :    0.014234
  57 C :   -0.117414
  58 C :    0.005320
  59 C :    0.024596
  60 C :    0.038589
  61 C :   -0.127703
  62 C :    0.122568
  63 O :   -0.127967
  64 C :    0.098889
  65 C :   -0.172237
  66 S :    0.185541
  67 C :   -0.123524
  68 C :    0.005517
  69 C :    0.271685
  70 C :   -0.314851
  71 C :   -0.174918
  72 N :    0.156352
  73 C :   -0.199483
  74 N :    0.174650
  75 Cl:    0.001081
  76 H :    0.055896
  77 H :    0.018271
  78 H :    0.024879
  79 H :    0.017742
  80 H :    0.026805
  81 H :   -0.007938
  82 H :    0.049842
  83 H :    0.025741
  84 H :    0.030204
  85 H :    0.031301
  86 H :    0.031298
  87 H :    0.046305
  88 H :    0.041957
  89 H :    0.039071
  90 H :    0.027868
  91 H :    0.014276
  92 H :   -0.004480
  93 H :    0.002314
  94 H :    0.033841
  95 H :    0.039824
  96 H :    0.026973
  97 H :    0.027482
  98 H :    0.025858
  99 H :    0.039600
 100 H :    0.011828
 101 H :    0.033658
 102 H :    0.054713
Sum of atomic charges:   -0.0000000

LOEWDIN ATOMIC CHARGES
----------------------
   0 C :   -0.059642
   1 C :   -0.148742
   2 S :    0.477444
   3 C :   -0.271159
   4 Cl:    0.193633
   5 C :   -0.117684
   6 C :    0.083442
   7 O :   -0.128799
   8 C :   -0.081587
   9 C :    0.072837
  10 C :   -0.132614
  11 C :   -0.013988
  12 N :   -0.049809
  13 C :   -0.028349
  14 N :   -0.037303
  15 C :    0.071812
  16 C :   -0.030731
  17 C :    0.026920
  18 C :    0.031139
  19 C :   -0.088272
  20 C :    0.065816
  21 C :   -0.030613
  22 N :   -0.055878
  23 C :    0.045549
  24 C :    0.005993
  25 C :   -0.026387
  26 C :    0.048919
  27 C :   -0.075013
  28 C :   -0.035291
  29 N :   -0.050218
  30 C :    0.064970
  31 N :   -0.000017
  32 C :    0.035413
  33 C :   -0.061236
  34 C :    0.079939
  35 O :   -0.199212
  36 C :   -0.120743
  37 C :   -0.091679
  38 C :    0.085229
  39 O :   -0.159790
  40 N :    0.007680
  41 C :    0.037817
  42 C :   -0.058545
  43 C :    0.088346
  44 C :   -0.022684
  45 C :    0.006078
  46 C :   -0.127680
  47 S :    0.487357
  48 C :   -0.086135
  49 C :    0.099080
  50 O :   -0.163725
  51 N :   -0.026862
  52 C :    0.044952
  53 C :   -0.058954
  54 C :    0.092889
  55 O :   -0.161522
  56 C :   -0.075463
  57 C :   -0.136542
  58 C :    0.015759
  59 C :   -0.029841
  60 C :    0.063618
  61 C :   -0.080199
  62 C :    0.080511
  63 O :   -0.131908
  64 C :   -0.119108
  65 C :   -0.272365
  66 S :    0.475507
  67 C :   -0.150171
  68 C :   -0.056664
  69 C :    0.064475
  70 C :   -0.129845
  71 C :   -0.013073
  72 N :   -0.047769
  73 C :   -0.014839
  74 N :   -0.040246
  75 Cl:    0.192784
  76 H :    0.037961
  77 H :    0.051799
  78 H :    0.041346
  79 H :    0.037323
  80 H :    0.039843
  81 H :    0.036307
  82 H :    0.039913
  83 H :    0.020186
  84 H :    0.033343
  85 H :    0.034776
  86 H :    0.024450
  87 H :    0.039186
  88 H :    0.030439
  89 H :    0.034709
  90 H :    0.033432
  91 H :    0.022184
  92 H :    0.033508
  93 H :    0.036859
  94 H :    0.033443
  95 H :    0.035899
  96 H :    0.027996
  97 H :    0.032577
  98 H :    0.028257
  99 H :    0.045910
 100 H :    0.033519
 101 H :    0.049759
 102 H :    0.038065

  Mayer bond orders larger than 0.100000
B(  0-C ,  1-C ) :   1.5470 B(  0-C ,  5-C ) :   1.2199 B(  0-C ,  9-C ) :   0.9935
B(  1-C ,  2-S ) :   1.1617 B(  1-C , 76-H ) :   0.9530 B(  2-S ,  3-C ) :   1.1517
B(  3-C ,  4-Cl) :   1.1302 B(  3-C ,  5-C ) :   1.4769 B(  5-C ,  6-C ) :   0.9573
B(  6-C ,  7-O ) :   2.2143 B(  6-C ,  8-C ) :   0.9206 B(  8-C ,  9-C ) :   1.0733
B(  8-C , 15-C ) :   1.5795 B(  9-C , 10-C ) :   1.6463 B( 10-C , 11-C ) :   1.1515
B( 10-C , 13-C ) :   1.1343 B( 11-C , 12-N ) :   2.9872 B( 13-C , 14-N ) :   2.9783
B( 15-C , 16-C ) :   1.1441 B( 15-C , 77-H ) :   0.9421 B( 16-C , 17-C ) :   1.4761
B( 16-C , 20-C ) :   1.0605 B( 17-C , 18-C ) :   1.1077 B( 17-C , 78-H ) :   1.0071
B( 18-C , 19-C ) :   1.1181 B( 18-C , 23-C ) :   1.3837 B( 19-C , 20-C ) :   1.6463
B( 19-C , 21-C ) :   1.0935 B( 20-C , 79-H ) :   1.0087 B( 21-C , 22-N ) :   2.9804
B( 23-C , 24-C ) :   1.1320 B( 23-C , 27-C ) :   1.0925 B( 24-C , 25-C ) :   1.5363
B( 24-C , 80-H ) :   0.9917 B( 25-C , 26-C ) :   1.0113 B( 25-C , 30-C ) :   1.0540
B( 26-C , 27-C ) :   1.6815 B( 26-C , 81-H ) :   1.0290 B( 27-C , 28-C ) :   1.0833
B( 28-C , 29-N ) :   2.9728 B( 30-C , 31-N ) :   1.1935 B( 30-C , 37-C ) :   1.3657
B( 31-N , 32-C ) :   0.9414 B( 31-N , 34-C ) :   1.0530 B( 32-C , 33-C ) :   1.1158
B( 32-C , 82-H ) :   0.9225 B( 32-C , 83-H ) :   0.9517 B( 33-C , 84-H ) :   0.9618
B( 33-C , 85-H ) :   0.9664 B( 33-C , 86-H ) :   0.9664 B( 34-C , 35-O ) :   2.0216
B( 34-C , 36-C ) :   0.9972 B( 35-O , 93-H ) :   0.1124 B( 36-C , 37-C ) :   1.2722
B( 36-C , 43-C ) :   1.2738 B( 37-C , 38-C ) :   0.9561 B( 38-C , 39-O ) :   2.1179
B( 38-C , 40-N ) :   1.0338 B( 40-N , 41-C ) :   0.9343 B( 40-N , 43-C ) :   1.1958
B( 41-C , 42-C ) :   1.1243 B( 41-C , 87-H ) :   0.9275 B( 41-C , 88-H ) :   0.9483
B( 42-C , 89-H ) :   0.9642 B( 42-C , 90-H ) :   0.9677 B( 42-C , 91-H ) :   0.9671
B( 43-C , 44-C ) :   1.1790 B( 44-C , 45-C ) :   1.5869 B( 44-C , 92-H ) :   0.9398
B( 45-C , 46-C ) :   1.1520 B( 45-C , 93-H ) :   0.9360 B( 46-C , 47-S ) :   1.1481
B( 46-C , 48-C ) :   1.4562 B( 47-S , 57-C ) :   1.1073 B( 48-C , 49-C ) :   0.8981
B( 48-C , 56-C ) :   1.2916 B( 49-C , 50-O ) :   2.0801 B( 49-C , 51-N ) :   1.0986
B( 50-O , 92-H ) :   0.1002 B( 51-N , 52-C ) :   0.9139 B( 51-N , 54-C ) :   1.0757
B( 52-C , 53-C ) :   1.1268 B( 52-C , 94-H ) :   0.9420 B( 52-C , 95-H ) :   0.9408
B( 53-C , 96-H ) :   0.9689 B( 53-C , 97-H ) :   0.9702 B( 53-C , 98-H ) :   0.9686
B( 54-C , 55-O ) :   2.1665 B( 54-C , 56-C ) :   0.8932 B( 56-C , 57-C ) :   1.4966
B( 57-C , 58-C ) :   1.2059 B( 58-C , 59-C ) :   1.6183 B( 58-C , 99-H ) :   0.9535
B( 59-C , 60-C ) :   1.1495 B( 59-C ,100-H ) :   0.9621 B( 60-C , 61-C ) :   1.6957
B( 60-C ,101-H ) :   0.9247 B( 61-C , 62-C ) :   0.9375 B( 61-C , 69-C ) :   1.0269
B( 62-C , 63-O ) :   2.2726 B( 62-C , 64-C ) :   0.9291 B( 64-C , 65-C ) :   1.4792
B( 64-C , 68-C ) :   1.2204 B( 65-C , 66-S ) :   1.1516 B( 65-C , 75-Cl) :   1.1306
B( 66-S , 67-C ) :   1.1592 B( 67-C , 68-C ) :   1.5550 B( 67-C ,102-H ) :   0.9549
B( 68-C , 69-C ) :   1.0097 B( 69-C , 70-C ) :   1.6665 B( 70-C , 71-C ) :   1.1256
B( 70-C , 73-C ) :   1.1750 B( 71-C , 72-N ) :   2.9993 B( 73-C , 74-N ) :   2.9779

-----------------------------------------------------------------------------
         ABSORPTION SPECTRUM VIA TRANSITION ELECTRIC DIPOLE MOMENTS
-----------------------------------------------------------------------------
State   Energy  Wavelength   fosc         T2         TX        TY        TZ
        (cm-1)    (nm)                  (au**2)     (au)      (au)      (au)
-----------------------------------------------------------------------------
   0    7493.0   1334.6   0.564311726  24.79344   2.42196  -4.33827   0.32708
   1   15763.6    634.4   0.071888200   1.50133  -0.38170   1.06334  -0.47429
   2   16176.2    618.2   0.437780293   8.90954  -1.82960   2.32817   0.37645
   3   19050.4    524.9   0.024442704   0.42240  -0.32413   0.32938   0.45699
   4   20175.9    495.6   0.202045322   3.29680   0.47417  -1.17124   1.30390
   5   21111.7    473.7   0.379782983   5.92227   1.40945  -1.97882   0.14133
   6   22321.8    448.0   0.174554182   2.57440  -0.48448   1.44396  -0.50464
   7   22764.3    439.3   0.000490256   0.00709  -0.01380  -0.03446  -0.07558
   8   23843.6    419.4   0.139155142   1.92134  -0.74142   1.14085  -0.26476
   9   24224.6    412.8   0.000796919   0.01083  -0.05016  -0.07953  -0.04460
  10   24415.4    409.6   0.185273987   2.49819   0.35478  -1.51071   0.30016
  11   24727.5    404.4   0.021233583   0.28270   0.09849   0.12214  -0.50801
  12   26271.4    380.6   0.220017621   2.75708  -0.50637   1.39313  -0.74824
  13   26556.1    376.6   0.033227639   0.41192   0.55814  -0.17763  -0.26238
  14   28283.8    353.6   0.050897185   0.59242  -0.16378   0.74152  -0.12547
  15   28294.3    353.4   0.446792844   5.19855  -0.82842   1.80227  -1.12433
  16   28750.2    347.8   0.124097137   1.42101  -0.92248   0.65154   0.38149
  17   28922.3    345.8   0.041601324   0.47353   0.47147   0.10973   0.48909
  18   28987.5    345.0   0.012136011   0.13783   0.11328  -0.23964   0.25994
  19   29279.6    341.5   0.019061890   0.21433  -0.30093   0.13243  -0.32593
  20   29656.9    337.2   0.208523470   2.31475  -0.49888   0.63149  -1.29116
  21   30483.8    328.0   0.058515618   0.63194  -0.51757   0.40394  -0.44822
  22   30697.6    325.8   0.018107252   0.19419   0.08979  -0.09790   0.42017
  23   30895.4    323.7   0.049193231   0.52419   0.04700   0.24768  -0.67870
  24   31615.5    316.3   0.047674409   0.49643  -0.65110   0.23151  -0.13752
  25   31737.3    315.1   0.074828877   0.77620   0.62447  -0.61806   0.06518
  26   32309.6    309.5   0.046165894   0.47040   0.56629  -0.35400  -0.15621
  27   32645.4    306.3   0.015260732   0.15390   0.19268  -0.23271   0.25024
  28   32801.3    304.9   0.054358153   0.54557  -0.47102   0.24479  -0.51360
  29   33408.5    299.3   0.153974881   1.51729   0.75878  -0.78487   0.57055
  30   33650.1    297.2   0.022198737   0.21718   0.09622   0.44346  -0.10614
  31   33694.3    296.8   0.011105542   0.10851  -0.18919   0.15361  -0.22163
  32   33762.8    296.2   0.005735213   0.05592   0.20853  -0.01373   0.11068
  33   33947.8    294.6   0.076310387   0.74003  -0.29673   0.63309  -0.50117
  34   34283.5    291.7   0.121448705   1.16623   0.01873  -0.44360   0.98443
  35   34334.2    291.3   0.004531270   0.04345   0.00207   0.20616   0.03072
  36   34544.6    289.5   0.110246826   1.05066   0.09403  -0.28841   0.97910
  37   34600.2    289.0   0.026982618   0.25673   0.49377  -0.08825  -0.07163
  38   35039.2    285.4   0.062311771   0.58545  -0.00164  -0.15806   0.74864
  39   35208.4    284.0   0.137129360   1.28221   0.70112  -0.76942   0.44569
  40   35294.0    283.3   0.272631733   2.54303   1.12434  -0.21422   1.11041
  41   35585.6    281.0   0.000952599   0.00881   0.05838  -0.06671   0.03089
  42   35693.2    280.2   0.038713626   0.35707   0.19118  -0.23071  -0.51701
  43   36056.7    277.3   0.079531267   0.72615  -0.63482   0.55025  -0.14275
  44   36322.7    275.3   0.033236585   0.30124   0.18766  -0.32521   0.40033
  45   36620.8    273.1   0.020255817   0.18209   0.19919  -0.14783  -0.34723
  46   36874.3    271.2   0.019602689   0.17501   0.33581  -0.19251   0.15869
  47   37066.0    269.8   0.013507396   0.11997   0.23969  -0.22279   0.11351
  48   37212.3    268.7   0.130947444   1.15847  -0.69545   0.76054  -0.31048
  49   37264.0    268.4   0.114844114   1.01460  -0.99696   0.04076   0.13784
  50   37534.0    266.4   0.022048042   0.19338   0.37153  -0.23116  -0.04371
  51   37985.5    263.3   0.009608980   0.08328  -0.17262   0.18449   0.13945
  52   38022.4    263.0   0.173412294   1.50147   0.70071  -0.98525   0.19942
  53   38075.6    262.6   0.135622110   1.17263  -0.95061   0.51708  -0.03989
  54   38272.9    261.3   0.002658128   0.02286  -0.02135  -0.10317   0.10846
  55   38406.5    260.4   0.365806832   3.13561  -0.30942  -0.12309   1.73917
  56   38682.7    258.5   0.036263962   0.30863  -0.49712   0.20622   0.13772
  57   38756.4    258.0   0.000663884   0.00564   0.06665   0.01068  -0.03291
  58   38906.6    257.0   0.063394131   0.53642   0.11212  -0.27346  -0.67012
  59   39111.4    255.7   0.036077304   0.30367   0.13001  -0.10796  -0.52451
  60   39267.5    254.7   0.149683523   1.25492   0.02448   0.20069  -1.10184
  61   39506.6    253.1   0.004181669   0.03485  -0.08480   0.10854   0.12599
  62   39622.4    252.4   0.047437687   0.39415  -0.34692   0.52279  -0.02205
  63   39934.3    250.4   0.025088086   0.20682   0.22488  -0.36804  -0.14422

FINAL SINGLE POINT ENERGY     -5204.626749638858

DIPOLE MOMENT
-------------
                                X             Y             Z
Electronic contribution:     -0.36571      12.65416       2.10084
Nuclear contribution   :      2.66476     -13.96662      -3.30805
                        -----------------------------------------
Total Dipole Moment    :      2.29905      -1.31245      -1.20721
                        -----------------------------------------
Magnitude (a.u.)       :      2.90956
Magnitude (Debye)      :      7.39551

Rotational constants in cm-1:     0.002322     0.000167     0.000159
Rotational constants in MHz :    69.609077     4.998851     4.766248

                             ****ORCA TERMINATED NORMALLY****
TOTAL RUN TIME: 0 days 0 hours 12 minutes 21 seconds 993 msec
