                         Program Version 4.2.0 -  RELEASE  -
|  1> # ORCA input file
|  2> # SCF done       -170.079513134389          0.000974913383
|  3> ! CAM-B3LYP def2-SVP def2/J RIJCOSX Grid4 TightSCF
|  4> %maxcore 5000
|  5> %tddft
|  6>     Mode sTDDFT
|  7>     Ethresh 5.0
|  8>     maxcore 5000
|  9> end
| 10>
| 11> %pal
| 12>   nprocs 6
| 13>   end
| 14> * xyz 0 1
| 15>    C        1.87810         1.63698        -2.70615
| 16>    C        1.06387         2.33647        -3.54200
| 17>    S       -0.50735         1.62572        -3.62074
| 18>    C       -0.06359         0.36302        -2.49833
| 19>   Cl       -1.16687        -0.84081        -2.04532
| 20>    C        1.23586         0.50201        -2.10963
| 21>    C        2.19579        -0.23350        -1.28053
| 22>    O        1.99079        -1.16915        -0.54449
| 23>    C        3.50771         0.44400        -1.53659
| 24>    C        3.26181         1.68484        -2.27843
| 25>    C        4.13552         2.69234        -2.55761
| 26>    C        3.73722         3.82210        -3.30729
| 27>    N        3.42169         4.75231        -3.89780
| 28>    C        5.47613         2.74974        -2.12263
| 29>    N        6.56751         2.84471        -1.78201
| 30>    C        4.71816        -0.08249        -1.26378
| 31>    C        5.02125        -1.41391        -0.74422
| 32>    C        5.90904        -1.47899         0.33895
| 33>    C        6.23138        -2.71084         0.85742
| 34>    C        5.71993        -3.88440         0.29755
| 35>    C        6.26343        -5.03597         1.06365
| 36>    O        6.07909        -6.21452         0.90325
| 37>    N        7.07122        -4.47535         2.04033
| 38>    C        7.10905        -3.08910         1.99615
| 39>    O        7.74112        -2.38738         2.74077
| 40>    C        7.77402        -5.25627         3.03728
| 41>    C        6.92707        -5.43997         4.29123
| 42>    C        4.87152        -3.84289        -0.78459
| 43>    C        4.51579        -2.59951        -1.31462
| 44>    C        3.57268        -2.53475        -2.43785
| 45>    C        3.74974        -1.64336        -3.48531
| 46>    C        2.72801        -1.38875        -4.39067
| 47>    N        2.97984        -0.32854        -5.32676
| 48>    O        3.76006         0.53473        -4.96347
| 49>    O        2.39982        -0.31880        -6.38979
| 50>    C        1.49005        -2.06158        -4.31281
| 51>    C        1.39025        -3.05273        -3.32485
| 52>    C        2.39106        -3.28158        -2.40922
| 53>    C        0.34610        -1.65639        -5.09297
| 54>    C       -0.83283        -2.30570        -5.15832
| 55>    C       -1.97922        -1.79864        -5.84309
| 56>    S       -3.42624        -2.74567        -5.89771
| 57>    C       -4.25750        -1.53297        -6.80955
| 58>    C       -5.64552        -1.75243        -7.12639
| 59>    O       -6.35487        -1.02560        -7.78649
| 60>    C       -3.43331        -0.42870        -7.04480
| 61>    C       -2.16186        -0.58488        -6.47077
| 62>    C       -3.81482         0.79180        -7.71640
| 63>    C       -4.53033         0.96580        -8.84183
| 64>    C       -5.08187         2.33214        -9.14537
| 65>    O       -4.74040         3.36727        -8.63077
| 66>    C       -6.13294         2.08034       -10.13291
| 67>    C       -7.10698         2.79753       -10.76295
| 68>    S       -8.02812         1.76831       -11.83281
| 69>    C       -7.08550         0.38379       -11.42260
| 70>    C       -6.12388         0.69676       -10.51365
| 71>    C       -5.04861         0.01852        -9.82212
| 72>    C       -4.52871        -1.19368       -10.17552
| 73>    C       -5.12007        -1.98041       -11.18742
| 74>    N       -5.59202        -2.63650       -12.00096
| 75>    C       -3.36385        -1.76270        -9.62591
| 76>    N       -2.40972        -2.26564        -9.23314
| 77>   Cl       -7.45522         4.44698       -10.60809
| 78>    H        1.27854         3.21094        -4.12381
| 79>    H        5.59620         0.52594        -1.44971
| 80>    H        6.30951        -0.57515         0.77216
| 81>    H        8.69822        -4.72534         3.27719
| 82>    H        8.00601        -6.22442         2.58752
| 83>    H        6.69001        -4.47336         4.72963
| 84>    H        7.47495        -6.02943         5.02063
| 85>    H        6.00117        -5.95622         4.04818
| 86>    H        4.50228        -4.75450        -1.22844
| 87>    H        4.68168        -1.10936        -3.60265
| 88>    H        0.47299        -3.61090        -3.23595
| 89>    H        2.23637        -3.99710        -1.61724
| 90>    H        0.44687        -0.74099        -5.65630
| 91>    H       -0.97074        -3.26783        -4.68654
| 92>    H       -6.03802        -2.69490        -6.69925
| 93>    H       -1.39591         0.16445        -6.55339
| 94>    H       -3.50016         1.70495        -7.21862
| 95>    H       -7.31525        -0.56319       -11.86897
| 96> *
| 97>
| 98>                          ****END OF INPUT****

CARTESIAN COORDINATES (ANGSTROEM)
---------------------------------
  C      1.878100    1.636980   -2.706150
  C      1.063870    2.336470   -3.542000
  S     -0.507350    1.625720   -3.620740
  C     -0.063590    0.363020   -2.498330
  Cl    -1.166870   -0.840810   -2.045320
  C      1.235860    0.502010   -2.109630
  C      2.195790   -0.233500   -1.280530
  O      1.990790   -1.169150   -0.544490
  C      3.507710    0.444000   -1.536590
  C      3.261810    1.684840   -2.278430
  C      4.135520    2.692340   -2.557610
  C      3.737220    3.822100   -3.307290
  N      3.421690    4.752310   -3.897800
  C      5.476130    2.749740   -2.122630
  N      6.567510    2.844710   -1.782010
  C      4.718160   -0.082490   -1.263780
  C      5.021250   -1.413910   -0.744220
  C      5.909040   -1.478990    0.338950
  C      6.231380   -2.710840    0.857420
  C      5.719930   -3.884400    0.297550
  C      6.263430   -5.035970    1.063650
  O      6.079090   -6.214520    0.903250
  N      7.071220   -4.475350    2.040330
  C      7.109050   -3.089100    1.996150
  O      7.741120   -2.387380    2.740770
  C      7.774020   -5.256270    3.037280
  C      6.927070   -5.439970    4.291230
  C      4.871520   -3.842890   -0.784590
  C      4.515790   -2.599510   -1.314620
  C      3.572680   -2.534750   -2.437850
  C      3.749740   -1.643360   -3.485310
  C      2.728010   -1.388750   -4.390670
  N      2.979840   -0.328540   -5.326760
  O      3.760060    0.534730   -4.963470
  O      2.399820   -0.318800   -6.389790
  C      1.490050   -2.061580   -4.312810
  C      1.390250   -3.052730   -3.324850
  C      2.391060   -3.281580   -2.409220
  C      0.346100   -1.656390   -5.092970
  C     -0.832830   -2.305700   -5.158320
  C     -1.979220   -1.798640   -5.843090
  S     -3.426240   -2.745670   -5.897710
  C     -4.257500   -1.532970   -6.809550
  C     -5.645520   -1.752430   -7.126390
  O     -6.354870   -1.025600   -7.786490
  C     -3.433310   -0.428700   -7.044800
  C     -2.161860   -0.584880   -6.470770
  C     -3.814820    0.791800   -7.716400
  C     -4.530330    0.965800   -8.841830
  C     -5.081870    2.332140   -9.145370
  O     -4.740400    3.367270   -8.630770
  C     -6.132940    2.080340  -10.132910
  C     -7.106980    2.797530  -10.762950
  S     -8.028120    1.768310  -11.832810
  C     -7.085500    0.383790  -11.422600
  C     -6.123880    0.696760  -10.513650
  C     -5.048610    0.018520   -9.822120
  C     -4.528710   -1.193680  -10.175520
  C     -5.120070   -1.980410  -11.187420
  N     -5.592020   -2.636500  -12.000960
  C     -3.363850   -1.762700   -9.625910
  N     -2.409720   -2.265640   -9.233140
  Cl    -7.455220    4.446980  -10.608090
  H      1.278540    3.210940   -4.123810
  H      5.596200    0.525940   -1.449710
  H      6.309510   -0.575150    0.772160
  H      8.698220   -4.725340    3.277190
  H      8.006010   -6.224420    2.587520
  H      6.690010   -4.473360    4.729630
  H      7.474950   -6.029430    5.020630
  H      6.001170   -5.956220    4.048180
  H      4.502280   -4.754500   -1.228440
  H      4.681680   -1.109360   -3.602650
  H      0.472990   -3.610900   -3.235950
  H      2.236370   -3.997100   -1.617240
  H      0.446870   -0.740990   -5.656300
  H     -0.970740   -3.267830   -4.686540
  H     -6.038020   -2.694900   -6.699250
  H     -1.395910    0.164450   -6.553390
  H     -3.500160    1.704950   -7.218620
  H     -7.315250   -0.563190  -11.868970

 Total Charge           Charge          ....    0
 Multiplicity           Mult            ....    1
 Number of Electrons    NEL             ....  468
 Basis Dimension        Dim             ....  992

ORBITAL ENERGIES
----------------

  NO   OCC          E(Eh)            E(eV)
   0   2.0000    -101.633264     -2765.5817
   1   2.0000    -101.617231     -2765.1454
   2   2.0000     -89.008354     -2422.0404
   3   2.0000     -88.993238     -2421.6291
   4   2.0000     -88.986431     -2421.4439
   5   2.0000     -19.264875      -524.2239
   6   2.0000     -19.262254      -524.1526
   7   2.0000     -19.238161      -523.4970
   8   2.0000     -19.227457      -523.2057
   9   2.0000     -19.222440      -523.0692
  10   2.0000     -19.220274      -523.0102
  11   2.0000     -19.219545      -522.9904
  12   2.0000     -14.668163      -399.1410
  13   2.0000     -14.460790      -393.4981
  14   2.0000     -14.429813      -392.6552
  15   2.0000     -14.426245      -392.5581
  16   2.0000     -14.420535      -392.4027
  17   2.0000     -14.419865      -392.3845
  18   2.0000     -10.400335      -283.0075
  19   2.0000     -10.399596      -282.9874
  20   2.0000     -10.392618      -282.7975
  21   2.0000     -10.389327      -282.7080
  22   2.0000     -10.378062      -282.4014
  23   2.0000     -10.376287      -282.3531
  24   2.0000     -10.376059      -282.3469
  25   2.0000     -10.358114      -281.8586
  26   2.0000     -10.357395      -281.8390
  27   2.0000     -10.349627      -281.6277
  28   2.0000     -10.349445      -281.6227
  29   2.0000     -10.347824      -281.5786
  30   2.0000     -10.341019      -281.3934
  31   2.0000     -10.335600      -281.2460
  32   2.0000     -10.335075      -281.2317
  33   2.0000     -10.331179      -281.1257
  34   2.0000     -10.330570      -281.1091
  35   2.0000     -10.327918      -281.0369
  36   2.0000     -10.327550      -281.0269
  37   2.0000     -10.325047      -280.9588
  38   2.0000     -10.325016      -280.9580
  39   2.0000     -10.323716      -280.9226
  40   2.0000     -10.322952      -280.9018
  41   2.0000     -10.322284      -280.8836
  42   2.0000     -10.322175      -280.8807
  43   2.0000     -10.322129      -280.8794
  44   2.0000     -10.321725      -280.8684
  45   2.0000     -10.320325      -280.8303
  46   2.0000     -10.316327      -280.7215
  47   2.0000     -10.315830      -280.7080
  48   2.0000     -10.314708      -280.6775
  49   2.0000     -10.313609      -280.6476
  50   2.0000     -10.312745      -280.6241
  51   2.0000     -10.311791      -280.5981
  52   2.0000     -10.311604      -280.5930
  53   2.0000     -10.311278      -280.5841
  54   2.0000     -10.311096      -280.5792
  55   2.0000     -10.309994      -280.5492
  56   2.0000     -10.309211      -280.5279
  57   2.0000     -10.307761      -280.4884
  58   2.0000     -10.307489      -280.4810
  59   2.0000     -10.305296      -280.4214
  60   2.0000     -10.300971      -280.3037
  61   2.0000     -10.300469      -280.2900
  62   2.0000     -10.263503      -279.2841
  63   2.0000      -9.587545      -260.8904
  64   2.0000      -9.572036      -260.4683
  65   2.0000      -8.103572      -220.5094
  66   2.0000      -8.088951      -220.1116
  67   2.0000      -8.082146      -219.9264
  68   2.0000      -7.358187      -200.2265
  69   2.0000      -7.347604      -199.9385
  70   2.0000      -7.347093      -199.9246
  71   2.0000      -7.342678      -199.8044
  72   2.0000      -7.332055      -199.5154
  73   2.0000      -7.331537      -199.5013
  74   2.0000      -6.072943      -165.2532
  75   2.0000      -6.068298      -165.1268
  76   2.0000      -6.065959      -165.0631
  77   2.0000      -6.058302      -164.8548
  78   2.0000      -6.053712      -164.7299
  79   2.0000      -6.051253      -164.6630
  80   2.0000      -6.051111      -164.6591
  81   2.0000      -6.047169      -164.5518
  82   2.0000      -6.044678      -164.4840
  83   2.0000      -1.343347       -36.5543
  84   2.0000      -1.166138       -31.7322
  85   2.0000      -1.161754       -31.6129
  86   2.0000      -1.155104       -31.4320
  87   2.0000      -1.142836       -31.0982
  88   2.0000      -1.140510       -31.0349
  89   2.0000      -1.139384       -31.0042
  90   2.0000      -1.057137       -28.7662
  91   2.0000      -1.051398       -28.6100
  92   2.0000      -1.037984       -28.2450
  93   2.0000      -1.026407       -27.9299
  94   2.0000      -1.020375       -27.7658
  95   2.0000      -1.015136       -27.6233
  96   2.0000      -1.012761       -27.5586
  97   2.0000      -1.006594       -27.3908
  98   2.0000      -1.000727       -27.2312
  99   2.0000      -0.998219       -27.1629
 100   2.0000      -0.993402       -27.0318
 101   2.0000      -0.988097       -26.8875
 102   2.0000      -0.967084       -26.3157
 103   2.0000      -0.954811       -25.9817
 104   2.0000      -0.941367       -25.6159
 105   2.0000      -0.928294       -25.2602
 106   2.0000      -0.925052       -25.1720
 107   2.0000      -0.913857       -24.8673
 108   2.0000      -0.912242       -24.8234
 109   2.0000      -0.900977       -24.5168
 110   2.0000      -0.892959       -24.2986
 111   2.0000      -0.881918       -23.9982
 112   2.0000      -0.868553       -23.6345
 113   2.0000      -0.853947       -23.2371
 114   2.0000      -0.845953       -23.0195
 115   2.0000      -0.844264       -22.9736
 116   2.0000      -0.833231       -22.6734
 117   2.0000      -0.831235       -22.6191
 118   2.0000      -0.807538       -21.9742
 119   2.0000      -0.800238       -21.7756
 120   2.0000      -0.784901       -21.3582
 121   2.0000      -0.777706       -21.1625
 122   2.0000      -0.766595       -20.8601
 123   2.0000      -0.758559       -20.6414
 124   2.0000      -0.755649       -20.5623
 125   2.0000      -0.749786       -20.4027
 126   2.0000      -0.733537       -19.9606
 127   2.0000      -0.721644       -19.6369
 128   2.0000      -0.715131       -19.4597
 129   2.0000      -0.708544       -19.2805
 130   2.0000      -0.698902       -19.0181
 131   2.0000      -0.695530       -18.9263
 132   2.0000      -0.688224       -18.7275
 133   2.0000      -0.687722       -18.7139
 134   2.0000      -0.679085       -18.4788
 135   2.0000      -0.676012       -18.3952
 136   2.0000      -0.675085       -18.3700
 137   2.0000      -0.658740       -17.9252
 138   2.0000      -0.654381       -17.8066
 139   2.0000      -0.644100       -17.5269
 140   2.0000      -0.639726       -17.4078
 141   2.0000      -0.630018       -17.1437
 142   2.0000      -0.623662       -16.9707
 143   2.0000      -0.621206       -16.9039
 144   2.0000      -0.618445       -16.8288
 145   2.0000      -0.614108       -16.7107
 146   2.0000      -0.613490       -16.6939
 147   2.0000      -0.606142       -16.4940
 148   2.0000      -0.603325       -16.4173
 149   2.0000      -0.600210       -16.3326
 150   2.0000      -0.592060       -16.1108
 151   2.0000      -0.582626       -15.8540
 152   2.0000      -0.578749       -15.7486
 153   2.0000      -0.575990       -15.6735
 154   2.0000      -0.570911       -15.5353
 155   2.0000      -0.563763       -15.3408
 156   2.0000      -0.560460       -15.2509
 157   2.0000      -0.556534       -15.1441
 158   2.0000      -0.551447       -15.0056
 159   2.0000      -0.550970       -14.9926
 160   2.0000      -0.549131       -14.9426
 161   2.0000      -0.546597       -14.8737
 162   2.0000      -0.545091       -14.8327
 163   2.0000      -0.540639       -14.7115
 164   2.0000      -0.537399       -14.6234
 165   2.0000      -0.535762       -14.5788
 166   2.0000      -0.534305       -14.5392
 167   2.0000      -0.533316       -14.5123
 168   2.0000      -0.531177       -14.4541
 169   2.0000      -0.526109       -14.3162
 170   2.0000      -0.523870       -14.2552
 171   2.0000      -0.519085       -14.1250
 172   2.0000      -0.515991       -14.0408
 173   2.0000      -0.514681       -14.0052
 174   2.0000      -0.512460       -13.9447
 175   2.0000      -0.509686       -13.8693
 176   2.0000      -0.507288       -13.8040
 177   2.0000      -0.504282       -13.7222
 178   2.0000      -0.501984       -13.6597
 179   2.0000      -0.496812       -13.5190
 180   2.0000      -0.493298       -13.4233
 181   2.0000      -0.492088       -13.3904
 182   2.0000      -0.488972       -13.3056
 183   2.0000      -0.486175       -13.2295
 184   2.0000      -0.485354       -13.2072
 185   2.0000      -0.481039       -13.0897
 186   2.0000      -0.476531       -12.9671
 187   2.0000      -0.472245       -12.8504
 188   2.0000      -0.467543       -12.7225
 189   2.0000      -0.466067       -12.6823
 190   2.0000      -0.464482       -12.6392
 191   2.0000      -0.459827       -12.5125
 192   2.0000      -0.457923       -12.4607
 193   2.0000      -0.457179       -12.4405
 194   2.0000      -0.456276       -12.4159
 195   2.0000      -0.454747       -12.3743
 196   2.0000      -0.454226       -12.3601
 197   2.0000      -0.453878       -12.3506
 198   2.0000      -0.448545       -12.2055
 199   2.0000      -0.444266       -12.0891
 200   2.0000      -0.442526       -12.0417
 201   2.0000      -0.441398       -12.0111
 202   2.0000      -0.438781       -11.9398
 203   2.0000      -0.435544       -11.8517
 204   2.0000      -0.432330       -11.7643
 205   2.0000      -0.431272       -11.7355
 206   2.0000      -0.426898       -11.6165
 207   2.0000      -0.425945       -11.5906
 208   2.0000      -0.424393       -11.5483
 209   2.0000      -0.417650       -11.3648
 210   2.0000      -0.414053       -11.2670
 211   2.0000      -0.409453       -11.1418
 212   2.0000      -0.403435       -10.9780
 213   2.0000      -0.401469       -10.9245
 214   2.0000      -0.400459       -10.8970
 215   2.0000      -0.391040       -10.6408
 216   2.0000      -0.383376       -10.4322
 217   2.0000      -0.377431       -10.2704
 218   2.0000      -0.373614       -10.1666
 219   2.0000      -0.372097       -10.1253
 220   2.0000      -0.365259        -9.9392
 221   2.0000      -0.358017        -9.7421
 222   2.0000      -0.352987        -9.6053
 223   2.0000      -0.352631        -9.5956
 224   2.0000      -0.352232        -9.5847
 225   2.0000      -0.350487        -9.5372
 226   2.0000      -0.343287        -9.3413
 227   2.0000      -0.337109        -9.1732
 228   2.0000      -0.333918        -9.0864
 229   2.0000      -0.330551        -8.9947
 230   2.0000      -0.325701        -8.8628
 231   2.0000      -0.315236        -8.5780
 232   2.0000      -0.307768        -8.3748
 233   2.0000      -0.288184        -7.8419
 234   0.0000      -0.105636        -2.8745
 235   0.0000      -0.098011        -2.6670
 236   0.0000      -0.081667        -2.2223
 237   0.0000      -0.068378        -1.8606
 238   0.0000      -0.055496        -1.5101

MULLIKEN ATOMIC CHARGES
-----------------------
   0 C :    0.016330
   1 C :   -0.127910
   2 S :    0.188298
   3 C :   -0.192767
   4 Cl:   -0.000019
   5 C :    0.105112
   6 C :    0.155307
   7 O :   -0.121574
   8 C :   -0.070021
   9 C :    0.323693
  10 C :   -0.304767
  11 C :   -0.191668
  12 N :    0.164272
  13 C :   -0.198393
  14 N :    0.169896
  15 C :   -0.102762
  16 C :    0.062490
  17 C :   -0.076280
  18 C :    0.015792
  19 C :    0.013519
  20 C :    0.191614
  21 O :   -0.152017
  22 N :   -0.302274
  23 C :    0.190850
  24 O :   -0.146907
  25 C :    0.133401
  26 C :   -0.012025
  27 C :   -0.090366
  28 C :    0.135319
  29 C :   -0.016661
  30 C :    0.012007
  31 C :    0.058906
  32 N :    0.251288
  33 O :   -0.240979
  34 O :   -0.218255
  35 C :    0.122283
  36 C :   -0.063147
  37 C :    0.081397
  38 C :   -0.026289
  39 C :    0.090271
  40 C :   -0.052960
  41 S :    0.172217
  42 C :   -0.186063
  43 C :    0.200072
  44 O :   -0.195635
  45 C :    0.095802
  46 C :   -0.017854
  47 C :   -0.006408
  48 C :   -0.100918
  49 C :    0.125818
  50 O :   -0.123788
  51 C :    0.096313
  52 C :   -0.172331
  53 S :    0.186930
  54 C :   -0.118350
  55 C :    0.016015
  56 C :    0.319708
  57 C :   -0.330011
  58 C :   -0.193180
  59 N :    0.159894
  60 C :   -0.198821
  61 N :    0.179566
  62 Cl:    0.000031
  63 H :    0.061229
  64 H :    0.049227
  65 H :    0.006097
  66 H :    0.033748
  67 H :    0.033229
  68 H :    0.029902
  69 H :    0.025665
  70 H :    0.026655
  71 H :   -0.003453
  72 H :    0.011430
  73 H :   -0.014246
  74 H :   -0.001401
  75 H :    0.006657
  76 H :   -0.013023
  77 H :   -0.010790
  78 H :   -0.005847
  79 H :    0.029404
  80 H :    0.052509
Sum of atomic charges:   -0.0000000

LOEWDIN ATOMIC CHARGES
----------------------
   0 C :   -0.058720
   1 C :   -0.145076
   2 S :    0.484034
   3 C :   -0.275093
   4 Cl:    0.199374
   5 C :   -0.116220
   6 C :    0.081555
   7 O :   -0.119016
   8 C :   -0.062899
   9 C :    0.074457
  10 C :   -0.117081
  11 C :   -0.012873
  12 N :   -0.040711
  13 C :   -0.020613
  14 N :   -0.038224
  15 C :    0.070602
  16 C :   -0.010839
  17 C :    0.030159
  18 C :   -0.046431
  19 C :   -0.039623
  20 C :    0.087590
  21 O :   -0.153666
  22 N :   -0.034307
  23 C :    0.088444
  24 O :   -0.149828
  25 C :    0.045255
  26 C :   -0.059492
  27 C :    0.018206
  28 C :    0.013504
  29 C :   -0.026230
  30 C :    0.009677
  31 C :   -0.036381
  32 N :    0.288521
  33 O :   -0.205380
  34 O :   -0.182377
  35 C :   -0.003253
  36 C :   -0.005525
  37 C :    0.026238
  38 C :   -0.012525
  39 C :   -0.025774
  40 C :   -0.141445
  41 S :    0.488197
  42 C :   -0.230565
  43 C :    0.084292
  44 O :   -0.140626
  45 C :   -0.029143
  46 C :   -0.034878
  47 C :    0.058775
  48 C :   -0.055865
  49 C :    0.084472
  50 O :   -0.128206
  51 C :   -0.116120
  52 C :   -0.272369
  53 S :    0.479228
  54 C :   -0.147064
  55 C :   -0.049027
  56 C :    0.081484
  57 C :   -0.129830
  58 C :   -0.014854
  59 N :   -0.048604
  60 C :   -0.021067
  61 N :   -0.046735
  62 Cl:    0.192589
  63 H :    0.041461
  64 H :    0.051285
  65 H :    0.045498
  66 H :    0.033307
  67 H :    0.033003
  68 H :    0.028990
  69 H :    0.031590
  70 H :    0.028089
  71 H :    0.041273
  72 H :    0.040327
  73 H :    0.032600
  74 H :    0.039474
  75 H :    0.024747
  76 H :    0.026899
  77 H :   -0.001010
  78 H :    0.032461
  79 H :    0.049646
  80 H :    0.038266

  Mayer bond orders larger than 0.100000
B(  0-C ,  1-C ) :   1.5424 B(  0-C ,  5-C ) :   1.2213 B(  0-C ,  9-C ) :   0.9919
B(  1-C ,  2-S ) :   1.1626 B(  1-C , 63-H ) :   0.9550 B(  2-S ,  3-C ) :   1.1566
B(  3-C ,  4-Cl) :   1.1175 B(  3-C ,  5-C ) :   1.4625 B(  5-C ,  6-C ) :   0.9371
B(  6-C ,  7-O ) :   2.2425 B(  6-C ,  8-C ) :   0.9217 B(  8-C ,  9-C ) :   1.0230
B(  8-C , 15-C ) :   1.7648 B(  9-C , 10-C ) :   1.6989 B( 10-C , 11-C ) :   1.1362
B( 10-C , 13-C ) :   1.1424 B( 11-C , 12-N ) :   2.9960 B( 13-C , 14-N ) :   2.9806
B( 15-C , 16-C ) :   0.9969 B( 15-C , 64-H ) :   0.9343 B( 16-C , 17-C ) :   1.3126
B( 16-C , 28-C ) :   1.4022 B( 17-C , 18-C ) :   1.3885 B( 17-C , 65-H ) :   1.0156
B( 18-C , 19-C ) :   1.3652 B( 18-C , 23-C ) :   0.8717 B( 19-C , 20-C ) :   0.8698
B( 19-C , 27-C ) :   1.3804 B( 20-C , 21-O ) :   2.2333 B( 20-C , 22-N ) :   1.0687
B( 22-N , 23-C ) :   1.0627 B( 22-N , 25-C ) :   0.9146 B( 23-C , 24-O ) :   2.2386
B( 25-C , 26-C ) :   1.1248 B( 25-C , 66-H ) :   0.9428 B( 25-C , 67-H ) :   0.9422
B( 26-C , 68-H ) :   0.9695 B( 26-C , 69-H ) :   0.9704 B( 26-C , 70-H ) :   0.9695
B( 27-C , 28-C ) :   1.3321 B( 27-C , 71-H ) :   1.0122 B( 28-C , 29-C ) :   0.9606
B( 29-C , 30-C ) :   1.3455 B( 29-C , 37-C ) :   1.3542 B( 30-C , 31-C ) :   1.3767
B( 30-C , 72-H ) :   0.9780 B( 31-C , 32-N ) :   0.8887 B( 31-C , 35-C ) :   1.3440
B( 32-N , 33-O ) :   1.5300 B( 32-N , 34-O ) :   1.5185 B( 33-O , 34-O ) :   0.2592
B( 35-C , 36-C ) :   1.3285 B( 35-C , 38-C ) :   1.0849 B( 36-C , 37-C ) :   1.4044
B( 36-C , 73-H ) :   0.9878 B( 37-C , 74-H ) :   0.9881 B( 38-C , 39-C ) :   1.7279
B( 38-C , 75-H ) :   0.9579 B( 39-C , 40-C ) :   1.0974 B( 39-C , 76-H ) :   0.9588
B( 40-C , 41-S ) :   1.1625 B( 40-C , 46-C ) :   1.4675 B( 41-S , 42-C ) :   1.1158
B( 42-C , 43-C ) :   1.0360 B( 42-C , 45-C ) :   1.4281 B( 43-C , 44-O ) :   2.0942
B( 43-C , 77-H ) :   0.9554 B( 45-C , 46-C ) :   1.2956 B( 45-C , 47-C ) :   1.0050
B( 46-C , 78-H ) :   0.9992 B( 47-C , 48-C ) :   1.8143 B( 47-C , 79-H ) :   0.9374
B( 48-C , 49-C ) :   0.9261 B( 48-C , 56-C ) :   0.9871 B( 49-C , 50-O ) :   2.2855
B( 49-C , 51-C ) :   0.9287 B( 51-C , 52-C ) :   1.4749 B( 51-C , 55-C ) :   1.2236
B( 52-C , 53-S ) :   1.1564 B( 52-C , 62-Cl) :   1.1288 B( 53-S , 54-C ) :   1.1588
B( 54-C , 55-C ) :   1.5511 B( 54-C , 80-H ) :   0.9559 B( 55-C , 56-C ) :   1.0193
B( 56-C , 57-C ) :   1.6894 B( 57-C , 58-C ) :   1.1323 B( 57-C , 60-C ) :   1.1648
B( 58-C , 59-N ) :   3.0062 B( 60-C , 61-N ) :   3.0135

-----------------------------------------------------------------------------
         ABSORPTION SPECTRUM VIA TRANSITION ELECTRIC DIPOLE MOMENTS
-----------------------------------------------------------------------------
State   Energy  Wavelength   fosc         T2         TX        TY        TZ
        (cm-1)    (nm)                  (au**2)     (au)      (au)      (au)
-----------------------------------------------------------------------------
   0   22522.7    444.0   0.075170833   1.09877   0.58058   0.69687   0.52541
   1   24393.0    410.0   0.072425419   0.97746   0.94903   0.27289  -0.04831
   2   26480.3    377.6   0.664161168   8.25707  -2.45095   0.05317  -1.49903
   3   27017.9    370.1   0.007660103   0.09334   0.27719   0.12460   0.03124
   4   27345.2    365.7   0.072111185   0.86815  -0.77529   0.21262   0.47103
   5   27635.0    361.9   0.098919483   1.17841  -0.55373   0.82044  -0.44572
   6   28990.9    344.9   0.026764100   0.30393   0.05810   0.54610  -0.04822
   7   29457.5    339.5   0.046725648   0.52220  -0.33422   0.46865  -0.43688
   8   29920.2    334.2   0.293821552   3.23292   1.12582  -0.74645   1.18670
   9   30790.4    324.8   0.112435059   1.20216  -0.44301   0.11608  -0.99621
  10   30944.7    323.2   0.035646180   0.37923   0.18723  -0.56408   0.16121
  11   32002.1    312.5   0.063403634   0.65225   0.68304   0.42706  -0.05769
  12   32259.3    310.0   0.258216841   2.63515  -1.34978   0.07182  -0.89894
  13   32827.4    304.6   0.152557428   1.52993  -1.04302   0.41960  -0.51573
  14   33292.8    300.4   0.013904086   0.13749  -0.33286  -0.08011   0.14240
  15   33598.8    297.6   0.062473423   0.61213  -0.42590  -0.04833  -0.65453
  16   33817.8    295.7   0.025575685   0.24898  -0.19735   0.43624  -0.14044
  17   33851.9    295.4   0.192464970   1.87173   0.95048  -0.68583   0.70566
  18   34461.5    290.2   0.313030706   2.99039  -1.20321   0.83471  -0.91975
  19   34941.7    286.2   0.231204612   2.17835  -1.35242  -0.58897  -0.04922
  20   35187.6    284.2   0.001240419   0.01161   0.07210  -0.00551   0.07985
  21   35283.1    283.4   0.157238023   1.46712   1.08221  -0.34668   0.41924
  22   35592.6    281.0   0.047831947   0.44242   0.38562   0.37351   0.39269
  23   35695.3    280.1   0.053878733   0.49692  -0.65254   0.11637  -0.23993
  24   35835.1    279.1   0.034384415   0.31588   0.18166   0.47287  -0.24347
  25   36079.7    277.2   0.018705214   0.17068  -0.00562   0.04578  -0.41055
  26   36403.3    274.7   0.118863400   1.07494   0.94087   0.38467   0.20430
  27   36995.9    270.3   0.090186899   0.80254  -0.65837   0.42492  -0.43419
  28   37128.9    269.3   0.116686674   1.03463  -0.37056   0.82813  -0.45991
  29   37295.2    268.1   0.143364315   1.26550  -0.59140  -0.87724   0.38236
  30   37708.2    265.2   0.018708785   0.16334   0.38511  -0.10701  -0.05977
  31   37827.1    264.4   0.638507050   5.55697  -1.28976   1.93367  -0.39293
  32   37881.5    264.0   0.023472219   0.20399   0.43638   0.11630   0.00560
  33   38469.5    259.9   0.009494947   0.08126  -0.25544  -0.12245   0.03182
  34   38611.1    259.0   0.169260260   1.44317   0.90766   0.77056   0.15986
  35   38827.7    257.5   0.043189944   0.36620   0.27342  -0.48495   0.23721
  36   39230.2    254.9   0.021461759   0.18010  -0.39181   0.16063  -0.02795
  37   39438.1    253.6   0.014270523   0.11912   0.24640  -0.16942   0.17236
  38   39838.8    251.0   0.038753527   0.32024   0.07627  -0.51282   0.22681
  39   40115.6    249.3   0.071696388   0.58838  -0.69610  -0.15222  -0.28399

FINAL SINGLE POINT ENERGY     -4691.636165576504

DIPOLE MOMENT
-------------
                                X             Y             Z
Electronic contribution:    -53.26134      36.44324     -46.47962
Nuclear contribution   :     51.59671     -37.80619      47.81072
                        -----------------------------------------
Total Dipole Moment    :     -1.66463      -1.36295       1.33111
                        -----------------------------------------
Magnitude (a.u.)       :      2.52992
Magnitude (Debye)      :      6.43053

Rotational constants in cm-1:     0.002764     0.000429     0.000396
Rotational constants in MHz :    82.871244    12.855991    11.863275

                             ****ORCA TERMINATED NORMALLY****
TOTAL RUN TIME: 0 days 0 hours 10 minutes 23 seconds 72 msec
