                         Program Version 4.2.0 -  RELEASE  -
|  1> # ORCA input file
|  2> # SCF done       -163.770472984091          0.000675725059
|  3> ! CAM-B3LYP def2-SVP def2/J RIJCOSX Grid4 TightSCF
|  4> %maxcore 5000
|  5> %tddft
|  6>     Mode sTDDFT
|  7>     Ethresh 5.0
|  8>     maxcore 5000
|  9> end
| 10>
| 11> %pal
| 12>   nprocs 6
| 13>   end
| 14> * xyz 0 1
| 15>    C        4.66652         3.00192        -0.02631
| 16>    C        4.19308         4.25264        -0.27851
| 17>    S        3.95401         4.49940        -1.96889
| 18>    C        4.50093         2.88375        -2.34939
| 19>   Cl        4.55692         2.32377        -3.94646
| 20>    C        4.84221         2.21552        -1.21053
| 21>    C        5.34695         0.88328        -0.86493
| 22>    O        5.61294        -0.02354        -1.61798
| 23>    C        5.52643         0.92436         0.62504
| 24>    C        5.04679         2.21131         1.12440
| 25>    C        4.90216         2.60157         2.42660
| 26>    C        4.39843         3.87863         2.75696
| 27>    N        3.99314         4.91393         3.03802
| 28>    C        5.19031         1.80890         3.55686
| 29>    N        5.38764         1.20669         4.51375
| 30>    C        6.20789         0.01152         1.35711
| 31>    C        6.65134        -1.29468         0.92809
| 32>    C        7.87920        -1.77477         1.37980
| 33>    C        8.35684        -3.01083         0.97803
| 34>    N        9.68106        -3.35745         1.43065
| 35>    O       10.08082        -2.81243         2.43723
| 36>    O       10.32735        -4.15283         0.77972
| 37>    C        7.59314        -3.86258         0.14975
| 38>    C        6.33441        -3.37967        -0.24494
| 39>    C        5.87805        -2.13528         0.11482
| 40>    C        8.02269        -5.18972        -0.20137
| 41>    C        7.55537        -5.89788        -1.25457
| 42>    C        7.96678        -7.21712        -1.57337
| 43>    S        7.27415        -8.03341        -2.94733
| 44>    C        8.17667        -9.49766        -2.68091
| 45>    C        9.01226        -9.34258        -1.56770
| 46>    C        8.87725        -8.06283        -0.95848
| 47>    S        9.90934        -7.87119         0.41696
| 48>    C       10.53109        -9.49275         0.16514
| 49>    C       11.50819       -10.01092         1.02207
| 50>    N       12.30648       -10.44679         1.72079
| 51>    C        9.97403       -10.13810        -0.90211
| 52>    C        7.94113       -10.58679        -3.54820
| 53>    C        8.44334       -11.84178        -3.43024
| 54>    C        8.10393       -12.86709        -4.34899
| 55>    S        8.68144       -14.51870        -4.16601
| 56>    C        7.74711       -14.86508        -5.61947
| 57>    N        7.14315       -13.80540        -6.08283
| 58>    N        7.33544       -12.72263        -5.39764
| 59>    C        7.67309       -16.16539        -6.18340
| 60>    C        6.85062       -16.45581        -7.21978
| 61>    C        6.77005       -17.74606        -7.79946
| 62>    C        5.83652       -18.18291        -8.68706
| 63>    C        6.10407       -19.40507        -9.50925
| 64>    O        6.96938       -20.22429        -9.31783
| 65>    C        5.12335       -19.32763       -10.59917
| 66>    C        4.83219       -20.02146       -11.73555
| 67>    S        3.47469       -19.29702       -12.56515
| 68>    C        3.30908       -18.07198       -11.35973
| 69>    C        4.24740       -18.21123       -10.38642
| 70>    C        4.59733       -17.57214        -9.13107
| 71>    C        3.78334       -16.72088        -8.43244
| 72>    C        2.58419       -16.23405        -8.99451
| 73>    N        1.61661       -15.81889        -9.45002
| 74>    C        3.96972       -16.35592        -7.08269
| 75>    N        4.03534       -16.09198        -5.96803
| 76>   Cl        5.60625       -21.39828       -12.34704
| 77>    H        3.97316         5.04751         0.40629
| 78>    H        6.49891         0.27922         2.36625
| 79>    H        8.50190        -1.16741         2.02115
| 80>    H        5.69448        -4.01906        -0.83118
| 81>    H        4.89721        -1.81904        -0.19910
| 82>    H        8.79150        -5.63358         0.41333
| 83>    H        6.84140        -5.46264        -1.93982
| 84>    H       10.26670       -11.13202        -1.18412
| 85>    H        7.26900       -10.39974        -4.37523
| 86>    H        9.09790       -12.12141        -2.62127
| 87>    H        8.27212       -16.93660        -5.71964
| 88>    H        6.25115       -15.65524        -7.62836
| 89>    H        7.56846       -18.44609        -7.57602
| 90>    H        2.53852       -17.33368       -11.46087
| 91> *
| 92>
| 93>                          ****END OF INPUT****

CARTESIAN COORDINATES (ANGSTROEM)
---------------------------------
  C      4.666520    3.001920   -0.026310
  C      4.193080    4.252640   -0.278510
  S      3.954010    4.499400   -1.968890
  C      4.500930    2.883750   -2.349390
  Cl     4.556920    2.323770   -3.946460
  C      4.842210    2.215520   -1.210530
  C      5.346950    0.883280   -0.864930
  O      5.612940   -0.023540   -1.617980
  C      5.526430    0.924360    0.625040
  C      5.046790    2.211310    1.124400
  C      4.902160    2.601570    2.426600
  C      4.398430    3.878630    2.756960
  N      3.993140    4.913930    3.038020
  C      5.190310    1.808900    3.556860
  N      5.387640    1.206690    4.513750
  C      6.207890    0.011520    1.357110
  C      6.651340   -1.294680    0.928090
  C      7.879200   -1.774770    1.379800
  C      8.356840   -3.010830    0.978030
  N      9.681060   -3.357450    1.430650
  O     10.080820   -2.812430    2.437230
  O     10.327350   -4.152830    0.779720
  C      7.593140   -3.862580    0.149750
  C      6.334410   -3.379670   -0.244940
  C      5.878050   -2.135280    0.114820
  C      8.022690   -5.189720   -0.201370
  C      7.555370   -5.897880   -1.254570
  C      7.966780   -7.217120   -1.573370
  S      7.274150   -8.033410   -2.947330
  C      8.176670   -9.497660   -2.680910
  C      9.012260   -9.342580   -1.567700
  C      8.877250   -8.062830   -0.958480
  S      9.909340   -7.871190    0.416960
  C     10.531090   -9.492750    0.165140
  C     11.508190  -10.010920    1.022070
  N     12.306480  -10.446790    1.720790
  C      9.974030  -10.138100   -0.902110
  C      7.941130  -10.586790   -3.548200
  C      8.443340  -11.841780   -3.430240
  C      8.103930  -12.867090   -4.348990
  S      8.681440  -14.518700   -4.166010
  C      7.747110  -14.865080   -5.619470
  N      7.143150  -13.805400   -6.082830
  N      7.335440  -12.722630   -5.397640
  C      7.673090  -16.165390   -6.183400
  C      6.850620  -16.455810   -7.219780
  C      6.770050  -17.746060   -7.799460
  C      5.836520  -18.182910   -8.687060
  C      6.104070  -19.405070   -9.509250
  O      6.969380  -20.224290   -9.317830
  C      5.123350  -19.327630  -10.599170
  C      4.832190  -20.021460  -11.735550
  S      3.474690  -19.297020  -12.565150
  C      3.309080  -18.071980  -11.359730
  C      4.247400  -18.211230  -10.386420
  C      4.597330  -17.572140   -9.131070
  C      3.783340  -16.720880   -8.432440
  C      2.584190  -16.234050   -8.994510
  N      1.616610  -15.818890   -9.450020
  C      3.969720  -16.355920   -7.082690
  N      4.035340  -16.091980   -5.968030
  Cl     5.606250  -21.398280  -12.347040
  H      3.973160    5.047510    0.406290
  H      6.498910    0.279220    2.366250
  H      8.501900   -1.167410    2.021150
  H      5.694480   -4.019060   -0.831180
  H      4.897210   -1.819040   -0.199100
  H      8.791500   -5.633580    0.413330
  H      6.841400   -5.462640   -1.939820
  H     10.266700  -11.132020   -1.184120
  H      7.269000  -10.399740   -4.375230
  H      9.097900  -12.121410   -2.621270
  H      8.272120  -16.936600   -5.719640
  H      6.251150  -15.655240   -7.628360
  H      7.568460  -18.446090   -7.576020
  H      2.538520  -17.333680  -11.460870

 Total Charge           Charge          ....    0
 Multiplicity           Mult            ....    1
 Number of Electrons    NEL             ....  474
 Basis Dimension        Dim             ....  966

ORBITAL ENERGIES
----------------

  NO   OCC          E(Eh)            E(eV)
   0   2.0000    -101.626061     -2765.3857
   1   2.0000    -101.617991     -2765.1661
   2   2.0000     -89.003115     -2421.8979
   3   2.0000     -88.993912     -2421.6475
   4   2.0000     -88.987888     -2421.4835
   5   2.0000     -88.984287     -2421.3855
   6   2.0000     -88.983127     -2421.3540
   7   2.0000     -19.252135      -523.8772
   8   2.0000     -19.250767      -523.8400
   9   2.0000     -19.233057      -523.3581
  10   2.0000     -19.220805      -523.0247
  11   2.0000     -14.657803      -398.8591
  12   2.0000     -14.449869      -393.2009
  13   2.0000     -14.445892      -393.0927
  14   2.0000     -14.429070      -392.6349
  15   2.0000     -14.428552      -392.6209
  16   2.0000     -14.422069      -392.4445
  17   2.0000     -14.420686      -392.4068
  18   2.0000     -14.417899      -392.3310
  19   2.0000     -10.390728      -282.7461
  20   2.0000     -10.385762      -282.6110
  21   2.0000     -10.377175      -282.3773
  22   2.0000     -10.376998      -282.3725
  23   2.0000     -10.358640      -281.8729
  24   2.0000     -10.357927      -281.8535
  25   2.0000     -10.353834      -281.7422
  26   2.0000     -10.351729      -281.6849
  27   2.0000     -10.351182      -281.6700
  28   2.0000     -10.350225      -281.6439
  29   2.0000     -10.350025      -281.6385
  30   2.0000     -10.342780      -281.4414
  31   2.0000     -10.338674      -281.3296
  32   2.0000     -10.334667      -281.2206
  33   2.0000     -10.333975      -281.2018
  34   2.0000     -10.333385      -281.1857
  35   2.0000     -10.330775      -281.1147
  36   2.0000     -10.330180      -281.0985
  37   2.0000     -10.329867      -281.0900
  38   2.0000     -10.328850      -281.0623
  39   2.0000     -10.328661      -281.0572
  40   2.0000     -10.323609      -280.9197
  41   2.0000     -10.322079      -280.8780
  42   2.0000     -10.321464      -280.8613
  43   2.0000     -10.321173      -280.8534
  44   2.0000     -10.319939      -280.8198
  45   2.0000     -10.319733      -280.8142
  46   2.0000     -10.318699      -280.7861
  47   2.0000     -10.317068      -280.7417
  48   2.0000     -10.314478      -280.6712
  49   2.0000     -10.314106      -280.6611
  50   2.0000     -10.314077      -280.6603
  51   2.0000     -10.314058      -280.6598
  52   2.0000     -10.313084      -280.6333
  53   2.0000     -10.312095      -280.6064
  54   2.0000     -10.309735      -280.5422
  55   2.0000     -10.308907      -280.5196
  56   2.0000     -10.307327      -280.4766
  57   2.0000     -10.306742      -280.4607
  58   2.0000     -10.303203      -280.3644
  59   2.0000     -10.302059      -280.3333
  60   2.0000     -10.301317      -280.3131
  61   2.0000     -10.301086      -280.3068
  62   2.0000      -9.580862      -260.7085
  63   2.0000      -9.572813      -260.4895
  64   2.0000      -8.098750      -220.3782
  65   2.0000      -8.089628      -220.1300
  66   2.0000      -8.083167      -219.9541
  67   2.0000      -8.079553      -219.8558
  68   2.0000      -8.079002      -219.8408
  69   2.0000      -7.351518      -200.0450
  70   2.0000      -7.343445      -199.8253
  71   2.0000      -7.340884      -199.7556
  72   2.0000      -7.340338      -199.7408
  73   2.0000      -7.332840      -199.5367
  74   2.0000      -7.332310      -199.5223
  75   2.0000      -6.068121      -165.1220
  76   2.0000      -6.063475      -164.9956
  77   2.0000      -6.061072      -164.9302
  78   2.0000      -6.059007      -164.8740
  79   2.0000      -6.054427      -164.7493
  80   2.0000      -6.052271      -164.6907
  81   2.0000      -6.051860      -164.6795
  82   2.0000      -6.048923      -164.5996
  83   2.0000      -6.048227      -164.5806
  84   2.0000      -6.048144      -164.5784
  85   2.0000      -6.045554      -164.5079
  86   2.0000      -6.044913      -164.4905
  87   2.0000      -6.044508      -164.4794
  88   2.0000      -6.041929      -164.4092
  89   2.0000      -6.040085      -164.3591
  90   2.0000      -1.332998       -36.2727
  91   2.0000      -1.152843       -31.3705
  92   2.0000      -1.151180       -31.3252
  93   2.0000      -1.150780       -31.3143
  94   2.0000      -1.137664       -30.9574
  95   2.0000      -1.047749       -28.5107
  96   2.0000      -1.038961       -28.2716
  97   2.0000      -1.036227       -28.1972
  98   2.0000      -1.026292       -27.9268
  99   2.0000      -1.017578       -27.6897
 100   2.0000      -1.007335       -27.4110
 101   2.0000      -1.005857       -27.3707
 102   2.0000      -1.004406       -27.3313
 103   2.0000      -0.998325       -27.1658
 104   2.0000      -0.996729       -27.1224
 105   2.0000      -0.989123       -26.9154
 106   2.0000      -0.974115       -26.5070
 107   2.0000      -0.964871       -26.2555
 108   2.0000      -0.962667       -26.1955
 109   2.0000      -0.955092       -25.9894
 110   2.0000      -0.943618       -25.6771
 111   2.0000      -0.937233       -25.5034
 112   2.0000      -0.923936       -25.1416
 113   2.0000      -0.914325       -24.8801
 114   2.0000      -0.913812       -24.8661
 115   2.0000      -0.904371       -24.6092
 116   2.0000      -0.900982       -24.5170
 117   2.0000      -0.884483       -24.0680
 118   2.0000      -0.868439       -23.6314
 119   2.0000      -0.858590       -23.3634
 120   2.0000      -0.852187       -23.1892
 121   2.0000      -0.849944       -23.1281
 122   2.0000      -0.842006       -22.9122
 123   2.0000      -0.833282       -22.6748
 124   2.0000      -0.819977       -22.3127
 125   2.0000      -0.799789       -21.7634
 126   2.0000      -0.795120       -21.6363
 127   2.0000      -0.788672       -21.4609
 128   2.0000      -0.764476       -20.8025
 129   2.0000      -0.758107       -20.6291
 130   2.0000      -0.754552       -20.5324
 131   2.0000      -0.751455       -20.4481
 132   2.0000      -0.732724       -19.9384
 133   2.0000      -0.729571       -19.8526
 134   2.0000      -0.710301       -19.3283
 135   2.0000      -0.701956       -19.1012
 136   2.0000      -0.701228       -19.0814
 137   2.0000      -0.696397       -18.9499
 138   2.0000      -0.690987       -18.8027
 139   2.0000      -0.686309       -18.6754
 140   2.0000      -0.676711       -18.4142
 141   2.0000      -0.669907       -18.2291
 142   2.0000      -0.659338       -17.9415
 143   2.0000      -0.651081       -17.7168
 144   2.0000      -0.643479       -17.5100
 145   2.0000      -0.641884       -17.4665
 146   2.0000      -0.636677       -17.3249
 147   2.0000      -0.625805       -17.0290
 148   2.0000      -0.624208       -16.9856
 149   2.0000      -0.616640       -16.7796
 150   2.0000      -0.613855       -16.7038
 151   2.0000      -0.609343       -16.5811
 152   2.0000      -0.606924       -16.5152
 153   2.0000      -0.603244       -16.4151
 154   2.0000      -0.597875       -16.2690
 155   2.0000      -0.597279       -16.2528
 156   2.0000      -0.585466       -15.9313
 157   2.0000      -0.578379       -15.7385
 158   2.0000      -0.575854       -15.6698
 159   2.0000      -0.571570       -15.5532
 160   2.0000      -0.561427       -15.2772
 161   2.0000      -0.555059       -15.1039
 162   2.0000      -0.552319       -15.0294
 163   2.0000      -0.551386       -15.0040
 164   2.0000      -0.548757       -14.9324
 165   2.0000      -0.545279       -14.8378
 166   2.0000      -0.544561       -14.8183
 167   2.0000      -0.541425       -14.7329
 168   2.0000      -0.535838       -14.5809
 169   2.0000      -0.534925       -14.5561
 170   2.0000      -0.533257       -14.5107
 171   2.0000      -0.528988       -14.3945
 172   2.0000      -0.525710       -14.3053
 173   2.0000      -0.522736       -14.2244
 174   2.0000      -0.518365       -14.1054
 175   2.0000      -0.515468       -14.0266
 176   2.0000      -0.511465       -13.9177
 177   2.0000      -0.507063       -13.7979
 178   2.0000      -0.505142       -13.7456
 179   2.0000      -0.504795       -13.7362
 180   2.0000      -0.499726       -13.5982
 181   2.0000      -0.497485       -13.5373
 182   2.0000      -0.493905       -13.4398
 183   2.0000      -0.493092       -13.4177
 184   2.0000      -0.488513       -13.2931
 185   2.0000      -0.484000       -13.1703
 186   2.0000      -0.480678       -13.0799
 187   2.0000      -0.478749       -13.0274
 188   2.0000      -0.473407       -12.8821
 189   2.0000      -0.468531       -12.7494
 190   2.0000      -0.464879       -12.6500
 191   2.0000      -0.461167       -12.5490
 192   2.0000      -0.459966       -12.5163
 193   2.0000      -0.459101       -12.4928
 194   2.0000      -0.455833       -12.4038
 195   2.0000      -0.454790       -12.3755
 196   2.0000      -0.454247       -12.3607
 197   2.0000      -0.452676       -12.3179
 198   2.0000      -0.451983       -12.2991
 199   2.0000      -0.446557       -12.1514
 200   2.0000      -0.446297       -12.1444
 201   2.0000      -0.445347       -12.1185
 202   2.0000      -0.441835       -12.0229
 203   2.0000      -0.441309       -12.0086
 204   2.0000      -0.439565       -11.9612
 205   2.0000      -0.437207       -11.8970
 206   2.0000      -0.432946       -11.7811
 207   2.0000      -0.429687       -11.6924
 208   2.0000      -0.428510       -11.6604
 209   2.0000      -0.425888       -11.5890
 210   2.0000      -0.420612       -11.4454
 211   2.0000      -0.418957       -11.4004
 212   2.0000      -0.415037       -11.2937
 213   2.0000      -0.412115       -11.2142
 214   2.0000      -0.410500       -11.1703
 215   2.0000      -0.404302       -11.0016
 216   2.0000      -0.401262       -10.9189
 217   2.0000      -0.401104       -10.9146
 218   2.0000      -0.393242       -10.7007
 219   2.0000      -0.389742       -10.6054
 220   2.0000      -0.389212       -10.5910
 221   2.0000      -0.378259       -10.2929
 222   2.0000      -0.376994       -10.2585
 223   2.0000      -0.363454        -9.8901
 224   2.0000      -0.361479        -9.8364
 225   2.0000      -0.348939        -9.4951
 226   2.0000      -0.346789        -9.4366
 227   2.0000      -0.345311        -9.3964
 228   2.0000      -0.344354        -9.3704
 229   2.0000      -0.335042        -9.1170
 230   2.0000      -0.332345        -9.0436
 231   2.0000      -0.330373        -8.9899
 232   2.0000      -0.325445        -8.8558
 233   2.0000      -0.317282        -8.6337
 234   2.0000      -0.312008        -8.4902
 235   2.0000      -0.297108        -8.0847
 236   2.0000      -0.257102        -6.9961
 237   0.0000      -0.112705        -3.0669
 238   0.0000      -0.103229        -2.8090
 239   0.0000      -0.083694        -2.2774
 240   0.0000      -0.062946        -1.7129
 241   0.0000      -0.057121        -1.5543

MULLIKEN ATOMIC CHARGES
-----------------------
   0 C :    0.033096
   1 C :   -0.127388
   2 S :    0.194482
   3 C :   -0.169095
   4 Cl:    0.003242
   5 C :    0.072956
   6 C :    0.145675
   7 O :   -0.127433
   8 C :   -0.089065
   9 C :    0.278293
  10 C :   -0.317528
  11 C :   -0.193022
  12 N :    0.163281
  13 C :   -0.198956
  14 N :    0.171019
  15 C :   -0.030764
  16 C :    0.059263
  17 C :   -0.052912
  18 C :    0.134478
  19 N :    0.244678
  20 O :   -0.227129
  21 O :   -0.233713
  22 C :    0.088142
  23 C :   -0.062002
  24 C :    0.115641
  25 C :   -0.023925
  26 C :    0.059977
  27 C :   -0.153271
  28 S :    0.183524
  29 C :   -0.124120
  30 C :    0.138519
  31 C :   -0.035457
  32 S :    0.186007
  33 C :   -0.221773
  34 C :   -0.132374
  35 N :    0.140619
  36 C :    0.021686
  37 C :    0.080029
  38 C :    0.047063
  39 C :   -0.100418
  40 S :    0.108236
  41 C :   -0.100043
  42 N :   -0.032210
  43 N :   -0.048515
  44 C :    0.070918
  45 C :    0.027569
  46 C :    0.025630
  47 C :   -0.115069
  48 C :    0.140280
  49 O :   -0.126238
  50 C :    0.079125
  51 C :   -0.169767
  52 S :    0.184087
  53 C :   -0.130443
  54 C :    0.026947
  55 C :    0.261520
  56 C :   -0.305292
  57 C :   -0.185695
  58 N :    0.154957
  59 C :   -0.210544
  60 N :    0.177868
  61 Cl:    0.000075
  62 H :    0.057292
  63 H :    0.041157
  64 H :    0.012050
  65 H :   -0.008302
  66 H :   -0.005623
  67 H :    0.011391
  68 H :   -0.010616
  69 H :    0.007220
  70 H :    0.017243
  71 H :   -0.028566
  72 H :    0.005237
  73 H :    0.049280
  74 H :    0.022506
  75 H :    0.055005
Sum of atomic charges:    0.0000000

LOEWDIN ATOMIC CHARGES
----------------------
   0 C :   -0.059804
   1 C :   -0.147707
   2 S :    0.483058
   3 C :   -0.271067
   4 Cl:    0.194959
   5 C :   -0.118250
   6 C :    0.080938
   7 O :   -0.124877
   8 C :   -0.081334
   9 C :    0.072577
  10 C :   -0.129232
  11 C :   -0.015652
  12 N :   -0.044802
  13 C :   -0.026611
  14 N :   -0.037642
  15 C :    0.078931
  16 C :   -0.041490
  17 C :    0.027143
  18 C :   -0.032050
  19 N :    0.284717
  20 O :   -0.195576
  21 O :   -0.195212
  22 C :    0.013137
  23 C :   -0.011030
  24 C :    0.045270
  25 C :   -0.024352
  26 C :   -0.024099
  27 C :   -0.189798
  28 S :    0.488412
  29 C :   -0.167984
  30 C :   -0.067584
  31 C :   -0.177748
  32 S :    0.460527
  33 C :   -0.192304
  34 C :   -0.052906
  35 N :   -0.033310
  36 C :   -0.009913
  37 C :    0.003180
  38 C :   -0.061968
  39 C :   -0.138819
  40 S :    0.393757
  41 C :   -0.155072
  42 N :   -0.055272
  43 N :   -0.077077
  44 C :   -0.006364
  45 C :    0.003504
  46 C :    0.063816
  47 C :   -0.078744
  48 C :    0.079412
  49 O :   -0.131880
  50 C :   -0.118517
  51 C :   -0.272227
  52 S :    0.473992
  53 C :   -0.152151
  54 C :   -0.056619
  55 C :    0.067099
  56 C :   -0.128559
  57 C :   -0.015493
  58 N :   -0.047359
  59 C :   -0.026047
  60 N :   -0.038150
  61 Cl:    0.191959
  62 H :    0.039031
  63 H :    0.049820
  64 H :    0.044263
  65 H :    0.034919
  66 H :    0.036955
  67 H :    0.015758
  68 H :    0.030918
  69 H :    0.039130
  70 H :    0.042450
  71 H :    0.027970
  72 H :    0.038005
  73 H :    0.042556
  74 H :    0.046549
  75 H :    0.037941

  Mayer bond orders larger than 0.100000
B(  0-C ,  1-C ) :   1.5420 B(  0-C ,  5-C ) :   1.2203 B(  0-C ,  9-C ) :   1.0050
B(  1-C ,  2-S ) :   1.1646 B(  1-C , 62-H ) :   0.9541 B(  2-S ,  3-C ) :   1.1556
B(  3-C ,  4-Cl) :   1.1306 B(  3-C ,  5-C ) :   1.4734 B(  5-C ,  6-C ) :   0.9557
B(  6-C ,  7-O ) :   2.2404 B(  6-C ,  8-C ) :   0.9208 B(  8-C ,  9-C ) :   1.0405
B(  8-C , 15-C ) :   1.6960 B(  9-C , 10-C ) :   1.6784 B( 10-C , 11-C ) :   1.1414
B( 10-C , 13-C ) :   1.1336 B( 11-C , 12-N ) :   2.9957 B( 13-C , 14-N ) :   2.9920
B( 15-C , 16-C ) :   1.0551 B( 15-C , 63-H ) :   0.9515 B( 16-C , 17-C ) :   1.2910
B( 16-C , 24-C ) :   1.3180 B( 17-C , 18-C ) :   1.3785 B( 17-C , 64-H ) :   0.9973
B( 18-C , 19-N ) :   0.8809 B( 18-C , 22-C ) :   1.3261 B( 19-N , 20-O ) :   1.5615
B( 19-N , 21-O ) :   1.5144 B( 20-O , 21-O ) :   0.2638 B( 22-C , 23-C ) :   1.3188
B( 22-C , 25-C ) :   1.1123 B( 23-C , 24-C ) :   1.4304 B( 23-C , 65-H ) :   0.9892
B( 24-C , 66-H ) :   0.9815 B( 25-C , 26-C ) :   1.6846 B( 25-C , 67-H ) :   0.9391
B( 26-C , 27-C ) :   1.1432 B( 26-C , 68-H ) :   0.9568 B( 27-C , 28-S ) :   1.1377
B( 27-C , 29-C ) :   0.1016 B( 27-C , 31-C ) :   1.4551 B( 28-S , 29-C ) :   1.1436
B( 29-C , 30-C ) :   1.3358 B( 29-C , 37-C ) :   1.1522 B( 30-C , 31-C ) :   1.2591
B( 30-C , 36-C ) :   1.1556 B( 31-C , 32-S ) :   1.0685 B( 32-S , 33-C ) :   1.0779
B( 33-C , 34-C ) :   1.1491 B( 33-C , 36-C ) :   1.6346 B( 34-C , 35-N ) :   3.0230
B( 36-C , 69-H ) :   0.9960 B( 37-C , 38-C ) :   1.6768 B( 37-C , 70-H ) :   0.9555
B( 38-C , 39-C ) :   1.1363 B( 38-C , 71-H ) :   0.9464 B( 39-C , 40-S ) :   1.1054
B( 39-C , 43-N ) :   1.6493 B( 40-S , 41-C ) :   1.0811 B( 41-C , 42-N ) :   1.6616
B( 41-C , 44-C ) :   1.1042 B( 42-N , 43-N ) :   1.2511 B( 44-C , 45-C ) :   1.7064
B( 44-C , 72-H ) :   0.9594 B( 45-C , 46-C ) :   1.1059 B( 45-C , 73-H ) :   0.9527
B( 46-C , 47-C ) :   1.6468 B( 46-C , 74-H ) :   0.9563 B( 47-C , 48-C ) :   0.9337
B( 47-C , 55-C ) :   1.0381 B( 48-C , 49-O ) :   2.2827 B( 48-C , 50-C ) :   0.9266
B( 50-C , 51-C ) :   1.4866 B( 50-C , 54-C ) :   1.2217 B( 51-C , 52-S ) :   1.1513
B( 51-C , 61-Cl) :   1.1278 B( 52-S , 53-C ) :   1.1572 B( 53-C , 54-C ) :   1.5535
B( 53-C , 75-H ) :   0.9558 B( 54-C , 55-C ) :   1.0120 B( 55-C , 56-C ) :   1.6639
B( 56-C , 57-C ) :   1.1359 B( 56-C , 59-C ) :   1.1469 B( 57-C , 58-N ) :   2.9991
B( 59-C , 60-N ) :   3.0173

-----------------------------------------------------------------------------
         ABSORPTION SPECTRUM VIA TRANSITION ELECTRIC DIPOLE MOMENTS
-----------------------------------------------------------------------------
State   Energy  Wavelength   fosc         T2         TX        TY        TZ
        (cm-1)    (nm)                  (au**2)     (au)      (au)      (au)
-----------------------------------------------------------------------------
   0   17413.7    574.3   2.107835710  39.84942   0.56242   5.44339   3.14683
   1   21171.5    472.3   0.320343461   4.98126  -1.79222   1.16810  -0.63621
   2   24438.2    409.2   0.060535453   0.81548   0.00801  -0.66377  -0.61224
   3   26196.2    381.7   0.122629144   1.54110  -1.18104   0.32686  -0.19850
   4   26484.5    377.6   0.018960276   0.23568   0.41259  -0.24357  -0.07828
   5   26667.1    375.0   0.036508556   0.45071  -0.25136  -0.43646  -0.44388
   6   27256.6    366.9   0.010352640   0.12504   0.13087   0.31836   0.08100
   7   28165.5    355.0   0.142686810   1.66779   0.75147   0.36838   0.98355
   8   28934.8    345.6   0.010757380   0.12239  -0.22561   0.01722  -0.26683
   9   29532.8    338.6   0.018555112   0.20684  -0.10141   0.14840   0.41777
  10   30172.9    331.4   0.016753208   0.18279   0.04249  -0.42490   0.02119
  11   30948.0    323.1   0.113764815   1.21018   0.15235   0.22372   1.06626
  12   31773.7    314.7   0.127606094   1.32215  -0.21207   1.12782   0.07206
  13   32068.3    311.8   0.057157073   0.58677  -0.35919  -0.22373  -0.63851
  14   32504.9    307.6   0.342623249   3.47011  -0.58761   1.56315   0.82547
  15   32902.9    303.9   0.104793494   1.04852  -0.20478  -0.71219  -0.70666
  16   33190.5    301.3   0.008027284   0.07962  -0.23635  -0.04181   0.14837
  17   33730.4    296.5   0.192142262   1.87533  -0.70217   1.04936  -0.53023
  18   33869.5    295.3   0.084560974   0.82193   0.44888  -0.77713  -0.12851
  19   34258.5    291.9   0.031130541   0.29915   0.41655   0.34506   0.08107
  20   35038.5    285.4   0.053433970   0.50205  -0.44459   0.51866  -0.18812
  21   35267.2    283.5   0.072518021   0.67694   0.55367  -0.47682   0.37820
  22   36017.8    277.6   0.029236340   0.26723   0.46223   0.14703   0.17875
  23   36669.2    272.7   0.032172868   0.28884   0.47085  -0.17370   0.19228
  24   36879.0    271.2   0.086854862   0.77534   0.47120  -0.70489  -0.23758
  25   37065.6    269.8   0.286713534   2.54655  -0.25745   1.06168   1.16323
  26   37620.5    265.8   0.275290715   2.40903   0.12031   0.15260  -1.53989
  27   37900.5    263.8   0.089719641   0.77932   0.37969  -0.78507   0.13719
  28   38129.6    262.3   0.653416428   5.64161  -0.58345   0.02095  -2.30234
  29   38399.7    260.4   0.073677419   0.63166   0.10439   0.08438  -0.78335
  30   38483.6    259.9   0.153266252   1.31113  -0.14417   1.01148   0.51696
  31   38905.3    257.0   0.023696806   0.20052   0.25557  -0.16159   0.33029
  32   39342.7    254.2   0.044305705   0.37074  -0.29170  -0.11698  -0.52151
  33   39800.5    251.3   0.043058074   0.35616  -0.31908   0.41867  -0.28118
  34   40063.9    249.6   0.081407125   0.66894  -0.44378   0.67193   0.14321

FINAL SINGLE POINT ENERGY     -5293.098608974132

DIPOLE MOMENT
-------------
                                X             Y             Z
Electronic contribution:     -9.64749      -4.11965     -25.04993
Nuclear contribution   :      8.94520       4.59086      22.14567
                        -----------------------------------------
Total Dipole Moment    :     -0.70229       0.47120      -2.90426
                        -----------------------------------------
Magnitude (a.u.)       :      3.02489
Magnitude (Debye)      :      7.68866

Rotational constants in cm-1:     0.001657     0.000209     0.000189
Rotational constants in MHz :    49.667757     6.253965     5.670593

                             ****ORCA TERMINATED NORMALLY****
TOTAL RUN TIME: 0 days 0 hours 11 minutes 39 seconds 183 msec
