                         Program Version 4.2.0 -  RELEASE  -
|  1> # ORCA input file
|  2> # SCF done       -201.790928527883          0.000893365160
|  3> ! CAM-B3LYP def2-SVP def2/J RIJCOSX Grid4 TightSCF
|  4> %maxcore 5000
|  5> %tddft
|  6>     Mode sTDDFT
|  7>     Ethresh 5.0
|  8>     maxcore 5000
|  9> end
| 10>
| 11> %pal
| 12>   nprocs 6
| 13>   end
| 14> * xyz 0 1
| 15>    C        5.22940         4.54986         0.61921
| 16>    C        5.03315         5.89212         0.72880
| 17>    S        6.53428         6.74050         0.77375
| 18>    C        7.45094         5.25592         0.65259
| 19>   Cl        9.14362         5.26408         0.62696
| 20>    C        6.61406         4.18412         0.57357
| 21>    C        6.74209         2.72625         0.47722
| 22>    O        7.74467         2.05945         0.57734
| 23>    C        5.33289         2.22942         0.37532
| 24>    C        4.41852         3.35325         0.52511
| 25>    C        3.05015         3.33369         0.52954
| 26>    C        2.29875         4.52145         0.65866
| 27>    N        1.67197         5.47596         0.76832
| 28>    C        2.24157         2.18551         0.41147
| 29>    N        1.52288         1.29522         0.31626
| 30>    C        4.98973         0.92235         0.26865
| 31>    C        5.88466        -0.13992        -0.09462
| 32>    C        5.74458        -1.41778         0.44619
| 33>    O        4.79641        -1.54240         1.37812
| 34>    C        4.79187        -2.59362         2.33238
| 35>    C        6.59707        -2.51061         0.02705
| 36>    O        6.12354        -3.72082         0.37299
| 37>    C        6.53237        -4.90335        -0.26947
| 38>    C        7.74130        -2.29452        -0.74546
| 39>    C        7.83763        -1.01837        -1.36671
| 40>    C        6.89457         0.02881        -1.07442
| 41>    N        7.19110         1.05066        -1.84725
| 42>    O        8.25625         0.68714        -2.55473
| 43>    N        8.66582        -0.55152        -2.27504
| 44>    C        8.83724        -3.22935        -0.71907
| 45>    N        9.71101        -3.57133        -1.70768
| 46>    C        9.65762        -3.23640        -3.11417
| 47>    C       10.82849        -2.35025        -3.52395
| 48>    C       10.70572        -4.46845        -1.23357
| 49>    O       11.55735        -4.96001        -1.93900
| 50>    C       10.40141        -4.62900         0.17046
| 51>    C        9.23983        -3.87888         0.44881
| 52>    C        8.95240        -4.01276         1.85882
| 53>    O        8.06662        -3.55474         2.55358
| 54>    N        9.96498        -4.86375         2.34331
| 55>    C        9.97992        -5.22226         3.74204
| 56>    C        9.26331        -6.54670         3.99673
| 57>    C       10.83665        -5.24679         1.34525
| 58>    C       11.96733        -6.09349         1.37857
| 59>    C       12.43258        -6.89811         2.37496
| 60>    C       13.56378        -7.73644         2.24113
| 61>    C       13.99369        -8.65223         3.18157
| 62>    C       15.12856        -9.34526         2.68236
| 63>    C       15.40588        -8.76356         1.35168
| 64>    C       14.46945        -7.81650         1.09793
| 65>    C       16.46046        -9.09852         0.49323
| 66>    N       17.31750        -9.34058        -0.23176
| 67>    C       15.80484       -10.38734         3.27463
| 68>    C       16.87295       -11.15554         2.72238
| 69>    C       17.16267       -12.19942         3.57131
| 70>    C       16.31250       -12.07032         4.74594
| 71>    C       15.51227       -10.98272         4.58714
| 72>    C       14.59032       -10.52084         5.53234
| 73>    N       13.84662       -10.15948         6.32997
| 74>    C       18.14880       -13.20182         3.36306
| 75>    C       18.17165       -14.46325         3.86781
| 76>    C       19.45710       -15.23199         3.89845
| 77>    O       20.48141       -14.94066         3.33198
| 78>    C       19.18388       -16.35541         4.80405
| 79>    C       19.88020       -17.38852         5.35657
| 80>    S       18.83684       -18.35676         6.37243
| 81>    C       17.46949       -17.36095         6.02820
| 82>    C       17.80242       -16.34319         5.19084
| 83>    C       17.13537       -15.24759         4.51350
| 84>    C       15.77977       -15.14126         4.34430
| 85>    C       14.89042       -16.01419         5.00485
| 86>    N       14.15831       -16.70740         5.55190
| 87>    C       15.14979       -14.25700         3.44553
| 88>    N       14.58582       -13.61395         2.68002
| 89>   Cl       21.51696       -17.77319         5.15420
| 90>    H        4.11588         6.44367         0.78692
| 91>    H        3.97096         0.61547         0.46805
| 92>    H        4.28354        -3.47672         1.94201
| 93>    H        4.23137        -2.19793         3.17920
| 94>    H        5.80277        -2.85735         2.64520
| 95>    H        5.66090        -5.55979        -0.25292
| 96>    H        7.35321        -5.38707         0.26679
| 97>    H        6.83703        -4.72054        -1.30317
| 98>    H        8.71047        -2.73944        -3.32026
| 99>    H        9.70587        -4.17776        -3.67270
|100>    H       10.80118        -1.41610        -2.97208
|101>    H       10.76015        -2.13242        -4.58540
|102>    H       11.76645        -2.86294        -3.33087
|103>    H        9.44688        -4.42198         4.26459
|104>    H       11.01131        -5.24423         4.09948
|105>    H        8.21204        -6.45164         3.73544
|106>    H        9.33575        -6.80822         5.04865
|107>    H        9.69383        -7.35105         3.40397
|108>    H       12.48530        -6.10486         0.42806
|109>    H       11.92674        -6.96667         3.32582
|110>    H       13.53231        -8.83870         4.13156
|111>    H       14.40717        -7.21670         0.20948
|112>    H       17.32173       -10.98543         1.76351
|113>    H       16.36114       -12.69816         5.61705
|114>    H       19.01586       -12.91395         2.77675
|115>    H       16.52247       -17.59215         6.47426
|116> *
|117>
|118>                          ****END OF INPUT****

CARTESIAN COORDINATES (ANGSTROEM)
---------------------------------
  C      5.229400    4.549860    0.619210
  C      5.033150    5.892120    0.728800
  S      6.534280    6.740500    0.773750
  C      7.450940    5.255920    0.652590
  Cl     9.143620    5.264080    0.626960
  C      6.614060    4.184120    0.573570
  C      6.742090    2.726250    0.477220
  O      7.744670    2.059450    0.577340
  C      5.332890    2.229420    0.375320
  C      4.418520    3.353250    0.525110
  C      3.050150    3.333690    0.529540
  C      2.298750    4.521450    0.658660
  N      1.671970    5.475960    0.768320
  C      2.241570    2.185510    0.411470
  N      1.522880    1.295220    0.316260
  C      4.989730    0.922350    0.268650
  C      5.884660   -0.139920   -0.094620
  C      5.744580   -1.417780    0.446190
  O      4.796410   -1.542400    1.378120
  C      4.791870   -2.593620    2.332380
  C      6.597070   -2.510610    0.027050
  O      6.123540   -3.720820    0.372990
  C      6.532370   -4.903350   -0.269470
  C      7.741300   -2.294520   -0.745460
  C      7.837630   -1.018370   -1.366710
  C      6.894570    0.028810   -1.074420
  N      7.191100    1.050660   -1.847250
  O      8.256250    0.687140   -2.554730
  N      8.665820   -0.551520   -2.275040
  C      8.837240   -3.229350   -0.719070
  N      9.711010   -3.571330   -1.707680
  C      9.657620   -3.236400   -3.114170
  C     10.828490   -2.350250   -3.523950
  C     10.705720   -4.468450   -1.233570
  O     11.557350   -4.960010   -1.939000
  C     10.401410   -4.629000    0.170460
  C      9.239830   -3.878880    0.448810
  C      8.952400   -4.012760    1.858820
  O      8.066620   -3.554740    2.553580
  N      9.964980   -4.863750    2.343310
  C      9.979920   -5.222260    3.742040
  C      9.263310   -6.546700    3.996730
  C     10.836650   -5.246790    1.345250
  C     11.967330   -6.093490    1.378570
  C     12.432580   -6.898110    2.374960
  C     13.563780   -7.736440    2.241130
  C     13.993690   -8.652230    3.181570
  C     15.128560   -9.345260    2.682360
  C     15.405880   -8.763560    1.351680
  C     14.469450   -7.816500    1.097930
  C     16.460460   -9.098520    0.493230
  N     17.317500   -9.340580   -0.231760
  C     15.804840  -10.387340    3.274630
  C     16.872950  -11.155540    2.722380
  C     17.162670  -12.199420    3.571310
  C     16.312500  -12.070320    4.745940
  C     15.512270  -10.982720    4.587140
  C     14.590320  -10.520840    5.532340
  N     13.846620  -10.159480    6.329970
  C     18.148800  -13.201820    3.363060
  C     18.171650  -14.463250    3.867810
  C     19.457100  -15.231990    3.898450
  O     20.481410  -14.940660    3.331980
  C     19.183880  -16.355410    4.804050
  C     19.880200  -17.388520    5.356570
  S     18.836840  -18.356760    6.372430
  C     17.469490  -17.360950    6.028200
  C     17.802420  -16.343190    5.190840
  C     17.135370  -15.247590    4.513500
  C     15.779770  -15.141260    4.344300
  C     14.890420  -16.014190    5.004850
  N     14.158310  -16.707400    5.551900
  C     15.149790  -14.257000    3.445530
  N     14.585820  -13.613950    2.680020
  Cl    21.516960  -17.773190    5.154200
  H      4.115880    6.443670    0.786920
  H      3.970960    0.615470    0.468050
  H      4.283540   -3.476720    1.942010
  H      4.231370   -2.197930    3.179200
  H      5.802770   -2.857350    2.645200
  H      5.660900   -5.559790   -0.252920
  H      7.353210   -5.387070    0.266790
  H      6.837030   -4.720540   -1.303170
  H      8.710470   -2.739440   -3.320260
  H      9.705870   -4.177760   -3.672700
  H     10.801180   -1.416100   -2.972080
  H     10.760150   -2.132420   -4.585400
  H     11.766450   -2.862940   -3.330870
  H      9.446880   -4.421980    4.264590
  H     11.011310   -5.244230    4.099480
  H      8.212040   -6.451640    3.735440
  H      9.335750   -6.808220    5.048650
  H      9.693830   -7.351050    3.403970
  H     12.485300   -6.104860    0.428060
  H     11.926740   -6.966670    3.325820
  H     13.532310   -8.838700    4.131560
  H     14.407170   -7.216700    0.209480
  H     17.321730  -10.985430    1.763510
  H     16.361140  -12.698160    5.617050
  H     19.015860  -12.913950    2.776750
  H     16.522470  -17.592150    6.474260

 Total Charge           Charge          ....    0
 Multiplicity           Mult            ....    1
 Number of Electrons    NEL             ....  542
 Basis Dimension        Dim             .... 1196

ORBITAL ENERGIES
----------------

  NO   OCC          E(Eh)            E(eV)
   0   2.0000    -101.622409     -2765.2863
   1   2.0000    -101.613818     -2765.0526
   2   2.0000     -88.999481     -2421.7990
   3   2.0000     -88.990654     -2421.5588
   4   2.0000     -19.350482      -526.5534
   5   2.0000     -19.292575      -524.9776
   6   2.0000     -19.275957      -524.5254
   7   2.0000     -19.226738      -523.1861
   8   2.0000     -19.215961      -522.8929
   9   2.0000     -19.211656      -522.7757
  10   2.0000     -19.208062      -522.6779
  11   2.0000     -14.479947      -394.0194
  12   2.0000     -14.476948      -393.9378
  13   2.0000     -14.473421      -393.8418
  14   2.0000     -14.470833      -393.7714
  15   2.0000     -14.428753      -392.6263
  16   2.0000     -14.426331      -392.5604
  17   2.0000     -14.419698      -392.3799
  18   2.0000     -14.418639      -392.3511
  19   2.0000     -14.417933      -392.3319
  20   2.0000     -14.416050      -392.2807
  21   2.0000     -10.393149      -282.8120
  22   2.0000     -10.393089      -282.8103
  23   2.0000     -10.390965      -282.7525
  24   2.0000     -10.383174      -282.5405
  25   2.0000     -10.383125      -282.5392
  26   2.0000     -10.382485      -282.5218
  27   2.0000     -10.372561      -282.2517
  28   2.0000     -10.372226      -282.2426
  29   2.0000     -10.368451      -282.1399
  30   2.0000     -10.359183      -281.8877
  31   2.0000     -10.358112      -281.8586
  32   2.0000     -10.355781      -281.7951
  33   2.0000     -10.349858      -281.6340
  34   2.0000     -10.347147      -281.5602
  35   2.0000     -10.346428      -281.5406
  36   2.0000     -10.337001      -281.2841
  37   2.0000     -10.336212      -281.2626
  38   2.0000     -10.335896      -281.2540
  39   2.0000     -10.331443      -281.1329
  40   2.0000     -10.330444      -281.1057
  41   2.0000     -10.330087      -281.0959
  42   2.0000     -10.328760      -281.0598
  43   2.0000     -10.328740      -281.0593
  44   2.0000     -10.328655      -281.0570
  45   2.0000     -10.328257      -281.0462
  46   2.0000     -10.327057      -281.0135
  47   2.0000     -10.324442      -280.9423
  48   2.0000     -10.322840      -280.8988
  49   2.0000     -10.321828      -280.8712
  50   2.0000     -10.321413      -280.8599
  51   2.0000     -10.321040      -280.8498
  52   2.0000     -10.321011      -280.8490
  53   2.0000     -10.320763      -280.8422
  54   2.0000     -10.320330      -280.8305
  55   2.0000     -10.319208      -280.7999
  56   2.0000     -10.318060      -280.7687
  57   2.0000     -10.317769      -280.7608
  58   2.0000     -10.317380      -280.7502
  59   2.0000     -10.315821      -280.7078
  60   2.0000     -10.315804      -280.7073
  61   2.0000     -10.314742      -280.6784
  62   2.0000     -10.314234      -280.6646
  63   2.0000     -10.312872      -280.6275
  64   2.0000     -10.311167      -280.5811
  65   2.0000     -10.309936      -280.5476
  66   2.0000     -10.306949      -280.4663
  67   2.0000     -10.305623      -280.4303
  68   2.0000     -10.304793      -280.4077
  69   2.0000     -10.296236      -280.1748
  70   2.0000     -10.295282      -280.1489
  71   2.0000     -10.282423      -279.7990
  72   2.0000     -10.278475      -279.6915
  73   2.0000     -10.275946      -279.6227
  74   2.0000     -10.247540      -278.8497
  75   2.0000      -9.577197      -260.6088
  76   2.0000      -9.568520      -260.3727
  77   2.0000      -8.095143      -220.2801
  78   2.0000      -8.086408      -220.0423
  79   2.0000      -7.347855      -199.9453
  80   2.0000      -7.339149      -199.7084
  81   2.0000      -7.337214      -199.6557
  82   2.0000      -7.336679      -199.6412
  83   2.0000      -7.328577      -199.4207
  84   2.0000      -7.328046      -199.4063
  85   2.0000      -6.064520      -165.0240
  86   2.0000      -6.059929      -164.8991
  87   2.0000      -6.057399      -164.8302
  88   2.0000      -6.055777      -164.7861
  89   2.0000      -6.051178      -164.6609
  90   2.0000      -6.048667      -164.5926
  91   2.0000      -1.306031       -35.5389
  92   2.0000      -1.204571       -32.7780
  93   2.0000      -1.175313       -31.9819
  94   2.0000      -1.151663       -31.3383
  95   2.0000      -1.144440       -31.1418
  96   2.0000      -1.143679       -31.1211
  97   2.0000      -1.133647       -30.8481
  98   2.0000      -1.082539       -29.4574
  99   2.0000      -1.071828       -29.1659
 100   2.0000      -1.045125       -28.4393
 101   2.0000      -1.035085       -28.1661
 102   2.0000      -1.028828       -27.9958
 103   2.0000      -1.023750       -27.8576
 104   2.0000      -1.016127       -27.6502
 105   2.0000      -1.012628       -27.5550
 106   2.0000      -1.010759       -27.5042
 107   2.0000      -1.006804       -27.3965
 108   2.0000      -1.005040       -27.3485
 109   2.0000      -0.997628       -27.1468
 110   2.0000      -0.996116       -27.1057
 111   2.0000      -0.994642       -27.0656
 112   2.0000      -0.990416       -26.9506
 113   2.0000      -0.985093       -26.8058
 114   2.0000      -0.961062       -26.1518
 115   2.0000      -0.952260       -25.9123
 116   2.0000      -0.945282       -25.7224
 117   2.0000      -0.930733       -25.3265
 118   2.0000      -0.928194       -25.2575
 119   2.0000      -0.921571       -25.0772
 120   2.0000      -0.918065       -24.9818
 121   2.0000      -0.904210       -24.6048
 122   2.0000      -0.902559       -24.5599
 123   2.0000      -0.888188       -24.1688
 124   2.0000      -0.871660       -23.7191
 125   2.0000      -0.870671       -23.6922
 126   2.0000      -0.863787       -23.5048
 127   2.0000      -0.853077       -23.2134
 128   2.0000      -0.851458       -23.1694
 129   2.0000      -0.839396       -22.8411
 130   2.0000      -0.829832       -22.5809
 131   2.0000      -0.829337       -22.5674
 132   2.0000      -0.822946       -22.3935
 133   2.0000      -0.815890       -22.2015
 134   2.0000      -0.805303       -21.9134
 135   2.0000      -0.794889       -21.6300
 136   2.0000      -0.778328       -21.1794
 137   2.0000      -0.771862       -21.0034
 138   2.0000      -0.767739       -20.8912
 139   2.0000      -0.759190       -20.6586
 140   2.0000      -0.752374       -20.4731
 141   2.0000      -0.743262       -20.2252
 142   2.0000      -0.738347       -20.0914
 143   2.0000      -0.735175       -20.0051
 144   2.0000      -0.726480       -19.7685
 145   2.0000      -0.718234       -19.5441
 146   2.0000      -0.708515       -19.2797
 147   2.0000      -0.704382       -19.1672
 148   2.0000      -0.700836       -19.0707
 149   2.0000      -0.699057       -19.0223
 150   2.0000      -0.684439       -18.6245
 151   2.0000      -0.683506       -18.5991
 152   2.0000      -0.682950       -18.5840
 153   2.0000      -0.674013       -18.3408
 154   2.0000      -0.666748       -18.1431
 155   2.0000      -0.663666       -18.0593
 156   2.0000      -0.659074       -17.9343
 157   2.0000      -0.653453       -17.7813
 158   2.0000      -0.648398       -17.6438
 159   2.0000      -0.641865       -17.4660
 160   2.0000      -0.633973       -17.2513
 161   2.0000      -0.631511       -17.1843
 162   2.0000      -0.624867       -17.0035
 163   2.0000      -0.619336       -16.8530
 164   2.0000      -0.616472       -16.7750
 165   2.0000      -0.610312       -16.6074
 166   2.0000      -0.607424       -16.5289
 167   2.0000      -0.605531       -16.4773
 168   2.0000      -0.602131       -16.3848
 169   2.0000      -0.598946       -16.2982
 170   2.0000      -0.595942       -16.2164
 171   2.0000      -0.586183       -15.9509
 172   2.0000      -0.583560       -15.8795
 173   2.0000      -0.578879       -15.7521
 174   2.0000      -0.577230       -15.7072
 175   2.0000      -0.570115       -15.5136
 176   2.0000      -0.565067       -15.3762
 177   2.0000      -0.564142       -15.3511
 178   2.0000      -0.557325       -15.1656
 179   2.0000      -0.554238       -15.0816
 180   2.0000      -0.550070       -14.9682
 181   2.0000      -0.546486       -14.8706
 182   2.0000      -0.545494       -14.8436
 183   2.0000      -0.542528       -14.7629
 184   2.0000      -0.539353       -14.6765
 185   2.0000      -0.538317       -14.6484
 186   2.0000      -0.537586       -14.6284
 187   2.0000      -0.535339       -14.5673
 188   2.0000      -0.534720       -14.5505
 189   2.0000      -0.533258       -14.5107
 190   2.0000      -0.529830       -14.4174
 191   2.0000      -0.528909       -14.3923
 192   2.0000      -0.527343       -14.3497
 193   2.0000      -0.524677       -14.2772
 194   2.0000      -0.521579       -14.1929
 195   2.0000      -0.519283       -14.1304
 196   2.0000      -0.517538       -14.0829
 197   2.0000      -0.515593       -14.0300
 198   2.0000      -0.513962       -13.9856
 199   2.0000      -0.510744       -13.8981
 200   2.0000      -0.509138       -13.8543
 201   2.0000      -0.507269       -13.8035
 202   2.0000      -0.503427       -13.6989
 203   2.0000      -0.503132       -13.6909
 204   2.0000      -0.498592       -13.5674
 205   2.0000      -0.498293       -13.5592
 206   2.0000      -0.493177       -13.4200
 207   2.0000      -0.490808       -13.3556
 208   2.0000      -0.487516       -13.2660
 209   2.0000      -0.485519       -13.2116
 210   2.0000      -0.483816       -13.1653
 211   2.0000      -0.481291       -13.0966
 212   2.0000      -0.479433       -13.0460
 213   2.0000      -0.476627       -12.9697
 214   2.0000      -0.472497       -12.8573
 215   2.0000      -0.468278       -12.7425
 216   2.0000      -0.464082       -12.6283
 217   2.0000      -0.462643       -12.5892
 218   2.0000      -0.460276       -12.5248
 219   2.0000      -0.458977       -12.4894
 220   2.0000      -0.457953       -12.4615
 221   2.0000      -0.454142       -12.3578
 222   2.0000      -0.453516       -12.3408
 223   2.0000      -0.452602       -12.3159
 224   2.0000      -0.452043       -12.3007
 225   2.0000      -0.451560       -12.2876
 226   2.0000      -0.448190       -12.1959
 227   2.0000      -0.447915       -12.1884
 228   2.0000      -0.446663       -12.1543
 229   2.0000      -0.445778       -12.1302
 230   2.0000      -0.445317       -12.1177
 231   2.0000      -0.442407       -12.0385
 232   2.0000      -0.441053       -12.0017
 233   2.0000      -0.439680       -11.9643
 234   2.0000      -0.436604       -11.8806
 235   2.0000      -0.435612       -11.8536
 236   2.0000      -0.434881       -11.8337
 237   2.0000      -0.431891       -11.7524
 238   2.0000      -0.430457       -11.7133
 239   2.0000      -0.428860       -11.6699
 240   2.0000      -0.424559       -11.5528
 241   2.0000      -0.421495       -11.4695
 242   2.0000      -0.418144       -11.3783
 243   2.0000      -0.416363       -11.3298
 244   2.0000      -0.415645       -11.3103
 245   2.0000      -0.414245       -11.2722
 246   2.0000      -0.409768       -11.1504
 247   2.0000      -0.408346       -11.1117
 248   2.0000      -0.406335       -11.0569
 249   2.0000      -0.404045       -10.9946
 250   2.0000      -0.400375       -10.8948
 251   2.0000      -0.398227       -10.8363
 252   2.0000      -0.391062       -10.6413
 253   2.0000      -0.388928       -10.5833
 254   2.0000      -0.368940       -10.0394
 255   2.0000      -0.364711        -9.9243
 256   2.0000      -0.359145        -9.7728
 257   2.0000      -0.350876        -9.5478
 258   2.0000      -0.349025        -9.4975
 259   2.0000      -0.341314        -9.2876
 260   2.0000      -0.337921        -9.1953
 261   2.0000      -0.335029        -9.1166
 262   2.0000      -0.332213        -9.0400
 263   2.0000      -0.330229        -8.9860
 264   2.0000      -0.322904        -8.7867
 265   2.0000      -0.321474        -8.7478
 266   2.0000      -0.316093        -8.6013
 267   2.0000      -0.313176        -8.5220
 268   2.0000      -0.301692        -8.2094
 269   2.0000      -0.293747        -7.9933
 270   2.0000      -0.254668        -6.9299
 271   0.0000      -0.142088        -3.8664
 272   0.0000      -0.104191        -2.8352
 273   0.0000      -0.093110        -2.5337
 274   0.0000      -0.076950        -2.0939
 275   0.0000      -0.054238        -1.4759

MULLIKEN ATOMIC CHARGES
-----------------------
   0 C :    0.030451
   1 C :   -0.129708
   2 S :    0.184359
   3 C :   -0.172829
   4 Cl:   -0.001794
   5 C :    0.086156
   6 C :    0.149514
   7 O :   -0.127408
   8 C :   -0.082220
   9 C :    0.290053
  10 C :   -0.327495
  11 C :   -0.196936
  12 N :    0.156046
  13 C :   -0.184485
  14 N :    0.160300
  15 C :   -0.048671
  16 C :    0.003195
  17 C :    0.155367
  18 O :   -0.283734
  19 C :    0.185499
  20 C :    0.091327
  21 O :   -0.294063
  22 C :    0.181520
  23 C :   -0.050108
  24 C :    0.008714
  25 C :   -0.012949
  26 N :    0.054196
  27 O :   -0.103241
  28 N :    0.028673
  29 C :    0.055045
  30 N :   -0.255769
  31 C :    0.133709
  32 C :   -0.001780
  33 C :    0.158629
  34 O :   -0.176092
  35 C :   -0.033745
  36 C :   -0.087251
  37 C :    0.137863
  38 O :   -0.201847
  39 N :   -0.271201
  40 C :    0.103770
  41 C :   -0.001195
  42 C :    0.128286
  43 C :   -0.033763
  44 C :    0.007731
  45 C :    0.108100
  46 C :   -0.106646
  47 C :    0.126532
  48 C :   -0.087339
  49 C :    0.001641
  50 C :   -0.178086
  51 N :    0.141425
  52 C :    0.115360
  53 C :   -0.048846
  54 C :    0.058488
  55 C :   -0.006755
  56 C :   -0.091360
  57 C :   -0.179061
  58 N :    0.142230
  59 C :    0.039051
  60 C :   -0.136678
  61 C :    0.138067
  62 O :   -0.120420
  63 C :    0.090493
  64 C :   -0.172830
  65 S :    0.189965
  66 C :   -0.124397
  67 C :    0.013861
  68 C :    0.262763
  69 C :   -0.334385
  70 C :   -0.185459
  71 N :    0.165039
  72 C :   -0.185305
  73 N :    0.179234
  74 Cl:    0.004768
  75 H :    0.053336
  76 H :    0.038769
  77 H :    0.027246
  78 H :    0.036627
  79 H :    0.051857
  80 H :    0.046836
  81 H :    0.055898
  82 H :    0.042462
  83 H :    0.024303
  84 H :    0.024077
  85 H :    0.032589
  86 H :    0.014582
  87 H :    0.032414
  88 H :    0.043472
  89 H :    0.029194
  90 H :    0.025508
  91 H :    0.032390
  92 H :    0.022378
  93 H :    0.008082
  94 H :   -0.010079
  95 H :    0.002584
  96 H :    0.018808
  97 H :    0.011268
  98 H :    0.012419
  99 H :    0.037355
 100 H :    0.054051
Sum of atomic charges:   -0.0000000

LOEWDIN ATOMIC CHARGES
----------------------
   0 C :   -0.059462
   1 C :   -0.149192
   2 S :    0.474773
   3 C :   -0.273467
   4 Cl:    0.191374
   5 C :   -0.112051
   6 C :    0.080672
   7 O :   -0.127107
   8 C :   -0.072511
   9 C :    0.076205
  10 C :   -0.133408
  11 C :   -0.015057
  12 N :   -0.051344
  13 C :   -0.022185
  14 N :   -0.045218
  15 C :    0.081760
  16 C :   -0.067142
  17 C :    0.085732
  18 O :   -0.067535
  19 C :    0.082814
  20 C :    0.077291
  21 O :   -0.049658
  22 C :    0.085903
  23 C :   -0.095011
  24 C :   -0.045573
  25 C :   -0.045070
  26 N :   -0.019680
  27 O :    0.068867
  28 N :   -0.025900
  29 C :    0.087973
  30 N :    0.009856
  31 C :    0.039581
  32 C :   -0.061869
  33 C :    0.086478
  34 O :   -0.174365
  35 C :   -0.103361
  36 C :   -0.135468
  37 C :    0.079080
  38 O :   -0.203705
  39 N :   -0.001457
  40 C :    0.036445
  41 C :   -0.063132
  42 C :    0.064334
  43 C :   -0.012836
  44 C :   -0.004857
  45 C :   -0.005165
  46 C :   -0.023542
  47 C :    0.052701
  48 C :   -0.070941
  49 C :    0.059781
  50 C :   -0.030698
  51 N :   -0.052681
  52 C :    0.031572
  53 C :    0.024946
  54 C :   -0.037679
  55 C :    0.050000
  56 C :   -0.075888
  57 C :   -0.027961
  58 N :   -0.062574
  59 C :    0.077064
  60 C :   -0.078078
  61 C :    0.080528
  62 O :   -0.125690
  63 C :   -0.118742
  64 C :   -0.270755
  65 S :    0.478325
  66 C :   -0.150391
  67 C :   -0.058724
  68 C :    0.064351
  69 C :   -0.129757
  70 C :   -0.017139
  71 N :   -0.042989
  72 C :   -0.021985
  73 N :   -0.037474
  74 Cl:    0.195654
  75 H :    0.037407
  76 H :    0.047658
  77 H :    0.018386
  78 H :    0.026425
  79 H :    0.024197
  80 H :    0.031032
  81 H :    0.026621
  82 H :    0.023961
  83 H :    0.025015
  84 H :    0.029401
  85 H :    0.022044
  86 H :    0.029865
  87 H :    0.026037
  88 H :    0.038396
  89 H :    0.024966
  90 H :    0.031273
  91 H :    0.034802
  92 H :    0.022280
  93 H :    0.046421
  94 H :    0.036782
  95 H :    0.036064
  96 H :    0.042211
  97 H :    0.040228
  98 H :    0.037171
  99 H :    0.055555
 100 H :    0.038219

  Mayer bond orders larger than 0.100000
B(  0-C ,  1-C ) :   1.5383 B(  0-C ,  5-C ) :   1.2258 B(  0-C ,  9-C ) :   1.0022
B(  1-C ,  2-S ) :   1.1646 B(  1-C , 75-H ) :   0.9547 B(  2-S ,  3-C ) :   1.1472
B(  3-C ,  4-Cl) :   1.1267 B(  3-C ,  5-C ) :   1.4785 B(  5-C ,  6-C ) :   0.9503
B(  6-C ,  7-O ) :   2.2448 B(  6-C ,  8-C ) :   0.9267 B(  8-C ,  9-C ) :   1.0619
B(  8-C , 15-C ) :   1.6941 B(  9-C , 10-C ) :   1.6623 B( 10-C , 11-C ) :   1.1442
B( 10-C , 13-C ) :   1.1374 B( 11-C , 12-N ) :   2.9921 B( 13-C , 14-N ) :   2.9742
B( 15-C , 16-C ) :   1.0920 B( 15-C , 76-H ) :   0.9288 B( 16-C , 17-C ) :   1.4625
B( 16-C , 25-C ) :   1.1372 B( 17-C , 18-O ) :   1.2964 B( 17-C , 20-C ) :   1.0622
B( 18-O , 19-C ) :   0.8944 B( 19-C , 77-H ) :   0.9756 B( 19-C , 78-H ) :   0.9751
B( 19-C , 79-H ) :   0.9641 B( 20-C , 21-O ) :   1.2272 B( 20-C , 23-C ) :   1.4089
B( 21-O , 22-C ) :   0.9277 B( 22-C , 80-H ) :   0.9734 B( 22-C , 81-H ) :   0.9643
B( 22-C , 82-H ) :   0.9561 B( 23-C , 24-C ) :   1.1269 B( 23-C , 29-C ) :   1.0169
B( 24-C , 25-C ) :   1.1505 B( 24-C , 28-N ) :   1.6022 B( 25-C , 26-N ) :   1.6148
B( 26-N , 27-O ) :   1.0618 B( 26-N , 28-N ) :   0.1680 B( 27-O , 28-N ) :   1.0487
B( 29-C , 30-N ) :   1.2590 B( 29-C , 36-C ) :   1.3742 B( 30-N , 31-C ) :   0.9249
B( 30-N , 33-C ) :   1.0110 B( 31-C , 32-C ) :   1.1136 B( 31-C , 83-H ) :   0.9443
B( 31-C , 84-H ) :   0.9383 B( 32-C , 85-H ) :   0.9599 B( 32-C , 86-H ) :   0.9639
B( 32-C , 87-H ) :   0.9643 B( 33-C , 34-O ) :   2.1275 B( 33-C , 35-C ) :   0.9759
B( 35-C , 36-C ) :   1.2373 B( 35-C , 42-C ) :   1.3445 B( 36-C , 37-C ) :   0.9820
B( 37-C , 38-O ) :   2.0482 B( 37-C , 39-N ) :   1.0600 B( 39-N , 40-C ) :   0.9373
B( 39-N , 42-C ) :   1.1573 B( 40-C , 41-C ) :   1.1184 B( 40-C , 88-H ) :   0.9258
B( 40-C , 89-H ) :   0.9512 B( 41-C , 90-H ) :   0.9609 B( 41-C , 91-H ) :   0.9688
B( 41-C , 92-H ) :   0.9677 B( 42-C , 43-C ) :   1.1857 B( 43-C , 44-C ) :   1.5326
B( 43-C , 93-H ) :   0.9484 B( 44-C , 45-C ) :   1.1364 B( 44-C , 94-H ) :   0.9820
B( 45-C , 46-C ) :   1.5015 B( 45-C , 49-C ) :   1.0307 B( 46-C , 47-C ) :   1.1297
B( 46-C , 95-H ) :   1.0069 B( 47-C , 48-C ) :   1.0919 B( 47-C , 52-C ) :   1.4041
B( 48-C , 49-C ) :   1.7000 B( 48-C , 50-C ) :   1.0915 B( 49-C , 96-H ) :   1.0135
B( 50-C , 51-N ) :   2.9682 B( 52-C , 53-C ) :   1.1099 B( 52-C , 56-C ) :   1.1209
B( 53-C , 54-C ) :   1.5312 B( 53-C , 97-H ) :   1.0037 B( 54-C , 55-C ) :   1.0485
B( 54-C , 59-C ) :   1.0500 B( 55-C , 56-C ) :   1.6681 B( 55-C , 98-H ) :   1.0162
B( 56-C , 57-C ) :   1.1004 B( 57-C , 58-N ) :   2.9671 B( 59-C , 60-C ) :   1.6824
B( 59-C , 99-H ) :   0.9548 B( 60-C , 61-C ) :   0.9285 B( 60-C , 68-C ) :   1.0354
B( 61-C , 62-O ) :   2.2907 B( 61-C , 63-C ) :   0.9239 B( 63-C , 64-C ) :   1.4830
B( 63-C , 67-C ) :   1.2212 B( 64-C , 65-S ) :   1.1536 B( 64-C , 74-Cl) :   1.1333
B( 65-S , 66-C ) :   1.1592 B( 66-C , 67-C ) :   1.5534 B( 66-C ,100-H ) :   0.9564
B( 67-C , 68-C ) :   1.0128 B( 68-C , 69-C ) :   1.6623 B( 69-C , 70-C ) :   1.1391
B( 69-C , 72-C ) :   1.1564 B( 70-C , 71-N ) :   3.0011 B( 72-C , 73-N ) :   2.9886

-----------------------------------------------------------------------------
         ABSORPTION SPECTRUM VIA TRANSITION ELECTRIC DIPOLE MOMENTS
-----------------------------------------------------------------------------
State   Energy  Wavelength   fosc         T2         TX        TY        TZ
        (cm-1)    (nm)                  (au**2)     (au)      (au)      (au)
-----------------------------------------------------------------------------
   0   10822.1    924.0   0.939835560  28.59011   2.94958  -3.97517   2.02192
   1   17351.6    576.3   0.021099666   0.40032  -0.29587  -0.48974   0.27007
   2   17877.1    559.4   0.316783166   5.83366  -1.33801   1.90296  -0.64970
   3   19621.5    509.6   0.007364711   0.12357  -0.12602   0.32814  -0.00223
   4   22324.6    447.9   0.261782362   3.86040  -0.83711   1.75204   0.29998
   5   23255.6    430.0   0.020590053   0.29148  -0.12574  -0.30386  -0.42817
   6   23490.2    425.7   0.257293169   3.60593  -0.39662   1.84641  -0.19849
   7   23985.2    416.9   0.136985114   1.88021  -0.27646   0.17713  -1.33132
   8   25226.2    396.4   0.015071864   0.19669  -0.27482  -0.07263  -0.34043
   9   25649.6    389.9   0.320519458   4.11386  -1.16415   1.59795  -0.45294
  10   26162.1    382.2   0.220000749   2.76839   1.02833  -1.18403   0.55589
  11   26274.7    380.6   0.145178282   1.81903   0.10356  -1.18155   0.64206
  12   26866.4    372.2   0.032771179   0.40157   0.53975  -0.31185   0.11394
  13   27073.0    369.4   0.059889626   0.72827  -0.18983   0.82441   0.11217
  14   27213.8    367.5   0.101855936   1.23218   0.12099   0.95817  -0.54722
  15   27693.3    361.1   0.033380124   0.39682  -0.17036  -0.60577   0.02890
  16   27981.2    357.4   0.036085086   0.42456  -0.55033  -0.23859   0.25450
  17   29205.0    342.4   0.021350317   0.24067  -0.34878   0.34500   0.00073
  18   29377.8    340.4   0.029477260   0.33033  -0.23645   0.03212  -0.52287
  19   30552.1    327.3   0.022477350   0.24220  -0.43516   0.21141   0.09024
  20   30817.8    324.5   0.021463155   0.22928  -0.34526  -0.24660   0.22195
  21   31328.9    319.2   0.005605888   0.05891  -0.07372   0.08967   0.21315
  22   31469.2    317.8   0.202918565   2.12281   1.21927  -0.77636  -0.18292
  23   31672.8    315.7   0.046924874   0.48774  -0.35714  -0.41173  -0.43666
  24   31979.2    312.7   0.055686722   0.57327   0.30205   0.63524  -0.28018
  25   32190.7    310.6   0.035521034   0.36327   0.10196  -0.37923   0.45723
  26   32210.0    310.5   0.087792536   0.89731   0.94028  -0.09171   0.06905
  27   32315.0    309.5   0.015589277   0.15882   0.09662   0.16796  -0.34824
  28   32896.8    304.0   0.077684146   0.77742  -0.75203   0.01035  -0.46017
  29   33655.6    297.1   0.185281469   1.81238   0.55375  -1.22094   0.12271
  30   33725.2    296.5   0.086338345   0.84280  -0.72169   0.50737  -0.25403
  31   34051.1    293.7   0.031564823   0.30517   0.53614  -0.05708   0.12029
  32   34375.3    290.9   0.000389595   0.00373  -0.02573   0.04642  -0.03024
  33   34542.1    289.5   0.032168376   0.30659   0.48047   0.01910  -0.27454
  34   34782.2    287.5   0.014967566   0.14167   0.37559  -0.02213   0.01049
  35   34811.5    287.3   0.014430201   0.13647   0.21513  -0.26991   0.13167
  36   35313.6    283.2   0.011188538   0.10431  -0.31552  -0.05856  -0.03640
  37   35495.5    281.7   0.006406709   0.05942   0.08863  -0.22698   0.00673
  38   35608.3    280.8   0.007858475   0.07265  -0.24343   0.11372  -0.02155
  39   35782.1    279.5   0.139821033   1.28642  -0.75630  -0.83121   0.15335
  40   36150.2    276.6   0.052431193   0.47748  -0.53953   0.42638  -0.06776
  41   36262.2    275.8   0.078816701   0.71555   0.50365  -0.67840   0.04070
  42   36402.6    274.7   0.023428037   0.21187  -0.44883  -0.10174  -0.00854
  43   36566.8    273.5   0.011553286   0.10401  -0.11893   0.29775  -0.03482
  44   36922.4    270.8   0.127574498   1.13749   0.83774  -0.65436  -0.08662
  45   37262.6    268.4   0.252288888   2.22895   1.47229   0.23403  -0.08089
  46   37406.2    267.3   0.147198687   1.29550  -0.78395  -0.78726  -0.24726
  47   37793.3    264.6   0.322218819   2.80680   1.27842  -1.00131   0.41209
  48   38007.1    263.1   0.024030664   0.20815   0.41903  -0.16772   0.06657
  49   38033.5    262.9   0.014061557   0.12171  -0.23572   0.16837   0.19442
  50   38289.4    261.2   0.032437734   0.27890   0.37332  -0.32695  -0.18065
  51   38477.2    259.9   0.068073707   0.58244  -0.48936   0.58037   0.07835
  52   38946.4    256.8   0.020953881   0.17712  -0.22551  -0.17618  -0.30859
  53   39028.9    256.2   0.254831225   2.14952  -1.29324   0.50246  -0.47391
  54   39189.1    255.2   0.009757900   0.08197  -0.23995   0.15618  -0.00206
  55   39344.9    254.2   0.001451997   0.01215   0.01585  -0.00918   0.10869
  56   39742.4    251.6   0.034689619   0.28736   0.40867   0.30846  -0.15874
  57   39869.6    250.8   0.021460007   0.17720   0.26117  -0.08848  -0.31805
  58   40177.4    248.9   0.067843613   0.55591  -0.69216  -0.26882   0.06757

FINAL SINGLE POINT ENERGY     -4859.502063445291

DIPOLE MOMENT
-------------
                                X             Y             Z
Electronic contribution:     38.80141      -4.72989      14.42757
Nuclear contribution   :    -37.93915       3.48916     -13.13614
                        -----------------------------------------
Total Dipole Moment    :      0.86226      -1.24072       1.29142
                        -----------------------------------------
Magnitude (a.u.)       :      1.98762
Magnitude (Debye)      :      5.05214

Rotational constants in cm-1:     0.002513     0.000183     0.000180
Rotational constants in MHz :    75.323939     5.478772     5.384204

                             ****ORCA TERMINATED NORMALLY****
TOTAL RUN TIME: 0 days 0 hours 11 minutes 53 seconds 450 msec
