                         Program Version 4.2.0 -  RELEASE  -
|  1> # ORCA input file
|  2> # SCF done       -169.608775750590          0.003126154405
|  3> ! CAM-B3LYP def2-SVP def2/J RIJCOSX Grid4 TightSCF
|  4> %maxcore 5000
|  5> %tddft
|  6>     Mode sTDDFT
|  7>     Ethresh 5.0
|  8>     maxcore 5000
|  9> end
| 10>
| 11> %pal
| 12>   nprocs 6
| 13>   end
| 14> * xyz 0 1
| 15>    C        7.47530        -2.47071         3.34261
| 16>    C        8.36772        -3.30182         3.94638
| 17>    S        7.71841        -4.89053         4.12980
| 18>    C        6.20510        -4.42667         3.38752
| 19>   Cl        4.95640        -5.54416         3.19193
| 20>    C        6.23655        -3.11486         3.01457
| 21>    C        5.35616        -2.16907         2.32120
| 22>    O        4.19369        -2.30278         2.01844
| 23>    C        6.20496        -0.95103         2.11873
| 24>    C        7.43028        -1.09120         2.90013
| 25>    C        8.41032        -0.16362         3.10759
| 26>    C        9.62171        -0.52177         3.73568
| 27>    N       10.62409        -0.82565         4.20416
| 28>    C        8.33246         1.19539         2.73470
| 29>    N        8.30978         2.31586         2.49118
| 30>    C        5.97180         0.00195         1.19174
| 31>    C        5.03106        -0.09488         0.08989
| 32>    C        4.97767        -1.19158        -0.69822
| 33>    C        4.12299        -1.29360        -1.93407
| 34>    C        3.36702        -0.04523        -2.20655
| 35>    C        3.42461         1.09910        -1.38083
| 36>    C        4.25629         1.17214        -0.15563
| 37>    N        2.66269         2.07807        -1.82004
| 38>    S        1.91975         1.60035        -3.18085
| 39>    N        2.56176         0.11055        -3.23666
| 40>    C        5.87726        -2.32041        -0.44632
| 41>    N        5.50299        -3.63016        -0.30829
| 42>    C        4.17427        -4.19575        -0.35407
| 43>    C        3.89702        -4.87659        -1.69205
| 44>    C        6.59353        -4.44324         0.07492
| 45>    O        6.48075        -5.62661         0.33211
| 46>    C        7.72111        -3.54761         0.10977
| 47>    C        7.24361        -2.25208        -0.24396
| 48>    C        8.34380        -1.32533        -0.13275
| 49>    O        8.41307        -0.12240        -0.28882
| 50>    N        9.42410        -2.12028         0.29181
| 51>    C       10.74196        -1.55839         0.47178
| 52>    C       11.68422        -1.93852        -0.66716
| 53>    C        9.06078        -3.43843         0.45993
| 54>    C        9.93623        -4.43052         0.98104
| 55>    C        9.55141        -5.71384         1.16022
| 56>    C       10.39724        -6.75625         1.66584
| 57>    C       10.01125        -8.10258         1.54976
| 58>    N       10.80113        -9.10046         1.86973
| 59>    C       12.00616        -8.79500         2.36066
| 60>    N       12.41328        -7.56125         2.65272
| 61>    C       11.63515        -6.56445         2.30160
| 62>    C       12.91920        -9.87844         2.66388
| 63>    C       13.02010       -11.05177         2.01149
| 64>    C       13.75337       -12.20244         2.64548
| 65>    O       14.50702       -12.14266         3.58326
| 66>    C       13.28960       -13.37553         1.89769
| 67>    C       13.44313       -14.72931         1.96485
| 68>    S       12.54689       -15.51107         0.68542
| 69>    C       11.98471       -14.00233         0.06598
| 70>    C       12.45353       -12.96209         0.80648
| 71>    C       12.39344       -11.51443         0.77704
| 72>    C       12.02018       -10.77056        -0.30471
| 73>    C       11.47686       -11.37797        -1.45805
| 74>    N       11.02574       -11.86336        -2.39419
| 75>    C       12.20123        -9.37847        -0.43930
| 76>    N       12.37165        -8.26205        -0.64277
| 77>   Cl       14.34893       -15.62295         3.08220
| 78>    H        9.35702        -3.09642         4.30304
| 79>    H        6.59245         0.89041         1.17736
| 80>    H        3.40991        -2.11688        -1.84272
| 81>    H        4.76262        -1.52774        -2.79300
| 82>    H        3.61824         1.38444         0.70990
| 83>    H        4.95795         2.01042        -0.23614
| 84>    H        3.44783        -3.41656        -0.12051
| 85>    H        4.13003        -4.94994         0.43680
| 86>    H        4.02074        -4.18958        -2.52579
| 87>    H        2.88144        -5.26218        -1.70277
| 88>    H        4.58561        -5.70701        -1.82585
| 89>    H       11.14822        -1.87076         1.43874
| 90>    H       10.60486        -0.47303         0.48738
| 91>    H       11.80803        -3.01713        -0.73276
| 92>    H       12.65677        -1.48357        -0.50276
| 93>    H       11.28739        -1.57856        -1.61313
| 94>    H       10.93899        -4.12067         1.23459
| 95>    H        8.55229        -6.01333         0.87086
| 96>    H        9.03546        -8.36821         1.16193
| 97>    H       12.00263        -5.57873         2.55370
| 98>    H       13.55516        -9.73073         3.52853
| 99>    H       11.34191       -13.99024        -0.79193
|100> *
|101>
|102>                          ****END OF INPUT****

CARTESIAN COORDINATES (ANGSTROEM)
---------------------------------
  C      7.475300   -2.470710    3.342610
  C      8.367720   -3.301820    3.946380
  S      7.718410   -4.890530    4.129800
  C      6.205100   -4.426670    3.387520
  Cl     4.956400   -5.544160    3.191930
  C      6.236550   -3.114860    3.014570
  C      5.356160   -2.169070    2.321200
  O      4.193690   -2.302780    2.018440
  C      6.204960   -0.951030    2.118730
  C      7.430280   -1.091200    2.900130
  C      8.410320   -0.163620    3.107590
  C      9.621710   -0.521770    3.735680
  N     10.624090   -0.825650    4.204160
  C      8.332460    1.195390    2.734700
  N      8.309780    2.315860    2.491180
  C      5.971800    0.001950    1.191740
  C      5.031060   -0.094880    0.089890
  C      4.977670   -1.191580   -0.698220
  C      4.122990   -1.293600   -1.934070
  C      3.367020   -0.045230   -2.206550
  C      3.424610    1.099100   -1.380830
  C      4.256290    1.172140   -0.155630
  N      2.662690    2.078070   -1.820040
  S      1.919750    1.600350   -3.180850
  N      2.561760    0.110550   -3.236660
  C      5.877260   -2.320410   -0.446320
  N      5.502990   -3.630160   -0.308290
  C      4.174270   -4.195750   -0.354070
  C      3.897020   -4.876590   -1.692050
  C      6.593530   -4.443240    0.074920
  O      6.480750   -5.626610    0.332110
  C      7.721110   -3.547610    0.109770
  C      7.243610   -2.252080   -0.243960
  C      8.343800   -1.325330   -0.132750
  O      8.413070   -0.122400   -0.288820
  N      9.424100   -2.120280    0.291810
  C     10.741960   -1.558390    0.471780
  C     11.684220   -1.938520   -0.667160
  C      9.060780   -3.438430    0.459930
  C      9.936230   -4.430520    0.981040
  C      9.551410   -5.713840    1.160220
  C     10.397240   -6.756250    1.665840
  C     10.011250   -8.102580    1.549760
  N     10.801130   -9.100460    1.869730
  C     12.006160   -8.795000    2.360660
  N     12.413280   -7.561250    2.652720
  C     11.635150   -6.564450    2.301600
  C     12.919200   -9.878440    2.663880
  C     13.020100  -11.051770    2.011490
  C     13.753370  -12.202440    2.645480
  O     14.507020  -12.142660    3.583260
  C     13.289600  -13.375530    1.897690
  C     13.443130  -14.729310    1.964850
  S     12.546890  -15.511070    0.685420
  C     11.984710  -14.002330    0.065980
  C     12.453530  -12.962090    0.806480
  C     12.393440  -11.514430    0.777040
  C     12.020180  -10.770560   -0.304710
  C     11.476860  -11.377970   -1.458050
  N     11.025740  -11.863360   -2.394190
  C     12.201230   -9.378470   -0.439300
  N     12.371650   -8.262050   -0.642770
  Cl    14.348930  -15.622950    3.082200
  H      9.357020   -3.096420    4.303040
  H      6.592450    0.890410    1.177360
  H      3.409910   -2.116880   -1.842720
  H      4.762620   -1.527740   -2.793000
  H      3.618240    1.384440    0.709900
  H      4.957950    2.010420   -0.236140
  H      3.447830   -3.416560   -0.120510
  H      4.130030   -4.949940    0.436800
  H      4.020740   -4.189580   -2.525790
  H      2.881440   -5.262180   -1.702770
  H      4.585610   -5.707010   -1.825850
  H     11.148220   -1.870760    1.438740
  H     10.604860   -0.473030    0.487380
  H     11.808030   -3.017130   -0.732760
  H     12.656770   -1.483570   -0.502760
  H     11.287390   -1.578560   -1.613130
  H     10.938990   -4.120670    1.234590
  H      8.552290   -6.013330    0.870860
  H      9.035460   -8.368210    1.161930
  H     12.002630   -5.578730    2.553700
  H     13.555160   -9.730730    3.528530
  H     11.341910  -13.990240   -0.791930

 Total Charge           Charge          ....    0
 Multiplicity           Mult            ....    1
 Number of Electrons    NEL             ....  470
 Basis Dimension        Dim             .... 1012

ORBITAL ENERGIES
----------------

  NO   OCC          E(Eh)            E(eV)
   0   2.0000    -101.624165     -2765.3341
   1   2.0000    -101.620619     -2765.2376
   2   2.0000     -89.005429     -2421.9608
   3   2.0000     -89.000185     -2421.8181
   4   2.0000     -88.997545     -2421.7463
   5   2.0000     -19.228154      -523.2247
   6   2.0000     -19.225341      -523.1481
   7   2.0000     -19.204098      -522.5701
   8   2.0000     -19.199835      -522.4541
   9   2.0000     -14.467062      -393.6688
  10   2.0000     -14.463368      -393.5683
  11   2.0000     -14.433651      -392.7596
  12   2.0000     -14.432933      -392.7401
  13   2.0000     -14.430477      -392.6732
  14   2.0000     -14.429676      -392.6514
  15   2.0000     -14.429380      -392.6434
  16   2.0000     -14.424903      -392.5216
  17   2.0000     -14.423836      -392.4925
  18   2.0000     -14.421780      -392.4366
  19   2.0000     -10.385166      -282.5947
  20   2.0000     -10.384489      -282.5763
  21   2.0000     -10.383252      -282.5426
  22   2.0000     -10.382052      -282.5100
  23   2.0000     -10.381363      -282.4912
  24   2.0000     -10.380082      -282.4564
  25   2.0000     -10.363577      -282.0073
  26   2.0000     -10.354541      -281.7614
  27   2.0000     -10.353829      -281.7420
  28   2.0000     -10.353617      -281.7362
  29   2.0000     -10.352229      -281.6985
  30   2.0000     -10.351936      -281.6905
  31   2.0000     -10.350120      -281.6411
  32   2.0000     -10.339691      -281.3573
  33   2.0000     -10.337233      -281.2904
  34   2.0000     -10.335585      -281.2456
  35   2.0000     -10.332651      -281.1657
  36   2.0000     -10.331553      -281.1359
  37   2.0000     -10.326579      -281.0005
  38   2.0000     -10.326333      -280.9938
  39   2.0000     -10.323380      -280.9135
  40   2.0000     -10.323003      -280.9032
  41   2.0000     -10.322145      -280.8798
  42   2.0000     -10.321948      -280.8745
  43   2.0000     -10.319668      -280.8124
  44   2.0000     -10.318700      -280.7861
  45   2.0000     -10.317516      -280.7539
  46   2.0000     -10.317193      -280.7451
  47   2.0000     -10.314674      -280.6766
  48   2.0000     -10.314054      -280.6597
  49   2.0000     -10.312895      -280.6281
  50   2.0000     -10.311080      -280.5788
  51   2.0000     -10.310939      -280.5749
  52   2.0000     -10.310315      -280.5579
  53   2.0000     -10.306478      -280.4535
  54   2.0000     -10.305179      -280.4182
  55   2.0000     -10.304670      -280.4043
  56   2.0000     -10.304356      -280.3958
  57   2.0000     -10.302329      -280.3406
  58   2.0000     -10.298752      -280.2433
  59   2.0000     -10.269844      -279.4567
  60   2.0000     -10.268744      -279.4267
  61   2.0000     -10.267345      -279.3886
  62   2.0000     -10.265084      -279.3271
  63   2.0000      -9.578642      -260.6481
  64   2.0000      -9.575382      -260.5594
  65   2.0000      -8.098375      -220.3680
  66   2.0000      -8.095399      -220.2870
  67   2.0000      -8.093208      -220.2274
  68   2.0000      -7.349230      -199.9827
  69   2.0000      -7.346001      -199.8948
  70   2.0000      -7.338658      -199.6950
  71   2.0000      -7.338219      -199.6831
  72   2.0000      -7.335437      -199.6074
  73   2.0000      -7.334886      -199.5924
  74   2.0000      -6.069933      -165.1713
  75   2.0000      -6.064804      -165.0317
  76   2.0000      -6.062541      -164.9701
  77   2.0000      -6.062393      -164.9661
  78   2.0000      -6.060201      -164.9064
  79   2.0000      -6.059590      -164.8898
  80   2.0000      -6.057974      -164.8459
  81   2.0000      -6.057681      -164.8379
  82   2.0000      -6.055535      -164.7795
  83   2.0000      -1.147989       -31.2384
  84   2.0000      -1.142917       -31.1003
  85   2.0000      -1.142613       -31.0921
  86   2.0000      -1.137222       -30.9454
  87   2.0000      -1.117014       -30.3955
  88   2.0000      -1.104023       -30.0420
  89   2.0000      -1.074775       -29.2461
  90   2.0000      -1.065953       -29.0061
  91   2.0000      -1.044590       -28.4247
  92   2.0000      -1.041931       -28.3524
  93   2.0000      -1.023406       -27.8483
  94   2.0000      -1.021472       -27.7957
  95   2.0000      -1.003906       -27.3177
  96   2.0000      -1.003639       -27.3104
  97   2.0000      -0.996832       -27.1252
  98   2.0000      -0.995310       -27.0838
  99   2.0000      -0.991964       -26.9927
 100   2.0000      -0.973655       -26.4945
 101   2.0000      -0.972704       -26.4686
 102   2.0000      -0.959393       -26.1064
 103   2.0000      -0.957177       -26.0461
 104   2.0000      -0.945135       -25.7184
 105   2.0000      -0.935316       -25.4512
 106   2.0000      -0.914305       -24.8795
 107   2.0000      -0.913267       -24.8513
 108   2.0000      -0.902190       -24.5498
 109   2.0000      -0.897706       -24.4278
 110   2.0000      -0.884704       -24.0740
 111   2.0000      -0.873412       -23.7667
 112   2.0000      -0.867632       -23.6095
 113   2.0000      -0.849857       -23.1258
 114   2.0000      -0.838462       -22.8157
 115   2.0000      -0.836494       -22.7622
 116   2.0000      -0.826198       -22.4820
 117   2.0000      -0.820631       -22.3305
 118   2.0000      -0.804320       -21.8867
 119   2.0000      -0.790963       -21.5232
 120   2.0000      -0.780670       -21.2431
 121   2.0000      -0.767072       -20.8731
 122   2.0000      -0.766528       -20.8583
 123   2.0000      -0.760187       -20.6857
 124   2.0000      -0.759656       -20.6713
 125   2.0000      -0.752574       -20.4786
 126   2.0000      -0.738505       -20.0957
 127   2.0000      -0.717078       -19.5127
 128   2.0000      -0.710788       -19.3415
 129   2.0000      -0.707454       -19.2508
 130   2.0000      -0.697993       -18.9934
 131   2.0000      -0.691614       -18.8198
 132   2.0000      -0.686746       -18.6873
 133   2.0000      -0.682615       -18.5749
 134   2.0000      -0.680120       -18.5070
 135   2.0000      -0.670223       -18.2377
 136   2.0000      -0.667961       -18.1761
 137   2.0000      -0.658280       -17.9127
 138   2.0000      -0.655445       -17.8356
 139   2.0000      -0.640428       -17.4269
 140   2.0000      -0.627074       -17.0636
 141   2.0000      -0.624868       -17.0035
 142   2.0000      -0.622875       -16.9493
 143   2.0000      -0.617812       -16.8115
 144   2.0000      -0.615057       -16.7366
 145   2.0000      -0.608511       -16.5584
 146   2.0000      -0.600395       -16.3376
 147   2.0000      -0.593920       -16.1614
 148   2.0000      -0.589125       -16.0309
 149   2.0000      -0.587172       -15.9778
 150   2.0000      -0.578853       -15.7514
 151   2.0000      -0.573390       -15.6027
 152   2.0000      -0.572671       -15.5832
 153   2.0000      -0.565913       -15.3993
 154   2.0000      -0.559765       -15.2320
 155   2.0000      -0.552745       -15.0410
 156   2.0000      -0.550481       -14.9794
 157   2.0000      -0.548649       -14.9295
 158   2.0000      -0.544268       -14.8103
 159   2.0000      -0.543013       -14.7761
 160   2.0000      -0.539700       -14.6860
 161   2.0000      -0.536994       -14.6124
 162   2.0000      -0.536503       -14.5990
 163   2.0000      -0.535120       -14.5614
 164   2.0000      -0.530883       -14.4461
 165   2.0000      -0.529123       -14.3982
 166   2.0000      -0.528203       -14.3731
 167   2.0000      -0.526066       -14.3150
 168   2.0000      -0.524735       -14.2788
 169   2.0000      -0.519897       -14.1471
 170   2.0000      -0.518293       -14.1035
 171   2.0000      -0.516054       -14.0425
 172   2.0000      -0.511018       -13.9055
 173   2.0000      -0.509139       -13.8544
 174   2.0000      -0.507048       -13.7975
 175   2.0000      -0.505457       -13.7542
 176   2.0000      -0.503252       -13.6942
 177   2.0000      -0.501139       -13.6367
 178   2.0000      -0.500373       -13.6158
 179   2.0000      -0.496669       -13.5150
 180   2.0000      -0.491166       -13.3653
 181   2.0000      -0.488906       -13.3038
 182   2.0000      -0.486027       -13.2255
 183   2.0000      -0.483624       -13.1601
 184   2.0000      -0.480948       -13.0873
 185   2.0000      -0.476981       -12.9793
 186   2.0000      -0.468233       -12.7413
 187   2.0000      -0.465524       -12.6675
 188   2.0000      -0.461765       -12.5653
 189   2.0000      -0.460937       -12.5427
 190   2.0000      -0.459929       -12.5153
 191   2.0000      -0.459398       -12.5009
 192   2.0000      -0.456432       -12.4201
 193   2.0000      -0.455863       -12.4047
 194   2.0000      -0.454445       -12.3661
 195   2.0000      -0.453346       -12.3362
 196   2.0000      -0.450988       -12.2720
 197   2.0000      -0.450114       -12.2482
 198   2.0000      -0.447067       -12.1653
 199   2.0000      -0.443205       -12.0602
 200   2.0000      -0.439457       -11.9582
 201   2.0000      -0.439287       -11.9536
 202   2.0000      -0.437234       -11.8978
 203   2.0000      -0.435718       -11.8565
 204   2.0000      -0.432638       -11.7727
 205   2.0000      -0.430618       -11.7177
 206   2.0000      -0.424181       -11.5425
 207   2.0000      -0.421829       -11.4785
 208   2.0000      -0.416230       -11.3262
 209   2.0000      -0.414753       -11.2860
 210   2.0000      -0.411475       -11.1968
 211   2.0000      -0.408328       -11.1112
 212   2.0000      -0.406821       -11.0702
 213   2.0000      -0.405675       -11.0390
 214   2.0000      -0.400723       -10.9042
 215   2.0000      -0.398640       -10.8476
 216   2.0000      -0.394397       -10.7321
 217   2.0000      -0.377827       -10.2812
 218   2.0000      -0.375043       -10.2055
 219   2.0000      -0.364882        -9.9289
 220   2.0000      -0.362097        -9.8532
 221   2.0000      -0.358951        -9.7676
 222   2.0000      -0.352288        -9.5862
 223   2.0000      -0.349058        -9.4983
 224   2.0000      -0.344161        -9.3651
 225   2.0000      -0.342204        -9.3118
 226   2.0000      -0.340007        -9.2521
 227   2.0000      -0.335949        -9.1416
 228   2.0000      -0.335132        -9.1194
 229   2.0000      -0.325643        -8.8612
 230   2.0000      -0.324540        -8.8312
 231   2.0000      -0.320364        -8.7175
 232   2.0000      -0.309035        -8.4093
 233   2.0000      -0.307878        -8.3778
 234   2.0000      -0.253690        -6.9033
 235   0.0000      -0.109304        -2.9743
 236   0.0000      -0.096549        -2.6272
 237   0.0000      -0.072670        -1.9775
 238   0.0000      -0.057580        -1.5668
 239   0.0000      -0.050558        -1.3758

MULLIKEN ATOMIC CHARGES
-----------------------
   0 C :    0.041321
   1 C :   -0.135829
   2 S :    0.184629
   3 C :   -0.166547
   4 Cl:    0.016306
   5 C :    0.074320
   6 C :    0.170696
   7 O :   -0.133593
   8 C :   -0.129978
   9 C :    0.298705
  10 C :   -0.330060
  11 C :   -0.188529
  12 N :    0.147281
  13 C :   -0.182823
  14 N :    0.175387
  15 C :   -0.001936
  16 C :   -0.129418
  17 C :   -0.141531
  18 C :    0.316335
  19 C :   -0.150241
  20 C :   -0.145179
  21 C :    0.292155
  22 N :   -0.270408
  23 S :    0.451808
  24 N :   -0.274059
  25 C :    0.008373
  26 N :   -0.258406
  27 C :    0.097554
  28 C :    0.010562
  29 C :    0.164624
  30 O :   -0.214622
  31 C :   -0.068826
  32 C :   -0.007015
  33 C :    0.142887
  34 O :   -0.199507
  35 N :   -0.276122
  36 C :    0.080811
  37 C :    0.013533
  38 C :    0.130556
  39 C :   -0.001973
  40 C :    0.009593
  41 C :    0.048225
  42 C :    0.040389
  43 N :   -0.066829
  44 C :   -0.093503
  45 N :   -0.037587
  46 C :    0.035394
  47 C :    0.099574
  48 C :   -0.112718
  49 C :    0.132803
  50 O :   -0.117356
  51 C :    0.081595
  52 C :   -0.167890
  53 S :    0.189977
  54 C :   -0.126532
  55 C :    0.018992
  56 C :    0.292972
  57 C :   -0.302057
  58 C :   -0.197546
  59 N :    0.160330
  60 C :   -0.177008
  61 N :    0.160972
  62 Cl:    0.003348
  63 H :    0.046416
  64 H :    0.057601
  65 H :    0.039424
  66 H :    0.044127
  67 H :    0.045168
  68 H :    0.052993
  69 H :    0.047166
  70 H :    0.024582
  71 H :    0.016033
  72 H :    0.022568
  73 H :    0.032935
  74 H :    0.031044
  75 H :    0.051706
  76 H :    0.021731
  77 H :    0.028720
  78 H :    0.027619
  79 H :   -0.018976
  80 H :    0.015473
  81 H :    0.022587
  82 H :    0.010908
  83 H :    0.038654
  84 H :    0.055144
Sum of atomic charges:   -0.0000000

LOEWDIN ATOMIC CHARGES
----------------------
   0 C :   -0.055027
   1 C :   -0.151203
   2 S :    0.483353
   3 C :   -0.266364
   4 Cl:    0.215234
   5 C :   -0.118860
   6 C :    0.080494
   7 O :   -0.132885
   8 C :   -0.074998
   9 C :    0.075499
  10 C :   -0.127797
  11 C :   -0.009357
  12 N :   -0.057273
  13 C :   -0.021882
  14 N :   -0.034974
  15 C :    0.087823
  16 C :   -0.002403
  17 C :   -0.016441
  18 C :   -0.018134
  19 C :   -0.059059
  20 C :   -0.059140
  21 C :   -0.015914
  22 N :   -0.272169
  23 S :    0.584749
  24 N :   -0.275312
  25 C :    0.077686
  26 N :    0.016207
  27 C :    0.033386
  28 C :   -0.062375
  29 C :    0.076763
  30 O :   -0.203020
  31 C :   -0.129131
  32 C :   -0.131799
  33 C :    0.074407
  34 O :   -0.196718
  35 N :    0.001618
  36 C :    0.032489
  37 C :   -0.058840
  38 C :    0.078047
  39 C :   -0.038134
  40 C :    0.026480
  41 C :   -0.060304
  42 C :    0.065255
  43 N :   -0.071623
  44 C :    0.014961
  45 N :   -0.061417
  46 C :    0.064933
  47 C :    0.065502
  48 C :   -0.055324
  49 C :    0.082114
  50 O :   -0.121996
  51 C :   -0.118980
  52 C :   -0.272089
  53 S :    0.480077
  54 C :   -0.151498
  55 C :   -0.055302
  56 C :    0.076184
  57 C :   -0.118221
  58 C :   -0.015266
  59 N :   -0.046572
  60 C :   -0.017270
  61 N :   -0.050222
  62 Cl:    0.194458
  63 H :    0.034465
  64 H :    0.050204
  65 H :    0.052237
  66 H :    0.054977
  67 H :    0.056753
  68 H :    0.059104
  69 H :    0.027213
  70 H :    0.026135
  71 H :    0.020193
  72 H :    0.031730
  73 H :    0.032877
  74 H :    0.022637
  75 H :    0.039288
  76 H :    0.023804
  77 H :    0.033805
  78 H :    0.032281
  79 H :    0.030113
  80 H :    0.036743
  81 H :    0.033245
  82 H :    0.026527
  83 H :    0.054918
  84 H :    0.038325

  Mayer bond orders larger than 0.100000
B(  0-C ,  1-C ) :   1.5444 B(  0-C ,  5-C ) :   1.2249 B(  0-C ,  9-C ) :   1.0049
B(  1-C ,  2-S ) :   1.1586 B(  1-C , 63-H ) :   0.9544 B(  2-S ,  3-C ) :   1.1553
B(  3-C ,  4-Cl) :   1.1333 B(  3-C ,  5-C ) :   1.4705 B(  5-C ,  6-C ) :   0.9370
B(  6-C ,  7-O ) :   2.2335 B(  6-C ,  8-C ) :   0.9146 B(  8-C ,  9-C ) :   1.0311
B(  8-C , 15-C ) :   1.7607 B(  9-C , 10-C ) :   1.6803 B( 10-C , 11-C ) :   1.1526
B( 10-C , 13-C ) :   1.1349 B( 11-C , 12-N ) :   2.9443 B( 13-C , 14-N ) :   2.9918
B( 15-C , 16-C ) :   1.0561 B( 15-C , 64-H ) :   0.9112 B( 16-C , 17-C ) :   1.8446
B( 16-C , 21-C ) :   1.0026 B( 17-C , 18-C ) :   1.0105 B( 17-C , 25-C ) :   1.0046
B( 18-C , 19-C ) :   1.0430 B( 18-C , 65-H ) :   0.8694 B( 18-C , 66-H ) :   0.8715
B( 19-C , 20-C ) :   1.2689 B( 19-C , 24-N ) :   1.6461 B( 20-C , 21-C ) :   1.0645
B( 20-C , 22-N ) :   1.6441 B( 21-C , 67-H ) :   0.8687 B( 21-C , 68-H ) :   0.8785
B( 22-N , 23-S ) :   1.2130 B( 22-N , 24-N ) :   0.1274 B( 23-S , 24-N ) :   1.2089
B( 25-C , 26-N ) :   1.2105 B( 25-C , 32-C ) :   1.4249 B( 26-N , 27-C ) :   0.9297
B( 26-N , 29-C ) :   1.0479 B( 27-C , 28-C ) :   1.1082 B( 27-C , 69-H ) :   0.9458
B( 27-C , 70-H ) :   0.9266 B( 28-C , 71-H ) :   0.9653 B( 28-C , 72-H ) :   0.9670
B( 28-C , 73-H ) :   0.9605 B( 29-C , 30-O ) :   2.0003 B( 29-C , 31-C ) :   1.0029
B( 30-O , 80-H ) :   0.1112 B( 31-C , 32-C ) :   1.2129 B( 31-C , 38-C ) :   1.3630
B( 32-C , 33-C ) :   0.9842 B( 33-C , 34-O ) :   2.1016 B( 33-C , 35-N ) :   1.0381
B( 35-N , 36-C ) :   0.9351 B( 35-N , 38-C ) :   1.1544 B( 36-C , 37-C ) :   1.1207
B( 36-C , 74-H ) :   0.9429 B( 36-C , 75-H ) :   0.9266 B( 37-C , 76-H ) :   0.9678
B( 37-C , 77-H ) :   0.9672 B( 37-C , 78-H ) :   0.9623 B( 38-C , 39-C ) :   1.1503
B( 39-C , 40-C ) :   1.6312 B( 39-C , 79-H ) :   0.9594 B( 40-C , 41-C ) :   1.0650
B( 40-C , 80-H ) :   0.9596 B( 41-C , 42-C ) :   1.2981 B( 41-C , 46-C ) :   1.2960
B( 42-C , 43-N ) :   1.5502 B( 42-C , 81-H ) :   0.9892 B( 43-N , 44-C ) :   1.4762
B( 44-C , 45-N ) :   1.4994 B( 44-C , 47-C ) :   0.9876 B( 45-N , 46-C ) :   1.5782
B( 46-C , 82-H ) :   0.9827 B( 47-C , 48-C ) :   1.7649 B( 47-C , 83-H ) :   0.9472
B( 48-C , 49-C ) :   0.9190 B( 48-C , 56-C ) :   1.0029 B( 49-C , 50-O ) :   2.2973
B( 49-C , 51-C ) :   0.9243 B( 51-C , 52-C ) :   1.4803 B( 51-C , 55-C ) :   1.2210
B( 52-C , 53-S ) :   1.1562 B( 52-C , 62-Cl) :   1.1311 B( 53-S , 54-C ) :   1.1615
B( 54-C , 55-C ) :   1.5464 B( 54-C , 84-H ) :   0.9556 B( 55-C , 56-C ) :   1.0176
B( 56-C , 57-C ) :   1.7015 B( 57-C , 58-C ) :   1.1382 B( 57-C , 60-C ) :   1.1475
B( 58-C , 59-N ) :   3.0020 B( 60-C , 61-N ) :   2.9934

-----------------------------------------------------------------------------
         ABSORPTION SPECTRUM VIA TRANSITION ELECTRIC DIPOLE MOMENTS
-----------------------------------------------------------------------------
State   Energy  Wavelength   fosc         T2         TX        TY        TZ
        (cm-1)    (nm)                  (au**2)     (au)      (au)      (au)
-----------------------------------------------------------------------------
   0   12809.9    780.6   0.035412517   0.91009   0.81531  -0.48239  -0.11256
   1   18357.2    544.7   0.393059626   7.04902  -1.86763   1.85939  -0.32190
   2   21375.7    467.8   0.002042966   0.03146   0.07955   0.15777   0.01560
   3   23679.6    422.3   0.041381855   0.57532   0.74267   0.08024   0.13164
   4   24644.0    405.8   0.115404463   1.54165   0.95158   0.35401   0.71472
   5   25810.2    387.4   0.010830234   0.13814   0.12900  -0.11109  -0.33039
   6   27164.0    368.1   0.154869332   1.87693  -0.46755   1.13759   0.60349
   7   27434.0    364.5   0.040500592   0.48601   0.36337   0.11104   0.58451
   8   27955.9    357.7   0.054069628   0.63673   0.03928   0.77974   0.16491
   9   28649.9    349.0   0.012352960   0.14195   0.08723  -0.32891  -0.16173
  10   28980.2    345.1   0.066949660   0.76054  -0.52549   0.67288  -0.17788
  11   29507.6    338.9   0.048105843   0.53671   0.17230  -0.69328  -0.16244
  12   29781.3    335.8   0.078105375   0.86340   0.45905  -0.79085   0.16501
  13   30149.0    331.7   0.032123488   0.35077   0.18931   0.51452  -0.22406
  14   30450.8    328.4   0.061095311   0.66052  -0.58444  -0.02189  -0.56433
  15   31518.0    317.3   0.003021846   0.03156  -0.16181   0.07180  -0.01503
  16   31544.4    317.0   0.043198236   0.45084  -0.08807  -0.58087  -0.32507
  17   32361.0    309.0   0.004009962   0.04079   0.15655  -0.08919   0.09128
  18   32711.9    305.7   0.020308093   0.20438  -0.14689   0.35801  -0.23374
  19   32926.6    303.7   0.024355310   0.24351  -0.29373   0.19719  -0.34402
  20   33317.3    300.1   0.160141323   1.58237  -0.47182   1.14137  -0.23881
  21   33498.2    298.5   0.061720324   0.60657  -0.17454  -0.75774   0.04397
  22   33993.1    294.2   0.061541035   0.59600   0.55940   0.42070   0.32571
  23   34587.6    289.1   0.188835863   1.79738   0.67937  -0.91451   0.70676
  24   34779.8    287.5   0.039486662   0.37377   0.26404  -0.43740   0.33575
  25   34835.4    287.1   0.013985366   0.13217  -0.28729  -0.13148  -0.17986
  26   35150.6    284.5   0.283222334   2.65259  -0.21633  -1.56460   0.39727
  27   35359.3    282.8   0.064023820   0.59609   0.09872  -0.75256   0.14140
  28   35588.4    281.0   0.005609230   0.05189  -0.03535   0.22489   0.00788
  29   35747.4    279.7   0.342345282   3.15280  -0.53605   1.30265  -1.08099
  30   35959.5    278.1   0.003009520   0.02755  -0.05998   0.12289  -0.09409
  31   36326.8    275.3   0.040252987   0.36479   0.01425   0.59138  -0.12190
  32   36875.3    271.2   0.154873867   1.38267  -0.20472  -1.14487   0.17330
  33   37122.8    269.4   0.018105471   0.16056   0.02058   0.38519   0.10848
  34   37440.3    267.1   0.046479024   0.40869  -0.54793  -0.12177  -0.30600
  35   37856.6    264.2   0.540771504   4.70271  -0.35265   1.97649  -0.81966
  36   38071.6    262.7   0.008678841   0.07505  -0.23927   0.09359  -0.09507
  37   38185.9    261.9   0.115654321   0.99709  -0.21309  -0.97455  -0.04393
  38   38342.8    260.8   0.110819621   0.95150  -0.37247  -0.90145   0.01238
  39   38627.8    258.9   0.106335874   0.90626  -0.52605  -0.73767   0.29219
  40   38928.3    256.9   0.086699284   0.73321  -0.20997  -0.75068   0.35441
  41   39367.9    254.0   0.013688708   0.11447   0.03547  -0.13211   0.30945
  42   39835.3    251.0   0.024381323   0.20149  -0.36018  -0.17676  -0.20130
  43   40191.0    248.8   0.034513854   0.28271   0.02277  -0.45421   0.27548

FINAL SINGLE POINT ENERGY     -4649.364848533750

DIPOLE MOMENT
-------------
                                X             Y             Z
Electronic contribution:     14.84627     -49.46454      24.01373
Nuclear contribution   :    -15.90764      47.53858     -23.63710
                        -----------------------------------------
Total Dipole Moment    :     -1.06137      -1.92597       0.37663
                        -----------------------------------------
Magnitude (a.u.)       :      2.23108
Magnitude (Debye)      :      5.67095

Rotational constants in cm-1:     0.002512     0.000463     0.000437
Rotational constants in MHz :    75.293870    13.880996    13.103496

                             ****ORCA TERMINATED NORMALLY****
TOTAL RUN TIME: 0 days 0 hours 8 minutes 37 seconds 912 msec
