                         Program Version 4.2.0 -  RELEASE  -
|  1> # ORCA input file
|  2> # SCF done       -169.577643810126          0.000914305801
|  3> ! CAM-B3LYP def2-SVP def2/J RIJCOSX Grid4 TightSCF
|  4> %maxcore 5000
|  5> %tddft
|  6>     Mode sTDDFT
|  7>     Ethresh 5.0
|  8>     maxcore 5000
|  9> end
| 10>
| 11> %pal
| 12>   nprocs 6
| 13>   end
| 14> * xyz 0 1
| 15>    C        0.93884         0.28011         0.08170
| 16>    C       -0.32387         0.78367         0.10524
| 17>    S       -1.48904        -0.46351         0.36739
| 18>    C       -0.24597        -1.69242         0.44708
| 19>   Cl       -0.63610        -3.32172         0.70450
| 20>    C        0.98574        -1.13911         0.27737
| 21>    C        2.38230        -1.59741         0.23526
| 22>    O        2.81030        -2.72221         0.36066
| 23>    C        3.17461        -0.35875         0.00007
| 24>    C        2.28964         0.78236        -0.09074
| 25>    C        2.61301         2.09931        -0.29925
| 26>    C        1.62107         3.09838        -0.36498
| 27>    N        0.82517         3.92340        -0.42209
| 28>    C        3.91853         2.59843        -0.46596
| 29>    N        4.96278         3.05507        -0.60920
| 30>    C        4.53871        -0.37711        -0.11244
| 31>    C        5.27325        -1.53425        -0.02227
| 32>    C        5.96776        -2.54084         0.04437
| 33>    C        6.64237        -3.68657         0.11694
| 34>    C        7.23994        -4.75246         0.17377
| 35>    C        7.85085        -5.98505         0.23006
| 36>    N        7.15630        -7.14372         0.50613
| 37>    C        5.75544        -7.20913         0.84186
| 38>    C        5.49880        -6.76165         2.27807
| 39>    C        7.98851        -8.26934         0.47178
| 40>    O        7.59597        -9.40410         0.67568
| 41>    C        9.29244        -7.73784         0.14294
| 42>    C        9.17858        -6.33399         0.00498
| 43>    C       10.48299        -5.80046        -0.33396
| 44>    O       10.87764        -4.67737        -0.55397
| 45>    N       11.31383        -6.93859        -0.36715
| 46>    C       12.70476        -6.83394        -0.73116
| 47>    C       12.92659        -7.21025        -2.19557
| 48>    C       10.62249        -8.09933        -0.09949
| 49>    C       11.21429        -9.37588        -0.09725
| 50>    C       10.50589       -10.51937         0.14154
| 51>    C       11.10530       -11.79021         0.11589
| 52>    S       10.18971       -13.24293         0.44242
| 53>    C       11.56117       -14.28956         0.22903
| 54>    C       11.43703       -15.76700         0.34064
| 55>    C       10.74204       -16.35600        -0.88968
| 56>    C       12.66029       -13.54597        -0.08608
| 57>    C       12.42962       -12.13308        -0.15245
| 58>    N       13.51011       -11.39203        -0.45486
| 59>    C       14.56960       -12.11625        -0.62206
| 60>    S       14.32877       -13.87896        -0.42685
| 61>    C       15.86464       -11.61789        -0.92087
| 62>    C       16.11477       -10.29384        -1.02572
| 63>    C       17.38700        -9.72637        -1.30679
| 64>    S       18.73982       -10.72870        -1.76249
| 65>    C       19.73857        -9.35484        -1.98344
| 66>    C       19.09451        -8.18621        -1.70809
| 67>    C       17.75368        -8.39181        -1.30970
| 68>    C       16.86381        -7.25256        -0.89787
| 69>    C       16.71782        -7.25301         0.62474
| 70>    F       17.89647        -7.13054         1.25020
| 71>    F       15.95055        -6.23327         1.04710
| 72>    F       16.14565        -8.36463         1.10937
| 73>    C       17.39758        -5.86185        -1.31335
| 74>    C       18.48264        -5.92910        -2.38233
| 75>    C       19.63311        -6.80711        -1.89183
| 76>    H       -0.65637         1.79582        -0.01242
| 77>    H        5.09105         0.53786        -0.28924
| 78>    H        5.45773        -8.25345         0.71465
| 79>    H        5.19118        -6.58065         0.14615
| 80>    H        6.05286        -7.38950         2.97225
| 81>    H        4.43923        -6.84162         2.50267
| 82>    H        5.80471        -5.72672         2.41515
| 83>    H       13.30348        -7.46182        -0.06478
| 84>    H       12.98073        -5.78719        -0.57186
| 85>    H       12.68326        -8.25597        -2.37126
| 86>    H       13.96192        -7.03861        -2.48017
| 87>    H       12.29417        -6.59478        -2.83110
| 88>    H       12.27201        -9.46203        -0.29553
| 89>    H        9.44603       -10.47015         0.35457
| 90>    H       10.85972       -16.01879         1.23298
| 91>    H       12.43754       -16.19418         0.43988
| 92>    H        9.74310       -15.93886        -0.99320
| 93>    H       10.66167       -17.43506        -0.79123
| 94>    H       11.30880       -16.12987        -1.78992
| 95>    H       16.65518       -12.34494        -1.04016
| 96>    H       15.28762        -9.61403        -0.88157
| 97>    H       20.75089        -9.48410        -2.31100
| 98>    H       15.85657        -7.41260        -1.29640
| 99>    H       17.82091        -5.36707        -0.43624
|100>    H       16.56499        -5.24988        -1.66147
|101>    H       18.07671        -6.34572        -3.30656
|102>    H       18.83788        -4.91976        -2.59041
|103>    H       20.01211        -6.42117        -0.94165
|104>    H       20.45643        -6.81604        -2.60666
|105> *
|106>
|107>                          ****END OF INPUT****

CARTESIAN COORDINATES (ANGSTROEM)
---------------------------------
  C      0.938840    0.280110    0.081700
  C     -0.323870    0.783670    0.105240
  S     -1.489040   -0.463510    0.367390
  C     -0.245970   -1.692420    0.447080
  Cl    -0.636100   -3.321720    0.704500
  C      0.985740   -1.139110    0.277370
  C      2.382300   -1.597410    0.235260
  O      2.810300   -2.722210    0.360660
  C      3.174610   -0.358750    0.000070
  C      2.289640    0.782360   -0.090740
  C      2.613010    2.099310   -0.299250
  C      1.621070    3.098380   -0.364980
  N      0.825170    3.923400   -0.422090
  C      3.918530    2.598430   -0.465960
  N      4.962780    3.055070   -0.609200
  C      4.538710   -0.377110   -0.112440
  C      5.273250   -1.534250   -0.022270
  C      5.967760   -2.540840    0.044370
  C      6.642370   -3.686570    0.116940
  C      7.239940   -4.752460    0.173770
  C      7.850850   -5.985050    0.230060
  N      7.156300   -7.143720    0.506130
  C      5.755440   -7.209130    0.841860
  C      5.498800   -6.761650    2.278070
  C      7.988510   -8.269340    0.471780
  O      7.595970   -9.404100    0.675680
  C      9.292440   -7.737840    0.142940
  C      9.178580   -6.333990    0.004980
  C     10.482990   -5.800460   -0.333960
  O     10.877640   -4.677370   -0.553970
  N     11.313830   -6.938590   -0.367150
  C     12.704760   -6.833940   -0.731160
  C     12.926590   -7.210250   -2.195570
  C     10.622490   -8.099330   -0.099490
  C     11.214290   -9.375880   -0.097250
  C     10.505890  -10.519370    0.141540
  C     11.105300  -11.790210    0.115890
  S     10.189710  -13.242930    0.442420
  C     11.561170  -14.289560    0.229030
  C     11.437030  -15.767000    0.340640
  C     10.742040  -16.356000   -0.889680
  C     12.660290  -13.545970   -0.086080
  C     12.429620  -12.133080   -0.152450
  N     13.510110  -11.392030   -0.454860
  C     14.569600  -12.116250   -0.622060
  S     14.328770  -13.878960   -0.426850
  C     15.864640  -11.617890   -0.920870
  C     16.114770  -10.293840   -1.025720
  C     17.387000   -9.726370   -1.306790
  S     18.739820  -10.728700   -1.762490
  C     19.738570   -9.354840   -1.983440
  C     19.094510   -8.186210   -1.708090
  C     17.753680   -8.391810   -1.309700
  C     16.863810   -7.252560   -0.897870
  C     16.717820   -7.253010    0.624740
  F     17.896470   -7.130540    1.250200
  F     15.950550   -6.233270    1.047100
  F     16.145650   -8.364630    1.109370
  C     17.397580   -5.861850   -1.313350
  C     18.482640   -5.929100   -2.382330
  C     19.633110   -6.807110   -1.891830
  H     -0.656370    1.795820   -0.012420
  H      5.091050    0.537860   -0.289240
  H      5.457730   -8.253450    0.714650
  H      5.191180   -6.580650    0.146150
  H      6.052860   -7.389500    2.972250
  H      4.439230   -6.841620    2.502670
  H      5.804710   -5.726720    2.415150
  H     13.303480   -7.461820   -0.064780
  H     12.980730   -5.787190   -0.571860
  H     12.683260   -8.255970   -2.371260
  H     13.961920   -7.038610   -2.480170
  H     12.294170   -6.594780   -2.831100
  H     12.272010   -9.462030   -0.295530
  H      9.446030  -10.470150    0.354570
  H     10.859720  -16.018790    1.232980
  H     12.437540  -16.194180    0.439880
  H      9.743100  -15.938860   -0.993200
  H     10.661670  -17.435060   -0.791230
  H     11.308800  -16.129870   -1.789920
  H     16.655180  -12.344940   -1.040160
  H     15.287620   -9.614030   -0.881570
  H     20.750890   -9.484100   -2.311000
  H     15.856570   -7.412600   -1.296400
  H     17.820910   -5.367070   -0.436240
  H     16.564990   -5.249880   -1.661470
  H     18.076710   -6.345720   -3.306560
  H     18.837880   -4.919760   -2.590410
  H     20.012110   -6.421170   -0.941650
  H     20.456430   -6.816040   -2.606660

 Total Charge           Charge          ....    0
 Multiplicity           Mult            ....    1
 Number of Electrons    NEL             ....  466
 Basis Dimension        Dim             .... 1019

ORBITAL ENERGIES
----------------

  NO   OCC          E(Eh)            E(eV)
   0   2.0000    -101.611281     -2764.9835
   1   2.0000     -88.987250     -2421.4662
   2   2.0000     -88.967411     -2420.9263
   3   2.0000     -88.966979     -2420.9146
   4   2.0000     -88.966618     -2420.9047
   5   2.0000     -24.805249      -674.9852
   6   2.0000     -24.804280      -674.9588
   7   2.0000     -24.802273      -674.9041
   8   2.0000     -19.212460      -522.7976
   9   2.0000     -19.192962      -522.2671
  10   2.0000     -19.174364      -521.7610
  11   2.0000     -14.450798      -393.2262
  12   2.0000     -14.442895      -393.0112
  13   2.0000     -14.420142      -392.3920
  14   2.0000     -14.416054      -392.2808
  15   2.0000     -14.414496      -392.2384
  16   2.0000     -10.516876      -286.1787
  17   2.0000     -10.375799      -282.3399
  18   2.0000     -10.369507      -282.1686
  19   2.0000     -10.368339      -282.1368
  20   2.0000     -10.361171      -281.9418
  21   2.0000     -10.357509      -281.8422
  22   2.0000     -10.343424      -281.4589
  23   2.0000     -10.341917      -281.4179
  24   2.0000     -10.341363      -281.4028
  25   2.0000     -10.334281      -281.2101
  26   2.0000     -10.327543      -281.0267
  27   2.0000     -10.323769      -280.9240
  28   2.0000     -10.320028      -280.8222
  29   2.0000     -10.319788      -280.8157
  30   2.0000     -10.318002      -280.7671
  31   2.0000     -10.316824      -280.7350
  32   2.0000     -10.314881      -280.6822
  33   2.0000     -10.314077      -280.6603
  34   2.0000     -10.308199      -280.5004
  35   2.0000     -10.308130      -280.4985
  36   2.0000     -10.308065      -280.4967
  37   2.0000     -10.306821      -280.4629
  38   2.0000     -10.306329      -280.4495
  39   2.0000     -10.304825      -280.4086
  40   2.0000     -10.303633      -280.3761
  41   2.0000     -10.303221      -280.3649
  42   2.0000     -10.298476      -280.2358
  43   2.0000     -10.298301      -280.2310
  44   2.0000     -10.297033      -280.1965
  45   2.0000     -10.296258      -280.1754
  46   2.0000     -10.295049      -280.1425
  47   2.0000     -10.294268      -280.1213
  48   2.0000     -10.293651      -280.1045
  49   2.0000     -10.293450      -280.0990
  50   2.0000     -10.292333      -280.0686
  51   2.0000     -10.288109      -279.9537
  52   2.0000     -10.286472      -279.9091
  53   2.0000     -10.281930      -279.7855
  54   2.0000     -10.279416      -279.7171
  55   2.0000     -10.275558      -279.6122
  56   2.0000     -10.270243      -279.4675
  57   2.0000     -10.269344      -279.4431
  58   2.0000     -10.266777      -279.3732
  59   2.0000     -10.254205      -279.0311
  60   2.0000     -10.248351      -278.8718
  61   2.0000      -9.566080      -260.3063
  62   2.0000      -8.082887      -219.9465
  63   2.0000      -8.062762      -219.3989
  64   2.0000      -8.062576      -219.3939
  65   2.0000      -8.062487      -219.3914
  66   2.0000      -7.336706      -199.6419
  67   2.0000      -7.326108      -199.3535
  68   2.0000      -7.325598      -199.3397
  69   2.0000      -6.052291      -164.6912
  70   2.0000      -6.047700      -164.5663
  71   2.0000      -6.045121      -164.4961
  72   2.0000      -6.032239      -164.1456
  73   2.0000      -6.031910      -164.1366
  74   2.0000      -6.031688      -164.1306
  75   2.0000      -6.028522      -164.0444
  76   2.0000      -6.027696      -164.0219
  77   2.0000      -6.027485      -164.0162
  78   2.0000      -6.024808      -163.9433
  79   2.0000      -6.024716      -163.9409
  80   2.0000      -6.023961      -163.9203
  81   2.0000      -1.394120       -37.9359
  82   2.0000      -1.296842       -35.2889
  83   2.0000      -1.294367       -35.2215
  84   2.0000      -1.131508       -30.7899
  85   2.0000      -1.128300       -30.7026
  86   2.0000      -1.115805       -30.3626
  87   2.0000      -1.077983       -29.3334
  88   2.0000      -1.060237       -28.8505
  89   2.0000      -1.047393       -28.5010
  90   2.0000      -1.031829       -28.0775
  91   2.0000      -1.012004       -27.5380
  92   2.0000      -1.004741       -27.3404
  93   2.0000      -0.993649       -27.0386
  94   2.0000      -0.987046       -26.8589
  95   2.0000      -0.982681       -26.7401
  96   2.0000      -0.949674       -25.8419
  97   2.0000      -0.940548       -25.5936
  98   2.0000      -0.926691       -25.2165
  99   2.0000      -0.921621       -25.0786
 100   2.0000      -0.915059       -24.9000
 101   2.0000      -0.914734       -24.8912
 102   2.0000      -0.898693       -24.4547
 103   2.0000      -0.890939       -24.2437
 104   2.0000      -0.885504       -24.0958
 105   2.0000      -0.885183       -24.0871
 106   2.0000      -0.878530       -23.9060
 107   2.0000      -0.866037       -23.5661
 108   2.0000      -0.844751       -22.9868
 109   2.0000      -0.841256       -22.8917
 110   2.0000      -0.838485       -22.8163
 111   2.0000      -0.826710       -22.4959
 112   2.0000      -0.822320       -22.3765
 113   2.0000      -0.814651       -22.1678
 114   2.0000      -0.804540       -21.8926
 115   2.0000      -0.801541       -21.8110
 116   2.0000      -0.778100       -21.1732
 117   2.0000      -0.776438       -21.1279
 118   2.0000      -0.766390       -20.8545
 119   2.0000      -0.755237       -20.5511
 120   2.0000      -0.748203       -20.3596
 121   2.0000      -0.741507       -20.1774
 122   2.0000      -0.733710       -19.9653
 123   2.0000      -0.722226       -19.6528
 124   2.0000      -0.712359       -19.3843
 125   2.0000      -0.703768       -19.1505
 126   2.0000      -0.701082       -19.0774
 127   2.0000      -0.696445       -18.9512
 128   2.0000      -0.685570       -18.6553
 129   2.0000      -0.680381       -18.5141
 130   2.0000      -0.678658       -18.4672
 131   2.0000      -0.671251       -18.2657
 132   2.0000      -0.669811       -18.2265
 133   2.0000      -0.664152       -18.0725
 134   2.0000      -0.663122       -18.0445
 135   2.0000      -0.653477       -17.7820
 136   2.0000      -0.647410       -17.6169
 137   2.0000      -0.643913       -17.5218
 138   2.0000      -0.635580       -17.2950
 139   2.0000      -0.627733       -17.0815
 140   2.0000      -0.617366       -16.7994
 141   2.0000      -0.614074       -16.7098
 142   2.0000      -0.607582       -16.5331
 143   2.0000      -0.606844       -16.5131
 144   2.0000      -0.598766       -16.2932
 145   2.0000      -0.588968       -16.0266
 146   2.0000      -0.581717       -15.8293
 147   2.0000      -0.581267       -15.8171
 148   2.0000      -0.569820       -15.5056
 149   2.0000      -0.563600       -15.3363
 150   2.0000      -0.560148       -15.2424
 151   2.0000      -0.554360       -15.0849
 152   2.0000      -0.554006       -15.0753
 153   2.0000      -0.550454       -14.9786
 154   2.0000      -0.547026       -14.8853
 155   2.0000      -0.544026       -14.8037
 156   2.0000      -0.543051       -14.7772
 157   2.0000      -0.540957       -14.7202
 158   2.0000      -0.532422       -14.4879
 159   2.0000      -0.530997       -14.4492
 160   2.0000      -0.528185       -14.3727
 161   2.0000      -0.526102       -14.3160
 162   2.0000      -0.525873       -14.3097
 163   2.0000      -0.522331       -14.2134
 164   2.0000      -0.521985       -14.2039
 165   2.0000      -0.521454       -14.1895
 166   2.0000      -0.519208       -14.1284
 167   2.0000      -0.514092       -13.9891
 168   2.0000      -0.510249       -13.8846
 169   2.0000      -0.509233       -13.8569
 170   2.0000      -0.508026       -13.8241
 171   2.0000      -0.504057       -13.7161
 172   2.0000      -0.503406       -13.6984
 173   2.0000      -0.500213       -13.6115
 174   2.0000      -0.495291       -13.4775
 175   2.0000      -0.494041       -13.4435
 176   2.0000      -0.490202       -13.3391
 177   2.0000      -0.488681       -13.2977
 178   2.0000      -0.486901       -13.2493
 179   2.0000      -0.485461       -13.2101
 180   2.0000      -0.484166       -13.1748
 181   2.0000      -0.483104       -13.1459
 182   2.0000      -0.477521       -12.9940
 183   2.0000      -0.475912       -12.9502
 184   2.0000      -0.470176       -12.7941
 185   2.0000      -0.468541       -12.7497
 186   2.0000      -0.462602       -12.5880
 187   2.0000      -0.459511       -12.5039
 188   2.0000      -0.458487       -12.4761
 189   2.0000      -0.456539       -12.4230
 190   2.0000      -0.452610       -12.3161
 191   2.0000      -0.450562       -12.2604
 192   2.0000      -0.449683       -12.2365
 193   2.0000      -0.448169       -12.1953
 194   2.0000      -0.447035       -12.1644
 195   2.0000      -0.442735       -12.0474
 196   2.0000      -0.439899       -11.9703
 197   2.0000      -0.438643       -11.9361
 198   2.0000      -0.437675       -11.9097
 199   2.0000      -0.433242       -11.7891
 200   2.0000      -0.429961       -11.6998
 201   2.0000      -0.428904       -11.6711
 202   2.0000      -0.428147       -11.6505
 203   2.0000      -0.427813       -11.6414
 204   2.0000      -0.426660       -11.6100
 205   2.0000      -0.424588       -11.5536
 206   2.0000      -0.421808       -11.4780
 207   2.0000      -0.419899       -11.4260
 208   2.0000      -0.417724       -11.3668
 209   2.0000      -0.415068       -11.2946
 210   2.0000      -0.412734       -11.2311
 211   2.0000      -0.411496       -11.1974
 212   2.0000      -0.410740       -11.1768
 213   2.0000      -0.399274       -10.8648
 214   2.0000      -0.397423       -10.8144
 215   2.0000      -0.395395       -10.7593
 216   2.0000      -0.387135       -10.5345
 217   2.0000      -0.367179        -9.9915
 218   2.0000      -0.359786        -9.7903
 219   2.0000      -0.350302        -9.5322
 220   2.0000      -0.345643        -9.4054
 221   2.0000      -0.343265        -9.3407
 222   2.0000      -0.330737        -8.9998
 223   2.0000      -0.330049        -8.9811
 224   2.0000      -0.324441        -8.8285
 225   2.0000      -0.323395        -8.8000
 226   2.0000      -0.314628        -8.5615
 227   2.0000      -0.310627        -8.4526
 228   2.0000      -0.306045        -8.3279
 229   2.0000      -0.295835        -8.0501
 230   2.0000      -0.283234        -7.7072
 231   2.0000      -0.271549        -7.3892
 232   2.0000      -0.228068        -6.2060
 233   0.0000      -0.108689        -2.9576
 234   0.0000      -0.080008        -2.1771
 235   0.0000      -0.054298        -1.4775
 236   0.0000      -0.041599        -1.1320
 237   0.0000      -0.015185        -0.4132

MULLIKEN ATOMIC CHARGES
-----------------------
   0 C :    0.026597
   1 C :   -0.129429
   2 S :    0.180227
   3 C :   -0.175960
   4 Cl:   -0.005348
   5 C :    0.074772
   6 C :    0.148760
   7 O :   -0.116780
   8 C :   -0.122370
   9 C :    0.308062
  10 C :   -0.329528
  11 C :   -0.196925
  12 N :    0.157373
  13 C :   -0.190508
  14 N :    0.163374
  15 C :   -0.129466
  16 C :    0.045671
  17 C :    0.041342
  18 C :   -0.099826
  19 C :    0.143095
  20 C :   -0.017800
  21 N :   -0.259318
  22 C :    0.114186
  23 C :    0.001621
  24 C :    0.161305
  25 O :   -0.227272
  26 C :   -0.104918
  27 C :    0.042203
  28 C :    0.122544
  29 O :   -0.164330
  30 N :   -0.272313
  31 C :    0.096940
  32 C :   -0.001851
  33 C :    0.185383
  34 C :   -0.061690
  35 C :    0.075362
  36 C :   -0.192775
  37 S :    0.172610
  38 C :   -0.329251
  39 C :    0.084590
  40 C :    0.008998
  41 C :    0.043582
  42 C :    0.111780
  43 N :   -0.044119
  44 C :   -0.077569
  45 S :    0.099303
  46 C :    0.022791
  47 C :    0.042913
  48 C :   -0.126820
  49 S :    0.120875
  50 C :   -0.114491
  51 C :   -0.065673
  52 C :    0.012179
  53 C :   -0.080177
  54 C :    0.490703
  55 F :   -0.164125
  56 F :   -0.168366
  57 F :   -0.158647
  58 C :    0.051743
  59 C :    0.007728
  60 C :    0.153454
  61 H :    0.052377
  62 H :    0.058076
  63 H :    0.037118
  64 H :    0.031718
  65 H :    0.022179
  66 H :    0.021996
  67 H :    0.024585
  68 H :    0.029055
  69 H :    0.042349
  70 H :    0.026578
  71 H :    0.013185
  72 H :    0.029167
  73 H :   -0.019138
  74 H :   -0.002640
  75 H :    0.024294
  76 H :    0.016241
  77 H :    0.021710
  78 H :    0.025132
  79 H :    0.022469
  80 H :   -0.003448
  81 H :    0.006828
  82 H :    0.017268
  83 H :    0.022387
  84 H :    0.025261
  85 H :    0.022931
  86 H :    0.013564
  87 H :    0.012377
  88 H :    0.019604
  89 H :    0.002358
Sum of atomic charges:   -0.0000000

LOEWDIN ATOMIC CHARGES
----------------------
   0 C :   -0.058602
   1 C :   -0.149492
   2 S :    0.469569
   3 C :   -0.274033
   4 Cl:    0.187239
   5 C :   -0.115053
   6 C :    0.076673
   7 O :   -0.122047
   8 C :   -0.074365
   9 C :    0.071329
  10 C :   -0.137395
  11 C :   -0.015817
  12 N :   -0.053650
  13 C :   -0.022098
  14 N :   -0.045634
  15 C :    0.047592
  16 C :    0.001931
  17 C :    0.007200
  18 C :   -0.031103
  19 C :    0.014957
  20 C :    0.017353
  21 N :    0.009371
  22 C :    0.039342
  23 C :   -0.060234
  24 C :    0.069807
  25 O :   -0.222894
  26 C :   -0.136720
  27 C :   -0.073360
  28 C :    0.087420
  29 O :   -0.169529
  30 N :   -0.006566
  31 C :    0.034886
  32 C :   -0.063601
  33 C :    0.102422
  34 C :   -0.069248
  35 C :    0.040052
  36 C :   -0.203773
  37 S :    0.464233
  38 C :   -0.173116
  39 C :   -0.042899
  40 C :   -0.048193
  41 C :   -0.217844
  42 C :   -0.036143
  43 N :   -0.103506
  44 C :   -0.081984
  45 S :    0.365622
  46 C :   -0.080361
  47 C :    0.021838
  48 C :   -0.178335
  49 S :    0.446732
  50 C :   -0.176533
  51 C :   -0.059134
  52 C :   -0.049870
  53 C :   -0.058535
  54 C :    0.161119
  55 F :   -0.058231
  56 F :   -0.062732
  57 F :   -0.052098
  58 C :   -0.020202
  59 C :   -0.024722
  60 C :   -0.022002
  61 H :    0.037132
  62 H :    0.062099
  63 H :    0.034537
  64 H :    0.030042
  65 H :    0.028095
  66 H :    0.030525
  67 H :    0.026527
  68 H :    0.021599
  69 H :    0.036987
  70 H :    0.026539
  71 H :    0.022096
  72 H :    0.034164
  73 H :    0.027659
  74 H :    0.037921
  75 H :    0.036413
  76 H :    0.033975
  77 H :    0.024249
  78 H :    0.027532
  79 H :    0.027678
  80 H :    0.024895
  81 H :    0.034904
  82 H :    0.025164
  83 H :    0.041870
  84 H :    0.029097
  85 H :    0.033021
  86 H :    0.024913
  87 H :    0.028903
  88 H :    0.034628
  89 H :    0.031801

  Mayer bond orders larger than 0.100000
B(  0-C ,  1-C ) :   1.5496 B(  0-C ,  5-C ) :   1.2251 B(  0-C ,  9-C ) :   0.9991
B(  1-C ,  2-S ) :   1.1593 B(  1-C , 61-H ) :   0.9537 B(  2-S ,  3-C ) :   1.1440
B(  3-C ,  4-Cl) :   1.1229 B(  3-C ,  5-C ) :   1.4910 B(  5-C ,  6-C ) :   0.9378
B(  6-C ,  7-O ) :   2.2707 B(  6-C ,  8-C ) :   0.9318 B(  8-C ,  9-C ) :   1.0653
B(  8-C , 15-C ) :   1.6114 B(  9-C , 10-C ) :   1.6468 B( 10-C , 11-C ) :   1.1465
B( 10-C , 13-C ) :   1.1489 B( 11-C , 12-N ) :   2.9899 B( 13-C , 14-N ) :   2.9723
B( 15-C , 16-C ) :   1.0587 B( 15-C , 62-H ) :   0.9365 B( 16-C , 17-C ) :   1.9937
B( 16-C , 19-C ) :   0.1705 B( 17-C , 18-C ) :   0.9457 B( 18-C , 19-C ) :   1.9976
B( 19-C , 20-C ) :   0.8400 B( 20-C , 21-N ) :   1.1829 B( 20-C , 27-C ) :   1.3883
B( 21-N , 22-C ) :   0.9454 B( 21-N , 24-C ) :   1.0750 B( 22-C , 23-C ) :   1.1243
B( 22-C , 63-H ) :   0.9329 B( 22-C , 64-H ) :   0.9462 B( 23-C , 65-H ) :   0.9652
B( 23-C , 66-H ) :   0.9673 B( 23-C , 67-H ) :   0.9689 B( 24-C , 25-O ) :   2.0097
B( 24-C , 26-C ) :   1.0067 B( 25-O , 74-H ) :   0.1196 B( 26-C , 27-C ) :   1.2678
B( 26-C , 33-C ) :   1.2660 B( 27-C , 28-C ) :   0.9219 B( 28-C , 29-O ) :   2.1942
B( 28-C , 30-N ) :   1.0290 B( 30-N , 31-C ) :   0.9486 B( 30-N , 33-C ) :   1.1623
B( 31-C , 32-C ) :   1.1197 B( 31-C , 68-H ) :   0.9465 B( 31-C , 69-H ) :   0.9265
B( 32-C , 70-H ) :   0.9656 B( 32-C , 71-H ) :   0.9665 B( 32-C , 72-H ) :   0.9569
B( 33-C , 34-C ) :   1.2054 B( 34-C , 35-C ) :   1.5309 B( 34-C , 73-H ) :   0.9523
B( 35-C , 36-C ) :   1.1986 B( 35-C , 74-H ) :   0.9349 B( 36-C , 37-S ) :   1.0996
B( 36-C , 42-C ) :   1.3686 B( 37-S , 38-C ) :   1.1661 B( 38-C , 39-C ) :   1.0537
B( 38-C , 41-C ) :   1.5726 B( 39-C , 40-C ) :   1.0991 B( 39-C , 75-H ) :   0.9226
B( 39-C , 76-H ) :   0.9341 B( 40-C , 77-H ) :   0.9717 B( 40-C , 78-H ) :   0.9686
B( 40-C , 79-H ) :   0.9713 B( 41-C , 42-C ) :   1.2191 B( 41-C , 45-S ) :   1.0170
B( 42-C , 43-N ) :   1.3256 B( 43-N , 44-C ) :   1.7152 B( 44-C , 45-S ) :   1.0438
B( 44-C , 46-C ) :   1.1052 B( 46-C , 47-C ) :   1.6958 B( 46-C , 80-H ) :   0.9529
B( 47-C , 48-C ) :   1.1518 B( 47-C , 81-H ) :   0.9631 B( 48-C , 49-S ) :   1.1301
B( 48-C , 52-C ) :   1.4825 B( 49-S , 50-C ) :   1.1608 B( 50-C , 51-C ) :   1.5756
B( 50-C , 82-H ) :   0.9692 B( 51-C , 52-C ) :   1.3063 B( 51-C , 60-C ) :   1.0395
B( 52-C , 53-C ) :   1.0002 B( 53-C , 54-C ) :   1.0000 B( 53-C , 58-C ) :   1.0115
B( 53-C , 83-H ) :   0.8661 B( 54-C , 55-F ) :   1.1439 B( 54-C , 56-F ) :   1.1327
B( 54-C , 57-F ) :   1.1386 B( 58-C , 59-C ) :   1.1132 B( 58-C , 84-H ) :   0.9294
B( 58-C , 85-H ) :   0.9298 B( 59-C , 60-C ) :   1.0811 B( 59-C , 86-H ) :   0.9419
B( 59-C , 87-H ) :   0.9381 B( 60-C , 88-H ) :   0.9115 B( 60-C , 89-H ) :   0.9213

-----------------------------------------------------------------------------
         ABSORPTION SPECTRUM VIA TRANSITION ELECTRIC DIPOLE MOMENTS
-----------------------------------------------------------------------------
State   Energy  Wavelength   fosc         T2         TX        TY        TZ
        (cm-1)    (nm)                  (au**2)     (au)      (au)      (au)
-----------------------------------------------------------------------------
   0   11998.7    833.4   1.431196258  39.26820   4.48381  -4.37213  -0.21936
   1   18949.8    527.7   0.028830662   0.50087  -0.52319  -0.35512   0.31786
   2   21292.5    469.6   0.004465753   0.06905  -0.16407   0.20517  -0.00571
   3   22450.4    445.4   0.157889800   2.31529  -1.35174   0.64229   0.27490
   4   24230.2    412.7   0.022592388   0.30696   0.36539  -0.41053   0.07008
   5   25465.1    392.7   0.236301846   3.05490   0.93450  -1.47239   0.11695
   6   25973.6    385.0   0.133211561   1.68844  -1.03301  -0.75713   0.21927
   7   26164.9    382.2   0.338086481   4.25386   0.78503   1.87934  -0.32506
   8   27225.6    367.3   0.121235180   1.46598   0.07901  -1.20102   0.13146
   9   27386.5    365.1   0.003172855   0.03814  -0.03552  -0.17579   0.07732
  10   28323.7    353.1   0.205643032   2.39023   1.53272   0.09020  -0.18126
  11   28709.6    348.3   0.137062713   1.57169   0.92631   0.78917  -0.30139
  12   29221.5    342.2   0.003113213   0.03507   0.02529  -0.16218   0.09018
  13   30671.7    326.0   0.171017968   1.83561   1.14406   0.66430  -0.29231
  14   30895.8    323.7   0.045070501   0.48025   0.57691   0.37298  -0.09118
  15   31084.8    321.7   0.000193038   0.00204   0.03417  -0.02298   0.01868
  16   31601.8    316.4   0.089701822   0.93447   0.92132   0.27374  -0.10350
  17   32311.9    309.5   0.208130091   2.12055  -0.70668  -1.24621   0.26099
  18   32612.3    306.6   0.000696018   0.00703  -0.01180   0.08232  -0.01051
  19   33403.3    299.4   0.275722329   2.71743   0.82602   1.39725  -0.28776
  20   34151.2    292.8   0.007901810   0.07617   0.13854   0.23484  -0.04274
  21   34571.5    289.3   0.025318552   0.24110  -0.45317  -0.14574   0.12038
  22   35156.2    284.4   0.012031878   0.11267   0.31167   0.09332  -0.08262
  23   35679.6    280.3   0.020874164   0.19260  -0.14828   0.41259   0.01966
  24   36174.5    276.4   0.004371073   0.03978  -0.17123   0.07889   0.06509
  25   36413.2    274.6   0.018847203   0.17040   0.38097   0.15342  -0.04148
  26   36950.3    270.6   0.023264186   0.20727   0.38592   0.22848  -0.07833
  27   37009.7    270.2   0.235488147   2.09474   0.80690   1.19352  -0.13840
  28   37095.8    269.6   0.029869807   0.26508  -0.49103   0.04989   0.14659
  29   38049.5    262.8   0.174548616   1.51023  -0.18982  -1.20153   0.17471
  30   38581.5    259.2   0.530797093   4.52923  -1.38609  -1.58194   0.32476
  31   39486.5    253.3   0.100015140   0.83386   0.54283   0.71069  -0.18471
  32   40234.8    248.5   0.007047891   0.05767   0.11932   0.19902  -0.06180

FINAL SINGLE POINT ENERGY     -4580.315423983690

DIPOLE MOMENT
-------------
                                X             Y             Z
Electronic contribution:    -59.95624      47.69117      16.78131
Nuclear contribution   :     62.83481     -51.83863     -17.68883
                        -----------------------------------------
Total Dipole Moment    :      2.87857      -4.14747      -0.90752
                        -----------------------------------------
Magnitude (a.u.)       :      5.12945
Magnitude (Debye)      :     13.03802

Rotational constants in cm-1:     0.001762     0.000332     0.000284
Rotational constants in MHz :    52.834158     9.943820     8.512894

                             ****ORCA TERMINATED NORMALLY****
TOTAL RUN TIME: 0 days 0 hours 7 minutes 30 seconds 911 msec
