                         Program Version 4.2.0 -  RELEASE  -
|  1> # ORCA input file
|  2> # SCF done       -196.246749858647          0.000590976837
|  3> ! CAM-B3LYP def2-SVP def2/J RIJCOSX Grid4 TightSCF
|  4> %maxcore 5000
|  5> %tddft
|  6>     Mode sTDDFT
|  7>     Ethresh 5.0
|  8>     maxcore 5000
|  9> end
| 10>
| 11> %pal
| 12>   nprocs 6
| 13>   end
| 14> * xyz 0 1
| 15>    C        4.00111         4.36900        -2.18924
| 16>    C        3.26155         5.45426        -2.54409
| 17>    S        3.61447         5.94811        -4.15975
| 18>    C        4.78370         4.66391        -4.36544
| 19>   Cl        5.63632         4.47116        -5.81643
| 20>    C        4.87358         3.91623        -3.23006
| 21>    C        5.62415         2.73742        -2.77985
| 22>    O        6.39833         2.07044        -3.42522
| 23>    C        5.15345         2.49993        -1.38028
| 24>    C        4.17346         3.51789        -1.02933
| 25>    C        3.55090         3.71529         0.17528
| 26>    C        2.62631         4.76578         0.35620
| 27>    N        1.86764         5.61085         0.51869
| 28>    C        3.75206         2.96344         1.35025
| 29>    N        3.87844         2.41252         2.34963
| 30>    C        5.46453         1.42562        -0.59833
| 31>    C        6.47047         0.44105        -0.77159
| 32>    C        6.43161        -0.79286        -0.15320
| 33>    C        7.58994        -1.54167        -0.52067
| 34>    C        8.39376        -0.64933        -1.37005
| 35>    C        7.72163         0.52259        -1.51681
| 36>    C        9.67191        -0.90076        -1.88931
| 37>    N       10.73122        -1.04320        -2.30747
| 38>    C        7.89315        -2.83495        -0.16012
| 39>    C        9.02540        -3.60266        -0.54757
| 40>    C        8.97544        -4.83226         0.07740
| 41>    C        7.75618        -4.87974         0.87475
| 42>    C        7.09467        -3.70304         0.72784
| 43>    C        5.86125        -3.41174         1.32129
| 44>    N        4.84640        -3.22102         1.82445
| 45>    C        9.93371        -5.86098        -0.11562
| 46>    N       10.20568        -6.92539         0.71213
| 47>    C        9.71063        -7.16723         2.04828
| 48>    C        9.94785        -5.99551         2.99317
| 49>    C       11.19074        -7.77253         0.16274
| 50>    O       11.64849        -8.73794         0.74720
| 51>    C       11.48136        -7.19620        -1.12609
| 52>    C       10.73963        -6.00085        -1.24518
| 53>    C       11.01740        -5.44033        -2.55202
| 54>    O       10.58754        -4.47495        -3.13471
| 55>    N       11.95779        -6.33990        -3.12615
| 56>    C       12.49065        -6.05421        -4.43812
| 57>    C       13.72975        -5.16579        -4.34747
| 58>    C       12.22104        -7.38812        -2.30011
| 59>    C       13.03058        -8.54150        -2.54487
| 60>    C       14.08360        -8.63207        -3.37768
| 61>    C       14.84507        -9.83527        -3.65494
| 62>    C       15.22727       -10.03528        -4.98852
| 63>    C       14.99792        -9.17982        -6.17653
| 64>    O       14.43505        -8.12218        -6.25341
| 65>    O       15.53679        -9.79937        -7.24869
| 66>    C       16.11168       -11.04625        -6.89705
| 67>    C       15.88175       -11.17900        -5.42736
| 68>    C       16.18009       -12.20187        -4.54645
| 69>    C       15.82614       -12.02200        -3.22421
| 70>    C       15.20064       -10.85801        -2.74326
| 71>    C       15.02103       -10.79689        -1.30906
| 72>    C       14.98243        -9.69461        -0.52719
| 73>    C       14.77532        -9.81940         0.86765
| 74>    C       14.44253        -8.90737         1.82266
| 75>    C       14.21798        -9.47385         3.19558
| 76>    O       14.42606       -10.61487         3.53321
| 77>    C       13.72094        -8.35675         3.99796
| 78>    C       13.36866        -8.13098         5.29377
| 79>    S       12.96528        -6.44667         5.53199
| 80>    C       13.28138        -6.07547         3.87579
| 81>    C       13.65513        -7.18458         3.17979
| 82>    C       14.08188        -7.50269         1.82521
| 83>    C       14.04117        -6.56120         0.82385
| 84>    C       13.31751        -5.36272         1.00523
| 85>    N       12.65759        -4.42771         1.09790
| 86>    C       14.63175        -6.58448        -0.44683
| 87>    N       15.12709        -6.47632        -1.47920
| 88>   Cl       13.31035        -9.24067         6.57180
| 89>    H        2.53206         5.99710        -1.97664
| 90>    H        4.85225         1.26657         0.28271
| 91>    H        5.63718        -1.15443         0.47089
| 92>    H        8.06105         1.37856        -2.06521
| 93>    H        9.79855        -3.26733        -1.20960
| 94>    H        7.40020        -5.72577         1.43142
| 95>    H       10.26222        -8.04667         2.39749
| 96>    H        8.64863        -7.43125         2.01177
| 97>    H       10.97965        -5.66420         2.92067
| 98>    H        9.74672        -6.30546         4.01498
| 99>    H        9.30572        -5.15145         2.75581
|100>    H       11.70516        -5.51835        -4.97870
|101>    H       12.70955        -6.98557        -4.96125
|102>    H       13.44843        -4.16923        -4.01642
|103>    H       14.19404        -5.09749        -5.32647
|104>    H       14.44976        -5.57063        -3.63983
|105>    H       12.75199        -9.38859        -1.92955
|106>    H       14.38124        -7.78150        -3.97101
|107>    H       17.17589       -11.03218        -7.15801
|108>    H       15.62205       -11.83652        -7.47691
|109>    H       16.66976       -13.10452        -4.87541
|110>    H       16.06265       -12.79994        -2.51312
|111>    H       14.96735       -11.76327        -0.81989
|112>    H       15.08717        -8.71873        -0.96442
|113>    H       14.83447       -10.83226         1.26007
|114>    H       13.19111        -5.05790         3.55045
|115> *
|116>
|117>                          ****END OF INPUT****

CARTESIAN COORDINATES (ANGSTROEM)
---------------------------------
  C      4.001110    4.369000   -2.189240
  C      3.261550    5.454260   -2.544090
  S      3.614470    5.948110   -4.159750
  C      4.783700    4.663910   -4.365440
  Cl     5.636320    4.471160   -5.816430
  C      4.873580    3.916230   -3.230060
  C      5.624150    2.737420   -2.779850
  O      6.398330    2.070440   -3.425220
  C      5.153450    2.499930   -1.380280
  C      4.173460    3.517890   -1.029330
  C      3.550900    3.715290    0.175280
  C      2.626310    4.765780    0.356200
  N      1.867640    5.610850    0.518690
  C      3.752060    2.963440    1.350250
  N      3.878440    2.412520    2.349630
  C      5.464530    1.425620   -0.598330
  C      6.470470    0.441050   -0.771590
  C      6.431610   -0.792860   -0.153200
  C      7.589940   -1.541670   -0.520670
  C      8.393760   -0.649330   -1.370050
  C      7.721630    0.522590   -1.516810
  C      9.671910   -0.900760   -1.889310
  N     10.731220   -1.043200   -2.307470
  C      7.893150   -2.834950   -0.160120
  C      9.025400   -3.602660   -0.547570
  C      8.975440   -4.832260    0.077400
  C      7.756180   -4.879740    0.874750
  C      7.094670   -3.703040    0.727840
  C      5.861250   -3.411740    1.321290
  N      4.846400   -3.221020    1.824450
  C      9.933710   -5.860980   -0.115620
  N     10.205680   -6.925390    0.712130
  C      9.710630   -7.167230    2.048280
  C      9.947850   -5.995510    2.993170
  C     11.190740   -7.772530    0.162740
  O     11.648490   -8.737940    0.747200
  C     11.481360   -7.196200   -1.126090
  C     10.739630   -6.000850   -1.245180
  C     11.017400   -5.440330   -2.552020
  O     10.587540   -4.474950   -3.134710
  N     11.957790   -6.339900   -3.126150
  C     12.490650   -6.054210   -4.438120
  C     13.729750   -5.165790   -4.347470
  C     12.221040   -7.388120   -2.300110
  C     13.030580   -8.541500   -2.544870
  C     14.083600   -8.632070   -3.377680
  C     14.845070   -9.835270   -3.654940
  C     15.227270  -10.035280   -4.988520
  C     14.997920   -9.179820   -6.176530
  O     14.435050   -8.122180   -6.253410
  O     15.536790   -9.799370   -7.248690
  C     16.111680  -11.046250   -6.897050
  C     15.881750  -11.179000   -5.427360
  C     16.180090  -12.201870   -4.546450
  C     15.826140  -12.022000   -3.224210
  C     15.200640  -10.858010   -2.743260
  C     15.021030  -10.796890   -1.309060
  C     14.982430   -9.694610   -0.527190
  C     14.775320   -9.819400    0.867650
  C     14.442530   -8.907370    1.822660
  C     14.217980   -9.473850    3.195580
  O     14.426060  -10.614870    3.533210
  C     13.720940   -8.356750    3.997960
  C     13.368660   -8.130980    5.293770
  S     12.965280   -6.446670    5.531990
  C     13.281380   -6.075470    3.875790
  C     13.655130   -7.184580    3.179790
  C     14.081880   -7.502690    1.825210
  C     14.041170   -6.561200    0.823850
  C     13.317510   -5.362720    1.005230
  N     12.657590   -4.427710    1.097900
  C     14.631750   -6.584480   -0.446830
  N     15.127090   -6.476320   -1.479200
  Cl    13.310350   -9.240670    6.571800
  H      2.532060    5.997100   -1.976640
  H      4.852250    1.266570    0.282710
  H      5.637180   -1.154430    0.470890
  H      8.061050    1.378560   -2.065210
  H      9.798550   -3.267330   -1.209600
  H      7.400200   -5.725770    1.431420
  H     10.262220   -8.046670    2.397490
  H      8.648630   -7.431250    2.011770
  H     10.979650   -5.664200    2.920670
  H      9.746720   -6.305460    4.014980
  H      9.305720   -5.151450    2.755810
  H     11.705160   -5.518350   -4.978700
  H     12.709550   -6.985570   -4.961250
  H     13.448430   -4.169230   -4.016420
  H     14.194040   -5.097490   -5.326470
  H     14.449760   -5.570630   -3.639830
  H     12.751990   -9.388590   -1.929550
  H     14.381240   -7.781500   -3.971010
  H     17.175890  -11.032180   -7.158010
  H     15.622050  -11.836520   -7.476910
  H     16.669760  -13.104520   -4.875410
  H     16.062650  -12.799940   -2.513120
  H     14.967350  -11.763270   -0.819890
  H     15.087170   -8.718730   -0.964420
  H     14.834470  -10.832260    1.260070
  H     13.191110   -5.057900    3.550450

 Total Charge           Charge          ....    0
 Multiplicity           Mult            ....    1
 Number of Electrons    NEL             ....  532
 Basis Dimension        Dim             .... 1182

ORBITAL ENERGIES
----------------

  NO   OCC          E(Eh)            E(eV)
   0   2.0000    -101.616641     -2765.1294
   1   2.0000    -101.615899     -2765.1092
   2   2.0000     -88.993426     -2421.6342
   3   2.0000     -88.992134     -2421.5991
   4   2.0000     -19.275663      -524.5175
   5   2.0000     -19.223793      -523.1060
   6   2.0000     -19.216532      -522.9084
   7   2.0000     -19.215458      -522.8792
   8   2.0000     -19.199920      -522.4564
   9   2.0000     -19.195610      -522.3391
  10   2.0000     -14.460600      -393.4929
  11   2.0000     -14.458784      -393.4435
  12   2.0000     -14.424670      -392.5152
  13   2.0000     -14.420029      -392.3889
  14   2.0000     -14.419934      -392.3864
  15   2.0000     -14.419561      -392.3762
  16   2.0000     -14.411487      -392.1565
  17   2.0000     -14.394977      -391.7072
  18   2.0000     -10.416581      -283.4496
  19   2.0000     -10.380752      -282.4746
  20   2.0000     -10.379437      -282.4388
  21   2.0000     -10.379333      -282.4360
  22   2.0000     -10.376097      -282.3480
  23   2.0000     -10.374202      -282.2964
  24   2.0000     -10.369602      -282.1712
  25   2.0000     -10.359821      -281.9051
  26   2.0000     -10.352446      -281.7044
  27   2.0000     -10.349045      -281.6118
  28   2.0000     -10.348847      -281.6064
  29   2.0000     -10.348232      -281.5897
  30   2.0000     -10.345189      -281.5069
  31   2.0000     -10.345073      -281.5037
  32   2.0000     -10.329578      -281.0821
  33   2.0000     -10.329327      -281.0753
  34   2.0000     -10.328076      -281.0412
  35   2.0000     -10.327049      -281.0133
  36   2.0000     -10.326299      -280.9929
  37   2.0000     -10.325039      -280.9586
  38   2.0000     -10.323956      -280.9291
  39   2.0000     -10.323110      -280.9061
  40   2.0000     -10.321825      -280.8711
  41   2.0000     -10.321557      -280.8638
  42   2.0000     -10.320222      -280.8275
  43   2.0000     -10.318809      -280.7891
  44   2.0000     -10.318434      -280.7789
  45   2.0000     -10.316775      -280.7337
  46   2.0000     -10.314181      -280.6631
  47   2.0000     -10.313340      -280.6403
  48   2.0000     -10.313233      -280.6373
  49   2.0000     -10.313111      -280.6340
  50   2.0000     -10.312983      -280.6305
  51   2.0000     -10.312493      -280.6172
  52   2.0000     -10.310807      -280.5713
  53   2.0000     -10.310505      -280.5631
  54   2.0000     -10.310480      -280.5624
  55   2.0000     -10.309910      -280.5469
  56   2.0000     -10.308677      -280.5134
  57   2.0000     -10.307316      -280.4763
  58   2.0000     -10.306861      -280.4640
  59   2.0000     -10.303800      -280.3806
  60   2.0000     -10.301333      -280.3135
  61   2.0000     -10.300258      -280.2843
  62   2.0000     -10.299926      -280.2752
  63   2.0000     -10.299807      -280.2720
  64   2.0000     -10.299552      -280.2651
  65   2.0000     -10.296646      -280.1860
  66   2.0000     -10.296123      -280.1717
  67   2.0000     -10.294237      -280.1204
  68   2.0000     -10.292280      -280.0672
  69   2.0000     -10.285141      -279.8729
  70   2.0000     -10.271453      -279.5004
  71   2.0000     -10.267966      -279.4056
  72   2.0000     -10.265874      -279.3486
  73   2.0000     -10.239277      -278.6249
  74   2.0000      -9.571396      -260.4509
  75   2.0000      -9.570682      -260.4315
  76   2.0000      -8.089071      -220.1148
  77   2.0000      -8.087729      -220.0783
  78   2.0000      -7.342052      -199.7874
  79   2.0000      -7.341274      -199.7662
  80   2.0000      -7.331421      -199.4981
  81   2.0000      -7.330886      -199.4835
  82   2.0000      -7.330752      -199.4799
  83   2.0000      -7.330206      -199.4651
  84   2.0000      -6.058445      -164.8587
  85   2.0000      -6.057143      -164.8232
  86   2.0000      -6.053841      -164.7334
  87   2.0000      -6.052534      -164.6978
  88   2.0000      -6.051361      -164.6659
  89   2.0000      -6.049947      -164.6274
  90   2.0000      -1.211568       -32.9684
  91   2.0000      -1.141326       -31.0570
  92   2.0000      -1.140057       -31.0225
  93   2.0000      -1.132899       -30.8278
  94   2.0000      -1.132328       -30.8122
  95   2.0000      -1.122716       -30.5507
  96   2.0000      -1.069856       -29.1123
  97   2.0000      -1.060729       -28.8639
  98   2.0000      -1.038156       -28.2497
  99   2.0000      -1.036163       -28.1954
 100   2.0000      -1.020609       -27.7722
 101   2.0000      -1.017670       -27.6922
 102   2.0000      -1.016447       -27.6589
 103   2.0000      -1.002460       -27.2783
 104   2.0000      -1.000642       -27.2289
 105   2.0000      -0.999324       -27.1930
 106   2.0000      -0.998092       -27.1595
 107   2.0000      -0.988201       -26.8903
 108   2.0000      -0.985302       -26.8114
 109   2.0000      -0.984866       -26.7996
 110   2.0000      -0.973921       -26.5017
 111   2.0000      -0.954078       -25.9618
 112   2.0000      -0.952547       -25.9201
 113   2.0000      -0.937300       -25.5052
 114   2.0000      -0.931765       -25.3546
 115   2.0000      -0.920888       -25.0586
 116   2.0000      -0.910754       -24.7829
 117   2.0000      -0.907539       -24.6954
 118   2.0000      -0.898416       -24.4471
 119   2.0000      -0.894072       -24.3289
 120   2.0000      -0.885977       -24.1087
 121   2.0000      -0.875257       -23.8170
 122   2.0000      -0.867470       -23.6051
 123   2.0000      -0.856851       -23.3161
 124   2.0000      -0.852730       -23.2040
 125   2.0000      -0.843186       -22.9443
 126   2.0000      -0.832424       -22.6514
 127   2.0000      -0.832169       -22.6445
 128   2.0000      -0.828432       -22.5428
 129   2.0000      -0.818561       -22.2742
 130   2.0000      -0.815049       -22.1786
 131   2.0000      -0.804424       -21.8895
 132   2.0000      -0.787635       -21.4326
 133   2.0000      -0.778205       -21.1760
 134   2.0000      -0.763643       -20.7798
 135   2.0000      -0.757874       -20.6228
 136   2.0000      -0.755829       -20.5672
 137   2.0000      -0.755121       -20.5479
 138   2.0000      -0.746282       -20.3074
 139   2.0000      -0.728648       -19.8275
 140   2.0000      -0.720765       -19.6130
 141   2.0000      -0.713067       -19.4035
 142   2.0000      -0.707496       -19.2519
 143   2.0000      -0.702744       -19.1226
 144   2.0000      -0.692998       -18.8574
 145   2.0000      -0.690123       -18.7792
 146   2.0000      -0.686280       -18.6746
 147   2.0000      -0.677033       -18.4230
 148   2.0000      -0.676194       -18.4002
 149   2.0000      -0.673877       -18.3371
 150   2.0000      -0.672203       -18.2916
 151   2.0000      -0.667711       -18.1693
 152   2.0000      -0.658664       -17.9232
 153   2.0000      -0.647759       -17.6264
 154   2.0000      -0.644651       -17.5418
 155   2.0000      -0.643194       -17.5022
 156   2.0000      -0.632407       -17.2087
 157   2.0000      -0.623852       -16.9759
 158   2.0000      -0.616979       -16.7889
 159   2.0000      -0.614080       -16.7100
 160   2.0000      -0.607756       -16.5379
 161   2.0000      -0.606366       -16.5001
 162   2.0000      -0.604555       -16.4508
 163   2.0000      -0.603279       -16.4161
 164   2.0000      -0.597778       -16.2664
 165   2.0000      -0.591054       -16.0834
 166   2.0000      -0.587844       -15.9961
 167   2.0000      -0.582827       -15.8595
 168   2.0000      -0.578382       -15.7386
 169   2.0000      -0.568152       -15.4602
 170   2.0000      -0.562571       -15.3083
 171   2.0000      -0.559461       -15.2237
 172   2.0000      -0.554633       -15.0923
 173   2.0000      -0.553623       -15.0649
 174   2.0000      -0.552572       -15.0362
 175   2.0000      -0.551195       -14.9988
 176   2.0000      -0.548485       -14.9250
 177   2.0000      -0.545032       -14.8311
 178   2.0000      -0.542407       -14.7596
 179   2.0000      -0.536967       -14.6116
 180   2.0000      -0.534087       -14.5332
 181   2.0000      -0.533036       -14.5047
 182   2.0000      -0.528487       -14.3809
 183   2.0000      -0.526415       -14.3245
 184   2.0000      -0.524950       -14.2846
 185   2.0000      -0.523434       -14.2434
 186   2.0000      -0.520257       -14.1569
 187   2.0000      -0.519295       -14.1307
 188   2.0000      -0.515264       -14.0211
 189   2.0000      -0.514644       -14.0042
 190   2.0000      -0.513546       -13.9743
 191   2.0000      -0.510857       -13.9011
 192   2.0000      -0.509740       -13.8707
 193   2.0000      -0.507080       -13.7984
 194   2.0000      -0.505556       -13.7569
 195   2.0000      -0.504217       -13.7204
 196   2.0000      -0.503120       -13.6906
 197   2.0000      -0.500431       -13.6174
 198   2.0000      -0.499514       -13.5925
 199   2.0000      -0.493004       -13.4153
 200   2.0000      -0.492462       -13.4006
 201   2.0000      -0.491591       -13.3769
 202   2.0000      -0.486789       -13.2462
 203   2.0000      -0.485237       -13.2040
 204   2.0000      -0.483602       -13.1595
 205   2.0000      -0.483103       -13.1459
 206   2.0000      -0.480862       -13.0849
 207   2.0000      -0.476608       -12.9692
 208   2.0000      -0.474494       -12.9116
 209   2.0000      -0.471155       -12.8208
 210   2.0000      -0.468498       -12.7485
 211   2.0000      -0.465393       -12.6640
 212   2.0000      -0.463323       -12.6077
 213   2.0000      -0.460731       -12.5371
 214   2.0000      -0.458141       -12.4667
 215   2.0000      -0.457822       -12.4580
 216   2.0000      -0.455270       -12.3885
 217   2.0000      -0.454765       -12.3748
 218   2.0000      -0.452006       -12.2997
 219   2.0000      -0.451717       -12.2919
 220   2.0000      -0.447842       -12.1864
 221   2.0000      -0.446403       -12.1472
 222   2.0000      -0.445226       -12.1152
 223   2.0000      -0.444564       -12.0972
 224   2.0000      -0.444138       -12.0856
 225   2.0000      -0.440302       -11.9812
 226   2.0000      -0.437765       -11.9122
 227   2.0000      -0.435880       -11.8609
 228   2.0000      -0.432727       -11.7751
 229   2.0000      -0.432419       -11.7667
 230   2.0000      -0.431682       -11.7467
 231   2.0000      -0.430063       -11.7026
 232   2.0000      -0.427899       -11.6437
 233   2.0000      -0.426617       -11.6088
 234   2.0000      -0.423628       -11.5275
 235   2.0000      -0.420750       -11.4492
 236   2.0000      -0.415813       -11.3149
 237   2.0000      -0.414173       -11.2702
 238   2.0000      -0.413589       -11.2543
 239   2.0000      -0.411009       -11.1841
 240   2.0000      -0.406296       -11.0559
 241   2.0000      -0.403895       -10.9905
 242   2.0000      -0.402569       -10.9545
 243   2.0000      -0.402026       -10.9397
 244   2.0000      -0.396820       -10.7980
 245   2.0000      -0.391610       -10.6562
 246   2.0000      -0.388615       -10.5747
 247   2.0000      -0.384539       -10.4639
 248   2.0000      -0.368547       -10.0287
 249   2.0000      -0.362593        -9.8667
 250   2.0000      -0.360689        -9.8149
 251   2.0000      -0.352755        -9.5990
 252   2.0000      -0.348088        -9.4720
 253   2.0000      -0.340390        -9.2625
 254   2.0000      -0.339416        -9.2360
 255   2.0000      -0.338020        -9.1980
 256   2.0000      -0.337352        -9.1798
 257   2.0000      -0.329256        -8.9595
 258   2.0000      -0.325010        -8.8440
 259   2.0000      -0.320860        -8.7310
 260   2.0000      -0.314213        -8.5502
 261   2.0000      -0.313219        -8.5231
 262   2.0000      -0.310402        -8.4465
 263   2.0000      -0.293119        -7.9762
 264   2.0000      -0.291379        -7.9288
 265   2.0000      -0.245645        -6.6843
 266   0.0000      -0.135339        -3.6828
 267   0.0000      -0.099065        -2.6957
 268   0.0000      -0.083490        -2.2719
 269   0.0000      -0.074302        -2.0219
 270   0.0000      -0.050677        -1.3790

MULLIKEN ATOMIC CHARGES
-----------------------
   0 C :    0.030271
   1 C :   -0.128683
   2 S :    0.188110
   3 C :   -0.169877
   4 Cl:    0.002267
   5 C :    0.073566
   6 C :    0.147120
   7 O :   -0.129379
   8 C :   -0.092471
   9 C :    0.294174
  10 C :   -0.326766
  11 C :   -0.192027
  12 N :    0.155929
  13 C :   -0.193990
  14 N :    0.170807
  15 C :   -0.040363
  16 C :    0.090154
  17 C :   -0.080928
  18 C :    0.096149
  19 C :   -0.113843
  20 C :    0.050616
  21 C :   -0.178125
  22 N :    0.153057
  23 C :    0.134010
  24 C :   -0.088334
  25 C :    0.022316
  26 C :   -0.023621
  27 C :   -0.100672
  28 C :   -0.179830
  29 N :    0.148579
  30 C :    0.164149
  31 N :   -0.262156
  32 C :    0.098948
  33 C :   -0.004061
  34 C :    0.155571
  35 O :   -0.217480
  36 C :   -0.080563
  37 C :   -0.022768
  38 C :    0.146065
  39 O :   -0.157158
  40 N :   -0.253804
  41 C :    0.094696
  42 C :   -0.008253
  43 C :    0.114226
  44 C :   -0.034873
  45 C :   -0.018625
  46 C :    0.071775
  47 C :   -0.080154
  48 C :    0.223873
  49 O :   -0.162179
  50 O :   -0.278761
  51 C :    0.330677
  52 C :   -0.100808
  53 C :   -0.021760
  54 C :    0.003789
  55 C :    0.066608
  56 C :   -0.045278
  57 C :    0.053639
  58 C :   -0.010212
  59 C :   -0.059069
  60 C :    0.124443
  61 O :   -0.135383
  62 C :    0.112086
  63 C :   -0.179516
  64 S :    0.178854
  65 C :   -0.157907
  66 C :    0.001610
  67 C :    0.355879
  68 C :   -0.359431
  69 C :   -0.180649
  70 N :    0.130061
  71 C :   -0.134045
  72 N :    0.127607
  73 Cl:   -0.002015
  74 H :    0.055032
  75 H :    0.030606
  76 H :    0.017309
  77 H :    0.009835
  78 H :    0.032370
  79 H :   -0.004616
  80 H :    0.044493
  81 H :    0.025758
  82 H :    0.022465
  83 H :    0.022128
  84 H :    0.029041
  85 H :    0.036054
  86 H :    0.036508
  87 H :    0.033330
  88 H :    0.024209
  89 H :    0.030547
  90 H :    0.027155
  91 H :    0.049473
  92 H :    0.051631
  93 H :    0.049299
  94 H :   -0.012440
  95 H :   -0.004590
  96 H :    0.008158
  97 H :    0.004316
  98 H :    0.014843
  99 H :    0.061221
Sum of atomic charges:    0.0000000

LOEWDIN ATOMIC CHARGES
----------------------
   0 C :   -0.059305
   1 C :   -0.148850
   2 S :    0.476952
   3 C :   -0.271097
   4 Cl:    0.193824
   5 C :   -0.117596
   6 C :    0.081475
   7 O :   -0.124877
   8 C :   -0.081715
   9 C :    0.072525
  10 C :   -0.132009
  11 C :   -0.014463
  12 N :   -0.049895
  13 C :   -0.027115
  14 N :   -0.038761
  15 C :    0.073913
  16 C :   -0.029740
  17 C :    0.025324
  18 C :    0.033371
  19 C :   -0.086612
  20 C :    0.069975
  21 C :   -0.033158
  22 N :   -0.048134
  23 C :    0.046462
  24 C :    0.015506
  25 C :   -0.024643
  26 C :    0.051279
  27 C :   -0.079743
  28 C :   -0.033884
  29 N :   -0.057398
  30 C :    0.072714
  31 N :   -0.001108
  32 C :    0.035772
  33 C :   -0.064092
  34 C :    0.073686
  35 O :   -0.213512
  36 C :   -0.131310
  37 C :   -0.092389
  38 C :    0.090408
  39 O :   -0.151834
  40 N :    0.016204
  41 C :    0.035332
  42 C :   -0.065208
  43 C :    0.096261
  44 C :   -0.022854
  45 C :    0.024685
  46 C :    0.018369
  47 C :   -0.066924
  48 C :    0.091864
  49 O :   -0.151945
  50 O :   -0.077588
  51 C :    0.103952
  52 C :   -0.014198
  53 C :   -0.021572
  54 C :    0.019770
  55 C :   -0.024172
  56 C :    0.028085
  57 C :   -0.020962
  58 C :    0.075223
  59 C :   -0.079934
  60 C :    0.085433
  61 O :   -0.136277
  62 C :   -0.114018
  63 C :   -0.274030
  64 S :    0.469905
  65 C :   -0.153255
  66 C :   -0.055534
  67 C :    0.080009
  68 C :   -0.143269
  69 C :   -0.012732
  70 N :   -0.061182
  71 C :   -0.003259
  72 N :   -0.058648
  73 Cl:    0.190145
  74 H :    0.037919
  75 H :    0.052655
  76 H :    0.040062
  77 H :    0.037943
  78 H :    0.042954
  79 H :    0.036721
  80 H :    0.036942
  81 H :    0.019585
  82 H :    0.026247
  83 H :    0.030468
  84 H :    0.025679
  85 H :    0.035193
  86 H :    0.025391
  87 H :    0.033294
  88 H :    0.032587
  89 H :    0.020488
  90 H :    0.043934
  91 H :    0.044913
  92 H :    0.040936
  93 H :    0.040006
  94 H :    0.035219
  95 H :    0.036164
  96 H :    0.036492
  97 H :    0.031762
  98 H :    0.043345
  99 H :    0.035483

  Mayer bond orders larger than 0.100000
B(  0-C ,  1-C ) :   1.5465 B(  0-C ,  5-C ) :   1.2215 B(  0-C ,  9-C ) :   0.9964
B(  1-C ,  2-S ) :   1.1614 B(  1-C , 74-H ) :   0.9539 B(  2-S ,  3-C ) :   1.1519
B(  3-C ,  4-Cl) :   1.1292 B(  3-C ,  5-C ) :   1.4783 B(  5-C ,  6-C ) :   0.9488
B(  6-C ,  7-O ) :   2.2338 B(  6-C ,  8-C ) :   0.9285 B(  8-C ,  9-C ) :   1.0631
B(  8-C , 15-C ) :   1.6030 B(  9-C , 10-C ) :   1.6577 B( 10-C , 11-C ) :   1.1455
B( 10-C , 13-C ) :   1.1368 B( 11-C , 12-N ) :   2.9906 B( 13-C , 14-N ) :   2.9832
B( 15-C , 16-C ) :   1.1214 B( 15-C , 75-H ) :   0.9481 B( 16-C , 17-C ) :   1.4970
B( 16-C , 20-C ) :   1.0571 B( 17-C , 18-C ) :   1.1016 B( 17-C , 76-H ) :   1.0064
B( 18-C , 19-C ) :   1.1174 B( 18-C , 23-C ) :   1.3972 B( 19-C , 20-C ) :   1.6680
B( 19-C , 21-C ) :   1.0917 B( 20-C , 77-H ) :   1.0090 B( 21-C , 22-N ) :   2.9842
B( 23-C , 24-C ) :   1.1158 B( 23-C , 27-C ) :   1.0933 B( 24-C , 25-C ) :   1.5556
B( 24-C , 78-H ) :   0.9968 B( 25-C , 26-C ) :   1.0204 B( 25-C , 30-C ) :   1.0362
B( 26-C , 27-C ) :   1.6705 B( 26-C , 79-H ) :   1.0266 B( 27-C , 28-C ) :   1.0868
B( 28-C , 29-N ) :   2.9687 B( 30-C , 31-N ) :   1.1891 B( 30-C , 37-C ) :   1.3976
B( 31-N , 32-C ) :   0.9414 B( 31-N , 34-C ) :   1.0451 B( 32-C , 33-C ) :   1.1169
B( 32-C , 80-H ) :   0.9234 B( 32-C , 81-H ) :   0.9493 B( 33-C , 82-H ) :   0.9505
B( 33-C , 83-H ) :   0.9611 B( 33-C , 84-H ) :   0.9557 B( 34-C , 35-O ) :   2.0609
B( 34-C , 36-C ) :   1.0003 B( 36-C , 37-C ) :   1.2450 B( 36-C , 43-C ) :   1.2838
B( 37-C , 38-C ) :   0.9548 B( 38-C , 39-O ) :   2.1328 B( 38-C , 40-N ) :   1.0162
B( 40-N , 41-C ) :   0.9201 B( 40-N , 43-C ) :   1.2436 B( 41-C , 42-C ) :   1.1195
B( 41-C , 85-H ) :   0.9274 B( 41-C , 86-H ) :   0.9412 B( 42-C , 87-H ) :   0.9580
B( 42-C , 88-H ) :   0.9644 B( 42-C , 89-H ) :   0.9557 B( 43-C , 44-C ) :   1.1726
B( 44-C , 45-C ) :   1.6908 B( 44-C , 90-H ) :   0.9397 B( 45-C , 46-C ) :   1.0668
B( 45-C , 91-H ) :   0.9404 B( 46-C , 47-C ) :   1.3405 B( 46-C , 55-C ) :   1.3287
B( 47-C , 48-C ) :   0.9164 B( 47-C , 52-C ) :   1.4230 B( 48-C , 49-O ) :   2.1249
B( 48-C , 50-O ) :   1.1467 B( 50-O , 51-C ) :   0.9720 B( 51-C , 52-C ) :   1.0096
B( 51-C , 92-H ) :   0.9245 B( 51-C , 93-H ) :   0.9274 B( 52-C , 53-C ) :   1.3430
B( 53-C , 54-C ) :   1.3889 B( 53-C , 94-H ) :   1.0090 B( 54-C , 55-C ) :   1.3268
B( 54-C , 95-H ) :   0.9923 B( 55-C , 56-C ) :   1.0363 B( 56-C , 57-C ) :   1.6899
B( 56-C , 96-H ) :   0.9799 B( 57-C , 58-C ) :   1.1332 B( 57-C , 97-H ) :   0.9412
B( 58-C , 59-C ) :   1.6212 B( 58-C , 98-H ) :   0.9367 B( 59-C , 60-C ) :   0.9402
B( 59-C , 67-C ) :   1.0486 B( 60-C , 61-O ) :   2.2465 B( 60-C , 62-C ) :   0.9413
B( 62-C , 63-C ) :   1.4778 B( 62-C , 66-C ) :   1.2252 B( 63-C , 64-S ) :   1.1432
B( 63-C , 73-Cl) :   1.1271 B( 64-S , 65-C ) :   1.1575 B( 65-C , 66-C ) :   1.5416
B( 65-C , 99-H ) :   0.9487 B( 66-C , 67-C ) :   1.0086 B( 67-C , 68-C ) :   1.5923
B( 68-C , 69-C ) :   1.1507 B( 68-C , 71-C ) :   1.1863 B( 69-C , 70-N ) :   2.9026
B( 71-C , 72-N ) :   2.8306

-----------------------------------------------------------------------------
         ABSORPTION SPECTRUM VIA TRANSITION ELECTRIC DIPOLE MOMENTS
-----------------------------------------------------------------------------
State   Energy  Wavelength   fosc         T2         TX        TY        TZ
        (cm-1)    (nm)                  (au**2)     (au)      (au)      (au)
-----------------------------------------------------------------------------
   0    8726.2   1146.0   0.410985557  15.50513   2.35892  -3.13236  -0.35912
   1   14887.6    671.7   0.055117035   1.21881   0.77273  -0.10356   0.78165
   2   16428.9    608.7   0.051828449   1.03857  -0.32553   0.92886  -0.26423
   3   19295.7    518.3   0.094816364   1.61770   0.84580  -0.37749  -0.87168
   4   20225.0    494.4   0.074641293   1.21497  -0.75141   0.05297   0.80470
   5   21382.6    467.7   0.039023204   0.60081  -0.35988   0.19870  -0.65713
   6   22798.1    438.6   0.487418149   7.03848   1.16231  -2.38301   0.09361
   7   23028.2    434.2   0.011174447   0.15975  -0.10842  -0.14839  -0.35493
   8   23899.7    418.4   0.067949049   0.93598  -0.66741   0.63360  -0.29849
   9   24595.1    406.6   0.143428591   1.91983   0.52573  -1.00887  -0.79096
  10   24693.3    405.0   0.409525952   5.45981   0.52019  -1.45556  -1.75230
  11   25067.8    398.9   0.070429345   0.92494  -0.09716  -0.26181   0.92030
  12   25902.8    386.1   0.212465054   2.70033   0.97204  -1.23188  -0.48777
  13   26499.5    377.4   0.040929284   0.50848   0.39641   0.52074   0.28313
  14   27244.3    367.0   0.194279636   2.34762  -0.40294   1.42407  -0.39657
  15   27816.7    359.5   0.050878287   0.60215  -0.44137   0.45363   0.44896
  16   28387.6    352.3   0.341466615   3.96000  -1.03640   1.69067  -0.16590
  17   28954.9    345.4   0.042110248   0.47879   0.12811  -0.05562   0.67770
  18   29040.5    344.3   0.081453241   0.92338  -0.07671  -0.09189  -0.95344
  19   29422.5    339.9   0.212087059   2.37307   0.14058  -1.17831   0.98228
  20   29728.4    336.4   0.006508741   0.07208  -0.12336  -0.23049  -0.06113
  21   29915.2    334.3   0.012152853   0.13374  -0.02051   0.14474   0.33522
  22   30312.4    329.9   0.042805743   0.46490   0.49268  -0.32602  -0.34040
  23   30833.5    324.3   0.092279636   0.98528   0.06736   0.54806  -0.82485
  24   30998.8    322.6   0.055240480   0.58666  -0.23959   0.65932  -0.30749
  25   31314.2    319.3   0.008230776   0.08653  -0.14156  -0.03473   0.25551
  26   31435.3    318.1   0.002845438   0.02980   0.09263   0.10890   0.09675
  27   31839.6    314.1   0.053331630   0.55143   0.05268   0.53366  -0.51368
  28   32114.7    311.4   0.043493404   0.44586   0.31775  -0.57759   0.10620
  29   32244.7    310.1   0.044355906   0.45287   0.13579  -0.13469  -0.64520
  30   32483.5    307.8   0.050863031   0.51548   0.43421  -0.56735  -0.07114
  31   33451.5    298.9   0.030738576   0.30251  -0.41518   0.34165   0.11584
  32   33638.7    297.3   0.040503945   0.39640   0.40070  -0.46553  -0.13827
  33   33704.6    296.7   0.135470250   1.32321   0.50845  -1.02801   0.08883
  34   33794.3    295.9   0.102864710   1.00207   0.14389  -0.03359  -0.99007
  35   33868.4    295.3   0.032926919   0.32006  -0.39373   0.24949   0.32061
  36   34174.8    292.6   0.022350279   0.21530   0.30064  -0.29077  -0.20093
  37   34366.7    291.0   0.003914671   0.03750  -0.11522   0.05896   0.14404
  38   34512.2    289.8   0.037730432   0.35991  -0.07049  -0.13523   0.58022
  39   34527.3    289.6   0.148172162   1.41280  -0.01525   0.71141  -0.95208
  40   34715.1    288.1   0.112901020   1.07067  -0.03033  -0.59467   0.84623
  41   34909.4    286.5   0.018060072   0.17032  -0.22454   0.28356   0.19872
  42   35160.5    284.4   0.011697094   0.10952  -0.00256  -0.12183  -0.30769
  43   35258.4    283.6   0.104374724   0.97456   0.69868  -0.69437  -0.06529
  44   35566.1    281.2   0.128129088   1.18601   0.41675  -0.56465  -0.83277
  45   35984.3    277.9   0.855137517   7.82344  -0.55416  -0.00898   2.74158
  46   36602.8    273.2   0.020055050   0.18038   0.15921  -0.19798  -0.34034
  47   36857.5    271.3   0.027793294   0.24825  -0.05226  -0.10456   0.48434
  48   37139.2    269.3   0.004972282   0.04408  -0.13775   0.14574  -0.06212
  49   37227.3    268.6   0.017647156   0.15606  -0.22587  -0.16188   0.28078
  50   37516.5    266.5   0.000650976   0.00571  -0.03384   0.02956   0.06077
  51   37557.8    266.3   0.140555226   1.23203   0.57196  -0.94570   0.10276
  52   37952.2    263.5   0.004340830   0.03765  -0.18701   0.04724  -0.02116
  53   38108.1    262.4   0.001847259   0.01596  -0.07364  -0.03125   0.09777
  54   38269.0    261.3   0.062569056   0.53826  -0.14218  -0.25718   0.67223
  55   38278.7    261.2   0.001486706   0.01279   0.02000   0.10232  -0.04377
  56   38439.8    260.1   0.262600485   2.24900  -0.44807  -0.15090   1.42319
  57   38625.6    258.9   0.035582625   0.30328  -0.44058   0.33033  -0.00710
  58   38822.3    257.6   0.005454558   0.04625  -0.04132   0.20421  -0.05334
  59   39274.8    254.6   0.542840662   4.55024   0.42790   0.40427  -2.05029
  60   39472.1    253.3   0.071818841   0.59900   0.48425  -0.57962  -0.16891
  61   39892.0    250.7   0.002002886   0.01653   0.00507  -0.12729   0.01732
  62   40306.0    248.1   0.002157625   0.01762   0.10029   0.00190  -0.08695

FINAL SINGLE POINT ENERGY     -4751.229138053755

DIPOLE MOMENT
-------------
                                X             Y             Z
Electronic contribution:    -34.37110      52.81262      16.94289
Nuclear contribution   :     36.80099     -56.51709     -18.28484
                        -----------------------------------------
Total Dipole Moment    :      2.42989      -3.70447      -1.34195
                        -----------------------------------------
Magnitude (a.u.)       :      4.62907
Magnitude (Debye)      :     11.76617

Rotational constants in cm-1:     0.001318     0.000349     0.000288
Rotational constants in MHz :    39.505497    10.461312     8.638592

                             ****ORCA TERMINATED NORMALLY****
TOTAL RUN TIME: 0 days 0 hours 12 minutes 55 seconds 7 msec
