                         Program Version 4.2.0 -  RELEASE  -
|  1> # ORCA input file
|  2> # SCF done       -183.467748938831          0.000981435985
|  3> ! CAM-B3LYP def2-SVP def2/J RIJCOSX Grid4 TightSCF
|  4> %maxcore 5000
|  5> %tddft
|  6>     Mode sTDDFT
|  7>     Ethresh 5.0
|  8>     maxcore 5000
|  9> end
| 10>
| 11> %pal
| 12>   nprocs 6
| 13>   end
| 14> * xyz 0 1
| 15>    C        2.64557        -7.27796         1.64311
| 16>    C        1.74319        -8.12067         2.21342
| 17>    S        0.40868        -8.41502         1.15556
| 18>    C        1.09234        -7.40619        -0.09750
| 19>   Cl        0.27384        -7.12693        -1.55592
| 20>    C        2.28122        -6.88333         0.31354
| 21>    C        3.32081        -6.00683        -0.23208
| 22>    O        3.52498        -5.71604        -1.38868
| 23>    C        4.17681        -5.66984         0.94437
| 24>    C        3.87318        -6.60302         2.02265
| 25>    C        4.53867        -6.78376         3.20172
| 26>    C        4.04398        -7.66320         4.18769
| 27>    N        3.63036        -8.36154         4.99839
| 28>    C        5.75329        -6.15985         3.55291
| 29>    N        6.75241        -5.69897         3.87799
| 30>    C        4.97845        -4.58240         1.05073
| 31>    C        5.01539        -3.44582         0.19273
| 32>    S        6.50138        -2.52469         0.17057
| 33>    C        5.79528        -1.34613        -0.86633
| 34>    C        6.22998        -0.13728        -1.42533
| 35>    C        5.23208         0.48160        -2.13150
| 36>    C        5.37865         1.77218        -2.83246
| 37>    O        6.41765         2.37220        -2.83308
| 38>    O        4.29689         2.24191        -3.46960
| 39>    S        3.73331        -0.42804        -2.11737
| 40>    C        4.46923        -1.66731        -1.16788
| 41>    C        4.00722        -2.86244        -0.57519
| 42>    C        2.63293        -3.31237        -0.60763
| 43>    N        1.85240        -3.35552        -1.72641
| 44>    C        2.28189        -3.18961        -3.09911
| 45>    C        2.07086        -4.45935        -3.91795
| 46>    C        0.53013        -3.77038        -1.41776
| 47>    O       -0.35909        -3.86931        -2.23473
| 48>    C        0.55325        -3.98470         0.00787
| 49>    C        1.86288        -3.70301         0.47816
| 50>    C        1.85921        -3.89635         1.90793
| 51>    O        2.73636        -3.79870         2.74439
| 52>    N        0.54050        -4.28756         2.21436
| 53>    C        0.13613        -4.39786         3.59737
| 54>    C        0.27311        -5.81402         4.14976
| 55>    C       -0.24569        -4.35840         1.08123
| 56>    C       -1.59978        -4.75061         0.92689
| 57>    C       -2.43885        -5.32567         1.82331
| 58>    C       -3.78261        -5.68103         1.52711
| 59>    S       -4.77351        -6.38702         2.77244
| 60>    C       -6.15240        -6.48033         1.72555
| 61>    C       -5.82494        -5.98838         0.45580
| 62>    C       -4.49995        -5.54404         0.35445
| 63>    C       -6.69876        -5.93708        -0.64519
| 64>    N       -7.36777        -5.89690        -1.57642
| 65>    C       -7.38132        -6.95895         2.23867
| 66>    C       -8.55601        -6.96567         1.55749
| 67>    C       -9.78210        -7.37953         2.12746
| 68>    C      -11.01713        -7.14513         1.60413
| 69>    C      -12.19392        -7.93995         2.07356
| 70>    O      -12.24228        -8.63850         3.05715
| 71>    C      -13.21681        -7.70991         1.04608
| 72>    C      -14.47191        -8.15962         0.76367
| 73>    S      -15.07784        -7.41009        -0.69482
| 74>    C      -13.63173        -6.48934        -0.89935
| 75>    C      -12.73885        -6.75131         0.09118
| 76>    C      -11.42303        -6.29419         0.50057
| 77>    C      -10.82098        -5.15012         0.04656
| 78>    C      -11.37942        -4.40464        -1.01412
| 79>    N      -11.82510        -3.79733        -1.87900
| 80>    C       -9.69937        -4.53237         0.63539
| 81>    N       -8.82522        -3.95621         1.10649
| 82>   Cl      -15.40190        -9.27772         1.63199
| 83>    H        1.76010        -8.58571         3.17912
| 84>    H        5.63580        -4.51149         1.90858
| 85>    H        7.21347         0.28134        -1.32151
| 86>    H        3.52035         1.67112        -3.39390
| 87>    H        3.34235        -2.94005        -3.09929
| 88>    H        1.71117        -2.36430        -3.53840
| 89>    H        2.59934        -5.28679        -3.45285
| 90>    H        2.45989        -4.30707        -4.92081
| 91>    H        1.01331        -4.69652        -3.98487
| 92>    H       -0.88610        -4.02627         3.69645
| 93>    H        0.80387        -3.73920         4.16171
| 94>    H       -0.27677        -6.53362         3.54715
| 95>    H       -0.10502        -5.84513         5.16784
| 96>    H        1.32017        -6.10448         4.16504
| 97>    H       -1.95616        -4.57837        -0.08019
| 98>    H       -2.11711        -5.55538         2.82672
| 99>    H       -4.09318        -5.13439        -0.55249
|100>    H       -7.37048        -7.27549         3.27415
|101>    H       -8.56982        -6.63929         0.52915
|102>    H       -9.75217        -7.98088         3.02950
|103>    H      -13.54099        -5.82997        -1.73961
|104> *
|105>
|106>                          ****END OF INPUT****

CARTESIAN COORDINATES (ANGSTROEM)
---------------------------------
  C      2.645570   -7.277960    1.643110
  C      1.743190   -8.120670    2.213420
  S      0.408680   -8.415020    1.155560
  C      1.092340   -7.406190   -0.097500
  Cl     0.273840   -7.126930   -1.555920
  C      2.281220   -6.883330    0.313540
  C      3.320810   -6.006830   -0.232080
  O      3.524980   -5.716040   -1.388680
  C      4.176810   -5.669840    0.944370
  C      3.873180   -6.603020    2.022650
  C      4.538670   -6.783760    3.201720
  C      4.043980   -7.663200    4.187690
  N      3.630360   -8.361540    4.998390
  C      5.753290   -6.159850    3.552910
  N      6.752410   -5.698970    3.877990
  C      4.978450   -4.582400    1.050730
  C      5.015390   -3.445820    0.192730
  S      6.501380   -2.524690    0.170570
  C      5.795280   -1.346130   -0.866330
  C      6.229980   -0.137280   -1.425330
  C      5.232080    0.481600   -2.131500
  C      5.378650    1.772180   -2.832460
  O      6.417650    2.372200   -2.833080
  O      4.296890    2.241910   -3.469600
  S      3.733310   -0.428040   -2.117370
  C      4.469230   -1.667310   -1.167880
  C      4.007220   -2.862440   -0.575190
  C      2.632930   -3.312370   -0.607630
  N      1.852400   -3.355520   -1.726410
  C      2.281890   -3.189610   -3.099110
  C      2.070860   -4.459350   -3.917950
  C      0.530130   -3.770380   -1.417760
  O     -0.359090   -3.869310   -2.234730
  C      0.553250   -3.984700    0.007870
  C      1.862880   -3.703010    0.478160
  C      1.859210   -3.896350    1.907930
  O      2.736360   -3.798700    2.744390
  N      0.540500   -4.287560    2.214360
  C      0.136130   -4.397860    3.597370
  C      0.273110   -5.814020    4.149760
  C     -0.245690   -4.358400    1.081230
  C     -1.599780   -4.750610    0.926890
  C     -2.438850   -5.325670    1.823310
  C     -3.782610   -5.681030    1.527110
  S     -4.773510   -6.387020    2.772440
  C     -6.152400   -6.480330    1.725550
  C     -5.824940   -5.988380    0.455800
  C     -4.499950   -5.544040    0.354450
  C     -6.698760   -5.937080   -0.645190
  N     -7.367770   -5.896900   -1.576420
  C     -7.381320   -6.958950    2.238670
  C     -8.556010   -6.965670    1.557490
  C     -9.782100   -7.379530    2.127460
  C    -11.017130   -7.145130    1.604130
  C    -12.193920   -7.939950    2.073560
  O    -12.242280   -8.638500    3.057150
  C    -13.216810   -7.709910    1.046080
  C    -14.471910   -8.159620    0.763670
  S    -15.077840   -7.410090   -0.694820
  C    -13.631730   -6.489340   -0.899350
  C    -12.738850   -6.751310    0.091180
  C    -11.423030   -6.294190    0.500570
  C    -10.820980   -5.150120    0.046560
  C    -11.379420   -4.404640   -1.014120
  N    -11.825100   -3.797330   -1.879000
  C     -9.699370   -4.532370    0.635390
  N     -8.825220   -3.956210    1.106490
  Cl   -15.401900   -9.277720    1.631990
  H      1.760100   -8.585710    3.179120
  H      5.635800   -4.511490    1.908580
  H      7.213470    0.281340   -1.321510
  H      3.520350    1.671120   -3.393900
  H      3.342350   -2.940050   -3.099290
  H      1.711170   -2.364300   -3.538400
  H      2.599340   -5.286790   -3.452850
  H      2.459890   -4.307070   -4.920810
  H      1.013310   -4.696520   -3.984870
  H     -0.886100   -4.026270    3.696450
  H      0.803870   -3.739200    4.161710
  H     -0.276770   -6.533620    3.547150
  H     -0.105020   -5.845130    5.167840
  H      1.320170   -6.104480    4.165040
  H     -1.956160   -4.578370   -0.080190
  H     -2.117110   -5.555380    2.826720
  H     -4.093180   -5.134390   -0.552490
  H     -7.370480   -7.275490    3.274150
  H     -8.569820   -6.639290    0.529150
  H     -9.752170   -7.980880    3.029500
  H    -13.540990   -5.829970   -1.739610

 Total Charge           Charge          ....    0
 Multiplicity           Mult            ....    1
 Number of Electrons    NEL             ....  520
 Basis Dimension        Dim             .... 1085

ORBITAL ENERGIES
----------------

  NO   OCC          E(Eh)            E(eV)
   0   2.0000    -101.629268     -2765.4730
   1   2.0000    -101.617916     -2765.1641
   2   2.0000     -89.004751     -2421.9424
   3   2.0000     -88.996660     -2421.7222
   4   2.0000     -88.994113     -2421.6529
   5   2.0000     -88.993293     -2421.6306
   6   2.0000     -88.992855     -2421.6187
   7   2.0000     -19.274438      -524.4841
   8   2.0000     -19.232253      -523.3362
   9   2.0000     -19.221064      -523.0318
  10   2.0000     -19.208992      -522.7032
  11   2.0000     -19.208693      -522.6951
  12   2.0000     -19.206096      -522.6244
  13   2.0000     -14.476173      -393.9167
  14   2.0000     -14.470547      -393.7636
  15   2.0000     -14.426635      -392.5687
  16   2.0000     -14.425257      -392.5312
  17   2.0000     -14.422549      -392.4575
  18   2.0000     -14.420208      -392.3938
  19   2.0000     -14.420105      -392.3910
  20   2.0000     -10.420337      -283.5518
  21   2.0000     -10.390922      -282.7514
  22   2.0000     -10.390679      -282.7447
  23   2.0000     -10.389530      -282.7135
  24   2.0000     -10.385669      -282.6084
  25   2.0000     -10.377415      -282.3838
  26   2.0000     -10.376689      -282.3641
  27   2.0000     -10.368702      -282.1467
  28   2.0000     -10.355868      -281.7975
  29   2.0000     -10.354631      -281.7638
  30   2.0000     -10.352973      -281.7187
  31   2.0000     -10.351513      -281.6790
  32   2.0000     -10.350166      -281.6423
  33   2.0000     -10.347056      -281.5577
  34   2.0000     -10.346369      -281.5390
  35   2.0000     -10.341490      -281.4063
  36   2.0000     -10.338815      -281.3335
  37   2.0000     -10.338657      -281.3292
  38   2.0000     -10.335856      -281.2529
  39   2.0000     -10.335409      -281.2408
  40   2.0000     -10.335390      -281.2402
  41   2.0000     -10.335263      -281.2368
  42   2.0000     -10.334138      -281.2062
  43   2.0000     -10.329150      -281.0705
  44   2.0000     -10.328656      -281.0570
  45   2.0000     -10.326984      -281.0115
  46   2.0000     -10.323325      -280.9120
  47   2.0000     -10.323011      -280.9034
  48   2.0000     -10.322856      -280.8992
  49   2.0000     -10.322731      -280.8958
  50   2.0000     -10.322718      -280.8954
  51   2.0000     -10.322655      -280.8937
  52   2.0000     -10.321713      -280.8681
  53   2.0000     -10.321319      -280.8574
  54   2.0000     -10.317621      -280.7568
  55   2.0000     -10.317191      -280.7450
  56   2.0000     -10.317049      -280.7412
  57   2.0000     -10.314122      -280.6615
  58   2.0000     -10.313601      -280.6474
  59   2.0000     -10.312499      -280.6174
  60   2.0000     -10.310538      -280.5640
  61   2.0000     -10.308186      -280.5000
  62   2.0000     -10.306270      -280.4479
  63   2.0000     -10.301020      -280.3050
  64   2.0000     -10.278383      -279.6890
  65   2.0000     -10.277916      -279.6763
  66   2.0000     -10.276648      -279.6418
  67   2.0000     -10.252074      -278.9731
  68   2.0000      -9.583319      -260.7754
  69   2.0000      -9.572688      -260.4861
  70   2.0000      -8.099902      -220.4095
  71   2.0000      -8.091543      -220.1821
  72   2.0000      -8.089873      -220.1366
  73   2.0000      -8.089063      -220.1146
  74   2.0000      -8.088282      -220.0933
  75   2.0000      -7.353967      -200.1116
  76   2.0000      -7.343383      -199.8236
  77   2.0000      -7.343296      -199.8213
  78   2.0000      -7.342871      -199.8097
  79   2.0000      -7.332742      -199.5341
  80   2.0000      -7.332207      -199.5195
  81   2.0000      -6.069316      -165.1545
  82   2.0000      -6.064710      -165.0291
  83   2.0000      -6.062190      -164.9606
  84   2.0000      -6.061076      -164.9303
  85   2.0000      -6.058916      -164.8715
  86   2.0000      -6.058455      -164.8589
  87   2.0000      -6.057644      -164.8369
  88   2.0000      -6.057041      -164.8205
  89   2.0000      -6.054964      -164.7639
  90   2.0000      -6.053851      -164.7337
  91   2.0000      -6.053626      -164.7275
  92   2.0000      -6.053181      -164.7154
  93   2.0000      -6.052237      -164.6898
  94   2.0000      -6.051267      -164.6634
  95   2.0000      -6.050018      -164.6294
  96   2.0000      -1.197248       -32.5788
  97   2.0000      -1.153611       -31.3913
  98   2.0000      -1.148065       -31.2404
  99   2.0000      -1.142971       -31.1018
 100   2.0000      -1.137703       -30.9585
 101   2.0000      -1.110267       -30.2119
 102   2.0000      -1.082802       -29.4646
 103   2.0000      -1.071490       -29.1567
 104   2.0000      -1.047758       -28.5109
 105   2.0000      -1.042460       -28.3668
 106   2.0000      -1.038693       -28.2643
 107   2.0000      -1.030058       -28.0293
 108   2.0000      -1.023589       -27.8533
 109   2.0000      -1.017582       -27.6898
 110   2.0000      -1.004689       -27.3390
 111   2.0000      -1.002238       -27.2723
 112   2.0000      -0.998392       -27.1676
 113   2.0000      -0.997862       -27.1532
 114   2.0000      -0.989267       -26.9193
 115   2.0000      -0.983079       -26.7509
 116   2.0000      -0.962286       -26.1851
 117   2.0000      -0.957875       -26.0651
 118   2.0000      -0.945263       -25.7219
 119   2.0000      -0.942839       -25.6559
 120   2.0000      -0.924433       -25.1551
 121   2.0000      -0.916921       -24.9507
 122   2.0000      -0.911189       -24.7947
 123   2.0000      -0.906593       -24.6697
 124   2.0000      -0.899223       -24.4691
 125   2.0000      -0.889841       -24.2138
 126   2.0000      -0.885261       -24.0892
 127   2.0000      -0.879138       -23.9226
 128   2.0000      -0.852506       -23.1979
 129   2.0000      -0.844441       -22.9784
 130   2.0000      -0.843226       -22.9453
 131   2.0000      -0.841441       -22.8968
 132   2.0000      -0.833052       -22.6685
 133   2.0000      -0.831330       -22.6216
 134   2.0000      -0.813207       -22.1285
 135   2.0000      -0.801533       -21.8108
 136   2.0000      -0.789791       -21.4913
 137   2.0000      -0.779549       -21.2126
 138   2.0000      -0.770057       -20.9543
 139   2.0000      -0.763367       -20.7723
 140   2.0000      -0.758159       -20.6306
 141   2.0000      -0.743983       -20.2448
 142   2.0000      -0.741621       -20.1805
 143   2.0000      -0.724205       -19.7066
 144   2.0000      -0.721889       -19.6436
 145   2.0000      -0.716582       -19.4992
 146   2.0000      -0.703037       -19.1306
 147   2.0000      -0.699549       -19.0357
 148   2.0000      -0.693508       -18.8713
 149   2.0000      -0.693089       -18.8599
 150   2.0000      -0.689934       -18.7741
 151   2.0000      -0.685319       -18.6485
 152   2.0000      -0.676588       -18.4109
 153   2.0000      -0.672724       -18.3057
 154   2.0000      -0.667225       -18.1561
 155   2.0000      -0.658522       -17.9193
 156   2.0000      -0.651804       -17.7365
 157   2.0000      -0.640870       -17.4390
 158   2.0000      -0.638864       -17.3844
 159   2.0000      -0.630212       -17.1489
 160   2.0000      -0.625153       -17.0113
 161   2.0000      -0.619826       -16.8663
 162   2.0000      -0.618877       -16.8405
 163   2.0000      -0.610928       -16.6242
 164   2.0000      -0.605281       -16.4705
 165   2.0000      -0.601936       -16.3795
 166   2.0000      -0.598217       -16.2783
 167   2.0000      -0.597474       -16.2581
 168   2.0000      -0.577342       -15.7103
 169   2.0000      -0.576641       -15.6912
 170   2.0000      -0.567601       -15.4452
 171   2.0000      -0.565777       -15.3956
 172   2.0000      -0.564017       -15.3477
 173   2.0000      -0.557012       -15.1571
 174   2.0000      -0.553873       -15.0717
 175   2.0000      -0.552445       -15.0328
 176   2.0000      -0.548400       -14.9227
 177   2.0000      -0.547897       -14.9090
 178   2.0000      -0.546806       -14.8793
 179   2.0000      -0.543816       -14.7980
 180   2.0000      -0.540054       -14.6956
 181   2.0000      -0.539751       -14.6874
 182   2.0000      -0.536235       -14.5917
 183   2.0000      -0.532611       -14.4931
 184   2.0000      -0.531719       -14.4688
 185   2.0000      -0.529694       -14.4137
 186   2.0000      -0.529417       -14.4062
 187   2.0000      -0.527034       -14.3413
 188   2.0000      -0.523782       -14.2528
 189   2.0000      -0.522247       -14.2111
 190   2.0000      -0.521861       -14.2006
 191   2.0000      -0.515384       -14.0243
 192   2.0000      -0.513743       -13.9797
 193   2.0000      -0.512197       -13.9376
 194   2.0000      -0.510414       -13.8891
 195   2.0000      -0.506541       -13.7837
 196   2.0000      -0.506331       -13.7780
 197   2.0000      -0.502391       -13.6708
 198   2.0000      -0.499553       -13.5935
 199   2.0000      -0.497670       -13.5423
 200   2.0000      -0.492938       -13.4135
 201   2.0000      -0.488406       -13.2902
 202   2.0000      -0.484644       -13.1878
 203   2.0000      -0.482402       -13.1268
 204   2.0000      -0.477947       -13.0056
 205   2.0000      -0.477193       -12.9851
 206   2.0000      -0.474363       -12.9081
 207   2.0000      -0.472843       -12.8667
 208   2.0000      -0.471326       -12.8254
 209   2.0000      -0.467706       -12.7269
 210   2.0000      -0.465606       -12.6698
 211   2.0000      -0.463845       -12.6219
 212   2.0000      -0.460025       -12.5179
 213   2.0000      -0.458576       -12.4785
 214   2.0000      -0.457620       -12.4525
 215   2.0000      -0.456211       -12.4141
 216   2.0000      -0.454098       -12.3566
 217   2.0000      -0.453355       -12.3364
 218   2.0000      -0.450050       -12.2465
 219   2.0000      -0.449525       -12.2322
 220   2.0000      -0.449226       -12.2241
 221   2.0000      -0.447085       -12.1658
 222   2.0000      -0.446553       -12.1513
 223   2.0000      -0.446171       -12.1409
 224   2.0000      -0.444642       -12.0993
 225   2.0000      -0.442583       -12.0433
 226   2.0000      -0.439993       -11.9728
 227   2.0000      -0.438752       -11.9391
 228   2.0000      -0.434965       -11.8360
 229   2.0000      -0.431498       -11.7416
 230   2.0000      -0.430370       -11.7110
 231   2.0000      -0.427815       -11.6414
 232   2.0000      -0.424026       -11.5383
 233   2.0000      -0.421819       -11.4783
 234   2.0000      -0.419432       -11.4133
 235   2.0000      -0.413124       -11.2417
 236   2.0000      -0.412272       -11.2185
 237   2.0000      -0.410114       -11.1598
 238   2.0000      -0.408406       -11.1133
 239   2.0000      -0.404760       -11.0141
 240   2.0000      -0.403752       -10.9866
 241   2.0000      -0.387580       -10.5466
 242   2.0000      -0.384297       -10.4573
 243   2.0000      -0.371146       -10.0994
 244   2.0000      -0.365496        -9.9456
 245   2.0000      -0.358980        -9.7683
 246   2.0000      -0.355825        -9.6825
 247   2.0000      -0.353821        -9.6280
 248   2.0000      -0.350319        -9.5327
 249   2.0000      -0.346088        -9.4175
 250   2.0000      -0.345543        -9.4027
 251   2.0000      -0.344876        -9.3846
 252   2.0000      -0.334110        -9.0916
 253   2.0000      -0.330450        -8.9920
 254   2.0000      -0.328726        -8.9451
 255   2.0000      -0.320055        -8.7091
 256   2.0000      -0.314425        -8.5559
 257   2.0000      -0.300982        -8.1901
 258   2.0000      -0.291729        -7.9384
 259   2.0000      -0.255445        -6.9510
 260   0.0000      -0.119027        -3.2389
 261   0.0000      -0.109363        -2.9759
 262   0.0000      -0.083194        -2.2638
 263   0.0000      -0.062067        -1.6889
 264   0.0000      -0.054418        -1.4808

MULLIKEN ATOMIC CHARGES
-----------------------
   0 C :    0.052735
   1 C :   -0.157257
   2 S :    0.180853
   3 C :   -0.179428
   4 Cl:    0.014268
   5 C :    0.076517
   6 C :    0.174570
   7 O :   -0.140458
   8 C :   -0.112662
   9 C :    0.310699
  10 C :   -0.322772
  11 C :   -0.200787
  12 N :    0.154441
  13 C :   -0.181034
  14 N :    0.165023
  15 C :    0.043948
  16 C :   -0.147038
  17 S :    0.203942
  18 C :   -0.006451
  19 C :    0.006757
  20 C :   -0.169323
  21 C :    0.183978
  22 O :   -0.161736
  23 O :   -0.151329
  24 S :    0.123006
  25 C :   -0.102578
  26 C :    0.138226
  27 C :    0.008229
  28 N :   -0.251271
  29 C :    0.108156
  30 C :   -0.015111
  31 C :    0.153032
  32 O :   -0.179756
  33 C :   -0.056811
  34 C :   -0.029856
  35 C :    0.136620
  36 O :   -0.200041
  37 N :   -0.269174
  38 C :    0.102294
  39 C :    0.014189
  40 C :    0.123154
  41 C :   -0.042219
  42 C :    0.077986
  43 C :   -0.081918
  44 S :    0.165231
  45 C :   -0.059572
  46 C :   -0.051096
  47 C :    0.018548
  48 C :   -0.156189
  49 N :    0.119992
  50 C :    0.061547
  51 C :    0.001292
  52 C :    0.025797
  53 C :   -0.120374
  54 C :    0.140328
  55 O :   -0.126867
  56 C :    0.082597
  57 C :   -0.172445
  58 S :    0.185432
  59 C :   -0.126552
  60 C :    0.019227
  61 C :    0.269099
  62 C :   -0.305219
  63 C :   -0.183230
  64 N :    0.156347
  65 C :   -0.200947
  66 N :    0.168272
  67 Cl:   -0.000552
  68 H :    0.056058
  69 H :    0.030914
  70 H :    0.020385
  71 H :    0.181913
  72 H :    0.041020
  73 H :    0.026995
  74 H :    0.036729
  75 H :    0.011271
  76 H :    0.039870
  77 H :    0.024948
  78 H :    0.043482
  79 H :    0.007625
  80 H :    0.026796
  81 H :    0.032834
  82 H :    0.008673
  83 H :   -0.020699
  84 H :    0.017019
  85 H :   -0.001979
  86 H :    0.036377
  87 H :    0.019633
  88 H :    0.055855
Sum of atomic charges:   -0.0000000

LOEWDIN ATOMIC CHARGES
----------------------
   0 C :   -0.055619
   1 C :   -0.144936
   2 S :    0.475589
   3 C :   -0.273535
   4 Cl:    0.212083
   5 C :   -0.114001
   6 C :    0.085061
   7 O :   -0.135973
   8 C :   -0.066766
   9 C :    0.078246
  10 C :   -0.127620
  11 C :   -0.014344
  12 N :   -0.052825
  13 C :   -0.019544
  14 N :   -0.041229
  15 C :    0.054232
  16 C :   -0.139999
  17 S :    0.483278
  18 C :   -0.193969
  19 C :   -0.015378
  20 C :   -0.218399
  21 C :    0.063099
  22 O :   -0.149623
  23 O :   -0.026420
  24 S :    0.431428
  25 C :   -0.183249
  26 C :   -0.059142
  27 C :    0.086210
  28 N :    0.014571
  29 C :    0.033736
  30 C :   -0.065645
  31 C :    0.078887
  32 O :   -0.181620
  33 C :   -0.114444
  34 C :   -0.138608
  35 C :    0.075276
  36 O :   -0.200339
  37 N :   -0.002367
  38 C :    0.038181
  39 C :   -0.064118
  40 C :    0.066360
  41 C :   -0.021197
  42 C :   -0.029422
  43 C :   -0.162866
  44 S :    0.475927
  45 C :   -0.143437
  46 C :   -0.084421
  47 C :   -0.010749
  48 C :   -0.021397
  49 N :   -0.047652
  50 C :   -0.002965
  51 C :   -0.011333
  52 C :    0.063021
  53 C :   -0.077611
  54 C :    0.079057
  55 O :   -0.133328
  56 C :   -0.118634
  57 C :   -0.272548
  58 S :    0.474357
  59 C :   -0.150454
  60 C :   -0.056314
  61 C :    0.067599
  62 C :   -0.125722
  63 C :   -0.012951
  64 N :   -0.045032
  65 C :   -0.019364
  66 N :   -0.048316
  67 Cl:    0.191538
  68 H :    0.037054
  69 H :    0.049226
  70 H :    0.049798
  71 H :    0.080927
  72 H :    0.025693
  73 H :    0.025577
  74 H :    0.025119
  75 H :    0.027380
  76 H :    0.026243
  77 H :    0.024091
  78 H :    0.039106
  79 H :    0.010772
  80 H :    0.033845
  81 H :    0.031136
  82 H :    0.046138
  83 H :    0.029474
  84 H :    0.045855
  85 H :    0.036437
  86 H :    0.039098
  87 H :    0.046312
  88 H :    0.038412

  Mayer bond orders larger than 0.100000
B(  0-C ,  1-C ) :   1.5343 B(  0-C ,  5-C ) :   1.2280 B(  0-C ,  9-C ) :   0.9987
B(  1-C ,  2-S ) :   1.1580 B(  1-C , 68-H ) :   0.9544 B(  2-S ,  3-C ) :   1.1457
B(  3-C ,  4-Cl) :   1.1270 B(  3-C ,  5-C ) :   1.4851 B(  5-C ,  6-C ) :   0.9167
B(  6-C ,  7-O ) :   2.1833 B(  6-C ,  8-C ) :   0.9317 B(  8-C ,  9-C ) :   1.0577
B(  8-C , 15-C ) :   1.6993 B(  9-C , 10-C ) :   1.6681 B( 10-C , 11-C ) :   1.1507
B( 10-C , 13-C ) :   1.1354 B( 11-C , 12-N ) :   2.9760 B( 13-C , 14-N ) :   2.9820
B( 15-C , 16-C ) :   1.1353 B( 15-C , 69-H ) :   0.9138 B( 16-C , 17-S ) :   1.1248
B( 16-C , 26-C ) :   1.4913 B( 17-S , 18-C ) :   1.0830 B( 18-C , 19-C ) :   1.2155
B( 18-C , 25-C ) :   1.4217 B( 19-C , 20-C ) :   1.5769 B( 19-C , 70-H ) :   1.0125
B( 20-C , 21-C ) :   0.9293 B( 20-C , 24-S ) :   1.0691 B( 21-C , 22-O ) :   2.2062
B( 21-C , 23-O ) :   1.2436 B( 23-O , 71-H ) :   0.9492 B( 24-S , 25-C ) :   1.1020
B( 25-C , 26-C ) :   1.2927 B( 26-C , 27-C ) :   0.9805 B( 27-C , 28-N ) :   1.2759
B( 27-C , 34-C ) :   1.3767 B( 28-N , 29-C ) :   0.9229 B( 28-N , 31-C ) :   0.9988
B( 29-C , 30-C ) :   1.1105 B( 29-C , 72-H ) :   0.9469 B( 29-C , 73-H ) :   0.9431
B( 30-C , 74-H ) :   0.9567 B( 30-C , 75-H ) :   0.9598 B( 30-C , 76-H ) :   0.9620
B( 31-C , 32-O ) :   2.1298 B( 31-C , 33-C ) :   0.9893 B( 33-C , 34-C ) :   1.2010
B( 33-C , 40-C ) :   1.3591 B( 34-C , 35-C ) :   0.9854 B( 35-C , 36-O ) :   2.0908
B( 35-C , 37-N ) :   1.0561 B( 37-N , 38-C ) :   0.9372 B( 37-N , 40-C ) :   1.1561
B( 38-C , 39-C ) :   1.1229 B( 38-C , 77-H ) :   0.9511 B( 38-C , 78-H ) :   0.9271
B( 39-C , 79-H ) :   0.9579 B( 39-C , 80-H ) :   0.9629 B( 39-C , 81-H ) :   0.9550
B( 40-C , 41-C ) :   1.1805 B( 41-C , 42-C ) :   1.6113 B( 41-C , 82-H ) :   0.9473
B( 42-C , 43-C ) :   1.1106 B( 42-C , 83-H ) :   0.9614 B( 43-C , 44-S ) :   1.1299
B( 43-C , 47-C ) :   1.4606 B( 44-S , 45-C ) :   1.1349 B( 45-C , 46-C ) :   1.4305
B( 45-C , 50-C ) :   1.1443 B( 46-C , 47-C ) :   1.3271 B( 46-C , 48-C ) :   1.1148
B( 47-C , 84-H ) :   0.9966 B( 48-C , 49-N ) :   2.9503 B( 50-C , 51-C ) :   1.6681
B( 50-C , 85-H ) :   0.9565 B( 51-C , 52-C ) :   1.1309 B( 51-C , 86-H ) :   0.9386
B( 52-C , 53-C ) :   1.6355 B( 52-C , 87-H ) :   0.9621 B( 53-C , 54-C ) :   0.9349
B( 53-C , 61-C ) :   1.0391 B( 54-C , 55-O ) :   2.2841 B( 54-C , 56-C ) :   0.9260
B( 56-C , 57-C ) :   1.4856 B( 56-C , 60-C ) :   1.2204 B( 57-C , 58-S ) :   1.1522
B( 57-C , 67-Cl) :   1.1282 B( 58-S , 59-C ) :   1.1568 B( 59-C , 60-C ) :   1.5577
B( 59-C , 88-H ) :   0.9548 B( 60-C , 61-C ) :   1.0099 B( 61-C , 62-C ) :   1.6618
B( 62-C , 63-C ) :   1.1396 B( 62-C , 65-C ) :   1.1582 B( 63-C , 64-N ) :   2.9975
B( 65-C , 66-N ) :   2.9877

-----------------------------------------------------------------------------
         ABSORPTION SPECTRUM VIA TRANSITION ELECTRIC DIPOLE MOMENTS
-----------------------------------------------------------------------------
State   Energy  Wavelength   fosc         T2         TX        TY        TZ
        (cm-1)    (nm)                  (au**2)     (au)      (au)      (au)
-----------------------------------------------------------------------------
   0   12314.1    812.1   0.125867112   3.36501   1.81675  -0.01273  -0.25353
   1   17222.4    580.6   1.015321526  19.40824   4.24029   0.92491  -0.75677
   2   21398.9    467.3   0.083560522   1.28554  -0.90255  -0.58887  -0.35238
   3   22978.6    435.2   0.583411700   8.35847   0.50687   2.18948  -1.81871
   4   23496.0    425.6   0.165406731   2.31758  -1.04201   0.66237  -0.89054
   5   24003.8    416.6   0.145648720   1.99757  -1.40153   0.03405   0.17921
   6   25279.3    395.6   0.047795081   0.62243  -0.38993  -0.60618   0.32084
   7   26015.1    384.4   0.007704390   0.09750   0.30039  -0.08206  -0.02305
   8   26471.9    377.8   0.036195390   0.45014   0.50960   0.42971   0.07614
   9   27170.4    368.0   0.114749196   1.39037  -1.15939  -0.21439   0.01510
  10   27567.1    362.8   0.016006115   0.19115  -0.19504   0.39043  -0.02601
  11   28131.6    355.5   0.011344291   0.13276   0.00832  -0.31132   0.18913
  12   28158.9    355.1   0.045519439   0.53218  -0.10931   0.54658  -0.47061
  13   28359.6    352.6   0.189688404   2.20200  -0.40750  -1.26151   0.66673
  14   28996.9    344.9   0.019378535   0.22001   0.23795  -0.37485   0.15125
  15   29654.0    337.2   0.162552456   1.80462   1.11906   0.74082  -0.05929
  16   29984.8    333.5   0.253745419   2.78595   1.38463   0.93169   0.02658
  17   30325.1    329.8   0.007572396   0.08221  -0.16554   0.19915  -0.12306
  18   30731.9    325.4   0.036423899   0.39019  -0.52870   0.04414  -0.32972
  19   31181.6    320.7   0.072774031   0.76834   0.64935   0.57653  -0.11957
  20   31439.2    318.1   0.071771014   0.75154   0.55915   0.65838   0.07375
  21   31801.4    314.5   0.143375908   1.48425   1.00852   0.65037  -0.21014
  22   32133.6    311.2   0.037717246   0.38642   0.28541  -0.15409   0.53030
  23   33208.0    301.1   0.114548975   1.13560   0.71752   0.65489   0.43805
  24   33516.0    298.4   0.057007841   0.55996   0.24225  -0.32826   0.62731
  25   34062.0    293.6   0.023721466   0.22927  -0.17668   0.06301  -0.44055
  26   34462.6    290.2   0.090698308   0.86642  -0.57617   0.03997  -0.72996
  27   35128.3    284.7   0.001004234   0.00941   0.04838   0.08106  -0.02239
  28   35224.3    283.9   0.066651523   0.62294  -0.39954  -0.68029  -0.02262
  29   35256.3    283.6   0.023593955   0.22031   0.15181   0.37502  -0.23796
  30   35518.2    281.5   0.055037203   0.51013  -0.40017  -0.50030   0.31574
  31   35859.7    278.9   0.014982215   0.13755  -0.07393  -0.32735   0.15787
  32   36167.0    276.5   0.021854642   0.19893   0.35044   0.12018   0.24836
  33   36443.8    274.4   0.094949340   0.85772  -0.63852  -0.08240  -0.66575
  34   36696.6    272.5   0.007165331   0.06428  -0.18572   0.10323  -0.13833
  35   36925.1    270.8   0.147616576   1.31610   0.55883   0.83337  -0.55615
  36   37015.1    270.2   0.010099480   0.08982   0.17835   0.10373  -0.21739
  37   37188.0    268.9   0.097888690   0.86657  -0.73298  -0.49004  -0.29862
  38   37465.5    266.9   0.258431515   2.27085  -1.10222  -1.01479  -0.16176
  39   37798.5    264.6   0.194274230   1.69206   1.21441   0.46330   0.05115
  40   37842.2    264.3   0.057076596   0.49654  -0.59521  -0.21793  -0.30786
  41   38118.9    262.3   0.131737576   1.13775  -0.60803   0.25577  -0.83823
  42   38401.3    260.4   0.051686866   0.44311  -0.46305  -0.47392  -0.06399
  43   38548.7    259.4   0.016387786   0.13995   0.16676   0.28177   0.18097
  44   38858.7    257.3   0.351210270   2.97546  -1.33308  -0.97376  -0.50015
  45   39087.3    255.8   0.224749649   1.89295   0.21348   1.12479  -0.76303
  46   39334.1    254.2   0.104151887   0.87171   0.34289  -0.58860   0.63851
  47   39564.7    252.8   0.051581674   0.42920   0.19979  -0.19170   0.59375
  48   39953.2    250.3   0.037786622   0.31136  -0.23217   0.29737  -0.41113
  49   40142.2    249.1   0.016385404   0.13438  -0.15383  -0.18852   0.27418

FINAL SINGLE POINT ENERGY     -5583.361653045323

DIPOLE MOMENT
-------------
                                X             Y             Z
Electronic contribution:    -40.05779     -17.06082      -1.22018
Nuclear contribution   :     38.94683      15.36958       1.42325
                        -----------------------------------------
Total Dipole Moment    :     -1.11097      -1.69124       0.20307
                        -----------------------------------------
Magnitude (a.u.)       :      2.03366
Magnitude (Debye)      :      5.16915

Rotational constants in cm-1:     0.001880     0.000312     0.000283
Rotational constants in MHz :    56.360574     9.348214     8.475474

                             ****ORCA TERMINATED NORMALLY****
TOTAL RUN TIME: 0 days 0 hours 9 minutes 34 seconds 298 msec
