                         Program Version 4.2.0 -  RELEASE  -
|  1> # ORCA input file
|  2> # SCF done       -166.587669943146          0.000744965130
|  3> ! CAM-B3LYP def2-SVP def2/J RIJCOSX Grid4 TightSCF
|  4> %maxcore 5000
|  5> %tddft
|  6>     Mode sTDDFT
|  7>     Ethresh 5.0
|  8>     maxcore 5000
|  9> end
| 10>
| 11> %pal
| 12>   nprocs 6
| 13>   end
| 14> * xyz 0 1
| 15>    C        6.54224         3.01377        -1.74266
| 16>    C        6.51462         4.23276        -2.34974
| 17>    S        4.92858         4.61898        -2.90328
| 18>    C        4.27801         3.11259        -2.30210
| 19>   Cl        2.64264         2.71541        -2.48733
| 20>    C        5.25994         2.37089        -1.71364
| 21>    C        5.36348         1.08199        -1.02992
| 22>    O        4.48688         0.31363        -0.71857
| 23>    C        6.82872         0.92891        -0.73154
| 24>    C        7.52482         2.16179        -1.10791
| 25>    C        8.83951         2.46977        -0.91550
| 26>    C        9.37650         3.70639        -1.33815
| 27>    N        9.82255         4.70678        -1.67687
| 28>    C        9.78566         1.62993        -0.28997
| 29>    N       10.59648         0.98943         0.20727
| 30>    C        7.33493        -0.20299        -0.22450
| 31>    C        6.49109        -1.38955        -0.01164
| 32>    N        6.07532        -2.02832        -1.09644
| 33>    C        5.29953        -3.08824        -0.87190
| 34>    N        4.93960        -3.50283         0.34378
| 35>    C        5.44552        -2.81995         1.34422
| 36>    N        6.23786        -1.76383         1.23617
| 37>    C        4.83654        -3.88584        -1.98757
| 38>    N        4.66703        -3.44469        -3.27120
| 39>    C        4.77144        -2.08801        -3.75257
| 40>    C        3.55048        -1.25790        -3.36767
| 41>    C        4.23946        -4.48608        -4.12133
| 42>    O        3.99796        -4.32843        -5.30020
| 43>    C        4.19142        -5.64891        -3.26401
| 44>    C        4.54904        -5.23672        -1.94876
| 45>    C        4.58415        -6.41541        -1.10099
| 46>    O        4.85727        -6.59158         0.06155
| 47>    N        4.23214        -7.46875        -1.97871
| 48>    C        4.07913        -8.81836        -1.49451
| 49>    C        2.60897        -9.20019        -1.34089
| 50>    C        4.00594        -7.02533        -3.25817
| 51>    C        3.70337        -7.89668        -4.34510
| 52>    C        3.37181        -7.46521        -5.57770
| 53>    C        3.12114        -8.38764        -6.66725
| 54>    N        2.59998        -7.87556        -7.78367
| 55>    C        2.39149        -8.70265        -8.78881
| 56>    C        2.69696       -10.05397        -8.72034
| 57>    C        3.24017       -10.50738        -7.51250
| 58>    N        3.43724        -9.66974        -6.49648
| 59>    C        3.69080       -11.86803        -7.28506
| 60>    C        3.44259       -12.92539        -8.07542
| 61>    C        3.92708       -14.24890        -7.82032
| 62>    C        5.10480       -14.64198        -7.28038
| 63>    C        5.23484       -16.06068        -6.80440
| 64>    O        4.46687       -16.96197        -7.03479
| 65>    C        6.44896       -16.06155        -5.98378
| 66>    C        7.12196       -16.94395        -5.19153
| 67>    S        8.54600       -16.19230        -4.51226
| 68>    C        8.22224       -14.70060        -5.31653
| 69>    C        7.08271       -14.77700        -6.05554
| 70>    C        6.33122       -13.92413        -6.95820
| 71>    C        6.82701       -12.78153        -7.52393
| 72>    C        8.07763       -12.25464        -7.13478
| 73>    N        9.08429       -11.80915        -6.81309
| 74>    C        6.22218       -12.05760        -8.56962
| 75>    N        5.80482       -11.44973        -9.44897
| 76>   Cl        6.72473       -18.55375        -4.84812
| 77>    H        7.31399         4.92861        -2.51182
| 78>    H        8.37835        -0.31111         0.03648
| 79>    H        5.19376        -3.14454         2.34560
| 80>    H        4.84093        -2.16439        -4.84161
| 81>    H        5.68068        -1.63730        -3.35089
| 82>    H        2.64042        -1.74639        -3.70847
| 83>    H        3.61438        -0.27757        -3.83305
| 84>    H        3.50051        -1.12530        -2.28938
| 85>    H        4.57111        -8.84300        -0.51792
| 86>    H        4.59261        -9.51238        -2.16612
| 87>    H        2.12036        -8.52027        -0.64744
| 88>    H        2.52890       -10.21096        -0.95041
| 89>    H        2.09278        -9.15090        -2.29721
| 90>    H        3.75590        -8.96253        -4.17245
| 91>    H        3.27776        -6.41521        -5.81395
| 92>    H        1.96942        -8.26228        -9.68313
| 93>    H        2.55140       -10.70659        -9.56326
| 94>    H        4.26597       -11.99167        -6.37633
| 95>    H        2.77492       -12.82788        -8.92095
| 96>    H        3.24365       -15.06073        -8.05469
| 97>    H        8.89054       -13.87371        -5.17987
| 98> *
| 99>
|100>                          ****END OF INPUT****

CARTESIAN COORDINATES (ANGSTROEM)
---------------------------------
  C      6.542240    3.013770   -1.742660
  C      6.514620    4.232760   -2.349740
  S      4.928580    4.618980   -2.903280
  C      4.278010    3.112590   -2.302100
  Cl     2.642640    2.715410   -2.487330
  C      5.259940    2.370890   -1.713640
  C      5.363480    1.081990   -1.029920
  O      4.486880    0.313630   -0.718570
  C      6.828720    0.928910   -0.731540
  C      7.524820    2.161790   -1.107910
  C      8.839510    2.469770   -0.915500
  C      9.376500    3.706390   -1.338150
  N      9.822550    4.706780   -1.676870
  C      9.785660    1.629930   -0.289970
  N     10.596480    0.989430    0.207270
  C      7.334930   -0.202990   -0.224500
  C      6.491090   -1.389550   -0.011640
  N      6.075320   -2.028320   -1.096440
  C      5.299530   -3.088240   -0.871900
  N      4.939600   -3.502830    0.343780
  C      5.445520   -2.819950    1.344220
  N      6.237860   -1.763830    1.236170
  C      4.836540   -3.885840   -1.987570
  N      4.667030   -3.444690   -3.271200
  C      4.771440   -2.088010   -3.752570
  C      3.550480   -1.257900   -3.367670
  C      4.239460   -4.486080   -4.121330
  O      3.997960   -4.328430   -5.300200
  C      4.191420   -5.648910   -3.264010
  C      4.549040   -5.236720   -1.948760
  C      4.584150   -6.415410   -1.100990
  O      4.857270   -6.591580    0.061550
  N      4.232140   -7.468750   -1.978710
  C      4.079130   -8.818360   -1.494510
  C      2.608970   -9.200190   -1.340890
  C      4.005940   -7.025330   -3.258170
  C      3.703370   -7.896680   -4.345100
  C      3.371810   -7.465210   -5.577700
  C      3.121140   -8.387640   -6.667250
  N      2.599980   -7.875560   -7.783670
  C      2.391490   -8.702650   -8.788810
  C      2.696960  -10.053970   -8.720340
  C      3.240170  -10.507380   -7.512500
  N      3.437240   -9.669740   -6.496480
  C      3.690800  -11.868030   -7.285060
  C      3.442590  -12.925390   -8.075420
  C      3.927080  -14.248900   -7.820320
  C      5.104800  -14.641980   -7.280380
  C      5.234840  -16.060680   -6.804400
  O      4.466870  -16.961970   -7.034790
  C      6.448960  -16.061550   -5.983780
  C      7.121960  -16.943950   -5.191530
  S      8.546000  -16.192300   -4.512260
  C      8.222240  -14.700600   -5.316530
  C      7.082710  -14.777000   -6.055540
  C      6.331220  -13.924130   -6.958200
  C      6.827010  -12.781530   -7.523930
  C      8.077630  -12.254640   -7.134780
  N      9.084290  -11.809150   -6.813090
  C      6.222180  -12.057600   -8.569620
  N      5.804820  -11.449730   -9.448970
  Cl     6.724730  -18.553750   -4.848120
  H      7.313990    4.928610   -2.511820
  H      8.378350   -0.311110    0.036480
  H      5.193760   -3.144540    2.345600
  H      4.840930   -2.164390   -4.841610
  H      5.680680   -1.637300   -3.350890
  H      2.640420   -1.746390   -3.708470
  H      3.614380   -0.277570   -3.833050
  H      3.500510   -1.125300   -2.289380
  H      4.571110   -8.843000   -0.517920
  H      4.592610   -9.512380   -2.166120
  H      2.120360   -8.520270   -0.647440
  H      2.528900  -10.210960   -0.950410
  H      2.092780   -9.150900   -2.297210
  H      3.755900   -8.962530   -4.172450
  H      3.277760   -6.415210   -5.813950
  H      1.969420   -8.262280   -9.683130
  H      2.551400  -10.706590   -9.563260
  H      4.265970  -11.991670   -6.376330
  H      2.774920  -12.827880   -8.920950
  H      3.243650  -15.060730   -8.054690
  H      8.890540  -13.873710   -5.179870

 Total Charge           Charge          ....    0
 Multiplicity           Mult            ....    1
 Number of Electrons    NEL             ....  454
 Basis Dimension        Dim             ....  989

ORBITAL ENERGIES
----------------

  NO   OCC          E(Eh)            E(eV)
   0   2.0000    -101.627564     -2765.4266
   1   2.0000    -101.622718     -2765.2947
   2   2.0000     -89.004872     -2421.9457
   3   2.0000     -88.999429     -2421.7976
   4   2.0000     -19.236133      -523.4418
   5   2.0000     -19.226877      -523.1899
   6   2.0000     -19.188549      -522.1470
   7   2.0000     -19.182190      -521.9739
   8   2.0000     -14.449956      -393.2033
   9   2.0000     -14.446619      -393.1125
  10   2.0000     -14.431150      -392.6916
  11   2.0000     -14.431072      -392.6894
  12   2.0000     -14.428557      -392.6210
  13   2.0000     -14.427687      -392.5973
  14   2.0000     -14.426766      -392.5723
  15   2.0000     -14.423640      -392.4872
  16   2.0000     -14.420103      -392.3909
  17   2.0000     -14.420003      -392.3882
  18   2.0000     -14.414023      -392.2255
  19   2.0000     -10.390260      -282.7333
  20   2.0000     -10.387004      -282.6447
  21   2.0000     -10.382848      -282.5317
  22   2.0000     -10.382373      -282.5187
  23   2.0000     -10.374015      -282.2913
  24   2.0000     -10.372829      -282.2590
  25   2.0000     -10.370407      -282.1931
  26   2.0000     -10.365774      -282.0670
  27   2.0000     -10.362314      -281.9729
  28   2.0000     -10.360337      -281.9191
  29   2.0000     -10.357821      -281.8506
  30   2.0000     -10.356599      -281.8174
  31   2.0000     -10.355089      -281.7763
  32   2.0000     -10.347444      -281.5683
  33   2.0000     -10.341370      -281.4030
  34   2.0000     -10.340281      -281.3734
  35   2.0000     -10.339369      -281.3485
  36   2.0000     -10.335298      -281.2377
  37   2.0000     -10.332187      -281.1531
  38   2.0000     -10.331973      -281.1473
  39   2.0000     -10.330022      -281.0942
  40   2.0000     -10.329773      -281.0874
  41   2.0000     -10.329138      -281.0701
  42   2.0000     -10.328380      -281.0495
  43   2.0000     -10.328117      -281.0424
  44   2.0000     -10.325921      -280.9826
  45   2.0000     -10.324283      -280.9380
  46   2.0000     -10.322353      -280.8855
  47   2.0000     -10.319835      -280.8170
  48   2.0000     -10.315027      -280.6861
  49   2.0000     -10.311244      -280.5832
  50   2.0000     -10.308854      -280.5182
  51   2.0000     -10.307384      -280.4782
  52   2.0000     -10.306696      -280.4595
  53   2.0000     -10.305865      -280.4369
  54   2.0000     -10.294994      -280.1410
  55   2.0000     -10.288528      -279.9651
  56   2.0000     -10.288099      -279.9534
  57   2.0000     -10.283489      -279.8280
  58   2.0000     -10.264911      -279.3224
  59   2.0000     -10.262266      -279.2504
  60   2.0000     -10.257190      -279.1123
  61   2.0000     -10.246192      -278.8131
  62   2.0000      -9.582192      -260.7447
  63   2.0000      -9.577508      -260.6172
  64   2.0000      -8.100466      -220.4249
  65   2.0000      -8.095211      -220.2819
  66   2.0000      -7.352853      -200.0813
  67   2.0000      -7.348145      -199.9532
  68   2.0000      -7.342230      -199.7922
  69   2.0000      -7.341662      -199.7768
  70   2.0000      -7.337542      -199.6647
  71   2.0000      -7.337001      -199.6499
  72   2.0000      -6.069781      -165.1671
  73   2.0000      -6.065193      -165.0423
  74   2.0000      -6.064569      -165.0253
  75   2.0000      -6.062859      -164.9788
  76   2.0000      -6.059970      -164.9002
  77   2.0000      -6.057464      -164.8320
  78   2.0000      -1.154099       -31.4046
  79   2.0000      -1.144074       -31.1318
  80   2.0000      -1.132677       -30.8217
  81   2.0000      -1.128264       -30.7016
  82   2.0000      -1.120354       -30.4864
  83   2.0000      -1.090223       -29.6665
  84   2.0000      -1.060534       -28.8586
  85   2.0000      -1.050939       -28.5975
  86   2.0000      -1.049012       -28.5451
  87   2.0000      -1.044590       -28.4247
  88   2.0000      -1.028039       -27.9744
  89   2.0000      -1.024456       -27.8769
  90   2.0000      -1.009423       -27.4678
  91   2.0000      -1.006899       -27.3991
  92   2.0000      -1.005794       -27.3690
  93   2.0000      -0.998514       -27.1709
  94   2.0000      -0.996840       -27.1254
  95   2.0000      -0.994929       -27.0734
  96   2.0000      -0.989274       -26.9195
  97   2.0000      -0.964372       -26.2419
  98   2.0000      -0.962094       -26.1799
  99   2.0000      -0.936683       -25.4884
 100   2.0000      -0.923892       -25.1404
 101   2.0000      -0.920214       -25.0403
 102   2.0000      -0.917396       -24.9636
 103   2.0000      -0.908904       -24.7325
 104   2.0000      -0.894800       -24.3487
 105   2.0000      -0.882398       -24.0113
 106   2.0000      -0.865781       -23.5591
 107   2.0000      -0.853623       -23.2283
 108   2.0000      -0.843811       -22.9613
 109   2.0000      -0.838985       -22.8299
 110   2.0000      -0.835990       -22.7485
 111   2.0000      -0.815877       -22.2011
 112   2.0000      -0.812299       -22.1038
 113   2.0000      -0.802217       -21.8294
 114   2.0000      -0.800585       -21.7850
 115   2.0000      -0.768068       -20.9002
 116   2.0000      -0.766271       -20.8513
 117   2.0000      -0.760802       -20.7025
 118   2.0000      -0.753537       -20.5048
 119   2.0000      -0.750474       -20.4214
 120   2.0000      -0.744173       -20.2500
 121   2.0000      -0.735429       -20.0120
 122   2.0000      -0.707934       -19.2639
 123   2.0000      -0.703867       -19.1532
 124   2.0000      -0.701248       -19.0819
 125   2.0000      -0.693203       -18.8630
 126   2.0000      -0.688153       -18.7256
 127   2.0000      -0.687459       -18.7067
 128   2.0000      -0.682916       -18.5831
 129   2.0000      -0.672412       -18.2972
 130   2.0000      -0.662953       -18.0399
 131   2.0000      -0.654174       -17.8010
 132   2.0000      -0.642821       -17.4920
 133   2.0000      -0.638076       -17.3629
 134   2.0000      -0.634994       -17.2791
 135   2.0000      -0.628939       -17.1143
 136   2.0000      -0.626023       -17.0349
 137   2.0000      -0.621641       -16.9157
 138   2.0000      -0.614116       -16.7110
 139   2.0000      -0.610327       -16.6078
 140   2.0000      -0.605664       -16.4809
 141   2.0000      -0.591542       -16.0967
 142   2.0000      -0.580082       -15.7848
 143   2.0000      -0.576974       -15.7003
 144   2.0000      -0.575003       -15.6466
 145   2.0000      -0.570819       -15.5328
 146   2.0000      -0.563533       -15.3345
 147   2.0000      -0.560007       -15.2386
 148   2.0000      -0.554773       -15.0961
 149   2.0000      -0.552370       -15.0307
 150   2.0000      -0.550351       -14.9758
 151   2.0000      -0.545655       -14.8480
 152   2.0000      -0.544850       -14.8261
 153   2.0000      -0.542490       -14.7619
 154   2.0000      -0.539791       -14.6885
 155   2.0000      -0.538969       -14.6661
 156   2.0000      -0.534305       -14.5392
 157   2.0000      -0.532636       -14.4938
 158   2.0000      -0.532229       -14.4827
 159   2.0000      -0.529158       -14.3991
 160   2.0000      -0.526936       -14.3387
 161   2.0000      -0.524756       -14.2793
 162   2.0000      -0.516613       -14.0578
 163   2.0000      -0.514803       -14.0085
 164   2.0000      -0.512654       -13.9500
 165   2.0000      -0.508533       -13.8379
 166   2.0000      -0.507769       -13.8171
 167   2.0000      -0.505443       -13.7538
 168   2.0000      -0.504013       -13.7149
 169   2.0000      -0.503010       -13.6876
 170   2.0000      -0.500393       -13.6164
 171   2.0000      -0.494626       -13.4594
 172   2.0000      -0.493358       -13.4250
 173   2.0000      -0.490504       -13.3473
 174   2.0000      -0.488904       -13.3038
 175   2.0000      -0.471351       -12.8261
 176   2.0000      -0.470309       -12.7978
 177   2.0000      -0.467327       -12.7166
 178   2.0000      -0.464107       -12.6290
 179   2.0000      -0.462461       -12.5842
 180   2.0000      -0.462393       -12.5824
 181   2.0000      -0.460856       -12.5405
 182   2.0000      -0.459541       -12.5048
 183   2.0000      -0.458485       -12.4760
 184   2.0000      -0.456960       -12.4345
 185   2.0000      -0.454137       -12.3577
 186   2.0000      -0.453338       -12.3360
 187   2.0000      -0.452358       -12.3093
 188   2.0000      -0.452291       -12.3075
 189   2.0000      -0.447255       -12.1704
 190   2.0000      -0.445049       -12.1104
 191   2.0000      -0.443572       -12.0702
 192   2.0000      -0.441999       -12.0274
 193   2.0000      -0.440229       -11.9792
 194   2.0000      -0.437372       -11.9015
 195   2.0000      -0.433685       -11.8012
 196   2.0000      -0.432395       -11.7661
 197   2.0000      -0.429909       -11.6984
 198   2.0000      -0.426276       -11.5996
 199   2.0000      -0.423707       -11.5296
 200   2.0000      -0.421438       -11.4679
 201   2.0000      -0.418875       -11.3982
 202   2.0000      -0.413559       -11.2535
 203   2.0000      -0.410108       -11.1596
 204   2.0000      -0.409552       -11.1445
 205   2.0000      -0.407878       -11.0989
 206   2.0000      -0.404534       -11.0079
 207   2.0000      -0.390515       -10.6265
 208   2.0000      -0.386968       -10.5299
 209   2.0000      -0.381608       -10.3841
 210   2.0000      -0.377551       -10.2737
 211   2.0000      -0.366738        -9.9794
 212   2.0000      -0.354558        -9.6480
 213   2.0000      -0.351115        -9.5543
 214   2.0000      -0.349304        -9.5050
 215   2.0000      -0.345815        -9.4101
 216   2.0000      -0.344224        -9.3668
 217   2.0000      -0.341604        -9.2955
 218   2.0000      -0.338575        -9.2131
 219   2.0000      -0.332690        -9.0530
 220   2.0000      -0.329748        -8.9729
 221   2.0000      -0.324075        -8.8185
 222   2.0000      -0.321941        -8.7605
 223   2.0000      -0.320341        -8.7169
 224   2.0000      -0.310026        -8.4362
 225   2.0000      -0.307389        -8.3645
 226   2.0000      -0.246228        -6.7002
 227   0.0000      -0.103878        -2.8267
 228   0.0000      -0.099216        -2.6998
 229   0.0000      -0.082721        -2.2510
 230   0.0000      -0.060408        -1.6438
 231   0.0000      -0.058610        -1.5949

MULLIKEN ATOMIC CHARGES
-----------------------
   0 C :    0.023567
   1 C :   -0.126866
   2 S :    0.200088
   3 C :   -0.167128
   4 Cl:    0.011226
   5 C :    0.084844
   6 C :    0.166663
   7 O :   -0.128285
   8 C :   -0.076023
   9 C :    0.306068
  10 C :   -0.318834
  11 C :   -0.194796
  12 N :    0.169383
  13 C :   -0.189087
  14 N :    0.177661
  15 C :    0.011274
  16 C :   -0.004609
  17 N :   -0.052668
  18 C :   -0.148165
  19 N :   -0.038668
  20 C :    0.123749
  21 N :   -0.096224
  22 C :    0.169236
  23 N :   -0.254789
  24 C :    0.119915
  25 C :   -0.006811
  26 C :    0.159907
  27 O :   -0.199236
  28 C :   -0.078526
  29 C :   -0.031689
  30 C :    0.151058
  31 O :   -0.157442
  32 N :   -0.272992
  33 C :    0.100520
  34 C :    0.002881
  35 C :    0.159108
  36 C :   -0.003588
  37 C :    0.053189
  38 C :   -0.075321
  39 N :   -0.044965
  40 C :    0.078456
  41 C :   -0.022340
  42 C :    0.023497
  43 N :   -0.061055
  44 C :    0.052267
  45 C :    0.021717
  46 C :    0.034494
  47 C :   -0.123237
  48 C :    0.129565
  49 O :   -0.125127
  50 C :    0.092712
  51 C :   -0.170245
  52 S :    0.191712
  53 C :   -0.126569
  54 C :    0.007507
  55 C :    0.272662
  56 C :   -0.323872
  57 C :   -0.185498
  58 N :    0.163147
  59 C :   -0.188270
  60 N :    0.180502
  61 Cl:    0.003882
  62 H :    0.058134
  63 H :    0.060712
  64 H :    0.027584
  65 H :    0.034212
  66 H :    0.023013
  67 H :    0.016559
  68 H :    0.000722
  69 H :    0.036636
  70 H :    0.043056
  71 H :    0.023287
  72 H :    0.029899
  73 H :    0.020409
  74 H :    0.018368
  75 H :   -0.008997
  76 H :    0.027026
  77 H :    0.012738
  78 H :    0.003322
  79 H :    0.009444
  80 H :    0.019610
  81 H :    0.037894
  82 H :    0.056842
Sum of atomic charges:   -0.0000000

LOEWDIN ATOMIC CHARGES
----------------------
   0 C :   -0.058745
   1 C :   -0.146538
   2 S :    0.488692
   3 C :   -0.270379
   4 Cl:    0.202255
   5 C :   -0.118216
   6 C :    0.090496
   7 O :   -0.114760
   8 C :   -0.058527
   9 C :    0.072669
  10 C :   -0.119321
  11 C :   -0.015169
  12 N :   -0.039594
  13 C :   -0.021710
  14 N :   -0.030946
  15 C :    0.079407
  16 C :    0.046307
  17 N :   -0.084195
  18 C :    0.047910
  19 N :   -0.065311
  20 C :    0.088024
  21 N :   -0.096351
  22 C :    0.046383
  23 N :    0.010735
  24 C :    0.032395
  25 C :   -0.066274
  26 C :    0.077830
  27 O :   -0.194825
  28 C :   -0.125675
  29 C :   -0.090688
  30 C :    0.086329
  31 O :   -0.165573
  32 N :   -0.006966
  33 C :    0.035550
  34 C :   -0.061214
  35 C :    0.091220
  36 C :   -0.024286
  37 C :    0.028032
  38 C :    0.024305
  39 N :   -0.071707
  40 C :    0.054680
  41 C :   -0.040286
  42 C :    0.027475
  43 N :   -0.081051
  44 C :    0.020449
  45 C :   -0.017253
  46 C :    0.068994
  47 C :   -0.077967
  48 C :    0.081333
  49 O :   -0.128617
  50 C :   -0.119549
  51 C :   -0.271587
  52 S :    0.480473
  53 C :   -0.150649
  54 C :   -0.058188
  55 C :    0.066091
  56 C :   -0.129449
  57 C :   -0.016247
  58 N :   -0.044290
  59 C :   -0.014936
  60 N :   -0.039248
  61 Cl:    0.194982
  62 H :    0.039568
  63 H :    0.056515
  64 H :    0.027951
  65 H :    0.031413
  66 H :    0.019765
  67 H :    0.026473
  68 H :    0.021546
  69 H :    0.020886
  70 H :    0.036957
  71 H :    0.022803
  72 H :    0.032182
  73 H :    0.029689
  74 H :    0.023148
  75 H :    0.030511
  76 H :    0.043768
  77 H :    0.029807
  78 H :    0.035623
  79 H :    0.037059
  80 H :    0.038811
  81 H :    0.050363
  82 H :    0.038440

  Mayer bond orders larger than 0.100000
B(  0-C ,  1-C ) :   1.5366 B(  0-C ,  5-C ) :   1.2261 B(  0-C ,  9-C ) :   1.0097
B(  1-C ,  2-S ) :   1.1709 B(  1-C , 62-H ) :   0.9538 B(  2-S ,  3-C ) :   1.1563
B(  3-C ,  4-Cl) :   1.1309 B(  3-C ,  5-C ) :   1.4683 B(  5-C ,  6-C ) :   0.9553
B(  6-C ,  7-O ) :   2.1839 B(  6-C ,  8-C ) :   0.9165 B(  8-C ,  9-C ) :   1.0091
B(  8-C , 15-C ) :   1.8740 B(  9-C , 10-C ) :   1.7001 B( 10-C , 11-C ) :   1.1385
B( 10-C , 13-C ) :   1.1386 B( 11-C , 12-N ) :   2.9979 B( 13-C , 14-N ) :   2.9848
B( 15-C , 16-C ) :   0.9290 B( 15-C , 63-H ) :   0.9317 B( 16-C , 17-N ) :   1.4841
B( 16-C , 21-N ) :   1.5339 B( 17-N , 18-C ) :   1.5243 B( 18-C , 19-N ) :   1.6011
B( 18-C , 22-C ) :   0.9571 B( 19-N , 20-C ) :   1.5243 B( 20-C , 21-N ) :   1.4711
B( 20-C , 64-H ) :   0.9762 B( 22-C , 23-N ) :   1.2142 B( 22-C , 29-C ) :   1.4495
B( 23-N , 24-C ) :   0.9407 B( 23-N , 26-C ) :   1.0487 B( 24-C , 25-C ) :   1.1245
B( 24-C , 65-H ) :   0.9265 B( 24-C , 66-H ) :   0.9339 B( 25-C , 67-H ) :   0.9617
B( 25-C , 68-H ) :   0.9656 B( 25-C , 69-H ) :   0.9599 B( 26-C , 27-O ) :   2.0628
B( 26-C , 28-C ) :   0.9877 B( 28-C , 29-C ) :   1.2251 B( 28-C , 35-C ) :   1.3645
B( 29-C , 30-C ) :   0.9408 B( 30-C , 31-O ) :   2.1907 B( 30-C , 32-N ) :   1.0132
B( 32-N , 33-C ) :   0.9495 B( 32-N , 35-C ) :   1.1753 B( 33-C , 34-C ) :   1.1190
B( 33-C , 70-H ) :   0.9269 B( 33-C , 71-H ) :   0.9496 B( 34-C , 72-H ) :   0.9642
B( 34-C , 73-H ) :   0.9682 B( 34-C , 74-H ) :   0.9681 B( 35-C , 36-C ) :   1.1040
B( 36-C , 37-C ) :   1.6545 B( 36-C , 75-H ) :   0.9595 B( 37-C , 38-C ) :   1.0178
B( 37-C , 76-H ) :   0.9596 B( 38-C , 39-N ) :   1.5454 B( 38-C , 43-N ) :   1.5217
B( 39-N , 40-C ) :   1.5451 B( 40-C , 41-C ) :   1.3815 B( 40-C , 77-H ) :   0.9790
B( 41-C , 42-C ) :   1.3602 B( 41-C , 78-H ) :   0.9631 B( 42-C , 43-N ) :   1.5120
B( 42-C , 44-C ) :   1.0629 B( 44-C , 45-C ) :   1.7218 B( 44-C , 79-H ) :   0.9726
B( 45-C , 46-C ) :   1.0873 B( 45-C , 80-H ) :   0.9472 B( 46-C , 47-C ) :   1.7539
B( 46-C , 81-H ) :   0.9234 B( 47-C , 48-C ) :   0.9304 B( 47-C , 55-C ) :   1.0139
B( 48-C , 49-O ) :   2.2817 B( 48-C , 50-C ) :   0.9266 B( 50-C , 51-C ) :   1.4786
B( 50-C , 54-C ) :   1.2217 B( 51-C , 52-S ) :   1.1548 B( 51-C , 61-Cl) :   1.1323
B( 52-S , 53-C ) :   1.1624 B( 53-C , 54-C ) :   1.5506 B( 53-C , 82-H ) :   0.9550
B( 54-C , 55-C ) :   1.0112 B( 55-C , 56-C ) :   1.6817 B( 56-C , 57-C ) :   1.1274
B( 56-C , 59-C ) :   1.1649 B( 57-C , 58-N ) :   3.0007 B( 59-C , 60-N ) :   2.9965

-----------------------------------------------------------------------------
         ABSORPTION SPECTRUM VIA TRANSITION ELECTRIC DIPOLE MOMENTS
-----------------------------------------------------------------------------
State   Energy  Wavelength   fosc         T2         TX        TY        TZ
        (cm-1)    (nm)                  (au**2)     (au)      (au)      (au)
-----------------------------------------------------------------------------
   0   18018.8    555.0   0.392341913   7.16828  -0.53203  -2.46059  -0.91143
   1   18694.7    534.9   0.071723376   1.26304   0.26196   1.04961   0.30453
   2   19314.3    517.8   0.060977957   1.03937  -0.02974  -1.01283  -0.11248
   3   25881.2    386.4   0.223563659   2.84375   1.46897  -0.80533  -0.19323
   4   26296.4    380.3   0.012105265   0.15155   0.20457  -0.29371  -0.15309
   5   26368.1    379.2   0.001846734   0.02306   0.00679  -0.14848  -0.03107
   6   27778.7    360.0   0.000993694   0.01178  -0.07263   0.04167   0.06903
   7   28410.3    352.0   0.045340432   0.52539   0.19673  -0.61851   0.32271
   8   28610.5    349.5   0.001965516   0.02262   0.14945   0.01247  -0.01123
   9   29311.4    341.2   0.005785062   0.06498  -0.09513  -0.23251   0.04318
  10   29323.7    341.0   0.009632794   0.10815  -0.20942  -0.25086  -0.03682
  11   29492.9    339.1   0.042989024   0.47986   0.41102  -0.46329   0.31031
  12   29618.0    337.6   0.005451640   0.06060  -0.18827  -0.13653  -0.08067
  13   30208.6    331.0   0.074210069   0.80874  -0.85346   0.01367  -0.28311
  14   30913.5    323.5   0.007177099   0.07643   0.10571   0.06514   0.24701
  15   31778.4    314.7   0.003474634   0.03600  -0.05479  -0.16615   0.07340
  16   31802.2    314.4   0.013884481   0.14373   0.09815  -0.36144   0.05877
  17   31828.3    314.2   0.002371713   0.02453   0.11221   0.08624   0.06711
  18   32653.0    306.3   0.025333507   0.25542  -0.02581   0.28897  -0.41382
  19   32698.2    305.8   0.011447342   0.11525  -0.01786   0.32463  -0.09772
  20   32863.3    304.3   0.020485200   0.20521  -0.38839  -0.21205   0.09696
  21   33292.8    300.4   0.010583770   0.10466  -0.29036  -0.00114   0.14264
  22   33646.8    297.2   0.002717276   0.02659   0.14631   0.03552   0.06259
  23   33712.7    296.6   0.069148122   0.67525  -0.73085  -0.18244  -0.32835
  24   34085.7    293.4   0.127710923   1.23348  -0.20476  -0.85572  -0.67772
  25   34203.1    292.4   0.316794427   3.04921   0.13983   1.03554   1.39904
  26   34715.1    288.1   0.075028262   0.71151   0.12960   0.67274   0.49207
  27   34947.7    286.1   0.015028778   0.14157   0.25703   0.27467   0.00817
  28   35107.1    284.8   0.004255605   0.03991  -0.12614   0.12073  -0.09705
  29   36413.8    274.6   0.792911138   7.16859  -0.38517   2.59087  -0.55463
  30   36527.5    273.8   0.080754637   0.72782  -0.02931  -0.79407   0.31051
  31   36770.5    272.0   0.025257569   0.22613   0.18753  -0.35032   0.26123
  32   36932.5    270.8   0.491230435   4.37877   2.02285  -0.03306   0.53455
  33   37145.9    269.2   0.142009240   1.25858  -1.10640   0.09050  -0.16210
  34   37401.5    267.4   0.232202319   2.04387  -0.62212   0.47805  -1.19512
  35   38100.6    262.5   0.003379190   0.02920   0.01254  -0.07872  -0.15114
  36   38474.0    259.9   0.170530178   1.45918   0.06687  -0.87444   0.83071
  37   39075.6    255.9   0.343504748   2.89403  -0.24245  -0.35756  -1.64542
  38   39162.2    255.3   0.013743662   0.11553  -0.23718  -0.08661  -0.22755
  39   39491.9    253.2   0.135062654   1.12591   0.57217  -0.60709   0.65572
  40   40102.0    249.4   0.013741946   0.11281   0.13391  -0.24730   0.18364
  41   40229.3    248.6   0.049347709   0.40383  -0.23569   0.45935  -0.37051
  42   40312.8    248.1   0.046329845   0.37835   0.26875  -0.49134   0.25439

FINAL SINGLE POINT ENERGY     -4267.336348862549

DIPOLE MOMENT
-------------
                                X             Y             Z
Electronic contribution:     21.60615       2.85262       3.01407
Nuclear contribution   :    -23.45501      -4.02242      -3.45476
                        -----------------------------------------
Total Dipole Moment    :     -1.84886      -1.16980      -0.44069
                        -----------------------------------------
Magnitude (a.u.)       :      2.23180
Magnitude (Debye)      :      5.67277

Rotational constants in cm-1:     0.002305     0.000335     0.000320
Rotational constants in MHz :    69.104349    10.031652     9.607730

                             ****ORCA TERMINATED NORMALLY****
TOTAL RUN TIME: 0 days 0 hours 8 minutes 20 seconds 989 msec
