                         Program Version 4.2.0 -  RELEASE  -
|  1> # ORCA input file
|  2> # SCF done       -147.079538874692          0.000871185187
|  3> ! CAM-B3LYP def2-SVP def2/J RIJCOSX Grid4 TightSCF
|  4> %maxcore 5000
|  5> %tddft
|  6>     Mode sTDDFT
|  7>     Ethresh 5.0
|  8>     maxcore 5000
|  9> end
| 10>
| 11> %pal
| 12>   nprocs 6
| 13>   end
| 14> * xyz 0 1
| 15>    C        0.11715         0.21893        -0.15948
| 16>    C       -1.15455         0.69568        -0.08660
| 17>    S       -2.28328        -0.57807         0.20070
| 18>    C       -1.01450        -1.78195         0.22394
| 19>   Cl       -1.36229        -3.42119         0.47597
| 20>    C        0.20003        -1.20131         0.01869
| 21>    C        1.60200        -1.63086        -0.07198
| 22>    O        2.06022        -2.74544         0.02766
| 23>    C        2.36272        -0.37172        -0.32006
| 24>    C        1.44926         0.75275        -0.37146
| 25>    C        1.74065         2.07696        -0.57103
| 26>    C        0.72855         3.05904        -0.58606
| 27>    N       -0.08292         3.87009        -0.59553
| 28>    C        3.03088         2.60311        -0.77616
| 29>    N        4.06111         3.07927        -0.94891
| 30>    C        3.72034        -0.35806        -0.46352
| 31>    C        4.49306        -1.49383        -0.37420
| 32>    C        5.23359        -2.46342        -0.28559
| 33>    C        6.00206        -3.54641        -0.15875
| 34>    C        6.69587        -4.54279        -0.02188
| 35>    C        7.48766        -5.65711         0.16420
| 36>    N        6.97750        -6.90103         0.46435
| 37>    C        5.57398        -7.22490         0.54233
| 38>    C        4.94311        -7.33163        -0.84296
| 39>    C        7.99394        -7.84583         0.64853
| 40>    O        7.79237        -9.01362         0.92886
| 41>    C        9.21691        -7.10106         0.44262
| 42>    C        8.87264        -5.75946         0.13896
| 43>    C       10.09580        -5.01030        -0.06367
| 44>    O       10.31195        -3.85500        -0.34822
| 45>    N       11.11517        -5.96919         0.13656
| 46>    C       12.50776        -5.59700         0.07289
| 47>    C       13.10596        -5.38522         1.46173
| 48>    C       10.60754        -7.20606         0.44905
| 49>    C       11.40919        -8.34086         0.73526
| 50>    C       10.87056        -9.53764         1.08394
| 51>    C       11.63926       -10.63172         1.42817
| 52>    C       12.31791       -11.58611         1.77830
| 53>    C       13.07369       -12.60803         2.18958
| 54>    C       13.78186       -13.50215         2.63153
| 55>    C       14.53307       -14.56681         3.07537
| 56>    C       14.76443       -14.93852         4.36357
| 57>    C       15.34925       -16.28975         4.62745
| 58>    O       15.85703       -17.01947         3.81008
| 59>    C       15.11474       -16.51404         6.05784
| 60>    C       15.30745       -17.51771         6.95928
| 61>    S       14.73188       -17.03999         8.53964
| 62>    C       14.24601       -15.48720         7.96401
| 63>    C       14.50741       -15.35038         6.63654
| 64>    C       14.38298       -14.32105         5.61997
| 65>    C       14.08736       -13.00865         5.87442
| 66>    C       13.70126       -12.58652         7.16517
| 67>    N       13.37383       -12.22860         8.20462
| 68>    C       14.23351       -11.94000         4.97008
| 69>    N       14.40326       -11.01314         4.31463
| 70>   Cl       15.99472       -19.04320         6.69593
| 71>    H       -1.51083         1.70230        -0.18055
| 72>    H        4.24887         0.56866        -0.65251
| 73>    H        5.06271        -6.45695         1.13079
| 74>    H        5.50814        -8.18497         1.06118
| 75>    H        5.01395        -6.38198        -1.36904
| 76>    H        3.89424        -7.59680        -0.74771
| 77>    H        5.44581        -8.09855        -1.42792
| 78>    H       12.54243        -4.65789        -0.48680
| 79>    H       13.06531        -6.35778        -0.48073
| 80>    H       12.56487        -4.59876         1.98209
| 81>    H       14.14684        -5.08792         1.37052
| 82>    H       13.05328        -6.29435         2.05673
| 83>    H       12.48387        -8.23453         0.69308
| 84>    H        9.79323        -9.66744         1.13072
| 85>    H       14.93411       -15.22945         2.31183
| 86>    H       13.79651       -14.79122         8.64416
| 87> *
| 88>
| 89>                          ****END OF INPUT****

CARTESIAN COORDINATES (ANGSTROEM)
---------------------------------
  C      0.117150    0.218930   -0.159480
  C     -1.154550    0.695680   -0.086600
  S     -2.283280   -0.578070    0.200700
  C     -1.014500   -1.781950    0.223940
  Cl    -1.362290   -3.421190    0.475970
  C      0.200030   -1.201310    0.018690
  C      1.602000   -1.630860   -0.071980
  O      2.060220   -2.745440    0.027660
  C      2.362720   -0.371720   -0.320060
  C      1.449260    0.752750   -0.371460
  C      1.740650    2.076960   -0.571030
  C      0.728550    3.059040   -0.586060
  N     -0.082920    3.870090   -0.595530
  C      3.030880    2.603110   -0.776160
  N      4.061110    3.079270   -0.948910
  C      3.720340   -0.358060   -0.463520
  C      4.493060   -1.493830   -0.374200
  C      5.233590   -2.463420   -0.285590
  C      6.002060   -3.546410   -0.158750
  C      6.695870   -4.542790   -0.021880
  C      7.487660   -5.657110    0.164200
  N      6.977500   -6.901030    0.464350
  C      5.573980   -7.224900    0.542330
  C      4.943110   -7.331630   -0.842960
  C      7.993940   -7.845830    0.648530
  O      7.792370   -9.013620    0.928860
  C      9.216910   -7.101060    0.442620
  C      8.872640   -5.759460    0.138960
  C     10.095800   -5.010300   -0.063670
  O     10.311950   -3.855000   -0.348220
  N     11.115170   -5.969190    0.136560
  C     12.507760   -5.597000    0.072890
  C     13.105960   -5.385220    1.461730
  C     10.607540   -7.206060    0.449050
  C     11.409190   -8.340860    0.735260
  C     10.870560   -9.537640    1.083940
  C     11.639260  -10.631720    1.428170
  C     12.317910  -11.586110    1.778300
  C     13.073690  -12.608030    2.189580
  C     13.781860  -13.502150    2.631530
  C     14.533070  -14.566810    3.075370
  C     14.764430  -14.938520    4.363570
  C     15.349250  -16.289750    4.627450
  O     15.857030  -17.019470    3.810080
  C     15.114740  -16.514040    6.057840
  C     15.307450  -17.517710    6.959280
  S     14.731880  -17.039990    8.539640
  C     14.246010  -15.487200    7.964010
  C     14.507410  -15.350380    6.636540
  C     14.382980  -14.321050    5.619970
  C     14.087360  -13.008650    5.874420
  C     13.701260  -12.586520    7.165170
  N     13.373830  -12.228600    8.204620
  C     14.233510  -11.940000    4.970080
  N     14.403260  -11.013140    4.314630
  Cl    15.994720  -19.043200    6.695930
  H     -1.510830    1.702300   -0.180550
  H      4.248870    0.568660   -0.652510
  H      5.062710   -6.456950    1.130790
  H      5.508140   -8.184970    1.061180
  H      5.013950   -6.381980   -1.369040
  H      3.894240   -7.596800   -0.747710
  H      5.445810   -8.098550   -1.427920
  H     12.542430   -4.657890   -0.486800
  H     13.065310   -6.357780   -0.480730
  H     12.564870   -4.598760    1.982090
  H     14.146840   -5.087920    1.370520
  H     13.053280   -6.294350    2.056730
  H     12.483870   -8.234530    0.693080
  H      9.793230   -9.667440    1.130720
  H     14.934110  -15.229450    2.311830
  H     13.796510  -14.791220    8.644160

 Total Charge           Charge          ....    0
 Multiplicity           Mult            ....    1
 Number of Electrons    NEL             ....  408
 Basis Dimension        Dim             ....  880

ORBITAL ENERGIES
----------------

  NO   OCC          E(Eh)            E(eV)
   0   2.0000    -101.621982     -2765.2747
   1   2.0000    -101.619799     -2765.2153
   2   2.0000     -88.998439     -2421.7707
   3   2.0000     -88.996626     -2421.7213
   4   2.0000     -19.227905      -523.2179
   5   2.0000     -19.224121      -523.1149
   6   2.0000     -19.203599      -522.5565
   7   2.0000     -19.196704      -522.3689
   8   2.0000     -14.464720      -393.6050
   9   2.0000     -14.461204      -393.5094
  10   2.0000     -14.427064      -392.5804
  11   2.0000     -14.426107      -392.5543
  12   2.0000     -14.424460      -392.5095
  13   2.0000     -14.421800      -392.4371
  14   2.0000     -10.387215      -282.6505
  15   2.0000     -10.383602      -282.5522
  16   2.0000     -10.381623      -282.4983
  17   2.0000     -10.381559      -282.4966
  18   2.0000     -10.379810      -282.4490
  19   2.0000     -10.379003      -282.4270
  20   2.0000     -10.357739      -281.8484
  21   2.0000     -10.357366      -281.8383
  22   2.0000     -10.356020      -281.8016
  23   2.0000     -10.355307      -281.7822
  24   2.0000     -10.354265      -281.7539
  25   2.0000     -10.353689      -281.7382
  26   2.0000     -10.341570      -281.4084
  27   2.0000     -10.338756      -281.3318
  28   2.0000     -10.333840      -281.1981
  29   2.0000     -10.332946      -281.1738
  30   2.0000     -10.328206      -281.0448
  31   2.0000     -10.327548      -281.0269
  32   2.0000     -10.326197      -280.9901
  33   2.0000     -10.323772      -280.9241
  34   2.0000     -10.323676      -280.9215
  35   2.0000     -10.320247      -280.8282
  36   2.0000     -10.320099      -280.8242
  37   2.0000     -10.318794      -280.7887
  38   2.0000     -10.317536      -280.7544
  39   2.0000     -10.316536      -280.7272
  40   2.0000     -10.315641      -280.7028
  41   2.0000     -10.315152      -280.6896
  42   2.0000     -10.314489      -280.6715
  43   2.0000     -10.314372      -280.6683
  44   2.0000     -10.312765      -280.6246
  45   2.0000     -10.312281      -280.6114
  46   2.0000     -10.312076      -280.6059
  47   2.0000     -10.310716      -280.5689
  48   2.0000     -10.309430      -280.5339
  49   2.0000     -10.308108      -280.4979
  50   2.0000     -10.306058      -280.4421
  51   2.0000     -10.303260      -280.3660
  52   2.0000     -10.282884      -279.8115
  53   2.0000     -10.273804      -279.5644
  54   2.0000     -10.268148      -279.4105
  55   2.0000     -10.260843      -279.2117
  56   2.0000      -9.576742      -260.5964
  57   2.0000      -9.574589      -260.5378
  58   2.0000      -8.094010      -220.2492
  59   2.0000      -8.092252      -220.2014
  60   2.0000      -7.347394      -199.9327
  61   2.0000      -7.345232      -199.8739
  62   2.0000      -7.336781      -199.6440
  63   2.0000      -7.336224      -199.6288
  64   2.0000      -7.334615      -199.5850
  65   2.0000      -7.334084      -199.5706
  66   2.0000      -6.063408      -164.9937
  67   2.0000      -6.061639      -164.9456
  68   2.0000      -6.058773      -164.8676
  69   2.0000      -6.057026      -164.8201
  70   2.0000      -6.056313      -164.8007
  71   2.0000      -6.054527      -164.7521
  72   2.0000      -1.144270       -31.1372
  73   2.0000      -1.144136       -31.1335
  74   2.0000      -1.140102       -31.0237
  75   2.0000      -1.135021       -30.8855
  76   2.0000      -1.075196       -29.2576
  77   2.0000      -1.065695       -28.9990
  78   2.0000      -1.043719       -28.4010
  79   2.0000      -1.041535       -28.3416
  80   2.0000      -1.022339       -27.8193
  81   2.0000      -1.021952       -27.8087
  82   2.0000      -1.003565       -27.3084
  83   2.0000      -1.002586       -27.2818
  84   2.0000      -0.994282       -27.0558
  85   2.0000      -0.992649       -27.0114
  86   2.0000      -0.961505       -26.1639
  87   2.0000      -0.959539       -26.1104
  88   2.0000      -0.942139       -25.6369
  89   2.0000      -0.934485       -25.4286
  90   2.0000      -0.926962       -25.2239
  91   2.0000      -0.926012       -25.1981
  92   2.0000      -0.910743       -24.7826
  93   2.0000      -0.910015       -24.7628
  94   2.0000      -0.899448       -24.4752
  95   2.0000      -0.890671       -24.2364
  96   2.0000      -0.878403       -23.9026
  97   2.0000      -0.859142       -23.3785
  98   2.0000      -0.851177       -23.1617
  99   2.0000      -0.838111       -22.8062
 100   2.0000      -0.836336       -22.7579
 101   2.0000      -0.825833       -22.4720
 102   2.0000      -0.822100       -22.3705
 103   2.0000      -0.813294       -22.1309
 104   2.0000      -0.793494       -21.5921
 105   2.0000      -0.786192       -21.3934
 106   2.0000      -0.765833       -20.8394
 107   2.0000      -0.762364       -20.7450
 108   2.0000      -0.758753       -20.6467
 109   2.0000      -0.736615       -20.0443
 110   2.0000      -0.723546       -19.6887
 111   2.0000      -0.714361       -19.4387
 112   2.0000      -0.711832       -19.3699
 113   2.0000      -0.701090       -19.0776
 114   2.0000      -0.695509       -18.9258
 115   2.0000      -0.687917       -18.7192
 116   2.0000      -0.682005       -18.5583
 117   2.0000      -0.679852       -18.4997
 118   2.0000      -0.675430       -18.3794
 119   2.0000      -0.670280       -18.2393
 120   2.0000      -0.659256       -17.9393
 121   2.0000      -0.644358       -17.5339
 122   2.0000      -0.628089       -17.0912
 123   2.0000      -0.626165       -17.0388
 124   2.0000      -0.623244       -16.9593
 125   2.0000      -0.621565       -16.9136
 126   2.0000      -0.618123       -16.8200
 127   2.0000      -0.599481       -16.3127
 128   2.0000      -0.592075       -16.1112
 129   2.0000      -0.587730       -15.9930
 130   2.0000      -0.580164       -15.7871
 131   2.0000      -0.575458       -15.6590
 132   2.0000      -0.571017       -15.5382
 133   2.0000      -0.567673       -15.4472
 134   2.0000      -0.554626       -15.0921
 135   2.0000      -0.554316       -15.0837
 136   2.0000      -0.553654       -15.0657
 137   2.0000      -0.539873       -14.6907
 138   2.0000      -0.539022       -14.6675
 139   2.0000      -0.537181       -14.6174
 140   2.0000      -0.536354       -14.5949
 141   2.0000      -0.535357       -14.5678
 142   2.0000      -0.531925       -14.4744
 143   2.0000      -0.531321       -14.4580
 144   2.0000      -0.528605       -14.3841
 145   2.0000      -0.519118       -14.1259
 146   2.0000      -0.517510       -14.0822
 147   2.0000      -0.516262       -14.0482
 148   2.0000      -0.510746       -13.8981
 149   2.0000      -0.510048       -13.8791
 150   2.0000      -0.508729       -13.8432
 151   2.0000      -0.501443       -13.6450
 152   2.0000      -0.498641       -13.5687
 153   2.0000      -0.496371       -13.5069
 154   2.0000      -0.494730       -13.4623
 155   2.0000      -0.491880       -13.3847
 156   2.0000      -0.481973       -13.1151
 157   2.0000      -0.478428       -13.0187
 158   2.0000      -0.474093       -12.9007
 159   2.0000      -0.473025       -12.8717
 160   2.0000      -0.467780       -12.7290
 161   2.0000      -0.467112       -12.7108
 162   2.0000      -0.460715       -12.5367
 163   2.0000      -0.459840       -12.5129
 164   2.0000      -0.458189       -12.4680
 165   2.0000      -0.457421       -12.4471
 166   2.0000      -0.457337       -12.4448
 167   2.0000      -0.453769       -12.3477
 168   2.0000      -0.452018       -12.3000
 169   2.0000      -0.451366       -12.2823
 170   2.0000      -0.448223       -12.1968
 171   2.0000      -0.447949       -12.1893
 172   2.0000      -0.444934       -12.1073
 173   2.0000      -0.442442       -12.0395
 174   2.0000      -0.439312       -11.9543
 175   2.0000      -0.437466       -11.9041
 176   2.0000      -0.437413       -11.9026
 177   2.0000      -0.435556       -11.8521
 178   2.0000      -0.434297       -11.8178
 179   2.0000      -0.429552       -11.6887
 180   2.0000      -0.425737       -11.5849
 181   2.0000      -0.422061       -11.4849
 182   2.0000      -0.420296       -11.4368
 183   2.0000      -0.415689       -11.3115
 184   2.0000      -0.410914       -11.1815
 185   2.0000      -0.407949       -11.1009
 186   2.0000      -0.405972       -11.0471
 187   2.0000      -0.387173       -10.5355
 188   2.0000      -0.384534       -10.4637
 189   2.0000      -0.377821       -10.2810
 190   2.0000      -0.358120        -9.7449
 191   2.0000      -0.357144        -9.7184
 192   2.0000      -0.352948        -9.6042
 193   2.0000      -0.342255        -9.3132
 194   2.0000      -0.340930        -9.2772
 195   2.0000      -0.340472        -9.2647
 196   2.0000      -0.326028        -8.8717
 197   2.0000      -0.325255        -8.8506
 198   2.0000      -0.322676        -8.7805
 199   2.0000      -0.319503        -8.6941
 200   2.0000      -0.316865        -8.6223
 201   2.0000      -0.307521        -8.3681
 202   2.0000      -0.305634        -8.3167
 203   2.0000      -0.251321        -6.8388
 204   0.0000      -0.121416        -3.3039
 205   0.0000      -0.106531        -2.8989
 206   0.0000      -0.087321        -2.3761
 207   0.0000      -0.058682        -1.5968
 208   0.0000      -0.054802        -1.4912

MULLIKEN ATOMIC CHARGES
-----------------------
   0 C :    0.027348
   1 C :   -0.127389
   2 S :    0.188412
   3 C :   -0.174090
   4 Cl:   -0.000634
   5 C :    0.073564
   6 C :    0.150502
   7 O :   -0.113229
   8 C :   -0.109984
   9 C :    0.305389
  10 C :   -0.322863
  11 C :   -0.196324
  12 N :    0.163775
  13 C :   -0.189530
  14 N :    0.169585
  15 C :   -0.131592
  16 C :    0.045443
  17 C :    0.047457
  18 C :   -0.089479
  19 C :    0.133295
  20 C :    0.005237
  21 N :   -0.256459
  22 C :    0.113157
  23 C :    0.000536
  24 C :    0.176052
  25 O :   -0.212380
  26 C :   -0.095583
  27 C :    0.029945
  28 C :    0.127779
  29 O :   -0.156692
  30 N :   -0.268475
  31 C :    0.092617
  32 C :    0.002243
  33 C :    0.150762
  34 C :   -0.021624
  35 C :   -0.092130
  36 C :    0.069890
  37 C :    0.018410
  38 C :    0.031165
  39 C :    0.061267
  40 C :   -0.058469
  41 C :   -0.126747
  42 C :    0.133780
  43 O :   -0.123485
  44 C :    0.085546
  45 C :   -0.168992
  46 S :    0.189615
  47 C :   -0.127791
  48 C :    0.017553
  49 C :    0.285571
  50 C :   -0.305769
  51 C :   -0.192497
  52 N :    0.157955
  53 C :   -0.200810
  54 N :    0.182769
  55 Cl:    0.002947
  56 H :    0.054508
  57 H :    0.061786
  58 H :    0.033466
  59 H :    0.041784
  60 H :    0.026179
  61 H :    0.025892
  62 H :    0.024255
  63 H :    0.047758
  64 H :    0.027926
  65 H :    0.032003
  66 H :    0.028705
  67 H :    0.022715
  68 H :    0.004808
  69 H :    0.076828
  70 H :    0.059670
  71 H :    0.055168
Sum of atomic charges:    0.0000000

LOEWDIN ATOMIC CHARGES
----------------------
   0 C :   -0.058972
   1 C :   -0.147957
   2 S :    0.477002
   3 C :   -0.272284
   4 Cl:    0.191148
   5 C :   -0.116394
   6 C :    0.077672
   7 O :   -0.118117
   8 C :   -0.063300
   9 C :    0.069919
  10 C :   -0.129645
  11 C :   -0.015821
  12 N :   -0.046422
  13 C :   -0.022358
  14 N :   -0.038916
  15 C :    0.045614
  16 C :    0.014246
  17 C :    0.002867
  18 C :   -0.012899
  19 C :    0.008189
  20 C :    0.037610
  21 N :    0.010557
  22 C :    0.040027
  23 C :   -0.059581
  24 C :    0.076797
  25 O :   -0.203580
  26 C :   -0.124372
  27 C :   -0.080636
  28 C :    0.086524
  29 O :   -0.163817
  30 N :   -0.003429
  31 C :    0.035838
  32 C :   -0.060189
  33 C :    0.090835
  34 C :   -0.019145
  35 C :    0.017406
  36 C :    0.036030
  37 C :   -0.028935
  38 C :    0.013747
  39 C :   -0.007033
  40 C :    0.047066
  41 C :   -0.061262
  42 C :    0.080133
  43 O :   -0.127627
  44 C :   -0.119660
  45 C :   -0.270031
  46 S :    0.478328
  47 C :   -0.151169
  48 C :   -0.056904
  49 C :    0.065278
  50 C :   -0.119716
  51 C :   -0.014137
  52 N :   -0.044198
  53 C :   -0.018789
  54 N :   -0.035876
  55 Cl:    0.194549
  56 H :    0.038096
  57 H :    0.063570
  58 H :    0.030877
  59 H :    0.036676
  60 H :    0.026940
  61 H :    0.032486
  62 H :    0.029105
  63 H :    0.039691
  64 H :    0.024725
  65 H :    0.033321
  66 H :    0.033351
  67 H :    0.024354
  68 H :    0.039993
  69 H :    0.058128
  70 H :    0.066371
  71 H :    0.038100

  Mayer bond orders larger than 0.100000
B(  0-C ,  1-C ) :   1.5461 B(  0-C ,  5-C ) :   1.2251 B(  0-C ,  9-C ) :   1.0021
B(  1-C ,  2-S ) :   1.1628 B(  1-C , 56-H ) :   0.9541 B(  2-S ,  3-C ) :   1.1489
B(  3-C ,  4-Cl) :   1.1275 B(  3-C ,  5-C ) :   1.4849 B(  5-C ,  6-C ) :   0.9409
B(  6-C ,  7-O ) :   2.2738 B(  6-C ,  8-C ) :   0.9240 B(  8-C ,  9-C ) :   1.0528
B(  8-C , 15-C ) :   1.6409 B(  9-C , 10-C ) :   1.6593 B( 10-C , 11-C ) :   1.1447
B( 10-C , 13-C ) :   1.1469 B( 11-C , 12-N ) :   2.9916 B( 13-C , 14-N ) :   2.9729
B( 15-C , 16-C ) :   1.0399 B( 15-C , 57-H ) :   0.9362 B( 16-C , 17-C ) :   2.0297
B( 16-C , 19-C ) :   0.1712 B( 17-C , 18-C ) :   0.9280 B( 18-C , 19-C ) :   2.0591
B( 19-C , 20-C ) :   0.8182 B( 20-C , 21-N ) :   1.1929 B( 20-C , 27-C ) :   1.4198
B( 21-N , 22-C ) :   0.9410 B( 21-N , 24-C ) :   1.0699 B( 22-C , 23-C ) :   1.1214
B( 22-C , 58-H ) :   0.9468 B( 22-C , 59-H ) :   0.9332 B( 23-C , 60-H ) :   0.9691
B( 23-C , 61-H ) :   0.9673 B( 23-C , 62-H ) :   0.9656 B( 24-C , 25-O ) :   2.0215
B( 24-C , 26-C ) :   0.9913 B( 25-O , 69-H ) :   0.1172 B( 26-C , 27-C ) :   1.2447
B( 26-C , 33-C ) :   1.3266 B( 27-C , 28-C ) :   0.9284 B( 28-C , 29-O ) :   2.1990
B( 28-C , 30-N ) :   1.0212 B( 30-N , 31-C ) :   0.9414 B( 30-N , 33-C ) :   1.1785
B( 31-C , 32-C ) :   1.1198 B( 31-C , 63-H ) :   0.9274 B( 31-C , 64-H ) :   0.9508
B( 32-C , 65-H ) :   0.9630 B( 32-C , 66-H ) :   0.9677 B( 32-C , 67-H ) :   0.9693
B( 33-C , 34-C ) :   1.1606 B( 34-C , 35-C ) :   1.6494 B( 34-C , 68-H ) :   0.9680
B( 35-C , 36-C ) :   1.0018 B( 35-C , 69-H ) :   0.9081 B( 36-C , 37-C ) :   2.1077
B( 36-C , 39-C ) :   0.1721 B( 37-C , 38-C ) :   0.8869 B( 38-C , 39-C ) :   2.0813
B( 39-C , 40-C ) :   0.9375 B( 40-C , 41-C ) :   1.7032 B( 40-C , 70-H ) :   0.9461
B( 41-C , 42-C ) :   0.9337 B( 41-C , 49-C ) :   1.0326 B( 42-C , 43-O ) :   2.2808
B( 42-C , 44-C ) :   0.9295 B( 44-C , 45-C ) :   1.4800 B( 44-C , 48-C ) :   1.2226
B( 45-C , 46-S ) :   1.1543 B( 45-C , 55-Cl) :   1.1317 B( 46-S , 47-C ) :   1.1593
B( 47-C , 48-C ) :   1.5542 B( 47-C , 71-H ) :   0.9533 B( 48-C , 49-C ) :   1.0131
B( 49-C , 50-C ) :   1.6629 B( 50-C , 51-C ) :   1.1334 B( 50-C , 53-C ) :   1.1651
B( 51-C , 52-N ) :   2.9955 B( 53-C , 54-N ) :   2.9900

-----------------------------------------------------------------------------
         ABSORPTION SPECTRUM VIA TRANSITION ELECTRIC DIPOLE MOMENTS
-----------------------------------------------------------------------------
State   Energy  Wavelength   fosc         T2         TX        TY        TZ
        (cm-1)    (nm)                  (au**2)     (au)      (au)      (au)
-----------------------------------------------------------------------------
   0   13983.4    715.1   1.261197443  29.69243   4.21916  -3.37492   0.70785
   1   18486.5    540.9   0.002860478   0.05094  -0.06338  -0.02860   0.21472
   2   21245.3    470.7   0.000221193   0.00343  -0.02615   0.05196   0.00662
   3   21584.8    463.3   0.018205410   0.27767   0.17206   0.40095   0.29547
   4   25280.8    395.6   0.024249007   0.31578   0.23308  -0.50804   0.05781
   5   25401.2    393.7   0.314625543   4.07770  -0.98097   1.69811  -0.48149
   6   25826.5    387.2   0.189098006   2.41044   0.50179  -0.52540   1.37208
   7   26025.6    384.2   0.142559683   1.80331   0.47303  -0.17666   1.24433
   8   26635.4    375.4   0.038442774   0.47515  -0.20970   0.54816  -0.36152
   9   27117.8    368.8   0.019985280   0.24262   0.25922  -0.40298   0.11419
  10   27584.6    362.5   0.233882935   2.79130  -1.22062   1.13742  -0.08761
  11   28193.7    354.7   0.114170668   1.33315  -0.18180   0.66164  -0.92862
  12   28602.7    349.6   0.256175411   2.94854   0.69548  -1.45458   0.59080
  13   28828.2    346.9   0.022633992   0.25848   0.24192  -0.43795   0.09026
  14   29272.0    341.6   0.018540784   0.20852   0.26532  -0.27117   0.25415
  15   29622.6    337.6   0.152308630   1.69269   0.09476   1.19787  -0.49883
  16   30610.5    326.7   0.000471083   0.00507  -0.01544   0.02179   0.06598
  17   31043.6    322.1   0.019539548   0.20721  -0.15131   0.34655  -0.25342
  18   31188.0    320.6   0.169277126   1.78684   1.14071   0.64257  -0.26971
  19   32163.4    310.9   0.078596356   0.80448   0.09397  -0.80525   0.38369
  20   32389.8    308.7   0.073064447   0.74263   0.03308   0.76073  -0.40353
  21   32669.4    306.1   0.006499713   0.06550  -0.00054   0.24175  -0.08401
  22   32820.2    304.7   0.000254220   0.00255  -0.02257   0.04179  -0.01716
  23   34147.5    292.8   0.000064971   0.00063  -0.01369   0.00316   0.02071
  24   34236.1    292.1   0.004800907   0.04617  -0.01284   0.15823  -0.14479
  25   34574.0    289.2   0.007290737   0.06942  -0.24908   0.01943  -0.08369
  26   35180.6    284.2   0.330836761   3.09590  -0.50652   1.63202  -0.41936
  27   35516.5    281.6   0.002788737   0.02585  -0.01782   0.15128  -0.05145
  28   35759.2    279.6   0.307173483   2.82795   0.54280  -1.49106   0.55683
  29   36106.9    277.0   0.038439985   0.35048  -0.12254   0.47587  -0.33018
  30   36660.7    272.8   0.014132651   0.12691  -0.01395   0.32929  -0.13521
  31   37006.7    270.2   0.003974172   0.03535  -0.10772  -0.14519   0.05167
  32   37265.0    268.3   0.699149250   6.17654   0.56375  -2.21870   0.96752
  33   37444.7    267.1   0.004987931   0.04385   0.05323  -0.14150  -0.14490
  34   37666.0    265.5   0.496128571   4.33631   1.48459   1.42869  -0.30190
  35   38304.0    261.1   0.004580899   0.03937   0.13528  -0.11322  -0.09084
  36   38655.1    258.7   0.014044504   0.11961   0.30156  -0.16877  -0.01388
  37   38693.9    258.4   0.018082542   0.15385   0.09173  -0.35231   0.14598
  38   39435.9    253.6   0.004987132   0.04163  -0.14501   0.13980   0.03257
  39   39486.8    253.2   0.010287360   0.08577   0.02891   0.28737  -0.04850
  40   39941.1    250.4   0.199462652   1.64406  -0.40718  -1.14193   0.41744
  41   40109.4    249.3   0.109823053   0.90141   0.35149   0.77394  -0.42295

FINAL SINGLE POINT ENERGY     -3952.608343204644

DIPOLE MOMENT
-------------
                                X             Y             Z
Electronic contribution:    -14.01864     -22.55370      21.45965
Nuclear contribution   :     13.68353      19.93253     -21.01115
                        -----------------------------------------
Total Dipole Moment    :     -0.33510      -2.62116       0.44850
                        -----------------------------------------
Magnitude (a.u.)       :      2.68029
Magnitude (Debye)      :      6.81275

Rotational constants in cm-1:     0.002996     0.000254     0.000244
Rotational constants in MHz :    89.806909     7.617093     7.314313

                             ****ORCA TERMINATED NORMALLY****
TOTAL RUN TIME: 0 days 0 hours 5 minutes 23 seconds 399 msec
