                         Program Version 4.2.0 -  RELEASE  -
|  1> # ORCA input file
|  2> # SCF done       -155.331255275292          0.000462995162
|  3> ! CAM-B3LYP def2-SVP def2/J RIJCOSX Grid4 TightSCF
|  4> %maxcore 5000
|  5> %tddft
|  6>     Mode sTDDFT
|  7>     Ethresh 5.0
|  8>     maxcore 5000
|  9> end
| 10>
| 11> %pal
| 12>   nprocs 6
| 13>   end
| 14> * xyz 0 1
| 15>    C        0.92560        -3.77750        -4.63275
| 16>    C        0.06547        -4.15823        -5.61553
| 17>    S        0.13554        -5.86211        -5.88161
| 18>    C        1.35079        -6.07328        -4.64473
| 19>   Cl        1.98621        -7.59878        -4.27772
| 20>    C        1.66266        -4.87300        -4.07610
| 21>    C        2.55950        -4.38140        -3.03331
| 22>    O        3.33625        -5.02641        -2.35559
| 23>    C        2.32775        -2.92023        -2.97239
| 24>    C        1.32416        -2.55316        -3.96542
| 25>    C        0.82368        -1.31404        -4.25879
| 26>    C       -0.14857        -1.13949        -5.26799
| 27>    N       -0.93726        -0.98051        -6.08525
| 28>    C        1.18414        -0.10086        -3.63788
| 29>    N        1.43108         0.92029        -3.17512
| 30>    C        2.95250        -2.05474        -2.12339
| 31>    C        3.93941        -2.29271        -1.13915
| 32>    S        4.66409        -3.82935        -0.71163
| 33>    C        5.66210        -3.07882         0.46532
| 34>    C        5.45824        -1.69241         0.53559
| 35>    C        4.47603        -1.27162        -0.37677
| 36>    C        6.25864        -0.82801         1.38038
| 37>    O        7.21924        -1.14932         2.03543
| 38>    C        5.80662         0.66404         1.39939
| 39>    F        4.51012         0.78643         1.73605
| 40>    F        6.50950         1.37596         2.27268
| 41>    F        5.95037         1.24743         0.19740
| 42>    C        6.56733        -3.88640         1.24108
| 43>    C        7.42155        -4.81602         0.62927
| 44>    N        8.23771        -5.58077         1.31084
| 45>    C        8.26488        -5.43912         2.63128
| 46>    N        7.47636        -4.61460         3.31220
| 47>    C        6.63344        -3.86852         2.64363
| 48>    C        9.22143        -6.26422         3.38619
| 49>    N       10.11472        -6.95142         2.68123
| 50>    C       10.98433        -7.67335         3.36303
| 51>    C       10.97428        -7.74122         4.74755
| 52>    C        9.98296        -6.99879         5.40051
| 53>    N        9.11978        -6.25919         4.70504
| 54>    C        9.83236        -6.93396         6.84179
| 55>    C       10.39486        -7.77693         7.72411
| 56>    C       10.20688        -7.70768         9.14179
| 57>    C       10.04550        -6.62908         9.94372
| 58>    C        9.52592        -6.85277        11.33604
| 59>    O        9.42640        -7.91706        11.89528
| 60>    C        9.14150        -5.51842        11.80185
| 61>    C        8.53457        -4.97531        12.89548
| 62>    S        8.41217        -3.24039        12.72755
| 63>    C        9.19141        -3.26846        11.18837
| 64>    C        9.51890        -4.53782        10.82568
| 65>    C       10.19646        -5.19686         9.72383
| 66>    C       10.98406        -4.55048         8.81123
| 67>    C       11.08580        -3.14190         8.80067
| 68>    N       11.17413        -1.99871         8.78376
| 69>    C       11.82017        -5.17593         7.86678
| 70>    N       12.54899        -5.62962         7.10510
| 71>   Cl        7.94923        -5.77355        14.26940
| 72>    H       -0.60490        -3.56259        -6.20279
| 73>    H        2.67317        -1.00987        -2.19201
| 74>    H        4.16157        -0.25168        -0.50671
| 75>    H        7.44320        -4.92369        -0.44801
| 76>    H        5.96672        -3.25154         3.23050
| 77>    H       11.71301        -8.21396         2.77280
| 78>    H       11.70738        -8.31492         5.28791
| 79>    H        9.16724        -6.14877         7.17571
| 80>    H       10.96112        -8.62953         7.37313
| 81>    H       10.14010        -8.66282         9.65650
| 82>    H        9.34324        -2.34882        10.65903
| 83> *
| 84>
| 85>                          ****END OF INPUT****

CARTESIAN COORDINATES (ANGSTROEM)
---------------------------------
  C      0.925600   -3.777500   -4.632750
  C      0.065470   -4.158230   -5.615530
  S      0.135540   -5.862110   -5.881610
  C      1.350790   -6.073280   -4.644730
  Cl     1.986210   -7.598780   -4.277720
  C      1.662660   -4.873000   -4.076100
  C      2.559500   -4.381400   -3.033310
  O      3.336250   -5.026410   -2.355590
  C      2.327750   -2.920230   -2.972390
  C      1.324160   -2.553160   -3.965420
  C      0.823680   -1.314040   -4.258790
  C     -0.148570   -1.139490   -5.267990
  N     -0.937260   -0.980510   -6.085250
  C      1.184140   -0.100860   -3.637880
  N      1.431080    0.920290   -3.175120
  C      2.952500   -2.054740   -2.123390
  C      3.939410   -2.292710   -1.139150
  S      4.664090   -3.829350   -0.711630
  C      5.662100   -3.078820    0.465320
  C      5.458240   -1.692410    0.535590
  C      4.476030   -1.271620   -0.376770
  C      6.258640   -0.828010    1.380380
  O      7.219240   -1.149320    2.035430
  C      5.806620    0.664040    1.399390
  F      4.510120    0.786430    1.736050
  F      6.509500    1.375960    2.272680
  F      5.950370    1.247430    0.197400
  C      6.567330   -3.886400    1.241080
  C      7.421550   -4.816020    0.629270
  N      8.237710   -5.580770    1.310840
  C      8.264880   -5.439120    2.631280
  N      7.476360   -4.614600    3.312200
  C      6.633440   -3.868520    2.643630
  C      9.221430   -6.264220    3.386190
  N     10.114720   -6.951420    2.681230
  C     10.984330   -7.673350    3.363030
  C     10.974280   -7.741220    4.747550
  C      9.982960   -6.998790    5.400510
  N      9.119780   -6.259190    4.705040
  C      9.832360   -6.933960    6.841790
  C     10.394860   -7.776930    7.724110
  C     10.206880   -7.707680    9.141790
  C     10.045500   -6.629080    9.943720
  C      9.525920   -6.852770   11.336040
  O      9.426400   -7.917060   11.895280
  C      9.141500   -5.518420   11.801850
  C      8.534570   -4.975310   12.895480
  S      8.412170   -3.240390   12.727550
  C      9.191410   -3.268460   11.188370
  C      9.518900   -4.537820   10.825680
  C     10.196460   -5.196860    9.723830
  C     10.984060   -4.550480    8.811230
  C     11.085800   -3.141900    8.800670
  N     11.174130   -1.998710    8.783760
  C     11.820170   -5.175930    7.866780
  N     12.548990   -5.629620    7.105100
  Cl     7.949230   -5.773550   14.269400
  H     -0.604900   -3.562590   -6.202790
  H      2.673170   -1.009870   -2.192010
  H      4.161570   -0.251680   -0.506710
  H      7.443200   -4.923690   -0.448010
  H      5.966720   -3.251540    3.230500
  H     11.713010   -8.213960    2.772800
  H     11.707380   -8.314920    5.287910
  H      9.167240   -6.148770    7.175710
  H     10.961120   -8.629530    7.373130
  H     10.140100   -8.662820    9.656500
  H      9.343240   -2.348820   10.659030

 Total Charge           Charge          ....    0
 Multiplicity           Mult            ....    1
 Number of Electrons    NEL             ....  428
 Basis Dimension        Dim             ....  873

ORBITAL ENERGIES
----------------

  NO   OCC          E(Eh)            E(eV)
   0   2.0000    -101.625742     -2765.3770
   1   2.0000    -101.619250     -2765.2004
   2   2.0000     -89.001686     -2421.8590
   3   2.0000     -88.995408     -2421.6882
   4   2.0000     -88.991395     -2421.5790
   5   2.0000     -24.814466      -675.2359
   6   2.0000     -24.813766      -675.2169
   7   2.0000     -24.807905      -675.0574
   8   2.0000     -19.245413      -523.6943
   9   2.0000     -19.238082      -523.4948
  10   2.0000     -19.222723      -523.0769
  11   2.0000     -14.430032      -392.6611
  12   2.0000     -14.426406      -392.5625
  13   2.0000     -14.423641      -392.4872
  14   2.0000     -14.422021      -392.4431
  15   2.0000     -14.414334      -392.2340
  16   2.0000     -14.413772      -392.2187
  17   2.0000     -14.413496      -392.2112
  18   2.0000     -14.410885      -392.1401
  19   2.0000     -10.523741      -286.3656
  20   2.0000     -10.397867      -282.9403
  21   2.0000     -10.391754      -282.7740
  22   2.0000     -10.385461      -282.6027
  23   2.0000     -10.378545      -282.4146
  24   2.0000     -10.378439      -282.4117
  25   2.0000     -10.358005      -281.8557
  26   2.0000     -10.356012      -281.8014
  27   2.0000     -10.353219      -281.7254
  28   2.0000     -10.352045      -281.6935
  29   2.0000     -10.346614      -281.5457
  30   2.0000     -10.344033      -281.4754
  31   2.0000     -10.342351      -281.4297
  32   2.0000     -10.341363      -281.4028
  33   2.0000     -10.337702      -281.3032
  34   2.0000     -10.334955      -281.2284
  35   2.0000     -10.333687      -281.1939
  36   2.0000     -10.332014      -281.1484
  37   2.0000     -10.331891      -281.1450
  38   2.0000     -10.330983      -281.1203
  39   2.0000     -10.330419      -281.1050
  40   2.0000     -10.328489      -281.0525
  41   2.0000     -10.324970      -280.9567
  42   2.0000     -10.323720      -280.9227
  43   2.0000     -10.323026      -280.9038
  44   2.0000     -10.322282      -280.8836
  45   2.0000     -10.321074      -280.8507
  46   2.0000     -10.319525      -280.8085
  47   2.0000     -10.317472      -280.7527
  48   2.0000     -10.315519      -280.6995
  49   2.0000     -10.312876      -280.6276
  50   2.0000     -10.310009      -280.5496
  51   2.0000     -10.309991      -280.5491
  52   2.0000     -10.309057      -280.5237
  53   2.0000     -10.303153      -280.3630
  54   2.0000     -10.302613      -280.3483
  55   2.0000     -10.302075      -280.3337
  56   2.0000     -10.292709      -280.0789
  57   2.0000      -9.580492      -260.6984
  58   2.0000      -9.574070      -260.5237
  59   2.0000      -8.097394      -220.3413
  60   2.0000      -8.091185      -220.1723
  61   2.0000      -8.084706      -219.9960
  62   2.0000      -7.351119      -200.0341
  63   2.0000      -7.344707      -199.8596
  64   2.0000      -7.340536      -199.7461
  65   2.0000      -7.340001      -199.7316
  66   2.0000      -7.334102      -199.5711
  67   2.0000      -7.333558      -199.5563
  68   2.0000      -6.066767      -165.0851
  69   2.0000      -6.062150      -164.9595
  70   2.0000      -6.060545      -164.9158
  71   2.0000      -6.059662      -164.8918
  72   2.0000      -6.055955      -164.7909
  73   2.0000      -6.053926      -164.7357
  74   2.0000      -6.053439      -164.7225
  75   2.0000      -6.049260      -164.6087
  76   2.0000      -6.047385      -164.5577
  77   2.0000      -1.401962       -38.1493
  78   2.0000      -1.305040       -35.5119
  79   2.0000      -1.303976       -35.4830
  80   2.0000      -1.162465       -31.6323
  81   2.0000      -1.155374       -31.4393
  82   2.0000      -1.139938       -31.0193
  83   2.0000      -1.100664       -29.9506
  84   2.0000      -1.077960       -29.3328
  85   2.0000      -1.047229       -28.4966
  86   2.0000      -1.040467       -28.3125
  87   2.0000      -1.026313       -27.9274
  88   2.0000      -1.020593       -27.7717
  89   2.0000      -1.020031       -27.7565
  90   2.0000      -1.006954       -27.4006
  91   2.0000      -1.001371       -27.2487
  92   2.0000      -0.997195       -27.1351
  93   2.0000      -0.991133       -26.9701
  94   2.0000      -0.990195       -26.9446
  95   2.0000      -0.979519       -26.6541
  96   2.0000      -0.963953       -26.2305
  97   2.0000      -0.957797       -26.0630
  98   2.0000      -0.935480       -25.4557
  99   2.0000      -0.928062       -25.2539
 100   2.0000      -0.916888       -24.9498
 101   2.0000      -0.909710       -24.7545
 102   2.0000      -0.905035       -24.6272
 103   2.0000      -0.892492       -24.2859
 104   2.0000      -0.878883       -23.9156
 105   2.0000      -0.852941       -23.2097
 106   2.0000      -0.843458       -22.9517
 107   2.0000      -0.840366       -22.8675
 108   2.0000      -0.834845       -22.7173
 109   2.0000      -0.822890       -22.3920
 110   2.0000      -0.800053       -21.7706
 111   2.0000      -0.798356       -21.7244
 112   2.0000      -0.776396       -21.1268
 113   2.0000      -0.765573       -20.8323
 114   2.0000      -0.764006       -20.7897
 115   2.0000      -0.755048       -20.5459
 116   2.0000      -0.742538       -20.2055
 117   2.0000      -0.736228       -20.0338
 118   2.0000      -0.726727       -19.7752
 119   2.0000      -0.711747       -19.3676
 120   2.0000      -0.702970       -19.1288
 121   2.0000      -0.693272       -18.8649
 122   2.0000      -0.687810       -18.7163
 123   2.0000      -0.685952       -18.6657
 124   2.0000      -0.685596       -18.6560
 125   2.0000      -0.684937       -18.6381
 126   2.0000      -0.678643       -18.4668
 127   2.0000      -0.676133       -18.3985
 128   2.0000      -0.650443       -17.6995
 129   2.0000      -0.645431       -17.5631
 130   2.0000      -0.638588       -17.3769
 131   2.0000      -0.632757       -17.2182
 132   2.0000      -0.626018       -17.0348
 133   2.0000      -0.622336       -16.9346
 134   2.0000      -0.616751       -16.7826
 135   2.0000      -0.613779       -16.7018
 136   2.0000      -0.611776       -16.6473
 137   2.0000      -0.593112       -16.1394
 138   2.0000      -0.591310       -16.0904
 139   2.0000      -0.587314       -15.9816
 140   2.0000      -0.571350       -15.5472
 141   2.0000      -0.564821       -15.3696
 142   2.0000      -0.562998       -15.3200
 143   2.0000      -0.561199       -15.2710
 144   2.0000      -0.560271       -15.2457
 145   2.0000      -0.556516       -15.1436
 146   2.0000      -0.553141       -15.0517
 147   2.0000      -0.550488       -14.9795
 148   2.0000      -0.546498       -14.8710
 149   2.0000      -0.543375       -14.7860
 150   2.0000      -0.538259       -14.6468
 151   2.0000      -0.535487       -14.5713
 152   2.0000      -0.534586       -14.5468
 153   2.0000      -0.533273       -14.5111
 154   2.0000      -0.531560       -14.4645
 155   2.0000      -0.526693       -14.3321
 156   2.0000      -0.522854       -14.2276
 157   2.0000      -0.520108       -14.1529
 158   2.0000      -0.516120       -14.0443
 159   2.0000      -0.514524       -14.0009
 160   2.0000      -0.513226       -13.9656
 161   2.0000      -0.512226       -13.9384
 162   2.0000      -0.509896       -13.8750
 163   2.0000      -0.507612       -13.8128
 164   2.0000      -0.505168       -13.7463
 165   2.0000      -0.503693       -13.7062
 166   2.0000      -0.501795       -13.6545
 167   2.0000      -0.500450       -13.6179
 168   2.0000      -0.497071       -13.5260
 169   2.0000      -0.496454       -13.5092
 170   2.0000      -0.490998       -13.3607
 171   2.0000      -0.489043       -13.3075
 172   2.0000      -0.483021       -13.1437
 173   2.0000      -0.479562       -13.0496
 174   2.0000      -0.464326       -12.6350
 175   2.0000      -0.463301       -12.6071
 176   2.0000      -0.460943       -12.5429
 177   2.0000      -0.458000       -12.4628
 178   2.0000      -0.456890       -12.4326
 179   2.0000      -0.454711       -12.3733
 180   2.0000      -0.454380       -12.3643
 181   2.0000      -0.453970       -12.3532
 182   2.0000      -0.449368       -12.2279
 183   2.0000      -0.448023       -12.1913
 184   2.0000      -0.442961       -12.0536
 185   2.0000      -0.439963       -11.9720
 186   2.0000      -0.435362       -11.8468
 187   2.0000      -0.431268       -11.7354
 188   2.0000      -0.429131       -11.6772
 189   2.0000      -0.428220       -11.6525
 190   2.0000      -0.422907       -11.5079
 191   2.0000      -0.415192       -11.2979
 192   2.0000      -0.410870       -11.1803
 193   2.0000      -0.406875       -11.0716
 194   2.0000      -0.404721       -11.0130
 195   2.0000      -0.400562       -10.8998
 196   2.0000      -0.397912       -10.8277
 197   2.0000      -0.385108       -10.4793
 198   2.0000      -0.383063       -10.4237
 199   2.0000      -0.377166       -10.2632
 200   2.0000      -0.376335       -10.2406
 201   2.0000      -0.365838        -9.9550
 202   2.0000      -0.358068        -9.7435
 203   2.0000      -0.353760        -9.6263
 204   2.0000      -0.347023        -9.4430
 205   2.0000      -0.345620        -9.4048
 206   2.0000      -0.340552        -9.2669
 207   2.0000      -0.337019        -9.1707
 208   2.0000      -0.335334        -9.1249
 209   2.0000      -0.323460        -8.8018
 210   2.0000      -0.319130        -8.6840
 211   2.0000      -0.310009        -8.4358
 212   2.0000      -0.303991        -8.2720
 213   2.0000      -0.295351        -8.0369
 214   0.0000      -0.105656        -2.8751
 215   0.0000      -0.098901        -2.6912
 216   0.0000      -0.066245        -1.8026
 217   0.0000      -0.063794        -1.7359
 218   0.0000      -0.054419        -1.4808

MULLIKEN ATOMIC CHARGES
-----------------------
   0 C :    0.025659
   1 C :   -0.127016
   2 S :    0.192369
   3 C :   -0.169232
   4 Cl:    0.004974
   5 C :    0.079915
   6 C :    0.173703
   7 O :   -0.167453
   8 C :   -0.102753
   9 C :    0.309033
  10 C :   -0.331813
  11 C :   -0.194370
  12 N :    0.159198
  13 C :   -0.187325
  14 N :    0.161018
  15 C :   -0.020326
  16 C :   -0.054586
  17 S :    0.249997
  18 C :   -0.109792
  19 C :    0.055719
  20 C :    0.004622
  21 C :    0.012465
  22 O :   -0.127832
  23 C :    0.474437
  24 F :   -0.167408
  25 F :   -0.129022
  26 F :   -0.166137
  27 C :   -0.032568
  28 C :    0.051386
  29 N :   -0.007675
  30 C :   -0.076927
  31 N :   -0.016870
  32 C :    0.096922
  33 C :   -0.082945
  34 N :   -0.021285
  35 C :    0.077228
  36 C :   -0.017396
  37 C :    0.015404
  38 N :   -0.007437
  39 C :    0.059642
  40 C :    0.021917
  41 C :    0.038038
  42 C :   -0.125188
  43 C :    0.129289
  44 O :   -0.127425
  45 C :    0.094147
  46 C :   -0.172075
  47 S :    0.189295
  48 C :   -0.124169
  49 C :    0.010115
  50 C :    0.273069
  51 C :   -0.317553
  52 C :   -0.184873
  53 N :    0.158854
  54 C :   -0.184953
  55 N :    0.173649
  56 Cl:    0.001462
  57 H :    0.057042
  58 H :    0.015844
  59 H :    0.030354
  60 H :    0.011390
  61 H :    0.007698
  62 H :    0.010521
  63 H :    0.004914
  64 H :    0.017655
  65 H :    0.014104
  66 H :    0.035425
  67 H :    0.055938
Sum of atomic charges:   -0.0000000

LOEWDIN ATOMIC CHARGES
----------------------
   0 C :   -0.058431
   1 C :   -0.146253
   2 S :    0.481117
   3 C :   -0.270733
   4 Cl:    0.196334
   5 C :   -0.117843
   6 C :    0.085151
   7 O :   -0.158385
   8 C :   -0.099637
   9 C :    0.075606
  10 C :   -0.135316
  11 C :   -0.015233
  12 N :   -0.048080
  13 C :   -0.024033
  14 N :   -0.042437
  15 C :    0.063635
  16 C :   -0.189160
  17 S :    0.554076
  18 C :   -0.114991
  19 C :   -0.124699
  20 C :    0.008260
  21 C :    0.038294
  22 O :   -0.093577
  23 C :    0.139992
  24 F :   -0.061135
  25 F :   -0.030740
  26 F :   -0.058334
  27 C :   -0.094955
  28 C :    0.052046
  29 N :   -0.051760
  30 C :    0.022760
  31 N :   -0.052035
  32 C :    0.075763
  33 C :    0.008237
  34 N :   -0.055992
  35 C :    0.050718
  36 C :   -0.034574
  37 C :    0.026222
  38 N :   -0.057240
  39 C :    0.025753
  40 C :   -0.020402
  41 C :    0.068731
  42 C :   -0.078833
  43 C :    0.081545
  44 O :   -0.130088
  45 C :   -0.119300
  46 C :   -0.272100
  47 S :    0.478427
  48 C :   -0.149960
  49 C :   -0.057372
  50 C :    0.066570
  51 C :   -0.128922
  52 C :   -0.015612
  53 N :   -0.044868
  54 C :   -0.013488
  55 N :   -0.040774
  56 Cl:    0.193391
  57 H :    0.038870
  58 H :    0.053724
  59 H :    0.039299
  60 H :    0.025274
  61 H :    0.026759
  62 H :    0.028647
  63 H :    0.035882
  64 H :    0.040923
  65 H :    0.037244
  66 H :    0.049612
  67 H :    0.038432

  Mayer bond orders larger than 0.100000
B(  0-C ,  1-C ) :   1.5487 B(  0-C ,  5-C ) :   1.2254 B(  0-C ,  9-C ) :   0.9950
B(  1-C ,  2-S ) :   1.1619 B(  1-C , 57-H ) :   0.9532 B(  2-S ,  3-C ) :   1.1532
B(  3-C ,  4-Cl) :   1.1330 B(  3-C ,  5-C ) :   1.4671 B(  5-C ,  6-C ) :   0.9734
B(  6-C ,  7-O ) :   2.1392 B(  6-C ,  8-C ) :   0.9651 B(  8-C ,  9-C ) :   1.0705
B(  8-C , 15-C ) :   1.5610 B(  9-C , 10-C ) :   1.6539 B( 10-C , 11-C ) :   1.1479
B( 10-C , 13-C ) :   1.1392 B( 11-C , 12-N ) :   2.9908 B( 13-C , 14-N ) :   2.9634
B( 15-C , 16-C ) :   1.2034 B( 15-C , 58-H ) :   0.9427 B( 16-C , 17-S ) :   1.0810
B( 16-C , 20-C ) :   1.4222 B( 17-S , 18-C ) :   1.2271 B( 18-C , 19-C ) :   1.4204
B( 18-C , 27-C ) :   1.0119 B( 19-C , 20-C ) :   1.2559 B( 19-C , 21-C ) :   0.9436
B( 20-C , 59-H ) :   0.9796 B( 21-C , 22-O ) :   2.1989 B( 21-C , 23-C ) :   0.8783
B( 23-C , 24-F ) :   1.1297 B( 23-C , 25-F ) :   1.1982 B( 23-C , 26-F ) :   1.1169
B( 27-C , 28-C ) :   1.3412 B( 27-C , 32-C ) :   1.3188 B( 28-C , 29-N ) :   1.5656
B( 28-C , 60-H ) :   0.9902 B( 29-N , 30-C ) :   1.6151 B( 30-C , 31-N ) :   1.5979
B( 30-C , 33-C ) :   0.8931 B( 31-N , 32-C ) :   1.5871 B( 32-C , 61-H ) :   0.9880
B( 33-C , 34-N ) :   1.6260 B( 33-C , 38-N ) :   1.6237 B( 34-N , 35-C ) :   1.5398
B( 35-C , 36-C ) :   1.3817 B( 35-C , 62-H ) :   0.9798 B( 36-C , 37-C ) :   1.3643
B( 36-C , 63-H ) :   0.9631 B( 37-C , 38-N ) :   1.5013 B( 37-C , 39-C ) :   1.0672
B( 39-C , 40-C ) :   1.7095 B( 39-C , 64-H ) :   0.9713 B( 40-C , 41-C ) :   1.0973
B( 40-C , 65-H ) :   0.9482 B( 41-C , 42-C ) :   1.7467 B( 41-C , 66-H ) :   0.9234
B( 42-C , 43-C ) :   0.9313 B( 42-C , 50-C ) :   1.0172 B( 43-C , 44-O ) :   2.2777
B( 43-C , 45-C ) :   0.9268 B( 45-C , 46-C ) :   1.4782 B( 45-C , 49-C ) :   1.2224
B( 46-C , 47-S ) :   1.1544 B( 46-C , 56-Cl) :   1.1311 B( 47-S , 48-C ) :   1.1614
B( 48-C , 49-C ) :   1.5498 B( 48-C , 67-H ) :   0.9555 B( 49-C , 50-C ) :   1.0107
B( 50-C , 51-C ) :   1.6801 B( 51-C , 52-C ) :   1.1270 B( 51-C , 54-C ) :   1.1645
B( 52-C , 53-N ) :   2.9994 B( 54-C , 55-N ) :   2.9954

-----------------------------------------------------------------------------
         ABSORPTION SPECTRUM VIA TRANSITION ELECTRIC DIPOLE MOMENTS
-----------------------------------------------------------------------------
State   Energy  Wavelength   fosc         T2         TX        TY        TZ
        (cm-1)    (nm)                  (au**2)     (au)      (au)      (au)
-----------------------------------------------------------------------------
   0   24554.7    407.3   1.047386612  14.04259   2.48143  -0.47917   2.76686
   1   26143.6    382.5   0.110602087   1.39275   0.10723  -0.89173  -0.76556
   2   26330.4    379.8   0.194793560   2.43553  -0.76667  -0.53164  -1.25104
   3   27652.9    361.6   0.008943075   0.10647   0.15442  -0.07626   0.27714
   4   28629.6    349.3   0.051134028   0.58799  -0.35812   0.10150   0.67040
   5   28947.2    345.5   0.001449752   0.01649   0.09092   0.08927   0.01587
   6   29740.0    336.2   0.056208821   0.62221   0.08817   0.41781   0.66323
   7   29828.4    335.3   0.093940362   1.03681  -0.78831   0.09076  -0.63807
   8   31420.3    318.3   0.137423808   1.43989  -0.39759   1.06757  -0.37696
   9   32154.5    311.0   0.092665245   0.94875  -0.19741  -0.87777  -0.37322
  10   32377.5    308.9   0.014561028   0.14806  -0.21585  -0.28480   0.14267
  11   32944.7    303.5   0.011142894   0.11135   0.29271  -0.08694  -0.13457
  12   33126.1    301.9   0.001976144   0.01964   0.04869  -0.03117  -0.12766
  13   33427.0    299.2   0.106445812   1.04835  -0.16886  -0.98211  -0.23516
  14   33825.5    295.6   0.000910820   0.00886  -0.02954   0.02631   0.08544
  15   34343.6    291.2   0.100706780   0.96536   0.35656   0.59510   0.69576
  16   34930.0    286.3   0.020315712   0.19147  -0.35374   0.22984  -0.11627
  17   35096.5    284.9   0.008040107   0.07542  -0.18174  -0.19914   0.05227
  18   35148.5    284.5   0.002410589   0.02258  -0.00044   0.02675   0.14786
  19   35724.1    279.9   0.015396440   0.14188   0.18882  -0.07182  -0.31792
  20   35916.7    278.4   0.116465099   1.06752   0.20941   0.02111   1.01154
  21   36569.6    273.5   0.888050809   7.99454   1.06323   0.25116  -2.60787
  22   37172.3    269.0   0.022210129   0.19670  -0.11410  -0.07701  -0.42161
  23   37580.3    266.1   0.038758457   0.33953  -0.11634  -0.29639   0.48801
  24   37692.7    265.3   0.382846643   3.34382  -0.17443   1.78581   0.35253
  25   37874.6    264.0   0.356010106   3.09449   0.11535  -1.72288  -0.33599
  26   38363.5    260.7   0.158240042   1.35792  -0.50364   0.14520   1.04076
  27   38538.4    259.5   0.139151155   1.18869  -0.72007   0.02143   0.81837
  28   39018.1    256.3   0.020074304   0.16938   0.38417   0.06572   0.13218
  29   39557.8    252.8   0.028143268   0.23422  -0.37835   0.29575  -0.05997
  30   40313.4    248.1   0.016227275   0.13252   0.02565  -0.33395  -0.14261

FINAL SINGLE POINT ENERGY     -4529.126035523002

DIPOLE MOMENT
-------------
                                X             Y             Z
Electronic contribution:    -19.62473      14.96937      -3.38732
Nuclear contribution   :     18.51947     -17.31094       3.49801
                        -----------------------------------------
Total Dipole Moment    :     -1.10527      -2.34157       0.11069
                        -----------------------------------------
Magnitude (a.u.)       :      2.59168
Magnitude (Debye)      :      6.58753

Rotational constants in cm-1:     0.002142     0.000381     0.000358
Rotational constants in MHz :    64.200623    11.425916    10.728776

                             ****ORCA TERMINATED NORMALLY****
TOTAL RUN TIME: 0 days 0 hours 4 minutes 55 seconds 869 msec
