                         Program Version 4.2.0 -  RELEASE  -
|  1> # ORCA input file
|  2> # SCF done       -192.371921520891          0.000533573093
|  3> ! CAM-B3LYP def2-SVP def2/J RIJCOSX Grid4 TightSCF
|  4> %maxcore 5000
|  5> %tddft
|  6>     Mode sTDDFT
|  7>     Ethresh 5.0
|  8>     maxcore 5000
|  9> end
| 10>
| 11> %pal
| 12>   nprocs 6
| 13>   end
| 14> * xyz 0 1
| 15>    C       -0.75904        -0.52180        -1.43761
| 16>    C       -1.70319         0.07032        -2.21829
| 17>    S       -3.29174        -0.41681        -1.75212
| 18>    C       -2.67420        -1.45121        -0.48492
| 19>   Cl       -3.70837        -2.34378         0.51191
| 20>    C       -1.31381        -1.39242        -0.44396
| 21>    C       -0.23993        -2.00294         0.34313
| 22>    O       -0.32089        -2.91238         1.13276
| 23>    C        1.01625        -1.36669        -0.17991
| 24>    C        0.68448        -0.51962        -1.31292
| 25>    C        1.53740         0.20191        -2.10718
| 26>    C        1.05592         1.00788        -3.16021
| 27>    N        0.68393         1.66500        -4.02397
| 28>    C        2.94084         0.22653        -1.99262
| 29>    N        4.08695         0.28479        -1.94994
| 30>    C        2.26489        -1.64917         0.28026
| 31>    C        2.53044        -2.27224         1.52701
| 32>    O        3.69935        -2.94541         1.70163
| 33>    C        1.85146        -2.26733         2.73166
| 34>    C        0.68574        -1.70238         3.43599
| 35>    O       -0.16406        -0.93651         3.06707
| 36>    N        0.81282        -2.20884         4.72080
| 37>    C        1.95237        -2.98495         4.95625
| 38>    O        2.23936        -3.47908         6.01003
| 39>    C        2.63312        -2.99384         3.65265
| 40>    C        3.77224        -3.41287         2.97772
| 41>    C        4.87984        -4.18699         3.39953
| 42>    C        5.93530        -4.43940         2.57863
| 43>    C        7.04499        -5.23215         2.95417
| 44>    N        8.13725        -5.45554         2.14335
| 45>    C        8.38493        -4.86643         0.85015
| 46>    C        8.84371        -3.41470         0.96406
| 47>    C        9.08119        -6.30673         2.74979
| 48>    O       10.12151        -6.64645         2.22445
| 49>    C        8.49168        -6.62252         4.03022
| 50>    C        7.25376        -5.94953         4.13025
| 51>    C        6.67314        -6.30428         5.40715
| 52>    O        5.63017        -5.98720         5.93628
| 53>    N        7.61028        -7.18464         5.99736
| 54>    C        7.35959        -7.67779         7.33292
| 55>    C        8.16974        -6.92309         8.38268
| 56>    C        8.69858        -7.37849         5.18378
| 57>    C        9.85037        -8.19892         5.34806
| 58>    C       10.16629        -9.02460         6.36821
| 59>    C       11.34873        -9.84204         6.41464
| 60>    C       12.42638        -9.75362         5.57075
| 61>    S       13.66978       -10.86661         5.95161
| 62>    C       12.77561       -11.48504         7.26449
| 63>    C       11.56302       -10.86463         7.40847
| 64>    C       10.60391       -11.21774         8.44847
| 65>    O        9.46021       -10.84253         8.53192
| 66>    O       11.16237       -12.05214         9.37984
| 67>    C       10.38404       -12.36667        10.43920
| 68>    C       10.86194       -12.92496        11.55860
| 69>    C       10.03319       -13.21548        12.68711
| 70>    C        8.87882       -12.62443        13.08434
| 71>    C        8.03457       -13.34879        14.09384
| 72>    O        8.37684       -14.29127        14.76473
| 73>    C        6.72832       -12.68748        14.02340
| 74>    C        5.48709       -12.85847        14.56070
| 75>    S        4.39148       -11.63029        13.97213
| 76>    C        5.62558       -10.89446        13.01744
| 77>    C        6.80525       -11.56068        13.14054
| 78>    C        8.16604       -11.42733        12.65366
| 79>    C        8.65607       -10.28031        12.09097
| 80>    C        7.81920        -9.19279        11.76459
| 81>    N        7.17088        -8.29895        11.45275
| 82>    C       10.00548       -10.01177        11.79062
| 83>    N       11.08421        -9.70695        11.54336
| 84>   Cl        4.97353       -14.05186        15.64674
| 85>    H       -1.58156         0.75643        -3.03289
| 86>    H        3.13793        -1.38879        -0.30393
| 87>    H        0.14336        -2.00596         5.44979
| 88>    H        4.84209        -4.57295         4.40892
| 89>    H        5.92860        -4.01968         1.58231
| 90>    H        7.48591        -4.94305         0.23205
| 91>    H        9.17726        -5.46709         0.39441
| 92>    H        8.08875        -2.80347         1.45353
| 93>    H        9.03348        -3.00987        -0.02602
| 94>    H        9.76186        -3.36072         1.54383
| 95>    H        7.54844        -8.75225         7.37812
| 96>    H        6.29430        -7.50496         7.51312
| 97>    H        9.23897        -7.03819         8.21917
| 98>    H        7.92192        -7.30050         9.37116
| 99>    H        7.92451        -5.86441         8.34617
|100>    H       10.51424        -8.12998         4.49579
|101>    H        9.51618        -9.13461         7.21873
|102>    H       12.56333        -9.07910         4.74965
|103>    H       13.17320       -12.27822         7.86545
|104>    H        9.32973       -12.14539        10.30684
|105>    H       11.90218       -13.21025        11.61260
|106>    H       10.34556       -14.05151        13.30556
|107>    H        5.38916       -10.03182        12.42655
|108> *
|109>
|110>                          ****END OF INPUT****

CARTESIAN COORDINATES (ANGSTROEM)
---------------------------------
  C     -0.759040   -0.521800   -1.437610
  C     -1.703190    0.070320   -2.218290
  S     -3.291740   -0.416810   -1.752120
  C     -2.674200   -1.451210   -0.484920
  Cl    -3.708370   -2.343780    0.511910
  C     -1.313810   -1.392420   -0.443960
  C     -0.239930   -2.002940    0.343130
  O     -0.320890   -2.912380    1.132760
  C      1.016250   -1.366690   -0.179910
  C      0.684480   -0.519620   -1.312920
  C      1.537400    0.201910   -2.107180
  C      1.055920    1.007880   -3.160210
  N      0.683930    1.665000   -4.023970
  C      2.940840    0.226530   -1.992620
  N      4.086950    0.284790   -1.949940
  C      2.264890   -1.649170    0.280260
  C      2.530440   -2.272240    1.527010
  O      3.699350   -2.945410    1.701630
  C      1.851460   -2.267330    2.731660
  C      0.685740   -1.702380    3.435990
  O     -0.164060   -0.936510    3.067070
  N      0.812820   -2.208840    4.720800
  C      1.952370   -2.984950    4.956250
  O      2.239360   -3.479080    6.010030
  C      2.633120   -2.993840    3.652650
  C      3.772240   -3.412870    2.977720
  C      4.879840   -4.186990    3.399530
  C      5.935300   -4.439400    2.578630
  C      7.044990   -5.232150    2.954170
  N      8.137250   -5.455540    2.143350
  C      8.384930   -4.866430    0.850150
  C      8.843710   -3.414700    0.964060
  C      9.081190   -6.306730    2.749790
  O     10.121510   -6.646450    2.224450
  C      8.491680   -6.622520    4.030220
  C      7.253760   -5.949530    4.130250
  C      6.673140   -6.304280    5.407150
  O      5.630170   -5.987200    5.936280
  N      7.610280   -7.184640    5.997360
  C      7.359590   -7.677790    7.332920
  C      8.169740   -6.923090    8.382680
  C      8.698580   -7.378490    5.183780
  C      9.850370   -8.198920    5.348060
  C     10.166290   -9.024600    6.368210
  C     11.348730   -9.842040    6.414640
  C     12.426380   -9.753620    5.570750
  S     13.669780  -10.866610    5.951610
  C     12.775610  -11.485040    7.264490
  C     11.563020  -10.864630    7.408470
  C     10.603910  -11.217740    8.448470
  O      9.460210  -10.842530    8.531920
  O     11.162370  -12.052140    9.379840
  C     10.384040  -12.366670   10.439200
  C     10.861940  -12.924960   11.558600
  C     10.033190  -13.215480   12.687110
  C      8.878820  -12.624430   13.084340
  C      8.034570  -13.348790   14.093840
  O      8.376840  -14.291270   14.764730
  C      6.728320  -12.687480   14.023400
  C      5.487090  -12.858470   14.560700
  S      4.391480  -11.630290   13.972130
  C      5.625580  -10.894460   13.017440
  C      6.805250  -11.560680   13.140540
  C      8.166040  -11.427330   12.653660
  C      8.656070  -10.280310   12.090970
  C      7.819200   -9.192790   11.764590
  N      7.170880   -8.298950   11.452750
  C     10.005480  -10.011770   11.790620
  N     11.084210   -9.706950   11.543360
  Cl     4.973530  -14.051860   15.646740
  H     -1.581560    0.756430   -3.032890
  H      3.137930   -1.388790   -0.303930
  H      0.143360   -2.005960    5.449790
  H      4.842090   -4.572950    4.408920
  H      5.928600   -4.019680    1.582310
  H      7.485910   -4.943050    0.232050
  H      9.177260   -5.467090    0.394410
  H      8.088750   -2.803470    1.453530
  H      9.033480   -3.009870   -0.026020
  H      9.761860   -3.360720    1.543830
  H      7.548440   -8.752250    7.378120
  H      6.294300   -7.504960    7.513120
  H      9.238970   -7.038190    8.219170
  H      7.921920   -7.300500    9.371160
  H      7.924510   -5.864410    8.346170
  H     10.514240   -8.129980    4.495790
  H      9.516180   -9.134610    7.218730
  H     12.563330   -9.079100    4.749650
  H     13.173200  -12.278220    7.865450
  H      9.329730  -12.145390   10.306840
  H     11.902180  -13.210250   11.612600
  H     10.345560  -14.051510   13.305560
  H      5.389160  -10.031820   12.426550

 Total Charge           Charge          ....    0
 Multiplicity           Mult            ....    1
 Number of Electrons    NEL             ....  520
 Basis Dimension        Dim             .... 1115

ORBITAL ENERGIES
----------------

  NO   OCC          E(Eh)            E(eV)
   0   2.0000    -101.619706     -2765.2128
   1   2.0000    -101.614459     -2765.0700
   2   2.0000     -88.996205     -2421.7099
   3   2.0000     -88.991964     -2421.5944
   4   2.0000     -88.984583     -2421.3936
   5   2.0000     -19.318859      -525.6929
   6   2.0000     -19.306550      -525.3579
   7   2.0000     -19.240208      -523.5527
   8   2.0000     -19.221513      -523.0439
   9   2.0000     -19.218559      -522.9636
  10   2.0000     -19.213795      -522.8340
  11   2.0000     -19.211419      -522.7693
  12   2.0000     -19.193634      -522.2853
  13   2.0000     -19.184174      -522.0279
  14   2.0000     -14.455210      -393.3463
  15   2.0000     -14.451312      -393.2402
  16   2.0000     -14.449980      -393.2039
  17   2.0000     -14.426516      -392.5654
  18   2.0000     -14.426334      -392.5605
  19   2.0000     -14.422990      -392.4695
  20   2.0000     -14.420316      -392.3967
  21   2.0000     -10.437390      -284.0158
  22   2.0000     -10.402346      -283.0622
  23   2.0000     -10.401095      -283.0282
  24   2.0000     -10.378749      -282.4201
  25   2.0000     -10.378114      -282.4029
  26   2.0000     -10.376808      -282.3673
  27   2.0000     -10.373989      -282.2906
  28   2.0000     -10.373548      -282.2786
  29   2.0000     -10.371154      -282.2134
  30   2.0000     -10.369293      -282.1628
  31   2.0000     -10.367968      -282.1267
  32   2.0000     -10.367342      -282.1097
  33   2.0000     -10.355833      -281.7965
  34   2.0000     -10.352265      -281.6994
  35   2.0000     -10.349811      -281.6327
  36   2.0000     -10.348843      -281.6063
  37   2.0000     -10.339132      -281.3421
  38   2.0000     -10.337596      -281.3003
  39   2.0000     -10.332547      -281.1629
  40   2.0000     -10.329213      -281.0722
  41   2.0000     -10.328328      -281.0481
  42   2.0000     -10.328292      -281.0471
  43   2.0000     -10.327882      -281.0360
  44   2.0000     -10.327096      -281.0146
  45   2.0000     -10.325703      -280.9767
  46   2.0000     -10.325135      -280.9612
  47   2.0000     -10.322364      -280.8858
  48   2.0000     -10.316510      -280.7265
  49   2.0000     -10.313102      -280.6338
  50   2.0000     -10.312810      -280.6258
  51   2.0000     -10.311615      -280.5933
  52   2.0000     -10.308048      -280.4962
  53   2.0000     -10.307418      -280.4791
  54   2.0000     -10.306228      -280.4467
  55   2.0000     -10.305081      -280.4155
  56   2.0000     -10.304779      -280.4073
  57   2.0000     -10.303122      -280.3622
  58   2.0000     -10.302513      -280.3456
  59   2.0000     -10.298679      -280.2413
  60   2.0000     -10.298510      -280.2367
  61   2.0000     -10.298347      -280.2323
  62   2.0000     -10.297437      -280.2075
  63   2.0000     -10.295906      -280.1658
  64   2.0000     -10.292692      -280.0784
  65   2.0000     -10.289265      -279.9851
  66   2.0000     -10.262896      -279.2676
  67   2.0000     -10.261511      -279.2299
  68   2.0000     -10.257863      -279.1306
  69   2.0000     -10.245941      -278.8062
  70   2.0000      -9.574470      -260.5346
  71   2.0000      -9.569239      -260.3922
  72   2.0000      -8.091950      -220.1931
  73   2.0000      -8.087625      -220.0755
  74   2.0000      -8.080909      -219.8927
  75   2.0000      -7.345126      -199.8710
  76   2.0000      -7.339836      -199.7271
  77   2.0000      -7.334502      -199.5820
  78   2.0000      -7.333957      -199.5671
  79   2.0000      -7.329304      -199.4405
  80   2.0000      -7.328763      -199.4258
  81   2.0000      -6.061333      -164.9372
  82   2.0000      -6.057005      -164.8195
  83   2.0000      -6.056705      -164.8113
  84   2.0000      -6.054201      -164.7432
  85   2.0000      -6.052387      -164.6938
  86   2.0000      -6.049955      -164.6276
  87   2.0000      -6.049916      -164.6266
  88   2.0000      -6.045417      -164.5041
  89   2.0000      -6.043761      -164.4591
  90   2.0000      -1.236809       -33.6553
  91   2.0000      -1.234903       -33.6034
  92   2.0000      -1.158232       -31.5171
  93   2.0000      -1.140098       -31.0236
  94   2.0000      -1.139246       -31.0005
  95   2.0000      -1.139077       -30.9959
  96   2.0000      -1.133920       -30.8555
  97   2.0000      -1.132631       -30.8205
  98   2.0000      -1.123391       -30.5690
  99   2.0000      -1.060880       -28.8680
 100   2.0000      -1.051859       -28.6225
 101   2.0000      -1.044874       -28.4325
 102   2.0000      -1.041415       -28.3383
 103   2.0000      -1.036780       -28.2122
 104   2.0000      -1.023404       -27.8482
 105   2.0000      -1.018292       -27.7091
 106   2.0000      -1.009662       -27.4743
 107   2.0000      -1.005097       -27.3501
 108   2.0000      -1.000056       -27.2129
 109   2.0000      -0.991963       -26.9927
 110   2.0000      -0.988118       -26.8881
 111   2.0000      -0.959081       -26.0979
 112   2.0000      -0.955897       -26.0113
 113   2.0000      -0.937631       -25.5142
 114   2.0000      -0.930220       -25.3126
 115   2.0000      -0.929915       -25.3043
 116   2.0000      -0.924840       -25.1662
 117   2.0000      -0.912208       -24.8224
 118   2.0000      -0.910054       -24.7638
 119   2.0000      -0.908974       -24.7344
 120   2.0000      -0.896929       -24.4067
 121   2.0000      -0.885026       -24.0828
 122   2.0000      -0.870803       -23.6958
 123   2.0000      -0.852994       -23.2111
 124   2.0000      -0.851778       -23.1781
 125   2.0000      -0.841880       -22.9087
 126   2.0000      -0.835981       -22.7482
 127   2.0000      -0.831389       -22.6232
 128   2.0000      -0.814298       -22.1582
 129   2.0000      -0.808640       -22.0042
 130   2.0000      -0.798905       -21.7393
 131   2.0000      -0.785559       -21.3761
 132   2.0000      -0.775576       -21.1045
 133   2.0000      -0.767804       -20.8930
 134   2.0000      -0.765022       -20.8173
 135   2.0000      -0.758723       -20.6459
 136   2.0000      -0.754262       -20.5245
 137   2.0000      -0.751881       -20.4597
 138   2.0000      -0.742488       -20.2041
 139   2.0000      -0.716717       -19.5029
 140   2.0000      -0.709412       -19.3041
 141   2.0000      -0.706752       -19.2317
 142   2.0000      -0.702764       -19.1232
 143   2.0000      -0.699437       -19.0327
 144   2.0000      -0.694596       -18.9009
 145   2.0000      -0.689216       -18.7545
 146   2.0000      -0.680126       -18.5072
 147   2.0000      -0.678409       -18.4604
 148   2.0000      -0.677676       -18.4405
 149   2.0000      -0.675341       -18.3770
 150   2.0000      -0.665614       -18.1123
 151   2.0000      -0.658712       -17.9245
 152   2.0000      -0.645262       -17.5585
 153   2.0000      -0.637257       -17.3407
 154   2.0000      -0.628357       -17.0985
 155   2.0000      -0.622841       -16.9484
 156   2.0000      -0.621058       -16.8998
 157   2.0000      -0.615214       -16.7408
 158   2.0000      -0.612967       -16.6797
 159   2.0000      -0.605149       -16.4669
 160   2.0000      -0.599106       -16.3025
 161   2.0000      -0.598191       -16.2776
 162   2.0000      -0.594875       -16.1874
 163   2.0000      -0.590041       -16.0558
 164   2.0000      -0.588822       -16.0226
 165   2.0000      -0.588207       -16.0059
 166   2.0000      -0.582731       -15.8569
 167   2.0000      -0.579226       -15.7615
 168   2.0000      -0.572997       -15.5920
 169   2.0000      -0.569074       -15.4853
 170   2.0000      -0.561460       -15.2781
 171   2.0000      -0.559626       -15.2282
 172   2.0000      -0.553466       -15.0606
 173   2.0000      -0.550868       -14.9899
 174   2.0000      -0.547908       -14.9093
 175   2.0000      -0.545911       -14.8550
 176   2.0000      -0.545528       -14.8446
 177   2.0000      -0.544395       -14.8137
 178   2.0000      -0.538460       -14.6522
 179   2.0000      -0.537094       -14.6151
 180   2.0000      -0.534460       -14.5434
 181   2.0000      -0.531177       -14.4541
 182   2.0000      -0.527611       -14.3570
 183   2.0000      -0.526882       -14.3372
 184   2.0000      -0.526016       -14.3136
 185   2.0000      -0.519556       -14.1378
 186   2.0000      -0.518819       -14.1178
 187   2.0000      -0.517938       -14.0938
 188   2.0000      -0.514651       -14.0044
 189   2.0000      -0.510636       -13.8951
 190   2.0000      -0.509645       -13.8681
 191   2.0000      -0.508923       -13.8485
 192   2.0000      -0.506402       -13.7799
 193   2.0000      -0.505179       -13.7466
 194   2.0000      -0.504313       -13.7231
 195   2.0000      -0.499511       -13.5924
 196   2.0000      -0.498915       -13.5762
 197   2.0000      -0.498539       -13.5659
 198   2.0000      -0.495037       -13.4706
 199   2.0000      -0.491257       -13.3678
 200   2.0000      -0.489693       -13.3252
 201   2.0000      -0.487858       -13.2753
 202   2.0000      -0.485499       -13.2111
 203   2.0000      -0.479242       -13.0408
 204   2.0000      -0.476990       -12.9795
 205   2.0000      -0.474452       -12.9105
 206   2.0000      -0.473910       -12.8958
 207   2.0000      -0.472451       -12.8561
 208   2.0000      -0.467796       -12.7294
 209   2.0000      -0.465520       -12.6674
 210   2.0000      -0.461313       -12.5530
 211   2.0000      -0.458223       -12.4689
 212   2.0000      -0.457130       -12.4392
 213   2.0000      -0.454945       -12.3797
 214   2.0000      -0.454369       -12.3640
 215   2.0000      -0.452808       -12.3215
 216   2.0000      -0.450969       -12.2715
 217   2.0000      -0.448039       -12.1918
 218   2.0000      -0.447409       -12.1746
 219   2.0000      -0.446500       -12.1499
 220   2.0000      -0.442876       -12.0513
 221   2.0000      -0.442767       -12.0483
 222   2.0000      -0.440064       -11.9747
 223   2.0000      -0.439572       -11.9613
 224   2.0000      -0.437637       -11.9087
 225   2.0000      -0.434681       -11.8283
 226   2.0000      -0.432755       -11.7758
 227   2.0000      -0.432424       -11.7669
 228   2.0000      -0.431728       -11.7479
 229   2.0000      -0.425224       -11.5709
 230   2.0000      -0.422282       -11.4909
 231   2.0000      -0.418842       -11.3973
 232   2.0000      -0.416347       -11.3294
 233   2.0000      -0.415074       -11.2947
 234   2.0000      -0.411630       -11.2010
 235   2.0000      -0.405895       -11.0450
 236   2.0000      -0.400797       -10.9062
 237   2.0000      -0.393137       -10.6978
 238   2.0000      -0.389014       -10.5856
 239   2.0000      -0.386432       -10.5153
 240   2.0000      -0.384311       -10.4576
 241   2.0000      -0.380536       -10.3549
 242   2.0000      -0.372487       -10.1359
 243   2.0000      -0.363178        -9.8826
 244   2.0000      -0.355162        -9.6644
 245   2.0000      -0.346964        -9.4414
 246   2.0000      -0.346700        -9.4342
 247   2.0000      -0.346056        -9.4167
 248   2.0000      -0.344186        -9.3658
 249   2.0000      -0.340438        -9.2638
 250   2.0000      -0.337623        -9.1872
 251   2.0000      -0.333099        -9.0641
 252   2.0000      -0.329346        -8.9620
 253   2.0000      -0.321190        -8.7400
 254   2.0000      -0.313644        -8.5347
 255   2.0000      -0.313076        -8.5192
 256   2.0000      -0.310893        -8.4598
 257   2.0000      -0.304664        -8.2903
 258   2.0000      -0.291056        -7.9200
 259   2.0000      -0.235599        -6.4110
 260   0.0000      -0.110369        -3.0033
 261   0.0000      -0.097415        -2.6508
 262   0.0000      -0.082636        -2.2487
 263   0.0000      -0.052208        -1.4207
 264   0.0000      -0.051981        -1.4145

MULLIKEN ATOMIC CHARGES
-----------------------
   0 C :    0.035678
   1 C :   -0.132834
   2 S :    0.186401
   3 C :   -0.167607
   4 Cl:    0.001615
   5 C :    0.083193
   6 C :    0.159117
   7 O :   -0.131886
   8 C :   -0.089664
   9 C :    0.291250
  10 C :   -0.330701
  11 C :   -0.191583
  12 N :    0.155797
  13 C :   -0.186414
  14 N :    0.159805
  15 C :   -0.039554
  16 C :    0.126455
  17 O :   -0.204618
  18 C :   -0.024703
  19 C :    0.188139
  20 O :   -0.144706
  21 N :   -0.163478
  22 C :    0.170857
  23 O :   -0.115727
  24 C :   -0.035664
  25 C :    0.092492
  26 C :   -0.018658
  27 C :   -0.018616
  28 C :    0.138497
  29 N :   -0.262963
  30 C :    0.096051
  31 C :    0.004031
  32 C :    0.147971
  33 O :   -0.203780
  34 C :   -0.052232
  35 C :   -0.041251
  36 C :    0.156288
  37 O :   -0.186119
  38 N :   -0.261163
  39 C :    0.090260
  40 C :    0.002396
  41 C :    0.121706
  42 C :   -0.031238
  43 C :    0.009051
  44 C :    0.107762
  45 C :   -0.142604
  46 S :    0.168189
  47 C :   -0.081328
  48 C :   -0.011545
  49 C :    0.234903
  50 O :   -0.198507
  51 O :   -0.240312
  52 C :    0.162466
  53 C :    0.005346
  54 C :    0.032273
  55 C :   -0.130270
  56 C :    0.128324
  57 O :   -0.129258
  58 C :    0.094807
  59 C :   -0.172133
  60 S :    0.189654
  61 C :   -0.127409
  62 C :    0.005144
  63 C :    0.273838
  64 C :   -0.333578
  65 C :   -0.132637
  66 N :    0.130368
  67 C :   -0.207309
  68 N :    0.175622
  69 Cl:    0.000884
  70 H :    0.054787
  71 H :    0.031770
  72 H :    0.141143
  73 H :    0.037346
  74 H :   -0.006875
  75 H :    0.023930
  76 H :    0.043604
  77 H :    0.015382
  78 H :    0.026161
  79 H :    0.028787
  80 H :    0.034264
  81 H :    0.044992
  82 H :    0.013982
  83 H :    0.029513
  84 H :    0.019323
  85 H :   -0.002967
  86 H :    0.012891
  87 H :    0.050952
  88 H :    0.041653
  89 H :    0.060851
  90 H :    0.021902
  91 H :    0.035534
  92 H :    0.056500
Sum of atomic charges:   -0.0000000

LOEWDIN ATOMIC CHARGES
----------------------
   0 C :   -0.057933
   1 C :   -0.149527
   2 S :    0.476858
   3 C :   -0.270896
   4 Cl:    0.195009
   5 C :   -0.110790
   6 C :    0.085719
   7 O :   -0.124128
   8 C :   -0.065990
   9 C :    0.073725
  10 C :   -0.134208
  11 C :   -0.015457
  12 N :   -0.049854
  13 C :   -0.021803
  14 N :   -0.046645
  15 C :    0.045095
  16 C :    0.048035
  17 O :    0.019221
  18 C :   -0.051301
  19 C :    0.088070
  20 O :   -0.149875
  21 N :   -0.000836
  22 C :    0.087190
  23 O :   -0.136935
  24 C :   -0.087982
  25 C :    0.080423
  26 C :   -0.003495
  27 C :   -0.013588
  28 C :    0.064195
  29 N :   -0.004666
  30 C :    0.035681
  31 C :   -0.060679
  32 C :    0.075523
  33 O :   -0.207823
  34 C :   -0.120256
  35 C :   -0.108887
  36 C :    0.085115
  37 O :   -0.176779
  38 N :    0.000205
  39 C :    0.035189
  40 C :   -0.065351
  41 C :    0.083338
  42 C :   -0.027544
  43 C :    0.005707
  44 C :   -0.044318
  45 C :   -0.169016
  46 S :    0.496626
  47 C :   -0.143566
  48 C :   -0.109285
  49 C :    0.125572
  50 O :   -0.156737
  51 O :   -0.032511
  52 C :    0.112281
  53 C :   -0.073247
  54 C :    0.077578
  55 C :   -0.094327
  56 C :    0.080898
  57 O :   -0.133037
  58 C :   -0.118348
  59 C :   -0.272555
  60 S :    0.478458
  61 C :   -0.151363
  62 C :   -0.058298
  63 C :    0.067923
  64 C :   -0.138624
  65 C :   -0.005402
  66 N :   -0.050105
  67 C :   -0.018077
  68 N :   -0.042370
  69 Cl:    0.193124
  70 H :    0.037719
  71 H :    0.051971
  72 H :    0.096705
  73 H :    0.051241
  74 H :    0.033638
  75 H :    0.022635
  76 H :    0.037804
  77 H :    0.022143
  78 H :    0.031846
  79 H :    0.032015
  80 H :    0.024893
  81 H :    0.038293
  82 H :    0.019187
  83 H :    0.031720
  84 H :    0.029810
  85 H :    0.041243
  86 H :    0.031845
  87 H :    0.032211
  88 H :    0.032277
  89 H :    0.028037
  90 H :    0.043051
  91 H :    0.049056
  92 H :    0.038316

  Mayer bond orders larger than 0.100000
B(  0-C ,  1-C ) :   1.5391 B(  0-C ,  5-C ) :   1.2266 B(  0-C ,  9-C ) :   1.0040
B(  1-C ,  2-S ) :   1.1647 B(  1-C , 70-H ) :   0.9537 B(  2-S ,  3-C ) :   1.1482
B(  3-C ,  4-Cl) :   1.1301 B(  3-C ,  5-C ) :   1.4801 B(  5-C ,  6-C ) :   0.9465
B(  6-C ,  7-O ) :   2.2379 B(  6-C ,  8-C ) :   0.9198 B(  8-C ,  9-C ) :   1.0843
B(  8-C , 15-C ) :   1.6248 B(  9-C , 10-C ) :   1.6500 B( 10-C , 11-C ) :   1.1455
B( 10-C , 13-C ) :   1.1395 B( 11-C , 12-N ) :   2.9902 B( 13-C , 14-N ) :   2.9742
B( 15-C , 16-C ) :   1.1536 B( 15-C , 71-H ) :   0.9341 B( 16-C , 17-O ) :   1.1253
B( 16-C , 18-C ) :   1.4303 B( 17-O , 25-C ) :   1.1617 B( 18-C , 19-C ) :   0.8625
B( 18-C , 24-C ) :   1.3255 B( 19-C , 20-O ) :   2.2330 B( 19-C , 21-N ) :   1.0989
B( 21-N , 22-C ) :   1.0636 B( 21-N , 72-H ) :   0.9146 B( 22-C , 23-O ) :   2.2914
B( 22-C , 24-C ) :   0.8719 B( 24-C , 25-C ) :   1.3411 B( 25-C , 26-C ) :   1.1914
B( 26-C , 27-C ) :   1.5648 B( 26-C , 73-H ) :   0.9393 B( 27-C , 28-C ) :   1.1308
B( 27-C , 74-H ) :   0.9731 B( 28-C , 29-N ) :   1.1565 B( 28-C , 35-C ) :   1.3534
B( 29-N , 30-C ) :   0.9456 B( 29-N , 32-C ) :   1.0413 B( 30-C , 31-C ) :   1.1217
B( 30-C , 75-H ) :   0.9496 B( 30-C , 76-H ) :   0.9278 B( 31-C , 77-H ) :   0.9686
B( 31-C , 78-H ) :   0.9676 B( 31-C , 79-H ) :   0.9639 B( 32-C , 33-O ) :   2.1164
B( 32-C , 34-C ) :   0.9851 B( 34-C , 35-C ) :   1.2476 B( 34-C , 41-C ) :   1.3285
B( 35-C , 36-C ) :   0.9709 B( 36-C , 37-O ) :   2.0582 B( 36-C , 38-N ) :   1.0497
B( 38-N , 39-C ) :   0.9313 B( 38-N , 41-C ) :   1.1856 B( 39-C , 40-C ) :   1.1199
B( 39-C , 80-H ) :   0.9491 B( 39-C , 81-H ) :   0.9227 B( 40-C , 82-H ) :   0.9645
B( 40-C , 83-H ) :   0.9589 B( 40-C , 84-H ) :   0.9576 B( 41-C , 42-C ) :   1.1704
B( 42-C , 43-C ) :   1.6176 B( 42-C , 85-H ) :   0.9487 B( 43-C , 44-C ) :   1.0936
B( 43-C , 86-H ) :   0.9623 B( 44-C , 45-C ) :   1.5396 B( 44-C , 48-C ) :   1.2156
B( 45-C , 46-S ) :   1.1764 B( 45-C , 87-H ) :   0.9534 B( 46-S , 47-C ) :   1.2244
B( 47-C , 48-C ) :   1.5079 B( 47-C , 88-H ) :   0.9639 B( 48-C , 49-C ) :   0.9830
B( 49-C , 50-O ) :   2.0508 B( 49-C , 51-O ) :   1.1106 B( 51-O , 52-C ) :   1.0613
B( 52-C , 53-C ) :   1.6968 B( 52-C , 89-H ) :   0.9597 B( 53-C , 54-C ) :   1.1244
B( 53-C , 90-H ) :   0.9560 B( 54-C , 55-C ) :   1.7191 B( 54-C , 91-H ) :   0.9287
B( 55-C , 56-C ) :   0.9391 B( 55-C , 63-C ) :   1.0159 B( 56-C , 57-O ) :   2.2758
B( 56-C , 58-C ) :   0.9249 B( 58-C , 59-C ) :   1.4819 B( 58-C , 62-C ) :   1.2219
B( 59-C , 60-S ) :   1.1518 B( 59-C , 69-Cl) :   1.1303 B( 60-S , 61-C ) :   1.1634
B( 61-C , 62-C ) :   1.5475 B( 61-C , 92-H ) :   0.9562 B( 62-C , 63-C ) :   1.0138
B( 63-C , 64-C ) :   1.6612 B( 64-C , 65-C ) :   1.1427 B( 64-C , 67-C ) :   1.1683
B( 65-C , 66-N ) :   2.8876 B( 67-C , 68-N ) :   2.9699

-----------------------------------------------------------------------------
         ABSORPTION SPECTRUM VIA TRANSITION ELECTRIC DIPOLE MOMENTS
-----------------------------------------------------------------------------
State   Energy  Wavelength   fosc         T2         TX        TY        TZ
        (cm-1)    (nm)                  (au**2)     (au)      (au)      (au)
-----------------------------------------------------------------------------
   0   13319.0    750.8   0.932209894  23.04189   2.82437  -2.75105   2.73798
   1   18646.9    536.3   0.039636938   0.69979  -0.40059   0.68790  -0.25713
   2   19197.7    520.9   0.015133795   0.25952   0.36934  -0.34462  -0.06590
   3   22563.4    443.2   0.272568087   3.97691   0.97099  -1.04171   1.39604
   4   25256.2    395.9   0.187974736   2.45023   0.85144  -0.78651  -1.05199
   5   25487.5    392.3   0.023281837   0.30072   0.31288  -0.43303   0.12374
   6   26442.8    378.2   0.062521803   0.77839  -0.40753   0.53750  -0.56869
   7   26876.1    372.1   0.148226287   1.81566   0.79982  -0.80769   0.72359
   8   27388.3    365.1   0.020966245   0.25202   0.22646   0.01078  -0.44790
   9   27848.3    359.1   0.004806494   0.05682   0.21183   0.01065   0.10879
  10   28224.5    354.3   0.163287452   1.90459  -1.34452   0.26934  -0.15590
  11   29114.7    343.5   0.034142422   0.38606   0.25049  -0.49918   0.27228
  12   29269.5    341.7   0.068246487   0.76761  -0.75216  -0.31627   0.31913
  13   29718.3    336.5   0.314984112   3.48931   1.55223  -0.53611  -0.89021
  14   30029.0    333.0   0.016405930   0.17986   0.35217  -0.23381  -0.03417
  15   30417.0    328.8   0.094516295   1.02298   0.96039  -0.31331   0.04956
  16   30715.3    325.6   0.104660206   1.12176   0.77572  -0.51065   0.50918
  17   30996.8    322.6   0.104648205   1.11145  -0.72201  -0.59214   0.48941
  18   31470.4    317.8   0.006057037   0.06336  -0.15567   0.19481  -0.03434
  19   31652.0    315.9   0.012872914   0.13389  -0.30066   0.19136  -0.08294
  20   32724.4    305.6   0.000354178   0.00356  -0.03095   0.05077  -0.00531
  21   33339.7    299.9   0.024437930   0.24131   0.46848   0.14593  -0.02336
  22   33644.2    297.2   0.086029079   0.84180  -0.88861  -0.07228   0.21667
  23   33846.1    295.5   0.041433996   0.40302  -0.34035  -0.38293   0.37489
  24   34349.0    291.1   0.006564611   0.06292   0.17085  -0.15112   0.10435
  25   34466.2    290.1   0.006368230   0.06083   0.03592   0.03102  -0.24202
  26   34838.9    287.0   0.055567279   0.52509  -0.46554   0.55512  -0.01404
  27   35314.3    283.2   0.006697421   0.06244   0.01519  -0.11606  -0.22076
  28   35926.7    278.3   0.054294947   0.49753  -0.17599  -0.13052   0.67046
  29   36168.7    276.5   0.020410422   0.18578   0.22107   0.17839  -0.32416
  30   36506.7    273.9   0.196140059   1.76876   0.15644   0.57828  -1.18738
  31   36737.1    272.2   0.627500871   5.62322  -2.00129  -0.87227   0.92584
  32   36942.2    270.7   0.100953919   0.89965   0.81700  -0.40761  -0.25693
  33   37444.0    267.1   0.249334420   2.19218   1.31378  -0.65163   0.20383
  34   37544.3    266.4   0.090584940   0.79431   0.17809  -0.77138  -0.40934
  35   37690.7    265.3   0.018322633   0.16004  -0.33161  -0.20009   0.10020
  36   37792.3    264.6   0.516976561   4.50343  -1.83390  -0.30485   1.02338
  37   37904.4    263.8   0.152123336   1.32124  -1.03327  -0.12276   0.48838
  38   38032.2    262.9   0.029843415   0.25833  -0.33466  -0.34070   0.17395
  39   38181.3    261.9   0.115423160   0.99522   0.27710   0.81173  -0.50944
  40   38443.3    260.1   0.024151052   0.20682   0.04174  -0.13086   0.43353
  41   38618.5    258.9   0.177088160   1.50963   0.99631   0.52815  -0.48789
  42   39279.5    254.6   0.001089330   0.00913  -0.07927  -0.02674  -0.04617
  43   39670.9    252.1   0.012205910   0.10129  -0.30191   0.09932  -0.01666
  44   39787.7    251.3   0.000249300   0.00206  -0.01247  -0.03514   0.02593
  45   40021.2    249.9   0.050974610   0.41931  -0.55866   0.28128   0.16762
  46   40056.2    249.6   0.063637678   0.52302  -0.64963  -0.17296   0.26661
  47   40102.9    249.4   0.020617087   0.16925   0.36020  -0.07750   0.18303

FINAL SINGLE POINT ENERGY     -5051.947380823789

DIPOLE MOMENT
-------------
                                X             Y             Z
Electronic contribution:    -61.59726      -2.34646      11.99882
Nuclear contribution   :     61.83601      -0.23984     -11.19578
                        -----------------------------------------
Total Dipole Moment    :      0.23876      -2.58630       0.80304
                        -----------------------------------------
Magnitude (a.u.)       :      2.71861
Magnitude (Debye)      :      6.91015

Rotational constants in cm-1:     0.001350     0.000265     0.000227
Rotational constants in MHz :    40.482297     7.943966     6.817575

                             ****ORCA TERMINATED NORMALLY****
TOTAL RUN TIME: 0 days 0 hours 8 minutes 25 seconds 373 msec
