                         Program Version 4.2.0 -  RELEASE  -
|  1> # ORCA input file
|  2> # SCF done       -155.460455167247          0.000326981906
|  3> ! CAM-B3LYP def2-SVP def2/J RIJCOSX Grid4 TightSCF
|  4> %maxcore 5000
|  5> %tddft
|  6>     Mode sTDDFT
|  7>     Ethresh 5.0
|  8>     maxcore 5000
|  9> end
| 10>
| 11> %pal
| 12>   nprocs 6
| 13>   end
| 14> * xyz 0 1
| 15>    C        9.16883         4.04866        -3.04062
| 16>    C        9.37541         5.34669        -3.39341
| 17>    S        9.48102         5.51757        -5.10674
| 18>    C        9.24140         3.80485        -5.35866
| 19>   Cl        9.21400         3.13604        -6.91419
| 20>    C        9.09036         3.16408        -4.16441
| 21>    C        8.86553         1.78751        -3.71239
| 22>    O        8.75672         0.79581        -4.39381
| 23>    C        8.87396         1.87882        -2.21410
| 24>    C        8.99606         3.28195        -1.82567
| 25>    C        8.90075         3.81311        -0.56930
| 26>    C        9.01966         5.20289        -0.35087
| 27>    N        9.11833         6.32957        -0.16092
| 28>    C        8.65224         3.08319         0.61125
| 29>    N        8.43682         2.54482         1.60168
| 30>    C        8.97335         0.82709        -1.36662
| 31>    C        8.81848        -0.57172        -1.69062
| 32>    C        9.66139        -1.50138        -1.07767
| 33>    C        9.56605        -2.84654        -1.37779
| 34>    N       10.61094        -3.69109        -0.85221
| 35>    O       10.91957        -3.53692         0.31041
| 36>    O       11.14306        -4.46970        -1.61374
| 37>    C        8.55942        -3.34577        -2.22642
| 38>    C        7.71702        -2.39596        -2.82354
| 39>    C        7.84173        -1.04984        -2.57455
| 40>    C        8.30815        -4.74429        -2.45119
| 41>    C        8.58478        -5.74831        -1.59013
| 42>    C        8.32161        -7.11624        -1.83857
| 43>    S        7.52935        -7.70327        -3.27978
| 44>    C        7.64608        -9.37871        -2.81120
| 45>    C        8.27777        -9.47895        -1.57364
| 46>    C        8.64338        -8.20376        -1.04147
| 47>    N        9.23916        -8.39479         0.16222
| 48>    C        9.25615        -9.75093         0.42036
| 49>    C        9.80735       -10.27183         1.60067
| 50>    N       10.25585       -10.70316         2.56407
| 51>    C        8.67190       -10.44575        -0.61610
| 52>    C        7.11786       -10.40450        -3.64655
| 53>    C        7.45687       -11.76454        -3.51259
| 54>    N        6.91760       -12.70178        -4.25046
| 55>    C        5.98908       -12.34235        -5.13774
| 56>    N        5.65341       -11.07488        -5.40627
| 57>    C        6.21716       -10.13398        -4.69324
| 58>    C        5.37495       -13.39948        -5.90547
| 59>    C        4.17787       -13.37448        -6.52743
| 60>    C        3.87176       -14.39712        -7.58622
| 61>    O        4.47364       -15.42075        -7.79060
| 62>    C        2.73530       -13.82572        -8.31712
| 63>    C        2.00303       -14.13280        -9.42568
| 64>    S        0.75959       -12.93325        -9.68897
| 65>    C        1.23535       -12.03785        -8.29247
| 66>    C        2.29235       -12.62422        -7.66948
| 67>    C        3.08963       -12.40663        -6.47829
| 68>    C        2.73017       -11.59937        -5.43718
| 69>    C        1.60765       -10.74836        -5.52130
| 70>    N        0.70815       -10.03915        -5.58306
| 71>    C        3.35294       -11.57861        -4.17251
| 72>    N        3.76752       -11.55411        -3.10262
| 73>   Cl        2.18608       -15.45687       -10.46501
| 74>    H        9.47863         6.21271        -2.77016
| 75>    H        9.24221         1.02580        -0.33555
| 76>    H       10.43950        -1.17153        -0.40408
| 77>    H        6.93541        -2.74512        -3.48076
| 78>    H        7.15571        -0.35859        -3.03481
| 79>    H        7.79462        -4.98699        -3.37237
| 80>    H        9.02012        -5.54523        -0.62029
| 81>    H        9.63045        -7.68948         0.76393
| 82>    H        8.54081       -11.50779        -0.65291
| 83>    H        8.20919       -12.08996        -2.80854
| 84>    H        5.93734        -9.11542        -4.93564
| 85>    H        5.97962       -14.28983        -6.03243
| 86>    H        0.70875       -11.13991        -8.03665
| 87> *
| 88>
| 89>                          ****END OF INPUT****

CARTESIAN COORDINATES (ANGSTROEM)
---------------------------------
  C      9.168830    4.048660   -3.040620
  C      9.375410    5.346690   -3.393410
  S      9.481020    5.517570   -5.106740
  C      9.241400    3.804850   -5.358660
  Cl     9.214000    3.136040   -6.914190
  C      9.090360    3.164080   -4.164410
  C      8.865530    1.787510   -3.712390
  O      8.756720    0.795810   -4.393810
  C      8.873960    1.878820   -2.214100
  C      8.996060    3.281950   -1.825670
  C      8.900750    3.813110   -0.569300
  C      9.019660    5.202890   -0.350870
  N      9.118330    6.329570   -0.160920
  C      8.652240    3.083190    0.611250
  N      8.436820    2.544820    1.601680
  C      8.973350    0.827090   -1.366620
  C      8.818480   -0.571720   -1.690620
  C      9.661390   -1.501380   -1.077670
  C      9.566050   -2.846540   -1.377790
  N     10.610940   -3.691090   -0.852210
  O     10.919570   -3.536920    0.310410
  O     11.143060   -4.469700   -1.613740
  C      8.559420   -3.345770   -2.226420
  C      7.717020   -2.395960   -2.823540
  C      7.841730   -1.049840   -2.574550
  C      8.308150   -4.744290   -2.451190
  C      8.584780   -5.748310   -1.590130
  C      8.321610   -7.116240   -1.838570
  S      7.529350   -7.703270   -3.279780
  C      7.646080   -9.378710   -2.811200
  C      8.277770   -9.478950   -1.573640
  C      8.643380   -8.203760   -1.041470
  N      9.239160   -8.394790    0.162220
  C      9.256150   -9.750930    0.420360
  C      9.807350  -10.271830    1.600670
  N     10.255850  -10.703160    2.564070
  C      8.671900  -10.445750   -0.616100
  C      7.117860  -10.404500   -3.646550
  C      7.456870  -11.764540   -3.512590
  N      6.917600  -12.701780   -4.250460
  C      5.989080  -12.342350   -5.137740
  N      5.653410  -11.074880   -5.406270
  C      6.217160  -10.133980   -4.693240
  C      5.374950  -13.399480   -5.905470
  C      4.177870  -13.374480   -6.527430
  C      3.871760  -14.397120   -7.586220
  O      4.473640  -15.420750   -7.790600
  C      2.735300  -13.825720   -8.317120
  C      2.003030  -14.132800   -9.425680
  S      0.759590  -12.933250   -9.688970
  C      1.235350  -12.037850   -8.292470
  C      2.292350  -12.624220   -7.669480
  C      3.089630  -12.406630   -6.478290
  C      2.730170  -11.599370   -5.437180
  C      1.607650  -10.748360   -5.521300
  N      0.708150  -10.039150   -5.583060
  C      3.352940  -11.578610   -4.172510
  N      3.767520  -11.554110   -3.102620
  Cl     2.186080  -15.456870  -10.465010
  H      9.478630    6.212710   -2.770160
  H      9.242210    1.025800   -0.335550
  H     10.439500   -1.171530   -0.404080
  H      6.935410   -2.745120   -3.480760
  H      7.155710   -0.358590   -3.034810
  H      7.794620   -4.986990   -3.372370
  H      9.020120   -5.545230   -0.620290
  H      9.630450   -7.689480    0.763930
  H      8.540810  -11.507790   -0.652910
  H      8.209190  -12.089960   -2.808540
  H      5.937340   -9.115420   -4.935640
  H      5.979620  -14.289830   -6.032430
  H      0.708750  -11.139910   -8.036650

 Total Charge           Charge          ....    0
 Multiplicity           Mult            ....    1
 Number of Electrons    NEL             ....  436
 Basis Dimension        Dim             ....  911

ORBITAL ENERGIES
----------------

  NO   OCC          E(Eh)            E(eV)
   0   2.0000    -101.625465     -2765.3695
   1   2.0000    -101.618861     -2765.1898
   2   2.0000     -89.002484     -2421.8807
   3   2.0000     -88.995289     -2421.6849
   4   2.0000     -88.983548     -2421.3654
   5   2.0000     -19.257433      -524.0214
   6   2.0000     -19.255826      -523.9777
   7   2.0000     -19.231962      -523.3283
   8   2.0000     -19.222471      -523.0700
   9   2.0000     -14.660367      -398.9289
  10   2.0000     -14.491301      -394.3283
  11   2.0000     -14.431855      -392.7107
  12   2.0000     -14.429176      -392.6378
  13   2.0000     -14.428714      -392.6253
  14   2.0000     -14.428114      -392.6089
  15   2.0000     -14.426064      -392.5532
  16   2.0000     -14.423158      -392.4741
  17   2.0000     -14.420590      -392.4042
  18   2.0000     -10.389693      -282.7179
  19   2.0000     -10.385095      -282.5928
  20   2.0000     -10.378694      -282.4186
  21   2.0000     -10.378103      -282.4025
  22   2.0000     -10.362615      -281.9811
  23   2.0000     -10.359902      -281.9073
  24   2.0000     -10.358020      -281.8560
  25   2.0000     -10.357394      -281.8390
  26   2.0000     -10.350672      -281.6561
  27   2.0000     -10.349290      -281.6185
  28   2.0000     -10.342547      -281.4350
  29   2.0000     -10.339584      -281.3544
  30   2.0000     -10.339039      -281.3396
  31   2.0000     -10.338261      -281.3184
  32   2.0000     -10.338063      -281.3130
  33   2.0000     -10.333409      -281.1863
  34   2.0000     -10.333395      -281.1860
  35   2.0000     -10.330550      -281.1085
  36   2.0000     -10.330492      -281.1070
  37   2.0000     -10.329824      -281.0888
  38   2.0000     -10.325670      -280.9758
  39   2.0000     -10.325266      -280.9648
  40   2.0000     -10.324711      -280.9497
  41   2.0000     -10.324557      -280.9455
  42   2.0000     -10.323569      -280.9186
  43   2.0000     -10.321491      -280.8620
  44   2.0000     -10.320019      -280.8220
  45   2.0000     -10.318956      -280.7931
  46   2.0000     -10.316041      -280.7137
  47   2.0000     -10.315926      -280.7106
  48   2.0000     -10.314911      -280.6830
  49   2.0000     -10.313456      -280.6434
  50   2.0000     -10.313226      -280.6371
  51   2.0000     -10.310852      -280.5726
  52   2.0000     -10.309033      -280.5231
  53   2.0000     -10.306431      -280.4522
  54   2.0000     -10.305120      -280.4166
  55   2.0000     -10.303053      -280.3603
  56   2.0000     -10.302439      -280.3436
  57   2.0000     -10.300300      -280.2854
  58   2.0000     -10.297952      -280.2215
  59   2.0000      -9.580253      -260.6919
  60   2.0000      -9.573634      -260.5118
  61   2.0000      -8.098160      -220.3621
  62   2.0000      -8.090993      -220.1671
  63   2.0000      -8.078072      -219.8155
  64   2.0000      -7.350909      -200.0284
  65   2.0000      -7.344263      -199.8475
  66   2.0000      -7.340277      -199.7391
  67   2.0000      -7.339733      -199.7243
  68   2.0000      -7.333686      -199.5597
  69   2.0000      -7.333123      -199.5444
  70   2.0000      -6.067535      -165.1060
  71   2.0000      -6.062892      -164.9797
  72   2.0000      -6.060457      -164.9134
  73   2.0000      -6.060356      -164.9107
  74   2.0000      -6.055760      -164.7856
  75   2.0000      -6.053274      -164.7180
  76   2.0000      -6.047396      -164.5580
  77   2.0000      -6.043291      -164.4463
  78   2.0000      -6.040261      -164.3639
  79   2.0000      -1.337244       -36.3883
  80   2.0000      -1.155360       -31.4389
  81   2.0000      -1.149781       -31.2871
  82   2.0000      -1.139851       -31.0169
  83   2.0000      -1.115044       -30.3419
  84   2.0000      -1.103397       -30.0250
  85   2.0000      -1.047139       -28.4941
  86   2.0000      -1.039757       -28.2932
  87   2.0000      -1.025865       -27.9152
  88   2.0000      -1.019249       -27.7352
  89   2.0000      -1.009406       -27.4673
  90   2.0000      -1.006994       -27.4017
  91   2.0000      -1.004885       -27.3443
  92   2.0000      -1.001967       -27.2649
  93   2.0000      -0.999088       -27.1866
  94   2.0000      -0.996138       -27.1063
  95   2.0000      -0.995850       -27.0984
  96   2.0000      -0.989761       -26.9328
  97   2.0000      -0.964282       -26.2394
  98   2.0000      -0.956713       -26.0335
  99   2.0000      -0.943181       -25.6653
 100   2.0000      -0.931987       -25.3607
 101   2.0000      -0.918041       -24.9812
 102   2.0000      -0.913690       -24.8628
 103   2.0000      -0.907690       -24.6995
 104   2.0000      -0.905662       -24.6443
 105   2.0000      -0.889810       -24.2130
 106   2.0000      -0.880176       -23.9508
 107   2.0000      -0.862845       -23.4792
 108   2.0000      -0.856152       -23.2971
 109   2.0000      -0.841506       -22.8985
 110   2.0000      -0.834386       -22.7048
 111   2.0000      -0.825527       -22.4637
 112   2.0000      -0.806187       -21.9375
 113   2.0000      -0.799289       -21.7498
 114   2.0000      -0.782448       -21.2915
 115   2.0000      -0.771393       -20.9907
 116   2.0000      -0.763935       -20.7877
 117   2.0000      -0.762821       -20.7574
 118   2.0000      -0.753559       -20.5054
 119   2.0000      -0.743182       -20.2230
 120   2.0000      -0.732402       -19.9297
 121   2.0000      -0.721153       -19.6236
 122   2.0000      -0.712039       -19.3756
 123   2.0000      -0.696246       -18.9458
 124   2.0000      -0.694682       -18.9032
 125   2.0000      -0.687538       -18.7089
 126   2.0000      -0.685423       -18.6513
 127   2.0000      -0.677752       -18.4426
 128   2.0000      -0.677205       -18.4277
 129   2.0000      -0.667971       -18.1764
 130   2.0000      -0.657712       -17.8973
 131   2.0000      -0.650447       -17.6996
 132   2.0000      -0.640559       -17.4305
 133   2.0000      -0.635710       -17.2985
 134   2.0000      -0.625504       -17.0208
 135   2.0000      -0.622948       -16.9513
 136   2.0000      -0.619361       -16.8537
 137   2.0000      -0.615031       -16.7358
 138   2.0000      -0.611911       -16.6509
 139   2.0000      -0.610235       -16.6053
 140   2.0000      -0.604326       -16.4446
 141   2.0000      -0.594194       -16.1689
 142   2.0000      -0.589335       -16.0366
 143   2.0000      -0.578653       -15.7459
 144   2.0000      -0.572262       -15.5720
 145   2.0000      -0.569765       -15.5041
 146   2.0000      -0.561682       -15.2841
 147   2.0000      -0.560527       -15.2527
 148   2.0000      -0.557488       -15.1700
 149   2.0000      -0.552484       -15.0339
 150   2.0000      -0.549720       -14.9586
 151   2.0000      -0.545029       -14.8310
 152   2.0000      -0.544602       -14.8194
 153   2.0000      -0.543243       -14.7824
 154   2.0000      -0.539726       -14.6867
 155   2.0000      -0.535347       -14.5675
 156   2.0000      -0.534068       -14.5327
 157   2.0000      -0.530248       -14.4288
 158   2.0000      -0.528848       -14.3907
 159   2.0000      -0.524589       -14.2748
 160   2.0000      -0.521100       -14.1798
 161   2.0000      -0.515350       -14.0234
 162   2.0000      -0.513277       -13.9670
 163   2.0000      -0.506108       -13.7719
 164   2.0000      -0.504760       -13.7352
 165   2.0000      -0.500099       -13.6084
 166   2.0000      -0.498120       -13.5545
 167   2.0000      -0.494463       -13.4550
 168   2.0000      -0.491405       -13.3718
 169   2.0000      -0.489303       -13.3146
 170   2.0000      -0.488456       -13.2916
 171   2.0000      -0.482690       -13.1347
 172   2.0000      -0.477570       -12.9953
 173   2.0000      -0.472220       -12.8498
 174   2.0000      -0.467294       -12.7157
 175   2.0000      -0.461026       -12.5451
 176   2.0000      -0.459717       -12.5095
 177   2.0000      -0.458350       -12.4723
 178   2.0000      -0.456332       -12.4174
 179   2.0000      -0.454600       -12.3703
 180   2.0000      -0.453124       -12.3301
 181   2.0000      -0.452757       -12.3201
 182   2.0000      -0.448930       -12.2160
 183   2.0000      -0.446526       -12.1506
 184   2.0000      -0.443880       -12.0786
 185   2.0000      -0.441426       -12.0118
 186   2.0000      -0.440043       -11.9742
 187   2.0000      -0.437798       -11.9131
 188   2.0000      -0.437220       -11.8974
 189   2.0000      -0.435684       -11.8556
 190   2.0000      -0.435173       -11.8417
 191   2.0000      -0.431423       -11.7396
 192   2.0000      -0.426155       -11.5963
 193   2.0000      -0.423092       -11.5129
 194   2.0000      -0.419254       -11.4085
 195   2.0000      -0.412014       -11.2115
 196   2.0000      -0.411513       -11.1978
 197   2.0000      -0.405027       -11.0213
 198   2.0000      -0.403664       -10.9842
 199   2.0000      -0.399598       -10.8736
 200   2.0000      -0.399518       -10.8714
 201   2.0000      -0.398046       -10.8314
 202   2.0000      -0.394520       -10.7354
 203   2.0000      -0.384277       -10.4567
 204   2.0000      -0.377966       -10.2850
 205   2.0000      -0.362261        -9.8576
 206   2.0000      -0.359220        -9.7749
 207   2.0000      -0.347000        -9.4424
 208   2.0000      -0.346858        -9.4385
 209   2.0000      -0.345114        -9.3910
 210   2.0000      -0.342374        -9.3165
 211   2.0000      -0.338338        -9.2067
 212   2.0000      -0.332432        -9.0459
 213   2.0000      -0.327100        -8.9009
 214   2.0000      -0.319777        -8.7016
 215   2.0000      -0.311690        -8.4815
 216   2.0000      -0.307570        -8.3694
 217   2.0000      -0.256449        -6.9783
 218   0.0000      -0.110104        -2.9961
 219   0.0000      -0.099313        -2.7024
 220   0.0000      -0.073908        -2.0111
 221   0.0000      -0.060035        -1.6336
 222   0.0000      -0.052011        -1.4153

MULLIKEN ATOMIC CHARGES
-----------------------
   0 C :    0.033001
   1 C :   -0.127163
   2 S :    0.193061
   3 C :   -0.168396
   4 Cl:    0.002900
   5 C :    0.070886
   6 C :    0.145606
   7 O :   -0.126151
   8 C :   -0.089745
   9 C :    0.276468
  10 C :   -0.314876
  11 C :   -0.192924
  12 N :    0.160200
  13 C :   -0.200503
  14 N :    0.171915
  15 C :   -0.032251
  16 C :    0.048163
  17 C :   -0.014700
  18 C :    0.086092
  19 N :    0.215214
  20 O :   -0.235294
  21 O :   -0.217436
  22 C :    0.127757
  23 C :   -0.049762
  24 C :    0.109697
  25 C :   -0.038486
  26 C :    0.028748
  27 C :   -0.150279
  28 S :    0.137862
  29 C :   -0.125726
  30 C :    0.130033
  31 C :    0.110976
  32 N :   -0.031986
  33 C :   -0.093397
  34 C :   -0.147248
  35 N :    0.177609
  36 C :   -0.035836
  37 C :    0.055008
  38 C :    0.020709
  39 N :   -0.032402
  40 C :   -0.089180
  41 N :   -0.068360
  42 C :    0.024955
  43 C :    0.092171
  44 C :   -0.108786
  45 C :    0.132015
  46 O :   -0.118230
  47 C :    0.086516
  48 C :   -0.171792
  49 S :    0.186968
  50 C :   -0.127696
  51 C :    0.017918
  52 C :    0.293095
  53 C :   -0.295363
  54 C :   -0.197656
  55 N :    0.156069
  56 C :   -0.180579
  57 N :    0.157655
  58 Cl:    0.002192
  59 H :    0.056948
  60 H :    0.040024
  61 H :    0.003143
  62 H :   -0.008936
  63 H :   -0.002203
  64 H :   -0.001181
  65 H :   -0.005994
  66 H :    0.139555
  67 H :   -0.000265
  68 H :    0.004947
  69 H :    0.015643
  70 H :    0.036132
  71 H :    0.052929
Sum of atomic charges:    0.0000000

LOEWDIN ATOMIC CHARGES
----------------------
   0 C :   -0.060004
   1 C :   -0.147690
   2 S :    0.482282
   3 C :   -0.271310
   4 Cl:    0.194749
   5 C :   -0.118024
   6 C :    0.080643
   7 O :   -0.123903
   8 C :   -0.081998
   9 C :    0.073069
  10 C :   -0.130407
  11 C :   -0.015674
  12 N :   -0.045694
  13 C :   -0.026614
  14 N :   -0.039025
  15 C :    0.078210
  16 C :   -0.042003
  17 C :    0.023452
  18 C :   -0.030378
  19 N :    0.278104
  20 O :   -0.203321
  21 O :   -0.191654
  22 C :    0.009678
  23 C :   -0.009956
  24 C :    0.041431
  25 C :   -0.042355
  26 C :   -0.011323
  27 C :   -0.201598
  28 S :    0.467560
  29 C :   -0.164909
  30 C :   -0.057777
  31 C :    0.004568
  32 N :    0.075442
  33 C :   -0.017255
  34 C :   -0.044652
  35 N :   -0.027243
  36 C :   -0.033628
  37 C :   -0.063659
  38 C :    0.055487
  39 N :   -0.056405
  40 C :    0.009434
  41 N :   -0.062765
  42 C :    0.049562
  43 C :    0.064225
  44 C :   -0.058385
  45 C :    0.081680
  46 O :   -0.123743
  47 C :   -0.118746
  48 C :   -0.272329
  49 S :    0.476597
  50 C :   -0.152745
  51 C :   -0.055310
  52 C :    0.074578
  53 C :   -0.118552
  54 C :   -0.015477
  55 N :   -0.049563
  56 C :   -0.017744
  57 N :   -0.051720
  58 Cl:    0.193744
  59 H :    0.038855
  60 H :    0.049174
  61 H :    0.043086
  62 H :    0.036767
  63 H :    0.037149
  64 H :    0.027563
  65 H :    0.028683
  66 H :    0.101380
  67 H :    0.037605
  68 H :    0.027415
  69 H :    0.021173
  70 H :    0.054591
  71 H :    0.037599

  Mayer bond orders larger than 0.100000
B(  0-C ,  1-C ) :   1.5419 B(  0-C ,  5-C ) :   1.2200 B(  0-C ,  9-C ) :   1.0062
B(  1-C ,  2-S ) :   1.1646 B(  1-C , 59-H ) :   0.9546 B(  2-S ,  3-C ) :   1.1545
B(  3-C ,  4-Cl) :   1.1306 B(  3-C ,  5-C ) :   1.4749 B(  5-C ,  6-C ) :   0.9539
B(  6-C ,  7-O ) :   2.2418 B(  6-C ,  8-C ) :   0.9228 B(  8-C ,  9-C ) :   1.0425
B(  8-C , 15-C ) :   1.6950 B(  9-C , 10-C ) :   1.6778 B( 10-C , 11-C ) :   1.1411
B( 10-C , 13-C ) :   1.1326 B( 11-C , 12-N ) :   2.9947 B( 13-C , 14-N ) :   2.9937
B( 15-C , 16-C ) :   1.0567 B( 15-C , 60-H ) :   0.9504 B( 16-C , 17-C ) :   1.2920
B( 16-C , 24-C ) :   1.3353 B( 17-C , 18-C ) :   1.4079 B( 17-C , 61-H ) :   0.9979
B( 18-C , 19-N ) :   0.8515 B( 18-C , 22-C ) :   1.3388 B( 19-N , 20-O ) :   1.5258
B( 19-N , 21-O ) :   1.5515 B( 20-O , 21-O ) :   0.2724 B( 22-C , 23-C ) :   1.3179
B( 22-C , 25-C ) :   1.0943 B( 23-C , 24-C ) :   1.4154 B( 23-C , 62-H ) :   0.9957
B( 24-C , 63-H ) :   0.9832 B( 25-C , 26-C ) :   1.6648 B( 25-C , 64-H ) :   0.9632
B( 26-C , 27-C ) :   1.2045 B( 26-C , 65-H ) :   0.9625 B( 27-C , 28-S ) :   1.0911
B( 27-C , 29-C ) :   0.1141 B( 27-C , 31-C ) :   1.3838 B( 28-S , 29-C ) :   1.1470
B( 29-C , 30-C ) :   1.3534 B( 29-C , 37-C ) :   1.1107 B( 30-C , 31-C ) :   1.2202
B( 30-C , 36-C ) :   1.1576 B( 31-C , 32-N ) :   1.1834 B( 32-N , 33-C ) :   1.2001
B( 32-N , 66-H ) :   0.9328 B( 33-C , 34-C ) :   1.0539 B( 33-C , 36-C ) :   1.5986
B( 34-C , 35-N ) :   3.0582 B( 36-C , 67-H ) :   1.0084 B( 37-C , 38-C ) :   1.2984
B( 37-C , 42-C ) :   1.2846 B( 38-C , 39-N ) :   1.5800 B( 38-C , 68-H ) :   0.9872
B( 39-N , 40-C ) :   1.5024 B( 40-C , 41-N ) :   1.4620 B( 40-C , 43-C ) :   1.0077
B( 41-N , 42-C ) :   1.5798 B( 42-C , 69-H ) :   0.9822 B( 43-C , 44-C ) :   1.7270
B( 43-C , 70-H ) :   0.9490 B( 44-C , 45-C ) :   0.9226 B( 44-C , 52-C ) :   1.0101
B( 45-C , 46-O ) :   2.2951 B( 45-C , 47-C ) :   0.9240 B( 47-C , 48-C ) :   1.4793
B( 47-C , 51-C ) :   1.2202 B( 48-C , 49-S ) :   1.1555 B( 48-C , 58-Cl) :   1.1317
B( 49-S , 50-C ) :   1.1590 B( 50-C , 51-C ) :   1.5489 B( 50-C , 71-H ) :   0.9561
B( 51-C , 52-C ) :   1.0141 B( 52-C , 53-C ) :   1.6996 B( 53-C , 54-C ) :   1.1371
B( 53-C , 56-C ) :   1.1502 B( 54-C , 55-N ) :   3.0005 B( 56-C , 57-N ) :   2.9829

-----------------------------------------------------------------------------
         ABSORPTION SPECTRUM VIA TRANSITION ELECTRIC DIPOLE MOMENTS
-----------------------------------------------------------------------------
State   Energy  Wavelength   fosc         T2         TX        TY        TZ
        (cm-1)    (nm)                  (au**2)     (au)      (au)      (au)
-----------------------------------------------------------------------------
   0   17274.9    578.9   1.288319148  24.55183   1.75756   4.39568   1.46316
   1   21084.6    474.3   0.299323044   4.67358   0.82777  -1.83017   0.79927
   2   24507.2    408.0   0.015096468   0.20279   0.25998   0.30183   0.21001
   3   26031.3    384.2   0.015331407   0.19389   0.15681  -0.21067  -0.35344
   4   27000.9    370.4   0.058712309   0.71586   0.06152  -0.80732  -0.24557
   5   27399.2    365.0   0.129982678   1.56179  -0.24275  -1.04741  -0.63702
   6   27957.3    357.7   0.063436053   0.74699  -0.26250   0.67011   0.47857
   7   29165.8    342.9   0.002492556   0.02813   0.05569  -0.12980  -0.09048
   8   29649.0    337.3   0.014007143   0.15553  -0.28774   0.22706   0.14553
   9   29980.6    333.5   0.078799945   0.86529   0.27359  -0.88890   0.01716
  10   30858.0    324.1   0.334416387   3.56776  -0.54951   0.81836  -1.61124
  11   31794.0    314.5   0.041027599   0.42482  -0.51890   0.06747   0.38860
  12   32457.5    308.1   0.006363984   0.06455  -0.07936   0.22831  -0.07826
  13   32674.7    306.0   0.083506735   0.84137   0.10245   0.89845   0.15384
  14   33688.1    296.8   0.097687447   0.95464   0.52068   0.45130   0.69272
  15   33871.7    295.2   0.034967060   0.33986  -0.10053   0.57408   0.01374
  16   33954.0    294.5   0.060737823   0.58890  -0.10589   0.31405  -0.69214
  17   34104.3    293.2   0.040071491   0.38681  -0.06147   0.14186  -0.60242
  18   34900.8    286.5   0.121769571   1.14863  -1.03052   0.22817   0.18597
  19   35214.8    284.0   0.058188842   0.54399  -0.29054  -0.36519  -0.57115
  20   35439.6    282.2   0.243111692   2.25836  -0.83535  -0.25151  -1.22364
  21   35757.4    279.7   0.257709718   2.37268   0.03452   1.53624   0.10702
  22   36024.7    277.6   0.104594696   0.95584   0.50580  -0.00734   0.83663
  23   36438.0    274.4   0.061887198   0.55914   0.05911  -0.62523   0.40588
  24   36951.6    270.6   0.137349542   1.22368   0.23094  -0.80452   0.72326
  25   37368.0    267.6   0.279409544   2.46160  -0.13370   0.33170  -1.52764
  26   37978.3    263.3   0.329050755   2.85235   0.44322   0.48158  -1.55692
  27   38324.7    260.9   0.490565122   4.21399  -0.40738  -0.40982  -1.96979
  28   38614.3    259.0   0.233090136   1.98724   0.32924   0.82453   1.09498
  29   38875.3    257.2   0.046043089   0.38991  -0.39489   0.44461  -0.19052
  30   39391.2    253.9   0.085688521   0.71614   0.36443  -0.34320   0.68231
  31   39625.5    252.4   0.070240005   0.58356   0.38345   0.26079   0.60706
  32   39985.8    250.1   0.012775984   0.10519   0.02194   0.28277   0.15732
  33   40276.8    248.3   0.012942045   0.10578   0.23894   0.21795  -0.03450

FINAL SINGLE POINT ENERGY     -4474.974471329208

DIPOLE MOMENT
-------------
                                X             Y             Z
Electronic contribution:    -11.88118      -1.36082     -29.95854
Nuclear contribution   :     11.64822       2.87301      26.87803
                        -----------------------------------------
Total Dipole Moment    :     -0.23295       1.51219      -3.08050
                        -----------------------------------------
Magnitude (a.u.)       :      3.43955
Magnitude (Debye)      :      8.74263

Rotational constants in cm-1:     0.001702     0.000340     0.000297
Rotational constants in MHz :    51.037258    10.191547     8.899366

                             ****ORCA TERMINATED NORMALLY****
TOTAL RUN TIME: 0 days 0 hours 5 minutes 25 seconds 800 msec
