                         Program Version 4.2.0 -  RELEASE  -
|  1> # ORCA input file
|  2> # SCF done       -173.419893569383          0.000440863937
|  3> ! CAM-B3LYP def2-SVP def2/J RIJCOSX Grid4 TightSCF
|  4> %maxcore 5000
|  5> %tddft
|  6>     Mode sTDDFT
|  7>     Ethresh 5.0
|  8>     maxcore 5000
|  9> end
| 10>
| 11> %pal
| 12>   nprocs 6
| 13>   end
| 14> * xyz 0 1
| 15>    C        0.97164         0.81961        -0.48660
| 16>    C       -0.21706         1.22146        -1.01502
| 17>    S       -0.23880         1.01942        -2.72719
| 18>    C        1.39043         0.38657        -2.74007
| 19>   Cl        2.14324        -0.08490        -4.18074
| 20>    C        1.89349         0.33843        -1.47371
| 21>    C        3.15453        -0.04890        -0.83567
| 22>    O        4.19895        -0.34939        -1.35875
| 23>    C        2.90201         0.13751         0.63590
| 24>    C        1.58358         0.73635         0.82273
| 25>    C        0.99420         1.12180         1.99408
| 26>    C       -0.30734         1.66920         2.01703
| 27>    N       -1.36292         2.11598         2.05062
| 28>    C        1.57966         1.02965         3.27365
| 29>    N        1.99978         0.97449         4.33995
| 30>    C        3.81190        -0.16081         1.58503
| 31>    C        5.02338        -0.90261         1.31129
| 32>    N        4.95227        -2.06463         0.69642
| 33>    N        5.99153        -2.79826         0.42492
| 34>    C        7.22545        -2.48296         0.76977
| 35>    C        7.44670        -1.24956         1.45177
| 36>    C        6.29859        -0.43155         1.73395
| 37>    N        6.73612         0.68322         2.28670
| 38>    O        8.05828         0.56584         2.33253
| 39>    N        8.51040        -0.57254         1.83312
| 40>    C        8.31768        -3.37000         0.49293
| 41>    N        8.41012        -4.20669        -0.58407
| 42>    C        7.43391        -4.38106        -1.63384
| 43>    C        6.40054        -5.43939        -1.26252
| 44>    C        9.61611        -4.93049        -0.56985
| 45>    O        9.94207        -5.71808        -1.43636
| 46>    C       10.27977        -4.50035         0.64206
| 47>    C        9.45700        -3.53184         1.26903
| 48>    C       10.06024        -3.18417         2.54356
| 49>    O        9.69604        -2.48586         3.45966
| 50>    N       11.25478        -3.93809         2.56812
| 51>    C       12.19548        -3.80338         3.65405
| 52>    C       13.37089        -2.90660         3.27428
| 53>    C       11.39512        -4.72084         1.45131
| 54>    C       12.49156        -5.59275         1.23288
| 55>    C       12.62521        -6.33683         0.10714
| 56>    C       13.71329        -7.21582        -0.13083
| 57>    S       14.96621        -7.50268         1.03603
| 58>    C       15.79988        -8.57289        -0.03888
| 59>    C       16.97650        -9.24072         0.45475
| 60>    O       17.69884        -9.98450        -0.17263
| 61>    C       15.11982        -8.70310        -1.25448
| 62>    C       13.93259        -7.95636        -1.27531
| 63>    C       15.51307        -9.54747        -2.35876
| 64>    C       16.73585        -9.74249        -2.88413
| 65>    C       16.96323       -10.92358        -3.78717
| 66>    O       16.11163       -11.57439        -4.33832
| 67>    C       18.41670       -11.10506        -3.77336
| 68>    C       19.31580       -12.01781        -4.24069
| 69>    S       20.94067       -11.56155        -3.78841
| 70>    C       20.39022       -10.13967        -2.98311
| 71>    C       19.03673       -10.02999        -3.05271
| 72>    C       18.01803        -9.10152        -2.61252
| 73>    C       18.24572        -7.81677        -2.20913
| 74>    C       19.55646        -7.32194        -2.03681
| 75>    N       20.61383        -6.90560        -1.88347
| 76>    C       17.24356        -6.85856        -1.96423
| 77>    N       16.47168        -6.02830        -1.78263
| 78>   Cl       19.01022       -13.42185        -5.13587
| 79>    H       -1.07983         1.62249        -0.52105
| 80>    H        3.67578         0.14646         2.61368
| 81>    H        7.98817        -4.69423        -2.52295
| 82>    H        6.93907        -3.42662        -1.82218
| 83>    H        6.89250        -6.38528        -1.04890
| 84>    H        5.71362        -5.58142        -2.09138
| 85>    H        5.83707        -5.11606        -0.39182
| 86>    H       12.54223        -4.79279         3.96503
| 87>    H       11.63853        -3.35003         4.47880
| 88>    H       13.91890        -3.31568         2.42838
| 89>    H       14.04851        -2.81264         4.11809
| 90>    H       13.00969        -1.91676         3.00689
| 91>    H       13.24939        -5.65895         2.00191
| 92>    H       11.88037        -6.27345        -0.67660
| 93>    H       17.18591        -9.00805         1.51615
| 94>    H       13.26689        -7.92416        -2.11930
| 95>    H       14.71074       -10.12800        -2.80493
| 96>    H       21.09957        -9.49584        -2.50219
| 97> *
| 98>
| 99>                          ****END OF INPUT****

CARTESIAN COORDINATES (ANGSTROEM)
---------------------------------
  C      0.971640    0.819610   -0.486600
  C     -0.217060    1.221460   -1.015020
  S     -0.238800    1.019420   -2.727190
  C      1.390430    0.386570   -2.740070
  Cl     2.143240   -0.084900   -4.180740
  C      1.893490    0.338430   -1.473710
  C      3.154530   -0.048900   -0.835670
  O      4.198950   -0.349390   -1.358750
  C      2.902010    0.137510    0.635900
  C      1.583580    0.736350    0.822730
  C      0.994200    1.121800    1.994080
  C     -0.307340    1.669200    2.017030
  N     -1.362920    2.115980    2.050620
  C      1.579660    1.029650    3.273650
  N      1.999780    0.974490    4.339950
  C      3.811900   -0.160810    1.585030
  C      5.023380   -0.902610    1.311290
  N      4.952270   -2.064630    0.696420
  N      5.991530   -2.798260    0.424920
  C      7.225450   -2.482960    0.769770
  C      7.446700   -1.249560    1.451770
  C      6.298590   -0.431550    1.733950
  N      6.736120    0.683220    2.286700
  O      8.058280    0.565840    2.332530
  N      8.510400   -0.572540    1.833120
  C      8.317680   -3.370000    0.492930
  N      8.410120   -4.206690   -0.584070
  C      7.433910   -4.381060   -1.633840
  C      6.400540   -5.439390   -1.262520
  C      9.616110   -4.930490   -0.569850
  O      9.942070   -5.718080   -1.436360
  C     10.279770   -4.500350    0.642060
  C      9.457000   -3.531840    1.269030
  C     10.060240   -3.184170    2.543560
  O      9.696040   -2.485860    3.459660
  N     11.254780   -3.938090    2.568120
  C     12.195480   -3.803380    3.654050
  C     13.370890   -2.906600    3.274280
  C     11.395120   -4.720840    1.451310
  C     12.491560   -5.592750    1.232880
  C     12.625210   -6.336830    0.107140
  C     13.713290   -7.215820   -0.130830
  S     14.966210   -7.502680    1.036030
  C     15.799880   -8.572890   -0.038880
  C     16.976500   -9.240720    0.454750
  O     17.698840   -9.984500   -0.172630
  C     15.119820   -8.703100   -1.254480
  C     13.932590   -7.956360   -1.275310
  C     15.513070   -9.547470   -2.358760
  C     16.735850   -9.742490   -2.884130
  C     16.963230  -10.923580   -3.787170
  O     16.111630  -11.574390   -4.338320
  C     18.416700  -11.105060   -3.773360
  C     19.315800  -12.017810   -4.240690
  S     20.940670  -11.561550   -3.788410
  C     20.390220  -10.139670   -2.983110
  C     19.036730  -10.029990   -3.052710
  C     18.018030   -9.101520   -2.612520
  C     18.245720   -7.816770   -2.209130
  C     19.556460   -7.321940   -2.036810
  N     20.613830   -6.905600   -1.883470
  C     17.243560   -6.858560   -1.964230
  N     16.471680   -6.028300   -1.782630
  Cl    19.010220  -13.421850   -5.135870
  H     -1.079830    1.622490   -0.521050
  H      3.675780    0.146460    2.613680
  H      7.988170   -4.694230   -2.522950
  H      6.939070   -3.426620   -1.822180
  H      6.892500   -6.385280   -1.048900
  H      5.713620   -5.581420   -2.091380
  H      5.837070   -5.116060   -0.391820
  H     12.542230   -4.792790    3.965030
  H     11.638530   -3.350030    4.478800
  H     13.918900   -3.315680    2.428380
  H     14.048510   -2.812640    4.118090
  H     13.009690   -1.916760    3.006890
  H     13.249390   -5.658950    2.001910
  H     11.880370   -6.273450   -0.676600
  H     17.185910   -9.008050    1.516150
  H     13.266890   -7.924160   -2.119300
  H     14.710740  -10.128000   -2.804930
  H     21.099570   -9.495840   -2.502190

 Total Charge           Charge          ....    0
 Multiplicity           Mult            ....    1
 Number of Electrons    NEL             ....  476
 Basis Dimension        Dim             .... 1006

ORBITAL ENERGIES
----------------

  NO   OCC          E(Eh)            E(eV)
   0   2.0000    -101.624112     -2765.3327
   1   2.0000    -101.617405     -2765.1502
   2   2.0000     -89.002531     -2421.8820
   3   2.0000     -88.993753     -2421.6431
   4   2.0000     -88.987276     -2421.4669
   5   2.0000     -19.380995      -527.3837
   6   2.0000     -19.231190      -523.3073
   7   2.0000     -19.229924      -523.2728
   8   2.0000     -19.222452      -523.0695
   9   2.0000     -19.203762      -522.5609
  10   2.0000     -19.195774      -522.3436
  11   2.0000     -14.504001      -394.6739
  12   2.0000     -14.503141      -394.6505
  13   2.0000     -14.464729      -393.6053
  14   2.0000     -14.463210      -393.5640
  15   2.0000     -14.462592      -393.5471
  16   2.0000     -14.460716      -393.4961
  17   2.0000     -14.431521      -392.7017
  18   2.0000     -14.430859      -392.6836
  19   2.0000     -14.421358      -392.4251
  20   2.0000     -14.420974      -392.4147
  21   2.0000     -10.387786      -282.6660
  22   2.0000     -10.387196      -282.6500
  23   2.0000     -10.384250      -282.5698
  24   2.0000     -10.379581      -282.4428
  25   2.0000     -10.379340      -282.4362
  26   2.0000     -10.378332      -282.4088
  27   2.0000     -10.376264      -282.3525
  28   2.0000     -10.363531      -282.0060
  29   2.0000     -10.362021      -281.9649
  30   2.0000     -10.359830      -281.9053
  31   2.0000     -10.359017      -281.8832
  32   2.0000     -10.357654      -281.8461
  33   2.0000     -10.350769      -281.6588
  34   2.0000     -10.348584      -281.5993
  35   2.0000     -10.348388      -281.5940
  36   2.0000     -10.347538      -281.5708
  37   2.0000     -10.346990      -281.5559
  38   2.0000     -10.338273      -281.3187
  39   2.0000     -10.334761      -281.2231
  40   2.0000     -10.332665      -281.1661
  41   2.0000     -10.332423      -281.1595
  42   2.0000     -10.332001      -281.1480
  43   2.0000     -10.328453      -281.0515
  44   2.0000     -10.327015      -281.0124
  45   2.0000     -10.325347      -280.9670
  46   2.0000     -10.323534      -280.9177
  47   2.0000     -10.323171      -280.9078
  48   2.0000     -10.322360      -280.8857
  49   2.0000     -10.322119      -280.8791
  50   2.0000     -10.321725      -280.8684
  51   2.0000     -10.317013      -280.7402
  52   2.0000     -10.313988      -280.6579
  53   2.0000     -10.312248      -280.6105
  54   2.0000     -10.310678      -280.5678
  55   2.0000     -10.308649      -280.5126
  56   2.0000     -10.308293      -280.5029
  57   2.0000     -10.304710      -280.4054
  58   2.0000     -10.300871      -280.3010
  59   2.0000     -10.299677      -280.2685
  60   2.0000     -10.280122      -279.7363
  61   2.0000     -10.271471      -279.5009
  62   2.0000     -10.270100      -279.4636
  63   2.0000     -10.245805      -278.8025
  64   2.0000      -9.578904      -260.6552
  65   2.0000      -9.572194      -260.4726
  66   2.0000      -8.098203      -220.3633
  67   2.0000      -8.089402      -220.1238
  68   2.0000      -8.082708      -219.9417
  69   2.0000      -7.349545      -199.9913
  70   2.0000      -7.342842      -199.8089
  71   2.0000      -7.338942      -199.7028
  72   2.0000      -7.338386      -199.6876
  73   2.0000      -7.332218      -199.5198
  74   2.0000      -7.331689      -199.5054
  75   2.0000      -6.067543      -165.1062
  76   2.0000      -6.062924      -164.9806
  77   2.0000      -6.060546      -164.9158
  78   2.0000      -6.058766      -164.8674
  79   2.0000      -6.054153      -164.7419
  80   2.0000      -6.051717      -164.6756
  81   2.0000      -6.051661      -164.6741
  82   2.0000      -6.047795      -164.5689
  83   2.0000      -6.045239      -164.4993
  84   2.0000      -1.335693       -36.3461
  85   2.0000      -1.149820       -31.2882
  86   2.0000      -1.145594       -31.1732
  87   2.0000      -1.143334       -31.1117
  88   2.0000      -1.142774       -31.0965
  89   2.0000      -1.139610       -31.0104
  90   2.0000      -1.133960       -30.8566
  91   2.0000      -1.075506       -29.2660
  92   2.0000      -1.065496       -28.9936
  93   2.0000      -1.047129       -28.4938
  94   2.0000      -1.038424       -28.2569
  95   2.0000      -1.036087       -28.1934
  96   2.0000      -1.027641       -27.9635
  97   2.0000      -1.021348       -27.7923
  98   2.0000      -1.014131       -27.5959
  99   2.0000      -1.009233       -27.4626
 100   2.0000      -0.999247       -27.1909
 101   2.0000      -0.998870       -27.1806
 102   2.0000      -0.995061       -27.0770
 103   2.0000      -0.988669       -26.9031
 104   2.0000      -0.972883       -26.4735
 105   2.0000      -0.959338       -26.1049
 106   2.0000      -0.955425       -25.9984
 107   2.0000      -0.938686       -25.5430
 108   2.0000      -0.930189       -25.3117
 109   2.0000      -0.918393       -24.9908
 110   2.0000      -0.911399       -24.8004
 111   2.0000      -0.898636       -24.4531
 112   2.0000      -0.896414       -24.3927
 113   2.0000      -0.879041       -23.9199
 114   2.0000      -0.869551       -23.6617
 115   2.0000      -0.850511       -23.1436
 116   2.0000      -0.846780       -23.0421
 117   2.0000      -0.841568       -22.9002
 118   2.0000      -0.832802       -22.6617
 119   2.0000      -0.822211       -22.3735
 120   2.0000      -0.814224       -22.1562
 121   2.0000      -0.801204       -21.8019
 122   2.0000      -0.794024       -21.6065
 123   2.0000      -0.784135       -21.3374
 124   2.0000      -0.783376       -21.3167
 125   2.0000      -0.763834       -20.7850
 126   2.0000      -0.761963       -20.7341
 127   2.0000      -0.758162       -20.6306
 128   2.0000      -0.744611       -20.2619
 129   2.0000      -0.726200       -19.7609
 130   2.0000      -0.711323       -19.3561
 131   2.0000      -0.710672       -19.3384
 132   2.0000      -0.700540       -19.0627
 133   2.0000      -0.695825       -18.9343
 134   2.0000      -0.692021       -18.8309
 135   2.0000      -0.686341       -18.6763
 136   2.0000      -0.685939       -18.6653
 137   2.0000      -0.678994       -18.4764
 138   2.0000      -0.676574       -18.4105
 139   2.0000      -0.676439       -18.4068
 140   2.0000      -0.653151       -17.7731
 141   2.0000      -0.649440       -17.6722
 142   2.0000      -0.639783       -17.4094
 143   2.0000      -0.630897       -17.1676
 144   2.0000      -0.626815       -17.0565
 145   2.0000      -0.625599       -17.0234
 146   2.0000      -0.620736       -16.8911
 147   2.0000      -0.616416       -16.7735
 148   2.0000      -0.614789       -16.7293
 149   2.0000      -0.611811       -16.6482
 150   2.0000      -0.605326       -16.4718
 151   2.0000      -0.596087       -16.2204
 152   2.0000      -0.588167       -16.0048
 153   2.0000      -0.582472       -15.8499
 154   2.0000      -0.578486       -15.7414
 155   2.0000      -0.573462       -15.6047
 156   2.0000      -0.570931       -15.5358
 157   2.0000      -0.560746       -15.2587
 158   2.0000      -0.558709       -15.2033
 159   2.0000      -0.555441       -15.1143
 160   2.0000      -0.552092       -15.0232
 161   2.0000      -0.545730       -14.8501
 162   2.0000      -0.541043       -14.7225
 163   2.0000      -0.538340       -14.6490
 164   2.0000      -0.536792       -14.6068
 165   2.0000      -0.536098       -14.5880
 166   2.0000      -0.534668       -14.5491
 167   2.0000      -0.533948       -14.5295
 168   2.0000      -0.532239       -14.4830
 169   2.0000      -0.530367       -14.4320
 170   2.0000      -0.526975       -14.3397
 171   2.0000      -0.524844       -14.2817
 172   2.0000      -0.523822       -14.2539
 173   2.0000      -0.521013       -14.1775
 174   2.0000      -0.515392       -14.0245
 175   2.0000      -0.515276       -14.0214
 176   2.0000      -0.510328       -13.8867
 177   2.0000      -0.508811       -13.8454
 178   2.0000      -0.505130       -13.7453
 179   2.0000      -0.503939       -13.7129
 180   2.0000      -0.502919       -13.6851
 181   2.0000      -0.495962       -13.4958
 182   2.0000      -0.494621       -13.4593
 183   2.0000      -0.492054       -13.3895
 184   2.0000      -0.485675       -13.2159
 185   2.0000      -0.481304       -13.0970
 186   2.0000      -0.478958       -13.0331
 187   2.0000      -0.475860       -12.9488
 188   2.0000      -0.470901       -12.8139
 189   2.0000      -0.465818       -12.6756
 190   2.0000      -0.465133       -12.6569
 191   2.0000      -0.462399       -12.5825
 192   2.0000      -0.461542       -12.5592
 193   2.0000      -0.457271       -12.4430
 194   2.0000      -0.456661       -12.4264
 195   2.0000      -0.455279       -12.3888
 196   2.0000      -0.454055       -12.3555
 197   2.0000      -0.451113       -12.2754
 198   2.0000      -0.449036       -12.2189
 199   2.0000      -0.447462       -12.1761
 200   2.0000      -0.444341       -12.0911
 201   2.0000      -0.443312       -12.0631
 202   2.0000      -0.441865       -12.0238
 203   2.0000      -0.441230       -12.0065
 204   2.0000      -0.439399       -11.9567
 205   2.0000      -0.436079       -11.8663
 206   2.0000      -0.434300       -11.8179
 207   2.0000      -0.433425       -11.7941
 208   2.0000      -0.430171       -11.7056
 209   2.0000      -0.428129       -11.6500
 210   2.0000      -0.422408       -11.4943
 211   2.0000      -0.420706       -11.4480
 212   2.0000      -0.419498       -11.4151
 213   2.0000      -0.416262       -11.3271
 214   2.0000      -0.413956       -11.2643
 215   2.0000      -0.413177       -11.2431
 216   2.0000      -0.410919       -11.1817
 217   2.0000      -0.410064       -11.1584
 218   2.0000      -0.407614       -11.0917
 219   2.0000      -0.403560       -10.9814
 220   2.0000      -0.384395       -10.4599
 221   2.0000      -0.375316       -10.2129
 222   2.0000      -0.372540       -10.1373
 223   2.0000      -0.358874        -9.7654
 224   2.0000      -0.354568        -9.6483
 225   2.0000      -0.354086        -9.6352
 226   2.0000      -0.344990        -9.3877
 227   2.0000      -0.343883        -9.3575
 228   2.0000      -0.339980        -9.2513
 229   2.0000      -0.335910        -9.1406
 230   2.0000      -0.333702        -9.0805
 231   2.0000      -0.328427        -8.9369
 232   2.0000      -0.324956        -8.8425
 233   2.0000      -0.320656        -8.7255
 234   2.0000      -0.317780        -8.6472
 235   2.0000      -0.313769        -8.5381
 236   2.0000      -0.307514        -8.3679
 237   2.0000      -0.254022        -6.9123
 238   0.0000      -0.121462        -3.3052
 239   0.0000      -0.102405        -2.7866
 240   0.0000      -0.090738        -2.4691
 241   0.0000      -0.072282        -1.9669
 242   0.0000      -0.055193        -1.5019

MULLIKEN ATOMIC CHARGES
-----------------------
   0 C :    0.028857
   1 C :   -0.125759
   2 S :    0.196988
   3 C :   -0.168084
   4 Cl:    0.005932
   5 C :    0.079751
   6 C :    0.158793
   7 O :   -0.118647
   8 C :   -0.078001
   9 C :    0.294937
  10 C :   -0.317240
  11 C :   -0.194029
  12 N :    0.167638
  13 C :   -0.184054
  14 N :    0.169888
  15 C :   -0.045786
  16 C :   -0.037002
  17 N :   -0.020323
  18 N :   -0.052440
  19 C :   -0.060414
  20 C :    0.009883
  21 C :   -0.012516
  22 N :    0.081983
  23 O :   -0.079435
  24 N :    0.119200
  25 C :    0.076090
  26 N :   -0.250182
  27 C :    0.131212
  28 C :    0.003903
  29 C :    0.175422
  30 O :   -0.214309
  31 C :   -0.093558
  32 C :   -0.034967
  33 C :    0.142962
  34 O :   -0.165423
  35 N :   -0.266858
  36 C :    0.095213
  37 C :    0.001435
  38 C :    0.157477
  39 C :   -0.035134
  40 C :    0.056150
  41 C :   -0.029519
  42 S :    0.154682
  43 C :   -0.178367
  44 C :    0.202926
  45 O :   -0.193363
  46 C :    0.098634
  47 C :    0.002010
  48 C :    0.001297
  49 C :   -0.103974
  50 C :    0.129510
  51 O :   -0.122532
  52 C :    0.096703
  53 C :   -0.172828
  54 S :    0.187081
  55 C :   -0.119218
  56 C :    0.015897
  57 C :    0.314828
  58 C :   -0.329007
  59 C :   -0.192237
  60 N :    0.160363
  61 C :   -0.200643
  62 N :    0.177258
  63 Cl:   -0.000029
  64 H :    0.056706
  65 H :    0.057906
  66 H :    0.031109
  67 H :    0.029780
  68 H :    0.015205
  69 H :    0.014640
  70 H :    0.032590
  71 H :    0.024017
  72 H :    0.048017
  73 H :    0.020074
  74 H :    0.027390
  75 H :    0.034739
  76 H :   -0.012259
  77 H :    0.029155
  78 H :   -0.007114
  79 H :    0.011643
  80 H :    0.034130
  81 H :    0.053244
Sum of atomic charges:    0.0000000

LOEWDIN ATOMIC CHARGES
----------------------
   0 C :   -0.059323
   1 C :   -0.147600
   2 S :    0.486106
   3 C :   -0.270512
   4 Cl:    0.197281
   5 C :   -0.116714
   6 C :    0.084035
   7 O :   -0.118145
   8 C :   -0.045875
   9 C :    0.071356
  10 C :   -0.119895
  11 C :   -0.014876
  12 N :   -0.040010
  13 C :   -0.022055
  14 N :   -0.031736
  15 C :    0.062523
  16 C :   -0.003533
  17 N :   -0.020849
  18 N :   -0.032089
  19 C :    0.003294
  20 C :   -0.060339
  21 C :   -0.063446
  22 N :   -0.008070
  23 O :    0.103432
  24 N :    0.022674
  25 C :    0.051025
  26 N :    0.017924
  27 C :    0.040563
  28 C :   -0.061987
  29 C :    0.078746
  30 O :   -0.203773
  31 C :   -0.126487
  32 C :   -0.097457
  33 C :    0.086719
  34 O :   -0.167426
  35 N :   -0.002129
  36 C :    0.036050
  37 C :   -0.060160
  38 C :    0.094664
  39 C :   -0.048519
  40 C :    0.032046
  41 C :   -0.144460
  42 S :    0.481080
  43 C :   -0.220357
  44 C :    0.085914
  45 O :   -0.136371
  46 C :   -0.031675
  47 C :   -0.013012
  48 C :    0.059595
  49 C :   -0.055432
  50 C :    0.084673
  51 O :   -0.126641
  52 C :   -0.115464
  53 C :   -0.272324
  54 S :    0.479580
  55 C :   -0.147048
  56 C :   -0.049160
  57 C :    0.081688
  58 C :   -0.132025
  59 C :   -0.015488
  60 N :   -0.048708
  61 C :   -0.021426
  62 N :   -0.048776
  63 Cl:    0.192639
  64 H :    0.038859
  65 H :    0.054226
  66 H :    0.031697
  67 H :    0.028127
  68 H :    0.024001
  69 H :    0.028378
  70 H :    0.023427
  71 H :    0.022948
  72 H :    0.039430
  73 H :    0.023438
  74 H :    0.032456
  75 H :    0.034536
  76 H :    0.024346
  77 H :    0.047413
  78 H :    0.000301
  79 H :    0.043980
  80 H :    0.051779
  81 H :    0.038423

  Mayer bond orders larger than 0.100000
B(  0-C ,  1-C ) :   1.5367 B(  0-C ,  5-C ) :   1.2237 B(  0-C ,  9-C ) :   1.0108
B(  1-C ,  2-S ) :   1.1700 B(  1-C , 64-H ) :   0.9533 B(  2-S ,  3-C ) :   1.1549
B(  3-C ,  4-Cl) :   1.1343 B(  3-C ,  5-C ) :   1.4734 B(  5-C ,  6-C ) :   0.9528
B(  6-C ,  7-O ) :   2.2580 B(  6-C ,  8-C ) :   0.9062 B(  8-C ,  9-C ) :   1.0291
B(  8-C , 15-C ) :   1.7985 B(  9-C , 10-C ) :   1.6829 B( 10-C , 11-C ) :   1.1420
B( 10-C , 13-C ) :   1.1365 B( 11-C , 12-N ) :   2.9939 B( 13-C , 14-N ) :   2.9746
B( 15-C , 16-C ) :   1.0250 B( 15-C , 65-H ) :   0.9302 B( 16-C , 17-N ) :   1.6712
B( 16-C , 19-C ) :   0.1108 B( 16-C , 21-C ) :   1.0808 B( 17-N , 18-N ) :   1.2082
B( 18-N , 19-C ) :   1.6759 B( 19-C , 20-C ) :   1.0997 B( 19-C , 25-C ) :   1.0541
B( 20-C , 21-C ) :   1.1750 B( 20-C , 24-N ) :   1.6098 B( 21-C , 22-N ) :   1.6202
B( 22-N , 23-O ) :   1.0759 B( 22-N , 24-N ) :   0.1868 B( 23-O , 24-N ) :   1.0934
B( 25-C , 26-N ) :   1.2256 B( 25-C , 32-C ) :   1.4309 B( 26-N , 27-C ) :   0.9335
B( 26-N , 29-C ) :   1.0581 B( 27-C , 28-C ) :   1.1205 B( 27-C , 66-H ) :   0.9317
B( 27-C , 67-H ) :   0.9442 B( 28-C , 68-H ) :   0.9656 B( 28-C , 69-H ) :   0.9668
B( 28-C , 70-H ) :   0.9605 B( 29-C , 30-O ) :   2.0188 B( 29-C , 31-C ) :   0.9944
B( 30-O , 77-H ) :   0.1166 B( 31-C , 32-C ) :   1.2403 B( 31-C , 38-C ) :   1.3295
B( 32-C , 33-C ) :   0.9424 B( 33-C , 34-O ) :   2.1657 B( 33-C , 35-N ) :   1.0225
B( 35-N , 36-C ) :   0.9425 B( 35-N , 38-C ) :   1.1784 B( 36-C , 37-C ) :   1.1201
B( 36-C , 71-H ) :   0.9502 B( 36-C , 72-H ) :   0.9267 B( 37-C , 73-H ) :   0.9687
B( 37-C , 74-H ) :   0.9680 B( 37-C , 75-H ) :   0.9633 B( 38-C , 39-C ) :   1.1679
B( 39-C , 40-C ) :   1.5907 B( 39-C , 76-H ) :   0.9586 B( 40-C , 41-C ) :   1.1460
B( 40-C , 77-H ) :   0.9517 B( 41-C , 42-S ) :   1.1374 B( 41-C , 47-C ) :   1.4404
B( 42-S , 43-C ) :   1.1217 B( 43-C , 44-C ) :   1.0346 B( 43-C , 46-C ) :   1.4296
B( 44-C , 45-O ) :   2.0914 B( 44-C , 78-H ) :   0.9558 B( 46-C , 47-C ) :   1.2735
B( 46-C , 48-C ) :   1.0069 B( 47-C , 79-H ) :   1.0120 B( 48-C , 49-C ) :   1.8118
B( 48-C , 80-H ) :   0.9408 B( 49-C , 50-C ) :   0.9265 B( 49-C , 57-C ) :   0.9865
B( 50-C , 51-O ) :   2.2878 B( 50-C , 52-C ) :   0.9256 B( 52-C , 53-C ) :   1.4751
B( 52-C , 56-C ) :   1.2248 B( 53-C , 54-S ) :   1.1563 B( 53-C , 63-Cl) :   1.1281
B( 54-S , 55-C ) :   1.1595 B( 55-C , 56-C ) :   1.5511 B( 55-C , 81-H ) :   0.9558
B( 56-C , 57-C ) :   1.0188 B( 57-C , 58-C ) :   1.6896 B( 58-C , 59-C ) :   1.1304
B( 58-C , 61-C ) :   1.1647 B( 59-C , 60-N ) :   3.0078 B( 61-C , 62-N ) :   3.0130

-----------------------------------------------------------------------------
         ABSORPTION SPECTRUM VIA TRANSITION ELECTRIC DIPOLE MOMENTS
-----------------------------------------------------------------------------
State   Energy  Wavelength   fosc         T2         TX        TY        TZ
        (cm-1)    (nm)                  (au**2)     (au)      (au)      (au)
-----------------------------------------------------------------------------
   0   12772.1    783.0   0.593586825  15.30023   3.31751  -2.06214   0.20481
   1   18584.2    538.1   0.008912419   0.15788  -0.35408   0.14083  -0.11258
   2   19411.1    515.2   0.043421426   0.73643  -0.73749   0.33530  -0.28304
   3   21953.0    455.5   0.001621852   0.02432  -0.02047   0.11951   0.09809
   4   23637.7    423.1   0.142957758   1.99103   1.32599  -0.47746  -0.06934
   5   24448.9    409.0   0.037802485   0.50902   0.59472  -0.38956  -0.05978
   6   25646.7    389.9   0.089258783   1.14576   0.84941  -0.64347  -0.10107
   7   25801.5    387.6   0.028032475   0.35768   0.07218   0.31283  -0.50458
   8   26413.2    378.6   0.029877240   0.37239   0.18115  -0.57416   0.09955
   9   26422.1    378.5   0.020548948   0.25603  -0.35975  -0.26748   0.23466
  10   27126.1    368.6   0.107057586   1.29929  -0.78665   0.54326   0.62076
  11   27721.1    360.7   0.417718381   4.96077  -1.78264   1.28733   0.35461
  12   28404.6    352.1   0.004988976   0.05782  -0.08887  -0.02584   0.22194
  13   28830.8    346.9   0.248176251   2.83386   1.11128  -0.92013  -0.86734
  14   29247.0    341.9   0.025121559   0.28278   0.49617  -0.18209   0.05863
  15   29680.3    336.9   0.044621880   0.49494  -0.43235   0.06849   0.55075
  16   29940.1    334.0   0.062565830   0.68796   0.56783  -0.25387  -0.54870
  17   30182.7    331.3   0.078398043   0.85511   0.72305  -0.44203  -0.37003
  18   30321.8    329.8   0.018545361   0.20135  -0.35537   0.26943   0.04969
  19   31939.2    313.1   0.173821719   1.79166   0.56289  -1.00596  -0.68035
  20   32277.0    309.8   0.032150178   0.32792   0.26832   0.48467  -0.14499
  21   32579.6    306.9   0.053541862   0.54103  -0.48987   0.49649   0.23358
  22   32892.3    304.0   0.229499798   2.29701   1.24489  -0.83643   0.21828
  23   33069.9    302.4   0.104258582   1.03790   0.52017   0.10625   0.86950
  24   33696.5    296.8   0.012085971   0.11808  -0.12437   0.02235   0.31955
  25   34008.1    294.0   0.122952575   1.19023   0.38150  -0.48047  -0.90213
  26   34225.9    292.2   0.035294949   0.33949   0.36300  -0.45299  -0.05027
  27   34330.2    291.3   0.057787734   0.55416   0.69224  -0.22018   0.16276
  28   34913.6    286.4   0.013178798   0.12427   0.30614  -0.17477  -0.00057
  29   35082.0    285.0   0.212693321   1.99593  -0.37384   0.70916   1.16330
  30   35121.6    284.7   0.085854509   0.80476   0.34874  -0.13194   0.81592
  31   35562.9    281.2   0.008100128   0.07498  -0.12395  -0.24393   0.01091
  32   35590.5    281.0   0.008610570   0.07965  -0.10502  -0.21253  -0.15313
  33   36521.0    273.8   0.147984700   1.33398  -0.57391   0.81006   0.59026
  34   36720.2    272.3   0.070118035   0.62864  -0.15167   0.14818  -0.76399
  35   36780.0    271.9   0.011601730   0.10385   0.30535   0.02237  -0.10053
  36   36877.4    271.2   0.036654673   0.32722  -0.14520   0.20391   0.51435
  37   37275.9    268.3   0.000727114   0.00642   0.01467  -0.07499   0.02416
  38   37414.2    267.3   0.229925639   2.02315  -0.37436   1.19957   0.66635
  39   37712.8    265.2   0.034065247   0.29737  -0.03014   0.40687   0.36183
  40   37886.1    263.9   0.034940431   0.30362  -0.43754   0.23081  -0.24269
  41   38141.7    262.2   0.599927462   5.17815  -0.46588   1.43419   1.70418
  42   38166.7    262.0   0.130680546   1.12720  -0.10695   0.81057  -0.67730
  43   38749.1    258.1   0.004020760   0.03416  -0.10624   0.09679   0.11621
  44   39068.3    256.0   0.066345541   0.55907   0.64808  -0.24350   0.28243
  45   39169.8    255.3   0.021861244   0.18374   0.27561   0.10547   0.31089
  46   39342.3    254.2   0.090567372   0.75786  -0.24513   0.48349   0.68118
  47   39461.1    253.4   0.082244119   0.68614   0.28090  -0.33893  -0.70169
  48   39618.3    252.4   0.037043490   0.30782   0.36930  -0.28821  -0.29727
  49   39789.2    251.3   0.067150706   0.55560  -0.21220   0.02650   0.71405
  50   40011.9    249.9   0.018965954   0.15605   0.14680  -0.36660  -0.01017
  51   40241.6    248.5   0.010416507   0.08522   0.17344   0.20942  -0.10620

FINAL SINGLE POINT ENERGY     -4759.061064275075

DIPOLE MOMENT
-------------
                                X             Y             Z
Electronic contribution:     -6.04802      -1.97018     -29.01907
Nuclear contribution   :      6.29810       0.83073      28.21710
                        -----------------------------------------
Total Dipole Moment    :      0.25008      -1.13944      -0.80197
                        -----------------------------------------
Magnitude (a.u.)       :      1.41564
Magnitude (Debye)      :      3.59826

Rotational constants in cm-1:     0.002694     0.000270     0.000254
Rotational constants in MHz :    80.757906     8.101121     7.600266

                             ****ORCA TERMINATED NORMALLY****
TOTAL RUN TIME: 0 days 0 hours 7 minutes 27 seconds 377 msec
