                         Program Version 4.2.0 -  RELEASE  -
|  1> # ORCA input file
|  2> # SCF done       -176.828138642968          0.000871675466
|  3> ! CAM-B3LYP def2-SVP def2/J RIJCOSX Grid4 TightSCF
|  4> %maxcore 5000
|  5> %tddft
|  6>     Mode sTDDFT
|  7>     Ethresh 5.0
|  8>     maxcore 5000
|  9> end
| 10>
| 11> %pal
| 12>   nprocs 6
| 13>   end
| 14> * xyz 0 1
| 15>    C        5.45385         2.90277        -1.45776
| 16>    C        5.69525         4.21211        -1.73734
| 17>    S        7.38624         4.55695        -1.70031
| 18>    C        7.78498         2.90180        -1.30281
| 19>   Cl        9.38569         2.40077        -1.07891
| 20>    C        6.64902         2.15257        -1.20948
| 21>    C        6.30450         0.76266        -0.92065
| 22>    O        7.05998        -0.15782        -0.68056
| 23>    C        4.82711         0.70263        -0.99068
| 24>    C        4.30999         2.02052        -1.33193
| 25>    C        3.00799         2.40812        -1.51269
| 26>    C        2.68090         3.73992        -1.84671
| 27>    N        2.39758         4.81789        -2.11713
| 28>    C        1.87640         1.57732        -1.39882
| 29>    N        0.92360         0.94102        -1.31604
| 30>    C        4.05845        -0.40557        -0.76024
| 31>    C        4.42703        -1.71534        -0.39946
| 32>    S        6.04593        -2.29281        -0.14973
| 33>    C        5.46073        -3.86956         0.27997
| 34>    C        4.06586        -3.93888         0.23366
| 35>    C        3.48847        -2.73654        -0.16203
| 36>    C        2.00844        -2.54899        -0.29811
| 37>    C        1.26562        -3.88984        -0.27467
| 38>    C       -0.23109        -3.61945        -0.14352
| 39>    F       -0.65220        -2.73340        -1.05518
| 40>    F       -0.97509        -4.71707        -0.31432
| 41>    F       -0.54526        -3.11612         1.06008
| 42>    C        1.78911        -4.74442         0.89012
| 43>    C        1.03027        -5.96311         1.08265
| 44>    N        0.48818        -6.95467         1.24295
| 45>    C        3.24931        -5.13558         0.61005
| 46>    C        6.42338        -4.86352         0.60881
| 47>    C        7.74844        -4.60633         0.88212
| 48>    C        8.43169        -5.83081         1.13223
| 49>    C        7.41588        -6.89529         0.98221
| 50>    C        6.23100        -6.31047         0.67654
| 51>    C        7.61077        -8.27433         1.12588
| 52>    N        7.73113        -9.41053         1.24077
| 53>    C        9.75878        -6.00548         1.43278
| 54>    C       10.44887        -7.24733         1.63676
| 55>    C       11.76938        -6.97384         1.86952
| 56>    C       11.96985        -5.53497         1.83614
| 57>    C       10.77296        -4.94557         1.58028
| 58>    C       10.55966        -3.56325         1.50078
| 59>    N       10.41758        -2.42489         1.45312
| 60>    C       12.82479        -7.89922         2.09899
| 61>    O       12.62675        -9.23274         2.15081
| 62>    C       13.87244        -9.71446         2.34425
| 63>    N       14.74677        -8.73805         2.42511
| 64>    N       14.09100        -7.60166         2.27882
| 65>    C       14.11040       -11.10558         2.54690
| 66>    C       15.30466       -11.72919         2.46648
| 67>    C       15.48316       -13.07552         3.11760
| 68>    O       14.60403       -13.80769         3.49431
| 69>    C       16.93601       -13.22455         3.22618
| 70>    C       17.81011       -14.11641         3.77719
| 71>    S       19.45760       -13.60988         3.49506
| 72>    C       18.94992       -12.20714         2.62754
| 73>    C       17.59375       -12.13131         2.56775
| 74>    C       16.59475       -11.26685         1.97068
| 75>    C       16.82789       -10.36453         0.97352
| 76>    C       18.13963       -10.07040         0.54267
| 77>    N       19.20380        -9.82657         0.19209
| 78>    C       15.81813        -9.74124         0.21076
| 79>    N       15.03462        -9.28214        -0.49033
| 80>   Cl       17.45422       -15.53504         4.62851
| 81>    H        5.00337         4.99985        -1.96072
| 82>    H        2.98968        -0.26529        -0.84989
| 83>    H        1.77080        -2.02620        -1.22770
| 84>    H        1.64383        -1.92352         0.52509
| 85>    H        1.40919        -4.42551        -1.21955
| 86>    H        1.72880        -4.15835         1.81587
| 87>    H        3.26762        -5.86746        -0.20487
| 88>    H        3.66743        -5.61066         1.49976
| 89>    H        8.20281        -3.63544         0.91090
| 90>    H        5.31563        -6.83416         0.48154
| 91>    H        9.99819        -8.21936         1.59555
| 92>    H       12.91835        -5.05876         1.99299
| 93>    H       13.25953       -11.68774         2.88076
| 94>    H       19.68506       -11.53429         2.23258
| 95> *
| 96>
| 97>                          ****END OF INPUT****

CARTESIAN COORDINATES (ANGSTROEM)
---------------------------------
  C      5.453850    2.902770   -1.457760
  C      5.695250    4.212110   -1.737340
  S      7.386240    4.556950   -1.700310
  C      7.784980    2.901800   -1.302810
  Cl     9.385690    2.400770   -1.078910
  C      6.649020    2.152570   -1.209480
  C      6.304500    0.762660   -0.920650
  O      7.059980   -0.157820   -0.680560
  C      4.827110    0.702630   -0.990680
  C      4.309990    2.020520   -1.331930
  C      3.007990    2.408120   -1.512690
  C      2.680900    3.739920   -1.846710
  N      2.397580    4.817890   -2.117130
  C      1.876400    1.577320   -1.398820
  N      0.923600    0.941020   -1.316040
  C      4.058450   -0.405570   -0.760240
  C      4.427030   -1.715340   -0.399460
  S      6.045930   -2.292810   -0.149730
  C      5.460730   -3.869560    0.279970
  C      4.065860   -3.938880    0.233660
  C      3.488470   -2.736540   -0.162030
  C      2.008440   -2.548990   -0.298110
  C      1.265620   -3.889840   -0.274670
  C     -0.231090   -3.619450   -0.143520
  F     -0.652200   -2.733400   -1.055180
  F     -0.975090   -4.717070   -0.314320
  F     -0.545260   -3.116120    1.060080
  C      1.789110   -4.744420    0.890120
  C      1.030270   -5.963110    1.082650
  N      0.488180   -6.954670    1.242950
  C      3.249310   -5.135580    0.610050
  C      6.423380   -4.863520    0.608810
  C      7.748440   -4.606330    0.882120
  C      8.431690   -5.830810    1.132230
  C      7.415880   -6.895290    0.982210
  C      6.231000   -6.310470    0.676540
  C      7.610770   -8.274330    1.125880
  N      7.731130   -9.410530    1.240770
  C      9.758780   -6.005480    1.432780
  C     10.448870   -7.247330    1.636760
  C     11.769380   -6.973840    1.869520
  C     11.969850   -5.534970    1.836140
  C     10.772960   -4.945570    1.580280
  C     10.559660   -3.563250    1.500780
  N     10.417580   -2.424890    1.453120
  C     12.824790   -7.899220    2.098990
  O     12.626750   -9.232740    2.150810
  C     13.872440   -9.714460    2.344250
  N     14.746770   -8.738050    2.425110
  N     14.091000   -7.601660    2.278820
  C     14.110400  -11.105580    2.546900
  C     15.304660  -11.729190    2.466480
  C     15.483160  -13.075520    3.117600
  O     14.604030  -13.807690    3.494310
  C     16.936010  -13.224550    3.226180
  C     17.810110  -14.116410    3.777190
  S     19.457600  -13.609880    3.495060
  C     18.949920  -12.207140    2.627540
  C     17.593750  -12.131310    2.567750
  C     16.594750  -11.266850    1.970680
  C     16.827890  -10.364530    0.973520
  C     18.139630  -10.070400    0.542670
  N     19.203800   -9.826570    0.192090
  C     15.818130   -9.741240    0.210760
  N     15.034620   -9.282140   -0.490330
  Cl    17.454220  -15.535040    4.628510
  H      5.003370    4.999850   -1.960720
  H      2.989680   -0.265290   -0.849890
  H      1.770800   -2.026200   -1.227700
  H      1.643830   -1.923520    0.525090
  H      1.409190   -4.425510   -1.219550
  H      1.728800   -4.158350    1.815870
  H      3.267620   -5.867460   -0.204870
  H      3.667430   -5.610660    1.499760
  H      8.202810   -3.635440    0.910900
  H      5.315630   -6.834160    0.481540
  H      9.998190   -8.219360    1.595550
  H     12.918350   -5.058760    1.992990
  H     13.259530  -11.687740    2.880760
  H     19.685060  -11.534290    2.232580

 Total Charge           Charge          ....    0
 Multiplicity           Mult            ....    1
 Number of Electrons    NEL             ....  486
 Basis Dimension        Dim             .... 1014

ORBITAL ENERGIES
----------------

  NO   OCC          E(Eh)            E(eV)
   0   2.0000    -101.625252     -2765.3637
   1   2.0000    -101.621642     -2765.2655
   2   2.0000     -89.001866     -2421.8639
   3   2.0000     -88.999113     -2421.7890
   4   2.0000     -88.982925     -2421.3485
   5   2.0000     -24.811985      -675.1684
   6   2.0000     -24.807409      -675.0439
   7   2.0000     -24.807023      -675.0334
   8   2.0000     -19.343413      -526.3610
   9   2.0000     -19.234785      -523.4051
  10   2.0000     -19.233748      -523.3769
  11   2.0000     -14.463350      -393.5678
  12   2.0000     -14.460448      -393.4888
  13   2.0000     -14.432413      -392.7259
  14   2.0000     -14.429030      -392.6339
  15   2.0000     -14.426802      -392.5732
  16   2.0000     -14.425827      -392.5467
  17   2.0000     -14.424558      -392.5122
  18   2.0000     -14.419042      -392.3621
  19   2.0000     -14.414084      -392.2272
  20   2.0000     -10.524868      -286.3962
  21   2.0000     -10.397575      -282.9324
  22   2.0000     -10.397401      -282.9277
  23   2.0000     -10.390009      -282.7265
  24   2.0000     -10.388214      -282.6777
  25   2.0000     -10.385464      -282.6028
  26   2.0000     -10.382597      -282.5248
  27   2.0000     -10.360408      -281.9210
  28   2.0000     -10.357603      -281.8447
  29   2.0000     -10.357131      -281.8318
  30   2.0000     -10.355303      -281.7821
  31   2.0000     -10.346967      -281.5553
  32   2.0000     -10.343459      -281.4598
  33   2.0000     -10.342659      -281.4381
  34   2.0000     -10.340309      -281.3741
  35   2.0000     -10.338422      -281.3228
  36   2.0000     -10.336538      -281.2715
  37   2.0000     -10.335918      -281.2546
  38   2.0000     -10.335818      -281.2519
  39   2.0000     -10.334895      -281.2268
  40   2.0000     -10.333872      -281.1990
  41   2.0000     -10.332991      -281.1750
  42   2.0000     -10.332639      -281.1654
  43   2.0000     -10.330345      -281.1030
  44   2.0000     -10.329799      -281.0881
  45   2.0000     -10.329745      -281.0866
  46   2.0000     -10.329590      -281.0824
  47   2.0000     -10.329049      -281.0677
  48   2.0000     -10.328820      -281.0615
  49   2.0000     -10.328110      -281.0421
  50   2.0000     -10.327758      -281.0326
  51   2.0000     -10.325921      -280.9826
  52   2.0000     -10.324693      -280.9492
  53   2.0000     -10.322443      -280.8880
  54   2.0000     -10.321076      -280.8507
  55   2.0000     -10.320624      -280.8385
  56   2.0000     -10.320565      -280.8368
  57   2.0000     -10.319132      -280.7979
  58   2.0000     -10.317311      -280.7483
  59   2.0000     -10.315476      -280.6984
  60   2.0000     -10.313080      -280.6332
  61   2.0000     -10.313015      -280.6314
  62   2.0000     -10.311623      -280.5935
  63   2.0000     -10.310377      -280.5596
  64   2.0000     -10.306286      -280.4483
  65   2.0000     -10.302639      -280.3491
  66   2.0000      -9.580041      -260.6862
  67   2.0000      -9.576412      -260.5874
  68   2.0000      -8.097542      -220.3453
  69   2.0000      -8.094822      -220.2713
  70   2.0000      -8.075917      -219.7569
  71   2.0000      -7.350703      -200.0228
  72   2.0000      -7.347073      -199.9240
  73   2.0000      -7.340073      -199.7335
  74   2.0000      -7.339503      -199.7180
  75   2.0000      -7.336434      -199.6345
  76   2.0000      -7.335877      -199.6194
  77   2.0000      -6.066907      -165.0889
  78   2.0000      -6.064232      -165.0162
  79   2.0000      -6.062281      -164.9631
  80   2.0000      -6.059835      -164.8965
  81   2.0000      -6.059564      -164.8891
  82   2.0000      -6.057062      -164.8210
  83   2.0000      -6.045282      -164.5005
  84   2.0000      -6.040697      -164.3757
  85   2.0000      -6.038286      -164.3101
  86   2.0000      -1.400237       -38.1024
  87   2.0000      -1.303292       -35.4644
  88   2.0000      -1.300312       -35.3833
  89   2.0000      -1.289078       -35.0776
  90   2.0000      -1.152650       -31.3652
  91   2.0000      -1.151164       -31.3248
  92   2.0000      -1.113873       -30.3100
  93   2.0000      -1.047479       -28.5034
  94   2.0000      -1.045005       -28.4360
  95   2.0000      -1.037039       -28.2193
  96   2.0000      -1.027848       -27.9692
  97   2.0000      -1.025941       -27.9173
  98   2.0000      -1.025249       -27.8985
  99   2.0000      -1.016218       -27.6527
 100   2.0000      -1.007802       -27.4237
 101   2.0000      -1.006496       -27.3882
 102   2.0000      -1.006093       -27.3772
 103   2.0000      -0.999987       -27.2110
 104   2.0000      -0.999397       -27.1950
 105   2.0000      -0.997169       -27.1343
 106   2.0000      -0.994876       -27.0719
 107   2.0000      -0.972960       -26.4756
 108   2.0000      -0.970109       -26.3980
 109   2.0000      -0.961066       -26.1519
 110   2.0000      -0.956169       -26.0187
 111   2.0000      -0.929074       -25.2814
 112   2.0000      -0.918048       -24.9814
 113   2.0000      -0.913924       -24.8691
 114   2.0000      -0.900234       -24.4966
 115   2.0000      -0.891715       -24.2648
 116   2.0000      -0.890241       -24.2247
 117   2.0000      -0.879516       -23.9328
 118   2.0000      -0.868670       -23.6377
 119   2.0000      -0.861788       -23.4505
 120   2.0000      -0.841503       -22.8985
 121   2.0000      -0.840662       -22.8756
 122   2.0000      -0.838788       -22.8246
 123   2.0000      -0.818232       -22.2652
 124   2.0000      -0.806409       -21.9435
 125   2.0000      -0.799919       -21.7669
 126   2.0000      -0.782920       -21.3043
 127   2.0000      -0.778707       -21.1897
 128   2.0000      -0.769339       -20.9348
 129   2.0000      -0.766243       -20.8505
 130   2.0000      -0.763825       -20.7847
 131   2.0000      -0.746126       -20.3031
 132   2.0000      -0.744476       -20.2582
 133   2.0000      -0.730466       -19.8770
 134   2.0000      -0.727345       -19.7921
 135   2.0000      -0.708864       -19.2892
 136   2.0000      -0.701307       -19.0835
 137   2.0000      -0.697063       -18.9681
 138   2.0000      -0.689990       -18.7756
 139   2.0000      -0.687706       -18.7134
 140   2.0000      -0.685179       -18.6447
 141   2.0000      -0.684891       -18.6368
 142   2.0000      -0.682110       -18.5611
 143   2.0000      -0.674941       -18.3661
 144   2.0000      -0.670548       -18.2465
 145   2.0000      -0.665484       -18.1088
 146   2.0000      -0.653641       -17.7865
 147   2.0000      -0.647259       -17.6128
 148   2.0000      -0.640853       -17.4385
 149   2.0000      -0.629660       -17.1339
 150   2.0000      -0.627380       -17.0719
 151   2.0000      -0.624042       -16.9810
 152   2.0000      -0.623418       -16.9641
 153   2.0000      -0.615129       -16.7385
 154   2.0000      -0.610171       -16.6036
 155   2.0000      -0.602744       -16.4015
 156   2.0000      -0.592396       -16.1199
 157   2.0000      -0.586314       -15.9544
 158   2.0000      -0.576737       -15.6938
 159   2.0000      -0.574570       -15.6348
 160   2.0000      -0.565102       -15.3772
 161   2.0000      -0.561582       -15.2814
 162   2.0000      -0.561085       -15.2679
 163   2.0000      -0.558758       -15.2046
 164   2.0000      -0.555381       -15.1127
 165   2.0000      -0.554645       -15.0927
 166   2.0000      -0.553358       -15.0576
 167   2.0000      -0.549045       -14.9403
 168   2.0000      -0.548421       -14.9233
 169   2.0000      -0.545709       -14.8495
 170   2.0000      -0.544929       -14.8283
 171   2.0000      -0.543512       -14.7897
 172   2.0000      -0.539152       -14.6711
 173   2.0000      -0.533744       -14.5239
 174   2.0000      -0.532490       -14.4898
 175   2.0000      -0.529411       -14.4060
 176   2.0000      -0.527394       -14.3511
 177   2.0000      -0.523913       -14.2564
 178   2.0000      -0.521878       -14.2010
 179   2.0000      -0.515435       -14.0257
 180   2.0000      -0.514075       -13.9887
 181   2.0000      -0.513764       -13.9802
 182   2.0000      -0.511875       -13.9288
 183   2.0000      -0.510286       -13.8856
 184   2.0000      -0.508181       -13.8283
 185   2.0000      -0.507517       -13.8102
 186   2.0000      -0.505044       -13.7430
 187   2.0000      -0.503980       -13.7140
 188   2.0000      -0.501392       -13.6436
 189   2.0000      -0.500927       -13.6309
 190   2.0000      -0.496841       -13.5197
 191   2.0000      -0.494308       -13.4508
 192   2.0000      -0.494047       -13.4437
 193   2.0000      -0.484232       -13.1766
 194   2.0000      -0.481039       -13.0897
 195   2.0000      -0.471759       -12.8372
 196   2.0000      -0.471038       -12.8176
 197   2.0000      -0.465079       -12.6554
 198   2.0000      -0.464001       -12.6261
 199   2.0000      -0.462685       -12.5903
 200   2.0000      -0.460371       -12.5273
 201   2.0000      -0.459867       -12.5136
 202   2.0000      -0.457054       -12.4371
 203   2.0000      -0.455423       -12.3927
 204   2.0000      -0.454757       -12.3746
 205   2.0000      -0.453184       -12.3318
 206   2.0000      -0.452931       -12.3249
 207   2.0000      -0.452113       -12.3026
 208   2.0000      -0.449874       -12.2417
 209   2.0000      -0.447830       -12.1861
 210   2.0000      -0.447173       -12.1682
 211   2.0000      -0.445697       -12.1280
 212   2.0000      -0.444622       -12.0988
 213   2.0000      -0.441666       -12.0183
 214   2.0000      -0.440369       -11.9831
 215   2.0000      -0.439331       -11.9548
 216   2.0000      -0.433261       -11.7896
 217   2.0000      -0.430010       -11.7012
 218   2.0000      -0.429192       -11.6789
 219   2.0000      -0.427319       -11.6279
 220   2.0000      -0.423309       -11.5188
 221   2.0000      -0.421901       -11.4805
 222   2.0000      -0.420874       -11.4526
 223   2.0000      -0.414193       -11.2708
 224   2.0000      -0.411468       -11.1966
 225   2.0000      -0.411367       -11.1939
 226   2.0000      -0.408282       -11.1099
 227   2.0000      -0.405767       -11.0415
 228   2.0000      -0.400641       -10.9020
 229   2.0000      -0.389771       -10.6062
 230   2.0000      -0.368468       -10.0265
 231   2.0000      -0.365059        -9.9338
 232   2.0000      -0.356838        -9.7101
 233   2.0000      -0.348437        -9.4814
 234   2.0000      -0.347151        -9.4465
 235   2.0000      -0.344659        -9.3786
 236   2.0000      -0.340237        -9.2583
 237   2.0000      -0.338804        -9.2193
 238   2.0000      -0.336838        -9.1658
 239   2.0000      -0.321300        -8.7430
 240   2.0000      -0.318534        -8.6677
 241   2.0000      -0.307832        -8.3765
 242   2.0000      -0.281815        -7.6686
 243   0.0000      -0.146231        -3.9791
 244   0.0000      -0.108013        -2.9392
 245   0.0000      -0.099796        -2.7156
 246   0.0000      -0.061944        -1.6856
 247   0.0000      -0.059224        -1.6116

MULLIKEN ATOMIC CHARGES
-----------------------
   0 C :    0.027275
   1 C :   -0.127263
   2 S :    0.190406
   3 C :   -0.169695
   4 Cl:    0.011556
   5 C :    0.080363
   6 C :    0.169692
   7 O :   -0.156450
   8 C :   -0.096480
   9 C :    0.300011
  10 C :   -0.334502
  11 C :   -0.193201
  12 N :    0.161595
  13 C :   -0.174721
  14 N :    0.145866
  15 C :   -0.067808
  16 C :   -0.060941
  17 S :    0.210856
  18 C :   -0.094074
  19 C :   -0.037569
  20 C :   -0.106770
  21 C :    0.190773
  22 C :   -0.174406
  23 C :    0.514388
  24 F :   -0.153412
  25 F :   -0.141311
  26 F :   -0.163559
  27 C :   -0.091428
  28 C :   -0.261651
  29 N :    0.165379
  30 C :    0.146183
  31 C :    0.080262
  32 C :   -0.127050
  33 C :    0.126405
  34 C :   -0.086760
  35 C :   -0.018570
  36 C :   -0.180346
  37 N :    0.148121
  38 C :    0.096613
  39 C :   -0.089051
  40 C :    0.054311
  41 C :    0.019874
  42 C :   -0.089271
  43 C :   -0.175673
  44 N :    0.147189
  45 C :    0.126993
  46 O :   -0.164667
  47 C :    0.150799
  48 N :   -0.080437
  49 N :   -0.055989
  50 C :    0.009096
  51 C :   -0.112699
  52 C :    0.135070
  53 O :   -0.115136
  54 C :    0.080908
  55 C :   -0.166385
  56 S :    0.193954
  57 C :   -0.122993
  58 C :    0.019582
  59 C :    0.274792
  60 C :   -0.266967
  61 C :   -0.191373
  62 N :    0.162462
  63 C :   -0.182981
  64 N :    0.166589
  65 Cl:    0.006727
  66 H :    0.056146
  67 H :   -0.003133
  68 H :    0.060429
  69 H :    0.044417
  70 H :    0.043946
  71 H :    0.054955
  72 H :    0.045209
  73 H :    0.044668
  74 H :    0.026785
  75 H :    0.002999
  76 H :    0.017081
  77 H :    0.022111
  78 H :    0.045164
  79 H :    0.056724
Sum of atomic charges:   -0.0000000

LOEWDIN ATOMIC CHARGES
----------------------
   0 C :   -0.059503
   1 C :   -0.146522
   2 S :    0.479178
   3 C :   -0.269975
   4 Cl:    0.201525
   5 C :   -0.117527
   6 C :    0.082125
   7 O :   -0.149590
   8 C :   -0.092834
   9 C :    0.075983
  10 C :   -0.139806
  11 C :   -0.016380
  12 N :   -0.048511
  13 C :   -0.020455
  14 N :   -0.049773
  15 C :    0.049862
  16 C :   -0.184595
  17 S :    0.546921
  18 C :   -0.158487
  19 C :   -0.061746
  20 C :   -0.025351
  21 C :   -0.020566
  22 C :   -0.047192
  23 C :    0.160156
  24 F :   -0.050269
  25 F :   -0.042432
  26 F :   -0.059213
  27 C :   -0.040301
  28 C :   -0.048339
  29 N :   -0.044533
  30 C :   -0.008568
  31 C :   -0.028032
  32 C :   -0.022363
  33 C :    0.043804
  34 C :   -0.072965
  35 C :    0.049880
  36 C :   -0.032848
  37 N :   -0.050679
  38 C :    0.040235
  39 C :    0.005725
  40 C :   -0.039645
  41 C :    0.076039
  42 C :   -0.080903
  43 C :   -0.031627
  44 N :   -0.050940
  45 C :    0.040640
  46 O :    0.034214
  47 C :    0.025193
  48 N :   -0.055437
  49 N :   -0.066326
  50 C :    0.032734
  51 C :   -0.039156
  52 C :    0.081963
  53 O :   -0.119892
  54 C :   -0.120990
  55 C :   -0.270117
  56 S :    0.483675
  57 C :   -0.150732
  58 C :   -0.054206
  59 C :    0.064411
  60 C :   -0.103578
  61 C :   -0.013678
  62 N :   -0.038863
  63 C :   -0.017187
  64 N :   -0.042904
  65 Cl:    0.198155
  66 H :    0.038596
  67 H :    0.047734
  68 H :    0.047255
  69 H :    0.046761
  70 H :    0.047490
  71 H :    0.057862
  72 H :    0.043133
  73 H :    0.043812
  74 H :    0.033898
  75 H :    0.038219
  76 H :    0.041045
  77 H :    0.047791
  78 H :    0.060164
  79 H :    0.039362

  Mayer bond orders larger than 0.100000
B(  0-C ,  1-C ) :   1.5490 B(  0-C ,  5-C ) :   1.2254 B(  0-C ,  9-C ) :   0.9956
B(  1-C ,  2-S ) :   1.1617 B(  1-C , 66-H ) :   0.9530 B(  2-S ,  3-C ) :   1.1498
B(  3-C ,  4-Cl) :   1.1396 B(  3-C ,  5-C ) :   1.4693 B(  5-C ,  6-C ) :   0.9714
B(  6-C ,  7-O ) :   2.1470 B(  6-C ,  8-C ) :   0.9605 B(  8-C ,  9-C ) :   1.0798
B(  8-C , 15-C ) :   1.5545 B(  9-C , 10-C ) :   1.6397 B( 10-C , 11-C ) :   1.1484
B( 10-C , 13-C ) :   1.1464 B( 11-C , 12-N ) :   2.9910 B( 13-C , 14-N ) :   2.9531
B( 15-C , 16-C ) :   1.2388 B( 15-C , 67-H ) :   0.9283 B( 16-C , 17-S ) :   1.1071
B( 16-C , 18-C ) :   0.1051 B( 16-C , 20-C ) :   1.3833 B( 17-S , 18-C ) :   1.1438
B( 18-C , 19-C ) :   1.4147 B( 18-C , 31-C ) :   1.1077 B( 19-C , 20-C ) :   1.3990
B( 19-C , 30-C ) :   1.0516 B( 20-C , 21-C ) :   1.0391 B( 21-C , 22-C ) :   1.0316
B( 21-C , 68-H ) :   0.8998 B( 21-C , 69-H ) :   0.8953 B( 22-C , 23-C ) :   0.9817
B( 22-C , 27-C ) :   1.0109 B( 22-C , 70-H ) :   0.8939 B( 23-C , 24-F ) :   1.1541
B( 23-C , 25-F ) :   1.1678 B( 23-C , 26-F ) :   1.1476 B( 27-C , 28-C ) :   1.0814
B( 27-C , 30-C ) :   1.0815 B( 27-C , 71-H ) :   0.8684 B( 28-C , 29-N ) :   3.1256
B( 30-C , 72-H ) :   0.8902 B( 30-C , 73-H ) :   0.9141 B( 31-C , 32-C ) :   1.5456
B( 31-C , 35-C ) :   1.0429 B( 32-C , 33-C ) :   1.1249 B( 32-C , 74-H ) :   0.9946
B( 33-C , 34-C ) :   1.0970 B( 33-C , 38-C ) :   1.4192 B( 34-C , 35-C ) :   1.6861
B( 34-C , 36-C ) :   1.0871 B( 35-C , 75-H ) :   1.0171 B( 36-C , 37-N ) :   2.9672
B( 38-C , 39-C ) :   1.0843 B( 38-C , 42-C ) :   1.1142 B( 39-C , 40-C ) :   1.5656
B( 39-C , 76-H ) :   1.0121 B( 40-C , 41-C ) :   1.0736 B( 40-C , 45-C ) :   1.0095
B( 41-C , 42-C ) :   1.6485 B( 41-C , 77-H ) :   1.0301 B( 42-C , 43-C ) :   1.0903
B( 43-C , 44-N ) :   2.9671 B( 45-C , 46-O ) :   1.1960 B( 45-C , 49-N ) :   1.7051
B( 46-O , 47-C ) :   1.1389 B( 47-C , 48-N ) :   1.6185 B( 47-C , 50-C ) :   1.0550
B( 48-N , 49-N ) :   1.2354 B( 50-C , 51-C ) :   1.7401 B( 50-C , 78-H ) :   0.9459
B( 51-C , 52-C ) :   0.9198 B( 51-C , 59-C ) :   1.0118 B( 52-C , 53-O ) :   2.2963
B( 52-C , 54-C ) :   0.9292 B( 54-C , 55-C ) :   1.4738 B( 54-C , 58-C ) :   1.2217
B( 55-C , 56-S ) :   1.1607 B( 55-C , 65-Cl) :   1.1353 B( 56-S , 57-C ) :   1.1587
B( 57-C , 58-C ) :   1.5537 B( 57-C , 79-H ) :   0.9555 B( 58-C , 59-C ) :   1.0134
B( 59-C , 60-C ) :   1.7142 B( 60-C , 61-C ) :   1.1404 B( 60-C , 63-C ) :   1.1428
B( 61-C , 62-N ) :   2.9988 B( 63-C , 64-N ) :   2.9990

-----------------------------------------------------------------------------
         ABSORPTION SPECTRUM VIA TRANSITION ELECTRIC DIPOLE MOMENTS
-----------------------------------------------------------------------------
State   Energy  Wavelength   fosc         T2         TX        TY        TZ
        (cm-1)    (nm)                  (au**2)     (au)      (au)      (au)
-----------------------------------------------------------------------------
   0   13594.7    735.6   0.660135289  15.98599   2.95194  -2.50700   0.99349
   1   17920.0    558.0   0.044050302   0.80925   0.87821  -0.19370   0.02192
   2   22032.5    453.9   0.909981153  13.59700  -1.75762   3.13609  -0.82017
   3   23852.9    419.2   0.172596060   2.38212  -1.12129  -0.90452   0.55379
   4   23927.7    417.9   0.145839061   2.00654   0.96393  -1.02859  -0.13923
   5   25093.6    398.5   0.002940926   0.03858  -0.17596  -0.01330   0.08629
   6   25308.7    395.1   0.093963422   1.22226   0.48093  -0.90888   0.40609
   7   25446.6    393.0   0.090399150   1.16953   0.65879  -0.84725  -0.13300
   8   25987.5    384.8   0.022125202   0.28028  -0.47173  -0.15214  -0.18604
   9   27078.9    369.3   0.168662005   2.05051   1.36610  -0.15876   0.39883
  10   27758.2    360.3   0.009096363   0.10788   0.26659   0.15444  -0.11385
  11   28554.9    350.2   0.007777371   0.08967   0.28548   0.08837  -0.01888
  12   29488.7    339.1   0.015105299   0.16864  -0.34030  -0.21602   0.07852
  13   29740.5    336.2   0.002315359   0.02563   0.12541   0.06024  -0.07920
  14   30204.9    331.1   0.052887890   0.57644   0.71496   0.11038  -0.23042
  15   30383.9    329.1   0.055244020   0.59857   0.72503   0.23901   0.12564
  16   31116.3    321.4   0.084822202   0.89742  -0.53862   0.61143  -0.48318
  17   31793.2    314.5   0.075141242   0.77807   0.81824   0.32925   0.01206
  18   32226.6    310.3   0.018999006   0.19409  -0.27254  -0.32629   0.11551
  19   33032.7    302.7   0.025537486   0.25451   0.37667   0.01525   0.33527
  20   33801.7    295.8   0.028539148   0.27796  -0.42258   0.28818  -0.12781
  21   33979.3    294.3   0.113055638   1.09535   0.64516   0.81670  -0.11011
  22   34017.9    294.0   0.024881046   0.24079   0.44751   0.11343   0.16629
  23   34642.8    288.7   0.002049948   0.01948  -0.09901   0.03217  -0.09297
  24   34660.0    288.5   0.059925542   0.56919   0.52096   0.35592   0.41366
  25   35159.8    284.4   0.145200577   1.35956  -0.70974   0.69117  -0.61491
  26   35398.6    282.5   0.248594710   2.31197   0.67364   1.31089  -0.37384
  27   36028.1    277.6   0.017129317   0.15652  -0.28921  -0.05072   0.26516
  28   36348.0    275.1   0.030021338   0.27191  -0.02092  -0.45832   0.24783
  29   36434.3    274.5   0.016831426   0.15209  -0.24509   0.26423  -0.14899
  30   37055.9    269.9   0.471050764   4.18490   1.36318  -1.39242   0.62273
  31   37511.9    266.6   0.000121986   0.00107   0.02382   0.01268  -0.01850
  32   37748.9    264.9   0.567523091   4.94942  -2.05404  -0.85160   0.07152
  33   38273.2    261.3   0.353724505   3.04261   0.35705  -1.26647   1.14507
  34   38479.5    259.9   0.076034872   0.65052   0.72529  -0.32258   0.14287
  35   38706.4    258.4   0.101066578   0.85961   0.70596  -0.45969   0.38718
  36   39535.8    252.9   0.024916115   0.20747  -0.41192   0.19008   0.04078
  37   40011.6    249.9   0.248892778   2.04787  -1.13083   0.86992  -0.11105

FINAL SINGLE POINT ENERGY     -4889.985766840983

DIPOLE MOMENT
-------------
                                X             Y             Z
Electronic contribution:     19.15524      -4.28850       2.95482
Nuclear contribution   :    -17.05449       4.33298      -2.06905
                        -----------------------------------------
Total Dipole Moment    :      2.10075       0.04448       0.88577
                        -----------------------------------------
Magnitude (a.u.)       :      2.28029
Magnitude (Debye)      :      5.79604

Rotational constants in cm-1:     0.001661     0.000283     0.000245
Rotational constants in MHz :    49.790753     8.482580     7.337666

                             ****ORCA TERMINATED NORMALLY****
TOTAL RUN TIME: 0 days 0 hours 7 minutes 4 seconds 625 msec
