                         Program Version 4.2.0 -  RELEASE  -
|  1> # ORCA input file
|  2> # SCF done       -143.597725537868          0.000700511093
|  3> ! CAM-B3LYP def2-SVP def2/J RIJCOSX Grid4 TightSCF
|  4> %maxcore 5000
|  5> %tddft
|  6>     Mode sTDDFT
|  7>     Ethresh 5.0
|  8>     maxcore 5000
|  9> end
| 10>
| 11> %pal
| 12>   nprocs 6
| 13>   end
| 14> * xyz 0 1
| 15>    C        9.54280        -6.05761         2.57666
| 16>    C       10.38260        -6.78058         3.36675
| 17>    S       11.05438        -8.11745         2.50519
| 18>    C       10.19385        -7.70207         1.04405
| 19>   Cl       10.32002        -8.63501        -0.36667
| 20>    C        9.43780        -6.58187         1.24830
| 21>    C        8.53201        -5.76162         0.45728
| 22>    O        8.27261        -5.89638        -0.72336
| 23>    C        8.04292        -4.69968         1.38920
| 24>    C        8.69194        -4.89115         2.68967
| 25>    C        8.53435        -4.15845         3.83283
| 26>    C        9.23507        -4.48999         5.01419
| 27>    N        9.79592        -4.74366         5.98157
| 28>    C        7.70090        -3.03348         4.00174
| 29>    N        7.04326        -2.11706         4.21476
| 30>    C        7.21787        -3.66708         1.08455
| 31>    C        6.53209        -3.41233        -0.15928
| 32>    C        6.01026        -4.40905        -0.97991
| 33>    C        5.44174        -4.06981        -2.20904
| 34>    C        5.30483        -2.70436        -2.49574
| 35>    N        5.74828        -1.75439        -1.69972
| 36>    C        6.36325        -2.08197        -0.58470
| 37>    C        5.04176        -5.09615        -3.13451
| 38>    S        3.79805        -4.87387        -4.33209
| 39>    C        3.99570        -6.47283        -5.00254
| 40>    C        5.01092        -7.14412        -4.32767
| 41>    C        5.58780        -6.35676        -3.28087
| 42>    N        6.58888        -7.07196        -2.70732
| 43>    C        6.67301        -8.28129        -3.36394
| 44>    C        7.63121        -9.23504        -2.99285
| 45>    N        8.41588       -10.01041        -2.67618
| 46>    C        5.71338        -8.37097        -4.35254
| 47>    C        3.21069        -6.89999        -6.09582
| 48>    S        3.41094        -8.46948        -6.80056
| 49>    C        2.21940        -8.13210        -8.02044
| 50>    C        1.88363        -9.17490        -8.94692
| 51>    O        1.12557        -9.08499        -9.89145
| 52>    C        1.68340        -6.85104        -7.85507
| 53>    C        2.22681        -6.18419        -6.75131
| 54>    C        0.64826        -6.26097        -8.67394
| 55>    C        0.54297        -6.27013       -10.01412
| 56>    C       -0.76649        -5.91564       -10.65881
| 57>    O       -1.68381        -5.32956       -10.14058
| 58>    C       -0.66658        -6.49435       -12.00164
| 59>    C       -1.48549        -6.67509       -13.07674
| 60>    S       -0.63738        -7.50526       -14.35913
| 61>    C        0.81579        -7.59088       -13.43442
| 62>    C        0.65210        -7.02099       -12.21113
| 63>    C        1.45859        -6.76304       -11.03813
| 64>    C        2.82322        -6.79227       -10.99522
| 65>    C        3.58288        -7.25816       -12.08966
| 66>    N        4.21476        -7.64188       -12.96643
| 67>    C        3.60456        -6.32786        -9.91939
| 68>    N        4.29107        -5.91889        -9.09460
| 69>   Cl       -3.10216        -6.20227       -13.25033
| 70>    H       10.65598        -6.62484         4.39151
| 71>    H        7.08251        -2.89492         1.83202
| 72>    H        5.99014        -5.43301        -0.64549
| 73>    H        4.81323        -2.37922        -3.40307
| 74>    H        6.75102        -1.26054         0.00194
| 75>    H        7.25783        -6.73227        -2.02781
| 76>    H        5.55231        -9.20399        -5.00593
| 77>    H        2.40840       -10.12534        -8.73165
| 78>    H        1.94747        -5.18600        -6.46347
| 79>    H       -0.15858        -5.77578        -8.13333
| 80>    H        1.68059        -8.06836       -13.85046
| 81> *
| 82>
| 83>                          ****END OF INPUT****

CARTESIAN COORDINATES (ANGSTROEM)
---------------------------------
  C      9.542800   -6.057610    2.576660
  C     10.382600   -6.780580    3.366750
  S     11.054380   -8.117450    2.505190
  C     10.193850   -7.702070    1.044050
  Cl    10.320020   -8.635010   -0.366670
  C      9.437800   -6.581870    1.248300
  C      8.532010   -5.761620    0.457280
  O      8.272610   -5.896380   -0.723360
  C      8.042920   -4.699680    1.389200
  C      8.691940   -4.891150    2.689670
  C      8.534350   -4.158450    3.832830
  C      9.235070   -4.489990    5.014190
  N      9.795920   -4.743660    5.981570
  C      7.700900   -3.033480    4.001740
  N      7.043260   -2.117060    4.214760
  C      7.217870   -3.667080    1.084550
  C      6.532090   -3.412330   -0.159280
  C      6.010260   -4.409050   -0.979910
  C      5.441740   -4.069810   -2.209040
  C      5.304830   -2.704360   -2.495740
  N      5.748280   -1.754390   -1.699720
  C      6.363250   -2.081970   -0.584700
  C      5.041760   -5.096150   -3.134510
  S      3.798050   -4.873870   -4.332090
  C      3.995700   -6.472830   -5.002540
  C      5.010920   -7.144120   -4.327670
  C      5.587800   -6.356760   -3.280870
  N      6.588880   -7.071960   -2.707320
  C      6.673010   -8.281290   -3.363940
  C      7.631210   -9.235040   -2.992850
  N      8.415880  -10.010410   -2.676180
  C      5.713380   -8.370970   -4.352540
  C      3.210690   -6.899990   -6.095820
  S      3.410940   -8.469480   -6.800560
  C      2.219400   -8.132100   -8.020440
  C      1.883630   -9.174900   -8.946920
  O      1.125570   -9.084990   -9.891450
  C      1.683400   -6.851040   -7.855070
  C      2.226810   -6.184190   -6.751310
  C      0.648260   -6.260970   -8.673940
  C      0.542970   -6.270130  -10.014120
  C     -0.766490   -5.915640  -10.658810
  O     -1.683810   -5.329560  -10.140580
  C     -0.666580   -6.494350  -12.001640
  C     -1.485490   -6.675090  -13.076740
  S     -0.637380   -7.505260  -14.359130
  C      0.815790   -7.590880  -13.434420
  C      0.652100   -7.020990  -12.211130
  C      1.458590   -6.763040  -11.038130
  C      2.823220   -6.792270  -10.995220
  C      3.582880   -7.258160  -12.089660
  N      4.214760   -7.641880  -12.966430
  C      3.604560   -6.327860   -9.919390
  N      4.291070   -5.918890   -9.094600
  Cl    -3.102160   -6.202270  -13.250330
  H     10.655980   -6.624840    4.391510
  H      7.082510   -2.894920    1.832020
  H      5.990140   -5.433010   -0.645490
  H      4.813230   -2.379220   -3.403070
  H      6.751020   -1.260540    0.001940
  H      7.257830   -6.732270   -2.027810
  H      5.552310   -9.203990   -5.005930
  H      2.408400  -10.125340   -8.731650
  H      1.947470   -5.186000   -6.463470
  H     -0.158580   -5.775780   -8.133330
  H      1.680590   -8.068360  -13.850460

 Total Charge           Charge          ....    0
 Multiplicity           Mult            ....    1
 Number of Electrons    NEL             ....  416
 Basis Dimension        Dim             ....  849

ORBITAL ENERGIES
----------------

  NO   OCC          E(Eh)            E(eV)
   0   2.0000    -101.630440     -2765.5049
   1   2.0000    -101.613897     -2765.0547
   2   2.0000     -89.009309     -2422.0664
   3   2.0000     -88.989577     -2421.5295
   4   2.0000     -88.981859     -2421.3195
   5   2.0000     -88.980648     -2421.2865
   6   2.0000     -19.251348      -523.8558
   7   2.0000     -19.218318      -522.9570
   8   2.0000     -19.217836      -522.9439
   9   2.0000     -14.474061      -393.8592
  10   2.0000     -14.436827      -392.8460
  11   2.0000     -14.434281      -392.7768
  12   2.0000     -14.424812      -392.5191
  13   2.0000     -14.422173      -392.4473
  14   2.0000     -14.416901      -392.3038
  15   2.0000     -14.415053      -392.2535
  16   2.0000     -10.408172      -283.2208
  17   2.0000     -10.393661      -282.8259
  18   2.0000     -10.374251      -282.2977
  19   2.0000     -10.372156      -282.2407
  20   2.0000     -10.367839      -282.1232
  21   2.0000     -10.366123      -282.0765
  22   2.0000     -10.365476      -282.0590
  23   2.0000     -10.356303      -281.8093
  24   2.0000     -10.345751      -281.5222
  25   2.0000     -10.344764      -281.4953
  26   2.0000     -10.343520      -281.4615
  27   2.0000     -10.343392      -281.4580
  28   2.0000     -10.338217      -281.3172
  29   2.0000     -10.336606      -281.2733
  30   2.0000     -10.335767      -281.2505
  31   2.0000     -10.331313      -281.1293
  32   2.0000     -10.330179      -281.0984
  33   2.0000     -10.329178      -281.0712
  34   2.0000     -10.329026      -281.0671
  35   2.0000     -10.328858      -281.0625
  36   2.0000     -10.327630      -281.0291
  37   2.0000     -10.324145      -280.9343
  38   2.0000     -10.324037      -280.9313
  39   2.0000     -10.322957      -280.9019
  40   2.0000     -10.318756      -280.7876
  41   2.0000     -10.317986      -280.7667
  42   2.0000     -10.317062      -280.7415
  43   2.0000     -10.316902      -280.7372
  44   2.0000     -10.316029      -280.7134
  45   2.0000     -10.315283      -280.6931
  46   2.0000     -10.314855      -280.6815
  47   2.0000     -10.314730      -280.6781
  48   2.0000     -10.313277      -280.6385
  49   2.0000     -10.307842      -280.4906
  50   2.0000     -10.305310      -280.4217
  51   2.0000     -10.299118      -280.2532
  52   2.0000     -10.296981      -280.1951
  53   2.0000     -10.296768      -280.1893
  54   2.0000     -10.294271      -280.1214
  55   2.0000      -9.584784      -260.8152
  56   2.0000      -9.568695      -260.3774
  57   2.0000      -8.105041      -220.5494
  58   2.0000      -8.085321      -220.0128
  59   2.0000      -8.076160      -219.7635
  60   2.0000      -8.075858      -219.7553
  61   2.0000      -7.355486      -200.1529
  62   2.0000      -7.344802      -199.8622
  63   2.0000      -7.344224      -199.8465
  64   2.0000      -7.339330      -199.7133
  65   2.0000      -7.328726      -199.4248
  66   2.0000      -7.328199      -199.4104
  67   2.0000      -6.074404      -165.2929
  68   2.0000      -6.069725      -165.1656
  69   2.0000      -6.067347      -165.1009
  70   2.0000      -6.054665      -164.7558
  71   2.0000      -6.050088      -164.6313
  72   2.0000      -6.047609      -164.5638
  73   2.0000      -6.045568      -164.5083
  74   2.0000      -6.045064      -164.4945
  75   2.0000      -6.041332      -164.3930
  76   2.0000      -6.040990      -164.3837
  77   2.0000      -6.038361      -164.3122
  78   2.0000      -6.038109      -164.3053
  79   2.0000      -1.167258       -31.7627
  80   2.0000      -1.135366       -30.8949
  81   2.0000      -1.129869       -30.7453
  82   2.0000      -1.104754       -30.0619
  83   2.0000      -1.061094       -28.8738
  84   2.0000      -1.054459       -28.6933
  85   2.0000      -1.034139       -28.1404
  86   2.0000      -1.032862       -28.1056
  87   2.0000      -1.017317       -27.6826
  88   2.0000      -1.013846       -27.5882
  89   2.0000      -1.011312       -27.5192
  90   2.0000      -1.005326       -27.3563
  91   2.0000      -1.003884       -27.3171
  92   2.0000      -0.994639       -27.0655
  93   2.0000      -0.987862       -26.8811
  94   2.0000      -0.983908       -26.7735
  95   2.0000      -0.971050       -26.4236
  96   2.0000      -0.950954       -25.8768
  97   2.0000      -0.944256       -25.6945
  98   2.0000      -0.929448       -25.2916
  99   2.0000      -0.920549       -25.0494
 100   2.0000      -0.908316       -24.7165
 101   2.0000      -0.895919       -24.3792
 102   2.0000      -0.891444       -24.2574
 103   2.0000      -0.876405       -23.8482
 104   2.0000      -0.867881       -23.6163
 105   2.0000      -0.853162       -23.2157
 106   2.0000      -0.849221       -23.1085
 107   2.0000      -0.845097       -22.9963
 108   2.0000      -0.828585       -22.5469
 109   2.0000      -0.810545       -22.0560
 110   2.0000      -0.803113       -21.8538
 111   2.0000      -0.779944       -21.2233
 112   2.0000      -0.774808       -21.0836
 113   2.0000      -0.759684       -20.6720
 114   2.0000      -0.753708       -20.5094
 115   2.0000      -0.750784       -20.4299
 116   2.0000      -0.741817       -20.1859
 117   2.0000      -0.731424       -19.9031
 118   2.0000      -0.710913       -19.3449
 119   2.0000      -0.700362       -19.0578
 120   2.0000      -0.695430       -18.9236
 121   2.0000      -0.694230       -18.8910
 122   2.0000      -0.688172       -18.7261
 123   2.0000      -0.672179       -18.2909
 124   2.0000      -0.672018       -18.2865
 125   2.0000      -0.670674       -18.2500
 126   2.0000      -0.656603       -17.8671
 127   2.0000      -0.636493       -17.3198
 128   2.0000      -0.630694       -17.1621
 129   2.0000      -0.625198       -17.0125
 130   2.0000      -0.619559       -16.8590
 131   2.0000      -0.611677       -16.6446
 132   2.0000      -0.609884       -16.5958
 133   2.0000      -0.605341       -16.4722
 134   2.0000      -0.600916       -16.3518
 135   2.0000      -0.588736       -16.0203
 136   2.0000      -0.584348       -15.9009
 137   2.0000      -0.576305       -15.6820
 138   2.0000      -0.570964       -15.5367
 139   2.0000      -0.568717       -15.4756
 140   2.0000      -0.567106       -15.4318
 141   2.0000      -0.556333       -15.1386
 142   2.0000      -0.553819       -15.0702
 143   2.0000      -0.551075       -14.9955
 144   2.0000      -0.546601       -14.8738
 145   2.0000      -0.541063       -14.7231
 146   2.0000      -0.540004       -14.6942
 147   2.0000      -0.531444       -14.4613
 148   2.0000      -0.530306       -14.4304
 149   2.0000      -0.529818       -14.4171
 150   2.0000      -0.525327       -14.2949
 151   2.0000      -0.522354       -14.2140
 152   2.0000      -0.520091       -14.1524
 153   2.0000      -0.519874       -14.1465
 154   2.0000      -0.516486       -14.0543
 155   2.0000      -0.512795       -13.9539
 156   2.0000      -0.510993       -13.9048
 157   2.0000      -0.508478       -13.8364
 158   2.0000      -0.501461       -13.6454
 159   2.0000      -0.499948       -13.6043
 160   2.0000      -0.498413       -13.5625
 161   2.0000      -0.492183       -13.3930
 162   2.0000      -0.485566       -13.2129
 163   2.0000      -0.484505       -13.1841
 164   2.0000      -0.479936       -13.0597
 165   2.0000      -0.476447       -12.9648
 166   2.0000      -0.470532       -12.8038
 167   2.0000      -0.467671       -12.7260
 168   2.0000      -0.466460       -12.6930
 169   2.0000      -0.462524       -12.5859
 170   2.0000      -0.461527       -12.5588
 171   2.0000      -0.461060       -12.5461
 172   2.0000      -0.453908       -12.3515
 173   2.0000      -0.452599       -12.3159
 174   2.0000      -0.450429       -12.2568
 175   2.0000      -0.448391       -12.2013
 176   2.0000      -0.446718       -12.1558
 177   2.0000      -0.445788       -12.1305
 178   2.0000      -0.440978       -11.9996
 179   2.0000      -0.438352       -11.9282
 180   2.0000      -0.435532       -11.8514
 181   2.0000      -0.434045       -11.8110
 182   2.0000      -0.432770       -11.7763
 183   2.0000      -0.430870       -11.7246
 184   2.0000      -0.429773       -11.6947
 185   2.0000      -0.428166       -11.6510
 186   2.0000      -0.424591       -11.5537
 187   2.0000      -0.417704       -11.3663
 188   2.0000      -0.414233       -11.2719
 189   2.0000      -0.408085       -11.1045
 190   2.0000      -0.401639       -10.9291
 191   2.0000      -0.400233       -10.8909
 192   2.0000      -0.396298       -10.7838
 193   2.0000      -0.375647       -10.2219
 194   2.0000      -0.367488        -9.9999
 195   2.0000      -0.357813        -9.7366
 196   2.0000      -0.353271        -9.6130
 197   2.0000      -0.348943        -9.4952
 198   2.0000      -0.345964        -9.4142
 199   2.0000      -0.340638        -9.2692
 200   2.0000      -0.337462        -9.1828
 201   2.0000      -0.335766        -9.1367
 202   2.0000      -0.329030        -8.9534
 203   2.0000      -0.319655        -8.6983
 204   2.0000      -0.318867        -8.6768
 205   2.0000      -0.314433        -8.5562
 206   2.0000      -0.303758        -8.2657
 207   2.0000      -0.256434        -6.9779
 208   0.0000      -0.110296        -3.0013
 209   0.0000      -0.095004        -2.5852
 210   0.0000      -0.076090        -2.0705
 211   0.0000      -0.073406        -1.9975
 212   0.0000      -0.042259        -1.1499

MULLIKEN ATOMIC CHARGES
-----------------------
   0 C :    0.038334
   1 C :   -0.127040
   2 S :    0.204046
   3 C :   -0.159449
   4 Cl:    0.032734
   5 C :    0.064568
   6 C :    0.180407
   7 O :   -0.183881
   8 C :   -0.081168
   9 C :    0.288843
  10 C :   -0.323792
  11 C :   -0.192940
  12 N :    0.165390
  13 C :   -0.183169
  14 N :    0.166759
  15 C :   -0.015316
  16 C :    0.017298
  17 C :    0.041699
  18 C :    0.018537
  19 C :    0.001872
  20 N :   -0.046350
  21 C :    0.007721
  22 C :   -0.165407
  23 S :    0.165236
  24 C :   -0.095659
  25 C :    0.083788
  26 C :    0.117024
  27 N :   -0.037685
  28 C :   -0.094148
  29 C :   -0.128578
  30 N :    0.149421
  31 C :   -0.039103
  32 C :   -0.020516
  33 S :    0.152699
  34 C :   -0.183294
  35 C :    0.198930
  36 O :   -0.206877
  37 C :    0.098164
  38 C :   -0.036751
  39 C :   -0.000207
  40 C :   -0.101001
  41 C :    0.129263
  42 O :   -0.125259
  43 C :    0.095844
  44 C :   -0.174625
  45 S :    0.185037
  46 C :   -0.123281
  47 C :    0.024557
  48 C :    0.310932
  49 C :   -0.329440
  50 C :   -0.192468
  51 N :    0.158811
  52 C :   -0.190795
  53 N :    0.170478
  54 Cl:   -0.002349
  55 H :    0.059023
  56 H :    0.032382
  57 H :   -0.009925
  58 H :    0.012211
  59 H :    0.012722
  60 H :    0.127591
  61 H :   -0.007178
  62 H :   -0.013718
  63 H :   -0.004241
  64 H :    0.031139
  65 H :    0.052147
Sum of atomic charges:   -0.0000000

LOEWDIN ATOMIC CHARGES
----------------------
   0 C :   -0.058360
   1 C :   -0.145396
   2 S :    0.492702
   3 C :   -0.264875
   4 Cl:    0.219138
   5 C :   -0.124327
   6 C :    0.105666
   7 O :   -0.149768
   8 C :   -0.081844
   9 C :    0.073829
  10 C :   -0.126436
  11 C :   -0.014957
  12 N :   -0.041422
  13 C :   -0.025162
  14 N :   -0.034779
  15 C :    0.088953
  16 C :   -0.062310
  17 C :    0.038910
  18 C :   -0.056814
  19 C :    0.038581
  20 N :   -0.057494
  21 C :    0.040096
  22 C :   -0.205274
  23 S :    0.475277
  24 C :   -0.193761
  25 C :   -0.060303
  26 C :   -0.000466
  27 N :    0.072410
  28 C :   -0.017389
  29 C :   -0.036139
  30 N :   -0.048251
  31 C :   -0.043593
  32 C :   -0.145077
  33 S :    0.480563
  34 C :   -0.236884
  35 C :    0.081433
  36 O :   -0.151661
  37 C :   -0.026504
  38 C :   -0.048041
  39 C :    0.061562
  40 C :   -0.055481
  41 C :    0.084805
  42 O :   -0.128990
  43 C :   -0.114844
  44 C :   -0.272996
  45 S :    0.477185
  46 C :   -0.147559
  47 C :   -0.047751
  48 C :    0.082589
  49 C :   -0.131317
  50 C :   -0.015215
  51 N :   -0.050496
  52 C :   -0.020950
  53 N :   -0.051137
  54 Cl:    0.190538
  55 H :    0.039685
  56 H :    0.049990
  57 H :    0.029562
  58 H :    0.022498
  59 H :    0.027410
  60 H :    0.073080
  61 H :    0.030476
  62 H :   -0.002150
  63 H :    0.030523
  64 H :    0.050513
  65 H :    0.038198

  Mayer bond orders larger than 0.100000
B(  0-C ,  1-C ) :   1.5453 B(  0-C ,  5-C ) :   1.2156 B(  0-C ,  9-C ) :   1.0015
B(  1-C ,  2-S ) :   1.1631 B(  1-C , 55-H ) :   0.9535 B(  2-S ,  3-C ) :   1.1646
B(  3-C ,  4-Cl) :   1.1482 B(  3-C ,  5-C ) :   1.4488 B(  5-C ,  6-C ) :   0.9907
B(  6-C ,  7-O ) :   2.0630 B(  6-C ,  8-C ) :   0.9481 B(  7-O , 60-H ) :   0.1085
B(  8-C ,  9-C ) :   1.0454 B(  8-C , 15-C ) :   1.6902 B(  9-C , 10-C ) :   1.6767
B( 10-C , 11-C ) :   1.1463 B( 10-C , 13-C ) :   1.1311 B( 11-C , 12-N ) :   2.9921
B( 13-C , 14-N ) :   2.9691 B( 15-C , 16-C ) :   1.0452 B( 15-C , 56-H ) :   0.9379
B( 16-C , 17-C ) :   1.3757 B( 16-C , 21-C ) :   1.3006 B( 17-C , 18-C ) :   1.4077
B( 17-C , 57-H ) :   0.9742 B( 18-C , 19-C ) :   1.3174 B( 18-C , 22-C ) :   1.0260
B( 19-C , 20-N ) :   1.5662 B( 19-C , 58-H ) :   0.9856 B( 20-N , 21-C ) :   1.5668
B( 21-C , 59-H ) :   0.9899 B( 22-C , 23-S ) :   1.1250 B( 22-C , 24-C ) :   0.1231
B( 22-C , 26-C ) :   1.4433 B( 23-S , 24-C ) :   1.1400 B( 24-C , 25-C ) :   1.3413
B( 24-C , 32-C ) :   1.1914 B( 25-C , 26-C ) :   1.2192 B( 25-C , 31-C ) :   1.1734
B( 26-C , 27-N ) :   1.1850 B( 27-N , 28-C ) :   1.2243 B( 27-N , 60-H ) :   0.8905
B( 28-C , 29-C ) :   1.0600 B( 28-C , 31-C ) :   1.5740 B( 29-C , 30-N ) :   3.0270
B( 31-C , 61-H ) :   1.0056 B( 32-C , 33-S ) :   1.1648 B( 32-C , 38-C ) :   1.4286
B( 33-S , 34-C ) :   1.0886 B( 34-C , 35-C ) :   1.0541 B( 34-C , 37-C ) :   1.4234
B( 35-C , 36-O ) :   2.0742 B( 35-C , 62-H ) :   0.9548 B( 37-C , 38-C ) :   1.3088
B( 37-C , 39-C ) :   0.9985 B( 38-C , 63-H ) :   0.9995 B( 39-C , 40-C ) :   1.8139
B( 39-C , 64-H ) :   0.9432 B( 40-C , 41-C ) :   0.9272 B( 40-C , 48-C ) :   0.9850
B( 41-C , 42-O ) :   2.2881 B( 41-C , 43-C ) :   0.9263 B( 43-C , 44-C ) :   1.4745
B( 43-C , 47-C ) :   1.2255 B( 44-C , 45-S ) :   1.1569 B( 44-C , 54-Cl) :   1.1264
B( 45-S , 46-C ) :   1.1592 B( 46-C , 47-C ) :   1.5501 B( 46-C , 65-H ) :   0.9562
B( 47-C , 48-C ) :   1.0178 B( 48-C , 49-C ) :   1.6922 B( 49-C , 50-C ) :   1.1327
B( 49-C , 52-C ) :   1.1619 B( 50-C , 51-N ) :   3.0072 B( 52-C , 53-N ) :   3.0041

-----------------------------------------------------------------------------
         ABSORPTION SPECTRUM VIA TRANSITION ELECTRIC DIPOLE MOMENTS
-----------------------------------------------------------------------------
State   Energy  Wavelength   fosc         T2         TX        TY        TZ
        (cm-1)    (nm)                  (au**2)     (au)      (au)      (au)
-----------------------------------------------------------------------------
   0   17164.6    582.6   0.011608051   0.22264   0.18517  -0.32389   0.28887
   1   19210.0    520.6   0.312513749   5.35573   1.12052   0.92388   1.80183
   2   23229.4    430.5   1.145013960  16.22736  -2.07121  -0.95700  -3.31988
   3   24868.1    402.1   0.009278323   0.12283   0.13102   0.04594   0.32179
   4   26154.0    382.4   0.009669378   0.12171   0.04352   0.17216  -0.30030
   5   26990.3    370.5   0.090255459   1.10088  -0.48608   0.37225  -0.85208
   6   27376.5    365.3   0.070241360   0.84468   0.71895   0.54744  -0.16761
   7   28914.2    345.9   0.001036554   0.01180   0.00285  -0.06851   0.08427
   8   29320.3    341.1   0.016772352   0.18832   0.19999  -0.26833   0.27627
   9   29632.6    337.5   0.025937960   0.28816   0.32481  -0.40903   0.12392
  10   30165.1    331.5   0.008386984   0.09153  -0.08530   0.20703  -0.20346
  11   30572.4    327.1   0.057220033   0.61616   0.07960   0.30627  -0.71835
  12   32050.1    312.0   0.142251927   1.46118  -0.28628  -0.05552  -1.17309
  13   32218.9    310.4   0.048703768   0.49765   0.31127   0.21836   0.59421
  14   32749.0    305.4   0.168691869   1.69579   0.62145  -0.69945   0.90573
  15   32872.7    304.2   0.013373161   0.13393   0.00010  -0.31405  -0.18789
  16   32989.1    303.1   0.008990357   0.08972  -0.03707   0.17550   0.23988
  17   34003.0    294.1   0.015550172   0.15055  -0.33198   0.02622  -0.19914
  18   34227.7    292.2   0.003271859   0.03147  -0.11858   0.10968   0.07335
  19   34583.7    289.2   0.145636150   1.38635   0.83862  -0.82220   0.08398
  20   34755.1    287.7   0.064975991   0.61547  -0.19422  -0.43825  -0.62104
  21   34824.0    287.2   0.062359272   0.58952  -0.43024   0.60463   0.19708
  22   35467.6    281.9   0.074338001   0.69001  -0.58527   0.18757  -0.55883
  23   35841.0    279.0   0.025742436   0.23645   0.11163  -0.44413   0.16352
  24   36153.9    276.6   0.044995926   0.40973   0.53146   0.02310  -0.35601
  25   36383.5    274.8   0.106950559   0.96773  -0.20083  -0.53576  -0.80022
  26   36578.4    273.4   0.016651454   0.14987   0.21159   0.12342   0.29977
  27   36681.7    272.6   0.036904904   0.33122  -0.47162   0.32275  -0.06796
  28   36817.1    271.6   0.302995860   2.70934   0.68062  -1.24429  -0.83536
  29   37085.0    269.7   0.050181820   0.44547  -0.44908   0.47876  -0.12080
  30   37661.7    265.5   0.248977931   2.17639  -0.51672   1.37923  -0.08430
  31   37833.3    264.3   0.337338048   2.93539   1.58287  -0.42410   0.50007
  32   37953.8    263.5   0.638544129   5.53874  -1.87199   0.93691  -1.07545
  33   38338.0    260.8   0.106539695   0.91487   0.78425  -0.14459   0.52812
  34   38512.7    259.7   0.116574853   0.99650  -0.05428  -0.84278  -0.53223
  35   38581.9    259.2   0.332990800   2.84135   0.07838  -1.45156  -0.85333
  36   39435.3    253.6   0.006907139   0.05766  -0.18031   0.03294   0.15513
  37   39542.4    252.9   0.027750328   0.23104  -0.30718   0.36904  -0.02209
  38   40078.8    249.5   0.120278325   0.98798   0.68615  -0.55389   0.45867

FINAL SINGLE POINT ENERGY     -4611.321715833075

DIPOLE MOMENT
-------------
                                X             Y             Z
Electronic contribution:     -4.50012      -9.53191     -13.99188
Nuclear contribution   :      4.69856       8.69494      14.83388
                        -----------------------------------------
Total Dipole Moment    :      0.19844      -0.83697       0.84200
                        -----------------------------------------
Magnitude (a.u.)       :      1.20368
Magnitude (Debye)      :      3.05951

Rotational constants in cm-1:     0.003850     0.000422     0.000392
Rotational constants in MHz :   115.416670    12.636691    11.765688

                             ****ORCA TERMINATED NORMALLY****
TOTAL RUN TIME: 0 days 0 hours 6 minutes 55 seconds 512 msec
