                         Program Version 4.2.0 -  RELEASE  -
|  1> # ORCA input file
|  2> # SCF done       -138.848182274366          0.000830722432
|  3> ! CAM-B3LYP def2-SVP def2/J RIJCOSX Grid4 TightSCF
|  4> %maxcore 5000
|  5> %tddft
|  6>     Mode sTDDFT
|  7>     Ethresh 5.0
|  8>     maxcore 5000
|  9> end
| 10>
| 11> %pal
| 12>   nprocs 6
| 13>   end
| 14> * xyz 0 1
| 15>    C        3.36076         2.39543        -8.10874
| 16>    C        2.87658         3.32848        -8.97176
| 17>    S        3.47040         3.06646       -10.57143
| 18>    C        4.39224         1.66778       -10.06895
| 19>   Cl        5.32979         0.78632       -11.17090
| 20>    C        4.22980         1.44484        -8.73494
| 21>    C        4.69526         0.46472        -7.74610
| 22>    O        5.37729        -0.51453        -7.94192
| 23>    C        4.05907         0.89079        -6.46253
| 24>    C        3.25438         2.07752        -6.69848
| 25>    C        2.56471         2.82571        -5.78066
| 26>    C        1.84071         3.97266        -6.16781
| 27>    N        1.24620         4.90673        -6.46872
| 28>    C        2.50987         2.57995        -4.39436
| 29>    N        2.43933         2.44759        -3.25602
| 30>    C        4.10367         0.17240        -5.30290
| 31>    C        4.97804        -0.90220        -4.99904
| 32>    C        4.68871        -1.92954        -4.12170
| 33>    C        5.77859        -2.84718        -4.10612
| 34>    C        6.81762        -2.26245        -4.96499
| 35>    C        6.33304        -1.10700        -5.49322
| 36>    C        8.13212        -2.72115        -5.12464
| 37>    N        9.23169        -3.03206        -5.23922
| 38>    C        5.85178        -4.06091        -3.45404
| 39>    C        6.87134        -5.03374        -3.58330
| 40>    C        6.60217        -6.10121        -2.74185
| 41>    C        5.35700        -5.80501        -2.04480
| 42>    C        4.88813        -4.60638        -2.48086
| 43>    C        3.69950        -4.00724        -2.04945
| 44>    N        2.71608        -3.54577        -1.67595
| 45>    C        7.43288        -7.24570        -2.66641
| 46>    N        7.47234        -8.21152        -1.69029
| 47>    C        6.73774        -8.25826        -0.44792
| 48>    C        7.13785        -7.13390         0.50217
| 49>    C        8.47466        -9.17628        -1.94344
| 50>    O        8.70595       -10.11165        -1.20828
| 51>    C        9.05338        -8.76319        -3.20066
| 52>    C        8.40594        -7.58651        -3.61770
| 53>    C        8.94059        -7.23279        -4.91684
| 54>    O        8.66574        -6.35984        -5.70805
| 55>    N        9.92896        -8.21456        -5.17233
| 56>    C       10.69629        -8.12202        -6.39097
| 57>    C       12.01133        -7.37572        -6.17424
| 58>    C       10.01310        -9.13005        -4.15439
| 59>    C       10.85148       -10.25949        -4.00324
| 60>    C       11.90568       -10.65481        -4.76848
| 61>    C       12.63598       -11.79575        -4.49989
| 62>    C       13.31861       -12.79375        -4.31261
| 63>    C       14.06425       -13.87967        -4.11226
| 64>    C       14.76156       -14.87550        -3.95078
| 65>    C       15.52412       -15.95407        -3.77951
| 66>    C       16.23051       -16.94163        -3.63299
| 67>    C       17.00822       -18.02766        -3.47658
| 68>    C       17.71075       -19.00195        -3.34093
| 69>    H        2.21035         4.14741        -8.78640
| 70>    H        3.38300         0.40825        -4.52815
| 71>    H        3.76173        -2.06565        -3.59812
| 72>    H        6.87364        -0.42588        -6.12036
| 73>    H        7.70906        -4.95240        -4.24589
| 74>    H        4.85855        -6.43762        -1.33607
| 75>    H        6.98934        -9.22481        -0.00026
| 76>    H        5.66350        -8.24540        -0.64902
| 77>    H        8.19952        -7.19848         0.72821
| 78>    H        6.57963        -7.22315         1.42998
| 79>    H        6.93573        -6.15764         0.06686
| 80>    H       10.07785        -7.55079        -7.09044
| 81>    H       10.85254        -9.12146        -6.80368
| 82>    H       11.80175        -6.35197        -5.87446
| 83>    H       12.58109        -7.35512        -7.09930
| 84>    H       12.61356        -7.84408        -5.39809
| 85>    H       10.60241       -10.85583        -3.13362
| 86>    H       12.24297       -10.08790        -5.62478
| 87>    H       18.31894       -19.84686        -3.21617
| 88> *
| 89>
| 90>                          ****END OF INPUT****

CARTESIAN COORDINATES (ANGSTROEM)
---------------------------------
  C      3.360760    2.395430   -8.108740
  C      2.876580    3.328480   -8.971760
  S      3.470400    3.066460  -10.571430
  C      4.392240    1.667780  -10.068950
  Cl     5.329790    0.786320  -11.170900
  C      4.229800    1.444840   -8.734940
  C      4.695260    0.464720   -7.746100
  O      5.377290   -0.514530   -7.941920
  C      4.059070    0.890790   -6.462530
  C      3.254380    2.077520   -6.698480
  C      2.564710    2.825710   -5.780660
  C      1.840710    3.972660   -6.167810
  N      1.246200    4.906730   -6.468720
  C      2.509870    2.579950   -4.394360
  N      2.439330    2.447590   -3.256020
  C      4.103670    0.172400   -5.302900
  C      4.978040   -0.902200   -4.999040
  C      4.688710   -1.929540   -4.121700
  C      5.778590   -2.847180   -4.106120
  C      6.817620   -2.262450   -4.964990
  C      6.333040   -1.107000   -5.493220
  C      8.132120   -2.721150   -5.124640
  N      9.231690   -3.032060   -5.239220
  C      5.851780   -4.060910   -3.454040
  C      6.871340   -5.033740   -3.583300
  C      6.602170   -6.101210   -2.741850
  C      5.357000   -5.805010   -2.044800
  C      4.888130   -4.606380   -2.480860
  C      3.699500   -4.007240   -2.049450
  N      2.716080   -3.545770   -1.675950
  C      7.432880   -7.245700   -2.666410
  N      7.472340   -8.211520   -1.690290
  C      6.737740   -8.258260   -0.447920
  C      7.137850   -7.133900    0.502170
  C      8.474660   -9.176280   -1.943440
  O      8.705950  -10.111650   -1.208280
  C      9.053380   -8.763190   -3.200660
  C      8.405940   -7.586510   -3.617700
  C      8.940590   -7.232790   -4.916840
  O      8.665740   -6.359840   -5.708050
  N      9.928960   -8.214560   -5.172330
  C     10.696290   -8.122020   -6.390970
  C     12.011330   -7.375720   -6.174240
  C     10.013100   -9.130050   -4.154390
  C     10.851480  -10.259490   -4.003240
  C     11.905680  -10.654810   -4.768480
  C     12.635980  -11.795750   -4.499890
  C     13.318610  -12.793750   -4.312610
  C     14.064250  -13.879670   -4.112260
  C     14.761560  -14.875500   -3.950780
  C     15.524120  -15.954070   -3.779510
  C     16.230510  -16.941630   -3.632990
  C     17.008220  -18.027660   -3.476580
  C     17.710750  -19.001950   -3.340930
  H      2.210350    4.147410   -8.786400
  H      3.383000    0.408250   -4.528150
  H      3.761730   -2.065650   -3.598120
  H      6.873640   -0.425880   -6.120360
  H      7.709060   -4.952400   -4.245890
  H      4.858550   -6.437620   -1.336070
  H      6.989340   -9.224810   -0.000260
  H      5.663500   -8.245400   -0.649020
  H      8.199520   -7.198480    0.728210
  H      6.579630   -7.223150    1.429980
  H      6.935730   -6.157640    0.066860
  H     10.077850   -7.550790   -7.090440
  H     10.852540   -9.121460   -6.803680
  H     11.801750   -6.351970   -5.874460
  H     12.581090   -7.355120   -7.099300
  H     12.613560   -7.844080   -5.398090
  H     10.602410  -10.855830   -3.133620
  H     12.242970  -10.087900   -5.624780
  H     18.318940  -19.846860   -3.216170

 Total Charge           Charge          ....    0
 Multiplicity           Mult            ....    1
 Number of Electrons    NEL             ....  376
 Basis Dimension        Dim             ....  859

ORBITAL ENERGIES
----------------

  NO   OCC          E(Eh)            E(eV)
   0   2.0000    -101.622618     -2765.2920
   1   2.0000     -88.999378     -2421.7962
   2   2.0000     -19.231961      -523.3283
   3   2.0000     -19.205128      -522.5981
   4   2.0000     -19.201251      -522.4926
   5   2.0000     -14.466906      -393.6645
   6   2.0000     -14.466073      -393.6419
   7   2.0000     -14.426488      -392.5647
   8   2.0000     -14.426081      -392.5536
   9   2.0000     -14.417306      -392.3148
  10   2.0000     -14.403789      -391.9470
  11   2.0000     -10.387868      -282.6683
  12   2.0000     -10.386748      -282.6378
  13   2.0000     -10.385261      -282.5973
  14   2.0000     -10.382449      -282.5208
  15   2.0000     -10.357341      -281.8376
  16   2.0000     -10.355909      -281.7986
  17   2.0000     -10.355191      -281.7791
  18   2.0000     -10.354328      -281.7556
  19   2.0000     -10.335401      -281.2406
  20   2.0000     -10.333432      -281.1870
  21   2.0000     -10.332658      -281.1659
  22   2.0000     -10.331913      -281.1456
  23   2.0000     -10.327964      -281.0382
  24   2.0000     -10.327723      -281.0316
  25   2.0000     -10.326628      -281.0018
  26   2.0000     -10.322699      -280.8949
  27   2.0000     -10.322534      -280.8904
  28   2.0000     -10.318963      -280.7933
  29   2.0000     -10.318858      -280.7904
  30   2.0000     -10.318778      -280.7882
  31   2.0000     -10.318595      -280.7833
  32   2.0000     -10.317822      -280.7622
  33   2.0000     -10.315426      -280.6970
  34   2.0000     -10.314977      -280.6848
  35   2.0000     -10.314541      -280.6729
  36   2.0000     -10.313354      -280.6406
  37   2.0000     -10.312728      -280.6236
  38   2.0000     -10.312631      -280.6209
  39   2.0000     -10.311914      -280.6014
  40   2.0000     -10.311172      -280.5812
  41   2.0000     -10.309723      -280.5418
  42   2.0000     -10.307767      -280.4886
  43   2.0000     -10.307138      -280.4715
  44   2.0000     -10.306451      -280.4528
  45   2.0000     -10.305384      -280.4238
  46   2.0000     -10.305375      -280.4235
  47   2.0000     -10.302371      -280.3418
  48   2.0000     -10.297134      -280.1993
  49   2.0000     -10.293262      -280.0939
  50   2.0000     -10.279225      -279.7119
  51   2.0000     -10.276783      -279.6455
  52   2.0000     -10.273089      -279.5450
  53   2.0000     -10.267555      -279.3944
  54   2.0000      -9.577336      -260.6126
  55   2.0000      -8.095067      -220.2780
  56   2.0000      -7.347959      -199.9481
  57   2.0000      -7.337397      -199.6607
  58   2.0000      -7.336840      -199.6456
  59   2.0000      -6.064462      -165.0224
  60   2.0000      -6.059817      -164.8960
  61   2.0000      -6.057321      -164.8281
  62   2.0000      -1.149077       -31.2680
  63   2.0000      -1.146882       -31.2082
  64   2.0000      -1.139441       -31.0058
  65   2.0000      -1.076229       -29.2857
  66   2.0000      -1.067396       -29.0453
  67   2.0000      -1.044518       -28.4228
  68   2.0000      -1.024752       -27.8849
  69   2.0000      -1.023057       -27.8388
  70   2.0000      -1.006722       -27.3943
  71   2.0000      -1.004318       -27.3289
  72   2.0000      -0.994776       -27.0692
  73   2.0000      -0.991464       -26.9791
  74   2.0000      -0.982434       -26.7334
  75   2.0000      -0.960538       -26.1376
  76   2.0000      -0.941480       -25.6190
  77   2.0000      -0.933896       -25.4126
  78   2.0000      -0.918684       -24.9986
  79   2.0000      -0.914904       -24.8958
  80   2.0000      -0.905730       -24.6462
  81   2.0000      -0.895418       -24.3656
  82   2.0000      -0.889330       -24.1999
  83   2.0000      -0.878830       -23.9142
  84   2.0000      -0.864363       -23.5205
  85   2.0000      -0.862945       -23.4819
  86   2.0000      -0.850607       -23.1462
  87   2.0000      -0.838825       -22.8256
  88   2.0000      -0.836540       -22.7634
  89   2.0000      -0.830495       -22.5989
  90   2.0000      -0.820778       -22.3345
  91   2.0000      -0.806452       -21.9447
  92   2.0000      -0.791805       -21.5461
  93   2.0000      -0.770423       -20.9643
  94   2.0000      -0.770020       -20.9533
  95   2.0000      -0.761758       -20.7285
  96   2.0000      -0.753430       -20.5019
  97   2.0000      -0.729001       -19.8371
  98   2.0000      -0.723406       -19.6849
  99   2.0000      -0.719550       -19.5799
 100   2.0000      -0.714586       -19.4449
 101   2.0000      -0.699855       -19.0440
 102   2.0000      -0.696402       -18.9501
 103   2.0000      -0.692180       -18.8352
 104   2.0000      -0.683260       -18.5924
 105   2.0000      -0.679934       -18.5020
 106   2.0000      -0.674385       -18.3510
 107   2.0000      -0.660053       -17.9610
 108   2.0000      -0.656919       -17.8757
 109   2.0000      -0.653129       -17.7725
 110   2.0000      -0.640406       -17.4263
 111   2.0000      -0.621164       -16.9027
 112   2.0000      -0.613149       -16.6846
 113   2.0000      -0.611031       -16.6270
 114   2.0000      -0.610133       -16.6026
 115   2.0000      -0.606605       -16.5066
 116   2.0000      -0.593248       -16.1431
 117   2.0000      -0.592290       -16.1170
 118   2.0000      -0.583157       -15.8685
 119   2.0000      -0.572625       -15.5819
 120   2.0000      -0.560961       -15.2645
 121   2.0000      -0.559869       -15.2348
 122   2.0000      -0.558963       -15.2101
 123   2.0000      -0.553798       -15.0696
 124   2.0000      -0.551655       -15.0113
 125   2.0000      -0.545184       -14.8352
 126   2.0000      -0.541618       -14.7382
 127   2.0000      -0.535938       -14.5836
 128   2.0000      -0.531076       -14.4513
 129   2.0000      -0.529551       -14.4098
 130   2.0000      -0.525145       -14.2899
 131   2.0000      -0.523082       -14.2338
 132   2.0000      -0.521671       -14.1954
 133   2.0000      -0.514452       -13.9990
 134   2.0000      -0.513582       -13.9753
 135   2.0000      -0.510755       -13.8983
 136   2.0000      -0.508356       -13.8331
 137   2.0000      -0.506200       -13.7744
 138   2.0000      -0.498633       -13.5685
 139   2.0000      -0.492688       -13.4067
 140   2.0000      -0.491196       -13.3661
 141   2.0000      -0.488953       -13.3051
 142   2.0000      -0.485606       -13.2140
 143   2.0000      -0.483698       -13.1621
 144   2.0000      -0.479717       -13.0538
 145   2.0000      -0.479318       -13.0429
 146   2.0000      -0.473381       -12.8814
 147   2.0000      -0.472134       -12.8474
 148   2.0000      -0.468131       -12.7385
 149   2.0000      -0.463443       -12.6109
 150   2.0000      -0.461214       -12.5503
 151   2.0000      -0.460723       -12.5369
 152   2.0000      -0.457888       -12.4598
 153   2.0000      -0.456934       -12.4338
 154   2.0000      -0.452635       -12.3168
 155   2.0000      -0.450287       -12.2529
 156   2.0000      -0.449774       -12.2390
 157   2.0000      -0.445982       -12.1358
 158   2.0000      -0.439265       -11.9530
 159   2.0000      -0.437976       -11.9179
 160   2.0000      -0.437107       -11.8943
 161   2.0000      -0.435520       -11.8511
 162   2.0000      -0.434059       -11.8113
 163   2.0000      -0.433147       -11.7865
 164   2.0000      -0.432227       -11.7615
 165   2.0000      -0.428750       -11.6669
 166   2.0000      -0.423211       -11.5162
 167   2.0000      -0.420982       -11.4555
 168   2.0000      -0.419129       -11.4051
 169   2.0000      -0.410369       -11.1667
 170   2.0000      -0.408518       -11.1163
 171   2.0000      -0.400418       -10.8959
 172   2.0000      -0.399836       -10.8801
 173   2.0000      -0.374494       -10.1905
 174   2.0000      -0.371743       -10.1157
 175   2.0000      -0.359808        -9.7909
 176   2.0000      -0.357954        -9.7404
 177   2.0000      -0.351492        -9.5646
 178   2.0000      -0.344417        -9.3721
 179   2.0000      -0.343686        -9.3522
 180   2.0000      -0.330083        -8.9820
 181   2.0000      -0.329691        -8.9713
 182   2.0000      -0.320943        -8.7333
 183   2.0000      -0.319625        -8.6974
 184   2.0000      -0.301362        -8.2005
 185   2.0000      -0.296006        -8.0547
 186   2.0000      -0.294779        -8.0214
 187   2.0000      -0.246052        -6.6954
 188   0.0000      -0.145078        -3.9478
 189   0.0000      -0.095890        -2.6093
 190   0.0000      -0.084349        -2.2952
 191   0.0000      -0.057957        -1.5771
 192   0.0000      -0.049606        -1.3499

MULLIKEN ATOMIC CHARGES
-----------------------
   0 C :    0.031705
   1 C :   -0.129440
   2 S :    0.191633
   3 C :   -0.170261
   4 Cl:    0.004933
   5 C :    0.075457
   6 C :    0.141204
   7 O :   -0.127016
   8 C :   -0.103424
   9 C :    0.292807
  10 C :   -0.317850
  11 C :   -0.191423
  12 N :    0.158760
  13 C :   -0.194065
  14 N :    0.170331
  15 C :   -0.026031
  16 C :    0.083422
  17 C :   -0.070987
  18 C :    0.095589
  19 C :   -0.107392
  20 C :    0.071173
  21 C :   -0.182692
  22 N :    0.137701
  23 C :    0.136855
  24 C :   -0.110428
  25 C :    0.039820
  26 C :   -0.030309
  27 C :   -0.088120
  28 C :   -0.189206
  29 N :    0.152072
  30 C :    0.159113
  31 N :   -0.262456
  32 C :    0.096095
  33 C :   -0.007259
  34 C :    0.147152
  35 O :   -0.183040
  36 C :   -0.040997
  37 C :   -0.049176
  38 C :    0.153177
  39 O :   -0.179713
  40 N :   -0.263410
  41 C :    0.096110
  42 C :   -0.003375
  43 C :    0.117945
  44 C :   -0.012343
  45 C :   -0.121373
  46 C :    0.030473
  47 C :    0.020770
  48 C :   -0.006422
  49 C :    0.031193
  50 C :    0.003176
  51 C :    0.054257
  52 C :    0.350866
  53 C :   -0.437544
  54 H :    0.056146
  55 H :    0.038873
  56 H :    0.016441
  57 H :    0.006521
  58 H :    0.029786
  59 H :   -0.007790
  60 H :    0.050566
  61 H :    0.026459
  62 H :    0.031072
  63 H :    0.029260
  64 H :    0.028305
  65 H :    0.049184
  66 H :    0.024347
  67 H :    0.044219
  68 H :    0.026212
  69 H :    0.019569
  70 H :    0.032798
  71 H :    0.042703
  72 H :    0.017290
Sum of atomic charges:   -0.0000000

LOEWDIN ATOMIC CHARGES
----------------------
   0 C :   -0.059258
   1 C :   -0.147490
   2 S :    0.479754
   3 C :   -0.270365
   4 Cl:    0.195281
   5 C :   -0.118058
   6 C :    0.081356
   7 O :   -0.120972
   8 C :   -0.077899
   9 C :    0.070735
  10 C :   -0.128474
  11 C :   -0.014876
  12 N :   -0.045967
  13 C :   -0.026240
  14 N :   -0.036503
  15 C :    0.074135
  16 C :   -0.025150
  17 C :    0.020977
  18 C :    0.042280
  19 C :   -0.089609
  20 C :    0.077438
  21 C :   -0.031419
  22 N :   -0.055274
  23 C :    0.037282
  24 C :    0.016546
  25 C :   -0.033013
  26 C :    0.048216
  27 C :   -0.077430
  28 C :   -0.034257
  29 N :   -0.054865
  30 C :    0.077451
  31 N :   -0.004293
  32 C :    0.034743
  33 C :   -0.060800
  34 C :    0.080665
  35 O :   -0.185767
  36 C :   -0.107237
  37 C :   -0.102518
  38 C :    0.086096
  39 O :   -0.167095
  40 N :    0.001214
  41 C :    0.034341
  42 C :   -0.062549
  43 C :    0.074668
  44 C :    0.000161
  45 C :   -0.023675
  46 C :    0.013162
  47 C :   -0.033468
  48 C :   -0.006143
  49 C :   -0.009736
  50 C :   -0.014104
  51 C :    0.000021
  52 C :   -0.029333
  53 C :    0.007502
  54 H :    0.038540
  55 H :    0.053692
  56 H :    0.040306
  57 H :    0.038297
  58 H :    0.039814
  59 H :    0.036346
  60 H :    0.040615
  61 H :    0.020103
  62 H :    0.033957
  63 H :    0.034307
  64 H :    0.023553
  65 H :    0.040088
  66 H :    0.022474
  67 H :    0.038953
  68 H :    0.032380
  69 H :    0.021184
  70 H :    0.055896
  71 H :    0.048465
  72 H :    0.040840

  Mayer bond orders larger than 0.100000
B(  0-C ,  1-C ) :   1.5463 B(  0-C ,  5-C ) :   1.2199 B(  0-C ,  9-C ) :   0.9998
B(  1-C ,  2-S ) :   1.1625 B(  1-C , 54-H ) :   0.9542 B(  2-S ,  3-C ) :   1.1529
B(  3-C ,  4-Cl) :   1.1325 B(  3-C ,  5-C ) :   1.4752 B(  5-C ,  6-C ) :   0.9518
B(  6-C ,  7-O ) :   2.2290 B(  6-C ,  8-C ) :   0.9337 B(  8-C ,  9-C ) :   1.0558
B(  8-C , 15-C ) :   1.6228 B(  9-C , 10-C ) :   1.6642 B( 10-C , 11-C ) :   1.1448
B( 10-C , 13-C ) :   1.1364 B( 11-C , 12-N ) :   2.9902 B( 13-C , 14-N ) :   2.9841
B( 15-C , 16-C ) :   1.1079 B( 15-C , 55-H ) :   0.9494 B( 16-C , 17-C ) :   1.5090
B( 16-C , 20-C ) :   1.0503 B( 17-C , 18-C ) :   1.1072 B( 17-C , 56-H ) :   1.0083
B( 18-C , 19-C ) :   1.1164 B( 18-C , 23-C ) :   1.3930 B( 19-C , 20-C ) :   1.6702
B( 19-C , 21-C ) :   1.0893 B( 20-C , 57-H ) :   1.0070 B( 21-C , 22-N ) :   2.9870
B( 23-C , 24-C ) :   1.1278 B( 23-C , 27-C ) :   1.0950 B( 24-C , 25-C ) :   1.5332
B( 24-C , 58-H ) :   0.9895 B( 25-C , 26-C ) :   1.0171 B( 25-C , 30-C ) :   1.0591
B( 26-C , 27-C ) :   1.6749 B( 26-C , 59-H ) :   1.0280 B( 27-C , 28-C ) :   1.0842
B( 28-C , 29-N ) :   2.9771 B( 30-C , 31-N ) :   1.2067 B( 30-C , 37-C ) :   1.3562
B( 31-N , 32-C ) :   0.9382 B( 31-N , 34-C ) :   1.0196 B( 32-C , 33-C ) :   1.1174
B( 32-C , 60-H ) :   0.9217 B( 32-C , 61-H ) :   0.9516 B( 33-C , 62-H ) :   0.9616
B( 33-C , 63-H ) :   0.9665 B( 33-C , 64-H ) :   0.9670 B( 34-C , 35-O ) :   2.1350
B( 34-C , 36-C ) :   0.9818 B( 36-C , 37-C ) :   1.2600 B( 36-C , 43-C ) :   1.3145
B( 37-C , 38-C ) :   0.9693 B( 38-C , 39-O ) :   2.0835 B( 38-C , 40-N ) :   1.0390
B( 40-N , 41-C ) :   0.9372 B( 40-N , 43-C ) :   1.1822 B( 41-C , 42-C ) :   1.1180
B( 41-C , 65-H ) :   0.9233 B( 41-C , 66-H ) :   0.9499 B( 42-C , 67-H ) :   0.9599
B( 42-C , 68-H ) :   0.9686 B( 42-C , 69-H ) :   0.9674 B( 43-C , 44-C ) :   1.1932
B( 44-C , 45-C ) :   1.6055 B( 44-C , 70-H ) :   0.9503 B( 45-C , 46-C ) :   1.0237
B( 45-C , 71-H ) :   0.9526 B( 46-C , 47-C ) :   2.0801 B( 46-C , 49-C ) :   0.1711
B( 47-C , 48-C ) :   0.8994 B( 48-C , 49-C ) :   2.0920 B( 48-C , 51-C ) :   0.1666
B( 49-C , 50-C ) :   0.8861 B( 50-C , 51-C ) :   2.1331 B( 50-C , 53-C ) :   0.1956
B( 51-C , 52-C ) :   0.8293 B( 51-C , 53-C ) :  -0.1487 B( 52-C , 53-C ) :   2.1620
B( 52-C , 72-H ) :  -0.1203 B( 53-C , 72-H ) :   1.1077

-----------------------------------------------------------------------------
         ABSORPTION SPECTRUM VIA TRANSITION ELECTRIC DIPOLE MOMENTS
-----------------------------------------------------------------------------
State   Energy  Wavelength   fosc         T2         TX        TY        TZ
        (cm-1)    (nm)                  (au**2)     (au)      (au)      (au)
-----------------------------------------------------------------------------
   0    7627.6   1311.0   0.468489463  20.22026  -2.43135   3.76888  -0.32309
   1   15854.7    630.7   0.045604241   0.94694  -0.18129   0.79453  -0.53178
   2   18429.3    542.6   0.563206703  10.06082   2.33397  -1.88509  -1.02949
   3   19304.0    518.0   0.079223154   1.35108   0.82164  -0.70964  -0.41521
   4   21543.9    464.2   0.037427971   0.57194   0.40564  -0.61706   0.16317
   5   21747.4    459.8   0.527680403   7.98801  -1.44093   2.33903  -0.66385
   6   22107.3    452.3   0.187082146   2.78594  -0.03160   1.34934  -0.98195
   7   22708.7    440.4   0.003963948   0.05747  -0.06358   0.17089  -0.15563
   8   23008.3    434.6   0.035935887   0.51419   0.57199  -0.42108   0.09849
   9   24059.1    415.6   0.004239864   0.05802  -0.11653   0.20160   0.06160
  10   24320.2    411.2   0.068893473   0.93258   0.20818   0.52599  -0.78268
  11   25903.3    386.1   0.000029845   0.00038   0.01029   0.01438  -0.00817
  12   26753.5    373.8   0.108439463   1.33439   0.25047  -1.04043   0.43493
  13   27190.0    367.8   0.070038223   0.84801   0.17454  -0.72390   0.54177
  14   27688.8    361.2   0.000418087   0.00497   0.00063  -0.05496   0.04416
  15   28082.6    356.1   0.453756574   5.31938  -0.78551   1.91152  -1.02393
  16   28885.8    346.2   0.001525472   0.01739  -0.10015   0.05223   0.06803
  17   29020.0    344.6   0.128970580   1.46308   0.20536   0.73535  -0.93817
  18   29755.1    336.1   0.020116644   0.22257   0.06282   0.10870  -0.45476
  19   29910.6    334.3   0.107695215   1.18535  -0.34497  -0.36011   0.96782
  20   31390.6    318.6   0.000953790   0.01000  -0.08729   0.03767   0.03106
  21   32776.3    305.1   0.110580379   1.11069   0.22641  -0.73216   0.72344
  22   32980.8    303.2   0.065528586   0.65410  -0.41781   0.64919  -0.24101
  23   33273.0    300.5   0.008991927   0.08897   0.03038   0.26593   0.13164
  24   33640.5    297.3   0.081316951   0.79578  -0.45364   0.71994  -0.26773
  25   33693.6    296.8   0.000386969   0.00378   0.04462  -0.04228   0.00165
  26   33953.0    294.5   0.120902287   1.17228  -0.39590   0.76202  -0.65945
  27   34178.8    292.6   0.150438471   1.44903  -0.26806  -0.24728   1.14718
  28   34312.8    291.4   0.367646340   3.52736   1.12986  -1.49429  -0.13368
  29   34403.8    290.7   0.068746387   0.65784   0.41941  -0.35382  -0.59728
  30   34726.2    288.0   0.047245288   0.44790  -0.19153   0.20537  -0.60748
  31   34770.5    287.6   0.100393472   0.95054  -0.77748   0.53591  -0.24263
  32   34994.6    285.8   0.369174850   3.47302  -1.08834   1.47633  -0.33012
  33   35924.3    278.4   0.000845398   0.00775   0.03759  -0.07595   0.02380
  34   36430.5    274.5   0.035119371   0.31736  -0.05159  -0.03636   0.55980
  35   36762.4    272.0   0.035373148   0.31677   0.15394  -0.45026   0.30056
  36   37239.3    268.5   0.089970835   0.79538  -0.38458   0.75494  -0.27846
  37   37573.3    266.1   0.001522899   0.01334   0.10170  -0.05195  -0.01735
  38   37893.0    263.9   0.046195935   0.40135  -0.31256   0.44372   0.32676
  39   38290.4    261.2   0.349772199   3.00726   0.94176  -0.81245  -1.20842
  40   38450.7    260.1   0.241172726   2.06490  -0.24435  -0.28753   1.38655
  41   39198.3    255.1   0.125178198   1.05133   0.37971  -0.75447   0.58131
  42   39309.8    254.4   0.001592261   0.01333   0.06382  -0.08669   0.04179
  43   39422.1    253.7   0.000153620   0.00128  -0.00221   0.02928   0.02051
  44   40185.8    248.8   0.090335191   0.74005   0.00338   0.35009   0.78579
  45   40233.9    248.5   0.004053195   0.03317  -0.02778  -0.04300  -0.17477

FINAL SINGLE POINT ENERGY     -3059.151609765165

DIPOLE MOMENT
-------------
                                X             Y             Z
Electronic contribution:    -23.36536      41.91326     -33.50508
Nuclear contribution   :     24.42509     -43.15022      32.03691
                        -----------------------------------------
Total Dipole Moment    :      1.05973      -1.23696      -1.46817
                        -----------------------------------------
Magnitude (a.u.)       :      2.19286
Magnitude (Debye)      :      5.57381

Rotational constants in cm-1:     0.003236     0.000420     0.000377
Rotational constants in MHz :    97.026861    12.590262    11.316626

                             ****ORCA TERMINATED NORMALLY****
TOTAL RUN TIME: 0 days 0 hours 5 minutes 42 seconds 823 msec
