                         Program Version 4.2.0 -  RELEASE  -
|  1> # ORCA input file
|  2> # SCF done       -219.168666301573          0.000869363688
|  3> ! CAM-B3LYP def2-SVP def2/J RIJCOSX Grid4 TightSCF
|  4> %maxcore 5000
|  5> %tddft
|  6>     Mode sTDDFT
|  7>     Ethresh 5.0
|  8>     maxcore 5000
|  9> end
| 10>
| 11> %pal
| 12>   nprocs 6
| 13>   end
| 14> * xyz 0 1
| 15>    C       -0.81644         1.93827        -1.65857
| 16>    C       -1.47960         3.11179        -1.47259
| 17>    S       -1.02505         3.85629         0.01590
| 18>    C        0.08699         2.56390         0.40014
| 19>   Cl        0.99276         2.57206         1.83057
| 20>    C        0.08019         1.62185        -0.58628
| 21>    C        0.76685         0.35880        -0.86400
| 22>    O        1.64421        -0.17277        -0.22361
| 23>    C        0.21002        -0.09450        -2.17866
| 24>    C       -0.75722         0.88539        -2.65186
| 25>    C       -1.52366         0.83127        -3.78480
| 26>    C       -2.43484         1.86149        -4.10284
| 27>    N       -3.17576         2.69371        -4.37430
| 28>    C       -1.51959        -0.21734        -4.72688
| 29>    N       -1.57080        -1.04745        -5.51770
| 30>    C        0.66920        -1.17602        -2.86390
| 31>    C        1.52159        -2.19656        -2.35669
| 32>    C        2.44197        -2.89655        -3.10324
| 33>    C        3.11668        -3.83102        -2.25986
| 34>    C        2.50315        -3.69193        -0.92934
| 35>    C        1.55663        -2.71952        -0.99357
| 36>    C        2.82979        -4.42930         0.21526
| 37>    N        3.09898        -5.02705         1.15828
| 38>    C        4.12495        -4.70088        -2.61488
| 39>    C        4.75334        -5.67366        -1.79077
| 40>    C        5.72023        -6.33720        -2.52676
| 41>    C        5.73080        -5.75604        -3.86440
| 42>    C        4.77083        -4.80088        -3.93640
| 43>    C        4.47964        -4.04174        -5.07756
| 44>    N        4.27058        -3.43170        -6.02718
| 45>    C        6.59527        -7.37406        -2.14344
| 46>    S        7.98054        -7.69387        -3.13095
| 47>    C        8.56783        -8.93886        -2.07221
| 48>    C        7.66114        -9.14326        -0.99425
| 49>    C        6.54733        -8.25831        -1.04040
| 50>    C        5.52658        -8.40338        -0.08676
| 51>    C        5.63507        -9.37144         0.87576
| 52>    C        4.53874        -9.57009         1.89143
| 53>    F        3.50932        -8.73704         1.69774
| 54>    F        4.02960       -10.81120         1.84636
| 55>    F        4.96467        -9.37066         3.14606
| 56>    C        6.76086       -10.24368         0.94907
| 57>    O        6.73884       -11.12926         1.94211
| 58>    C        7.80135       -12.04948         2.10707
| 59>    C        7.76149       -10.12040        -0.00246
| 60>    C        9.74111        -9.63905        -2.32159
| 61>    C       10.54542        -9.45833        -3.43026
| 62>    C       11.68004       -10.21842        -3.71816
| 63>    C       12.81202        -9.76885        -4.41376
| 64>    N       12.96874        -8.57071        -5.12746
| 65>    O       12.00522        -7.82751        -5.24718
| 66>    O       14.06918        -8.34310        -5.59936
| 67>    C       13.89168       -10.66337        -4.16006
| 68>    C       13.45217       -11.69174        -3.37570
| 69>    C       12.04597       -11.55358        -3.17379
| 70>    C       11.13718       -12.49569        -2.73117
| 71>    C        9.69589       -12.34985        -2.77707
| 72>    C        9.14122       -13.17233        -1.85725
| 73>    C       10.19490       -13.92415        -1.23377
| 74>    N        9.94910       -14.80253        -0.16594
| 75>    O        8.86202       -14.68932         0.38433
| 76>    O       10.81737       -15.57862         0.18875
| 77>    C       11.40889       -13.64392        -1.86033
| 78>    C       12.58948       -14.42121        -1.71462
| 79>    C       13.38411       -14.74482        -2.76944
| 80>    C       14.45530       -15.66097        -2.66977
| 81>    C       15.13824       -16.24015        -3.69696
| 82>    C       16.45069       -16.90402        -3.40540
| 83>    O       16.89005       -17.16380        -2.31202
| 84>    C       17.06395       -17.09613        -4.72284
| 85>    C       18.24838       -17.55346        -5.21907
| 86>    S       18.25420       -17.46486        -6.96492
| 87>    C       16.65390       -16.82050        -7.00205
| 88>    C       16.15060       -16.67817        -5.74647
| 89>    C       14.90544       -16.25329        -5.12952
| 90>    C       13.73123       -16.08954        -5.81854
| 91>    C       13.69791       -16.17494        -7.22812
| 92>    N       13.65214       -16.21932        -8.37344
| 93>    C       12.44439       -15.91710        -5.27015
| 94>    N       11.36165       -15.80284        -4.90544
| 95>   Cl       19.58268       -18.14468        -4.36079
| 96>    H       -2.19944         3.59381        -2.10405
| 97>    H        0.40601        -1.27700        -3.91045
| 98>    H        2.65319        -2.74239        -4.14351
| 99>    H        0.90607        -2.41927        -0.19603
|100>    H        4.52717        -5.81171        -0.75373
|101>    H        6.38437        -6.06650        -4.65884
|102>    H        4.64723        -7.78281        -0.11861
|103>    H        7.57603       -12.58303         3.02782
|104>    H        8.75900       -11.53288         2.21177
|105>    H        7.84752       -12.76867         1.28493
|106>    H        8.60309       -10.79218         0.00654
|107>    H       10.04339       -10.35470        -1.57133
|108>    H       10.35362        -8.60972        -4.07650
|109>    H       14.88790       -10.50953        -4.53080
|110>    H       14.05775       -12.49810        -3.01601
|111>    H        9.17223       -11.71585        -3.46368
|112>    H        8.10064       -13.30668        -1.63215
|113>    H       12.72799       -14.93566        -0.77182
|114>    H       13.15833       -14.32999        -3.74083
|115>    H       14.81900       -15.90210        -1.67616
|116>    H       16.20536       -16.58599        -7.94697
|117> *
|118>
|119>                          ****END OF INPUT****

CARTESIAN COORDINATES (ANGSTROEM)
---------------------------------
  C     -0.816440    1.938270   -1.658570
  C     -1.479600    3.111790   -1.472590
  S     -1.025050    3.856290    0.015900
  C      0.086990    2.563900    0.400140
  Cl     0.992760    2.572060    1.830570
  C      0.080190    1.621850   -0.586280
  C      0.766850    0.358800   -0.864000
  O      1.644210   -0.172770   -0.223610
  C      0.210020   -0.094500   -2.178660
  C     -0.757220    0.885390   -2.651860
  C     -1.523660    0.831270   -3.784800
  C     -2.434840    1.861490   -4.102840
  N     -3.175760    2.693710   -4.374300
  C     -1.519590   -0.217340   -4.726880
  N     -1.570800   -1.047450   -5.517700
  C      0.669200   -1.176020   -2.863900
  C      1.521590   -2.196560   -2.356690
  C      2.441970   -2.896550   -3.103240
  C      3.116680   -3.831020   -2.259860
  C      2.503150   -3.691930   -0.929340
  C      1.556630   -2.719520   -0.993570
  C      2.829790   -4.429300    0.215260
  N      3.098980   -5.027050    1.158280
  C      4.124950   -4.700880   -2.614880
  C      4.753340   -5.673660   -1.790770
  C      5.720230   -6.337200   -2.526760
  C      5.730800   -5.756040   -3.864400
  C      4.770830   -4.800880   -3.936400
  C      4.479640   -4.041740   -5.077560
  N      4.270580   -3.431700   -6.027180
  C      6.595270   -7.374060   -2.143440
  S      7.980540   -7.693870   -3.130950
  C      8.567830   -8.938860   -2.072210
  C      7.661140   -9.143260   -0.994250
  C      6.547330   -8.258310   -1.040400
  C      5.526580   -8.403380   -0.086760
  C      5.635070   -9.371440    0.875760
  C      4.538740   -9.570090    1.891430
  F      3.509320   -8.737040    1.697740
  F      4.029600  -10.811200    1.846360
  F      4.964670   -9.370660    3.146060
  C      6.760860  -10.243680    0.949070
  O      6.738840  -11.129260    1.942110
  C      7.801350  -12.049480    2.107070
  C      7.761490  -10.120400   -0.002460
  C      9.741110   -9.639050   -2.321590
  C     10.545420   -9.458330   -3.430260
  C     11.680040  -10.218420   -3.718160
  C     12.812020   -9.768850   -4.413760
  N     12.968740   -8.570710   -5.127460
  O     12.005220   -7.827510   -5.247180
  O     14.069180   -8.343100   -5.599360
  C     13.891680  -10.663370   -4.160060
  C     13.452170  -11.691740   -3.375700
  C     12.045970  -11.553580   -3.173790
  C     11.137180  -12.495690   -2.731170
  C      9.695890  -12.349850   -2.777070
  C      9.141220  -13.172330   -1.857250
  C     10.194900  -13.924150   -1.233770
  N      9.949100  -14.802530   -0.165940
  O      8.862020  -14.689320    0.384330
  O     10.817370  -15.578620    0.188750
  C     11.408890  -13.643920   -1.860330
  C     12.589480  -14.421210   -1.714620
  C     13.384110  -14.744820   -2.769440
  C     14.455300  -15.660970   -2.669770
  C     15.138240  -16.240150   -3.696960
  C     16.450690  -16.904020   -3.405400
  O     16.890050  -17.163800   -2.312020
  C     17.063950  -17.096130   -4.722840
  C     18.248380  -17.553460   -5.219070
  S     18.254200  -17.464860   -6.964920
  C     16.653900  -16.820500   -7.002050
  C     16.150600  -16.678170   -5.746470
  C     14.905440  -16.253290   -5.129520
  C     13.731230  -16.089540   -5.818540
  C     13.697910  -16.174940   -7.228120
  N     13.652140  -16.219320   -8.373440
  C     12.444390  -15.917100   -5.270150
  N     11.361650  -15.802840   -4.905440
  Cl    19.582680  -18.144680   -4.360790
  H     -2.199440    3.593810   -2.104050
  H      0.406010   -1.277000   -3.910450
  H      2.653190   -2.742390   -4.143510
  H      0.906070   -2.419270   -0.196030
  H      4.527170   -5.811710   -0.753730
  H      6.384370   -6.066500   -4.658840
  H      4.647230   -7.782810   -0.118610
  H      7.576030  -12.583030    3.027820
  H      8.759000  -11.532880    2.211770
  H      7.847520  -12.768670    1.284930
  H      8.603090  -10.792180    0.006540
  H     10.043390  -10.354700   -1.571330
  H     10.353620   -8.609720   -4.076500
  H     14.887900  -10.509530   -4.530800
  H     14.057750  -12.498100   -3.016010
  H      9.172230  -11.715850   -3.463680
  H      8.100640  -13.306680   -1.632150
  H     12.727990  -14.935660   -0.771820
  H     13.158330  -14.329990   -3.740830
  H     14.819000  -15.902100   -1.676160
  H     16.205360  -16.585990   -7.946970

 Total Charge           Charge          ....    0
 Multiplicity           Mult            ....    1
 Number of Electrons    NEL             ....  590
 Basis Dimension        Dim             .... 1259

ORBITAL ENERGIES
----------------

  NO   OCC          E(Eh)            E(eV)
   0   2.0000    -101.627464     -2765.4239
   1   2.0000    -101.621023     -2765.2486
   2   2.0000     -89.004944     -2421.9477
   3   2.0000     -89.004517     -2421.9360
   4   2.0000     -88.997369     -2421.7415
   5   2.0000     -24.799838      -674.8379
   6   2.0000     -24.792650      -674.6423
   7   2.0000     -24.792212      -674.6304
   8   2.0000     -19.277579      -524.5696
   9   2.0000     -19.255967      -523.9815
  10   2.0000     -19.254515      -523.9420
  11   2.0000     -19.238314      -523.5011
  12   2.0000     -19.234018      -523.3842
  13   2.0000     -19.233943      -523.3822
  14   2.0000     -19.224453      -523.1240
  15   2.0000     -14.662921      -398.9984
  16   2.0000     -14.644232      -398.4898
  17   2.0000     -14.431697      -392.7064
  18   2.0000     -14.430784      -392.6816
  19   2.0000     -14.426874      -392.5752
  20   2.0000     -14.426670      -392.5696
  21   2.0000     -14.425005      -392.5243
  22   2.0000     -14.417496      -392.3200
  23   2.0000     -10.518970      -286.2357
  24   2.0000     -10.393566      -282.8233
  25   2.0000     -10.387674      -282.6630
  26   2.0000     -10.380496      -282.4677
  27   2.0000     -10.380366      -282.4641
  28   2.0000     -10.378142      -282.4036
  29   2.0000     -10.361589      -281.9532
  30   2.0000     -10.360553      -281.9250
  31   2.0000     -10.358399      -281.8664
  32   2.0000     -10.357600      -281.8446
  33   2.0000     -10.357000      -281.8283
  34   2.0000     -10.344778      -281.4957
  35   2.0000     -10.342653      -281.4379
  36   2.0000     -10.341911      -281.4177
  37   2.0000     -10.341519      -281.4070
  38   2.0000     -10.341348      -281.4024
  39   2.0000     -10.340312      -281.3742
  40   2.0000     -10.337595      -281.3003
  41   2.0000     -10.336900      -281.2813
  42   2.0000     -10.335922      -281.2547
  43   2.0000     -10.335458      -281.2421
  44   2.0000     -10.333637      -281.1926
  45   2.0000     -10.333071      -281.1772
  46   2.0000     -10.333016      -281.1757
  47   2.0000     -10.333010      -281.1755
  48   2.0000     -10.332211      -281.1537
  49   2.0000     -10.330722      -281.1132
  50   2.0000     -10.330416      -281.1049
  51   2.0000     -10.329417      -281.0777
  52   2.0000     -10.329402      -281.0773
  53   2.0000     -10.328903      -281.0637
  54   2.0000     -10.328393      -281.0499
  55   2.0000     -10.326549      -280.9997
  56   2.0000     -10.326197      -280.9901
  57   2.0000     -10.325680      -280.9760
  58   2.0000     -10.324582      -280.9462
  59   2.0000     -10.324214      -280.9362
  60   2.0000     -10.323708      -280.9224
  61   2.0000     -10.322541      -280.8906
  62   2.0000     -10.322257      -280.8829
  63   2.0000     -10.322045      -280.8771
  64   2.0000     -10.320646      -280.8390
  65   2.0000     -10.319938      -280.8198
  66   2.0000     -10.319518      -280.8083
  67   2.0000     -10.318798      -280.7888
  68   2.0000     -10.318247      -280.7738
  69   2.0000     -10.312956      -280.6298
  70   2.0000     -10.312283      -280.6115
  71   2.0000     -10.311824      -280.5990
  72   2.0000     -10.311745      -280.5969
  73   2.0000     -10.310728      -280.5692
  74   2.0000     -10.309461      -280.5347
  75   2.0000     -10.308357      -280.5047
  76   2.0000     -10.304722      -280.4057
  77   2.0000     -10.303674      -280.3772
  78   2.0000     -10.300396      -280.2880
  79   2.0000     -10.299646      -280.2676
  80   2.0000     -10.289976      -280.0045
  81   2.0000      -9.582222      -260.7455
  82   2.0000      -9.575840      -260.5719
  83   2.0000      -8.100203      -220.4177
  84   2.0000      -8.099743      -220.4052
  85   2.0000      -8.093135      -220.2254
  86   2.0000      -7.352884      -200.0821
  87   2.0000      -7.346486      -199.9081
  88   2.0000      -7.342253      -199.7929
  89   2.0000      -7.341690      -199.7775
  90   2.0000      -7.335869      -199.6191
  91   2.0000      -7.335319      -199.6042
  92   2.0000      -6.069581      -165.1617
  93   2.0000      -6.068699      -165.1377
  94   2.0000      -6.064922      -165.0349
  95   2.0000      -6.064620      -165.0267
  96   2.0000      -6.062523      -164.9696
  97   2.0000      -6.062505      -164.9691
  98   2.0000      -6.062503      -164.9691
  99   2.0000      -6.057905      -164.8440
 100   2.0000      -6.055385      -164.7754
 101   2.0000      -1.386833       -37.7376
 102   2.0000      -1.333132       -36.2764
 103   2.0000      -1.313348       -35.7380
 104   2.0000      -1.290247       -35.1094
 105   2.0000      -1.285417       -34.9780
 106   2.0000      -1.187334       -32.3090
 107   2.0000      -1.155449       -31.4414
 108   2.0000      -1.150946       -31.3188
 109   2.0000      -1.141633       -31.0654
 110   2.0000      -1.130813       -30.7710
 111   2.0000      -1.049679       -28.5632
 112   2.0000      -1.042888       -28.3784
 113   2.0000      -1.042355       -28.3639
 114   2.0000      -1.030764       -28.0485
 115   2.0000      -1.028349       -27.9828
 116   2.0000      -1.027122       -27.9494
 117   2.0000      -1.023835       -27.8600
 118   2.0000      -1.015101       -27.6223
 119   2.0000      -1.009518       -27.4704
 120   2.0000      -1.006401       -27.3856
 121   2.0000      -1.005079       -27.3496
 122   2.0000      -1.001097       -27.2412
 123   2.0000      -1.000312       -27.2199
 124   2.0000      -0.994832       -27.0708
 125   2.0000      -0.993633       -27.0381
 126   2.0000      -0.972979       -26.4761
 127   2.0000      -0.965805       -26.2809
 128   2.0000      -0.960934       -26.1483
 129   2.0000      -0.942430       -25.6448
 130   2.0000      -0.936118       -25.4731
 131   2.0000      -0.924247       -25.1500
 132   2.0000      -0.919340       -25.0165
 133   2.0000      -0.912377       -24.8270
 134   2.0000      -0.911312       -24.7981
 135   2.0000      -0.905309       -24.6347
 136   2.0000      -0.889852       -24.2141
 137   2.0000      -0.884762       -24.0756
 138   2.0000      -0.881387       -23.9838
 139   2.0000      -0.878898       -23.9160
 140   2.0000      -0.869876       -23.6705
 141   2.0000      -0.859559       -23.3898
 142   2.0000      -0.853072       -23.2133
 143   2.0000      -0.843982       -22.9659
 144   2.0000      -0.838184       -22.8081
 145   2.0000      -0.834858       -22.7176
 146   2.0000      -0.820609       -22.3299
 147   2.0000      -0.819299       -22.2943
 148   2.0000      -0.811732       -22.0884
 149   2.0000      -0.799424       -21.7534
 150   2.0000      -0.789816       -21.4920
 151   2.0000      -0.779886       -21.2218
 152   2.0000      -0.774705       -21.0808
 153   2.0000      -0.766982       -20.8706
 154   2.0000      -0.758800       -20.6480
 155   2.0000      -0.749904       -20.4059
 156   2.0000      -0.738960       -20.1081
 157   2.0000      -0.735965       -20.0266
 158   2.0000      -0.731938       -19.9171
 159   2.0000      -0.721707       -19.6386
 160   2.0000      -0.717392       -19.5212
 161   2.0000      -0.712976       -19.4011
 162   2.0000      -0.701619       -19.0920
 163   2.0000      -0.697183       -18.9713
 164   2.0000      -0.689262       -18.7558
 165   2.0000      -0.688354       -18.7311
 166   2.0000      -0.686077       -18.6691
 167   2.0000      -0.682517       -18.5722
 168   2.0000      -0.681946       -18.5567
 169   2.0000      -0.676725       -18.4146
 170   2.0000      -0.669990       -18.2314
 171   2.0000      -0.668420       -18.1886
 172   2.0000      -0.665934       -18.1210
 173   2.0000      -0.661022       -17.9873
 174   2.0000      -0.652661       -17.7598
 175   2.0000      -0.649333       -17.6693
 176   2.0000      -0.645341       -17.5606
 177   2.0000      -0.642712       -17.4891
 178   2.0000      -0.638642       -17.3783
 179   2.0000      -0.635344       -17.2886
 180   2.0000      -0.626898       -17.0588
 181   2.0000      -0.626504       -17.0480
 182   2.0000      -0.626079       -17.0365
 183   2.0000      -0.624365       -16.9898
 184   2.0000      -0.618859       -16.8400
 185   2.0000      -0.617498       -16.8030
 186   2.0000      -0.616576       -16.7779
 187   2.0000      -0.613813       -16.7027
 188   2.0000      -0.609890       -16.5960
 189   2.0000      -0.599081       -16.3018
 190   2.0000      -0.598565       -16.2878
 191   2.0000      -0.581885       -15.8339
 192   2.0000      -0.579426       -15.7670
 193   2.0000      -0.575657       -15.6644
 194   2.0000      -0.569585       -15.4992
 195   2.0000      -0.569413       -15.4945
 196   2.0000      -0.565463       -15.3870
 197   2.0000      -0.564868       -15.3708
 198   2.0000      -0.562039       -15.2939
 199   2.0000      -0.560234       -15.2447
 200   2.0000      -0.557261       -15.1638
 201   2.0000      -0.553161       -15.0523
 202   2.0000      -0.551925       -15.0187
 203   2.0000      -0.548187       -14.9169
 204   2.0000      -0.547408       -14.8957
 205   2.0000      -0.546071       -14.8593
 206   2.0000      -0.543917       -14.8007
 207   2.0000      -0.543218       -14.7817
 208   2.0000      -0.542326       -14.7574
 209   2.0000      -0.538154       -14.6439
 210   2.0000      -0.537144       -14.6164
 211   2.0000      -0.536340       -14.5945
 212   2.0000      -0.534743       -14.5511
 213   2.0000      -0.530084       -14.4243
 214   2.0000      -0.529167       -14.3994
 215   2.0000      -0.526469       -14.3260
 216   2.0000      -0.525527       -14.3003
 217   2.0000      -0.520186       -14.1550
 218   2.0000      -0.517088       -14.0707
 219   2.0000      -0.513491       -13.9728
 220   2.0000      -0.512882       -13.9562
 221   2.0000      -0.512334       -13.9413
 222   2.0000      -0.510297       -13.8859
 223   2.0000      -0.508906       -13.8480
 224   2.0000      -0.506648       -13.7866
 225   2.0000      -0.505929       -13.7670
 226   2.0000      -0.503033       -13.6882
 227   2.0000      -0.500892       -13.6300
 228   2.0000      -0.499324       -13.5873
 229   2.0000      -0.498718       -13.5708
 230   2.0000      -0.498359       -13.5610
 231   2.0000      -0.498114       -13.5544
 232   2.0000      -0.492700       -13.4070
 233   2.0000      -0.492078       -13.3901
 234   2.0000      -0.489557       -13.3215
 235   2.0000      -0.486820       -13.2470
 236   2.0000      -0.483819       -13.1654
 237   2.0000      -0.480175       -13.0662
 238   2.0000      -0.476298       -12.9607
 239   2.0000      -0.472504       -12.8575
 240   2.0000      -0.470859       -12.8127
 241   2.0000      -0.466729       -12.7003
 242   2.0000      -0.465884       -12.6773
 243   2.0000      -0.462704       -12.5908
 244   2.0000      -0.462016       -12.5721
 245   2.0000      -0.459203       -12.4956
 246   2.0000      -0.457623       -12.4526
 247   2.0000      -0.457109       -12.4386
 248   2.0000      -0.455534       -12.3957
 249   2.0000      -0.454675       -12.3723
 250   2.0000      -0.452650       -12.3172
 251   2.0000      -0.452168       -12.3041
 252   2.0000      -0.448791       -12.2122
 253   2.0000      -0.448198       -12.1961
 254   2.0000      -0.446006       -12.1365
 255   2.0000      -0.444784       -12.1032
 256   2.0000      -0.443836       -12.0774
 257   2.0000      -0.443698       -12.0736
 258   2.0000      -0.441285       -12.0080
 259   2.0000      -0.436276       -11.8717
 260   2.0000      -0.434629       -11.8269
 261   2.0000      -0.430293       -11.7089
 262   2.0000      -0.429935       -11.6991
 263   2.0000      -0.427936       -11.6447
 264   2.0000      -0.426463       -11.6046
 265   2.0000      -0.421957       -11.4820
 266   2.0000      -0.418795       -11.3960
 267   2.0000      -0.413557       -11.2535
 268   2.0000      -0.412334       -11.2202
 269   2.0000      -0.409648       -11.1471
 270   2.0000      -0.407301       -11.0832
 271   2.0000      -0.404141       -10.9972
 272   2.0000      -0.395901       -10.7730
 273   2.0000      -0.393454       -10.7064
 274   2.0000      -0.388217       -10.5639
 275   2.0000      -0.381661       -10.3855
 276   2.0000      -0.380087       -10.3427
 277   2.0000      -0.377846       -10.2817
 278   2.0000      -0.372872       -10.1464
 279   2.0000      -0.364597        -9.9212
 280   2.0000      -0.362696        -9.8695
 281   2.0000      -0.353262        -9.6127
 282   2.0000      -0.352388        -9.5890
 283   2.0000      -0.349523        -9.5110
 284   2.0000      -0.349085        -9.4991
 285   2.0000      -0.345884        -9.4120
 286   2.0000      -0.338292        -9.2054
 287   2.0000      -0.337083        -9.1725
 288   2.0000      -0.326260        -8.8780
 289   2.0000      -0.322604        -8.7785
 290   2.0000      -0.320201        -8.7131
 291   2.0000      -0.316700        -8.6178
 292   2.0000      -0.307715        -8.3733
 293   2.0000      -0.292014        -7.9461
 294   2.0000      -0.255091        -6.9414
 295   0.0000      -0.156896        -4.2694
 296   0.0000      -0.132287        -3.5997
 297   0.0000      -0.106013        -2.8847
 298   0.0000      -0.094312        -2.5663
 299   0.0000      -0.080138        -2.1807

MULLIKEN ATOMIC CHARGES
-----------------------
   0 C :    0.034676
   1 C :   -0.129587
   2 S :    0.196574
   3 C :   -0.166068
   4 Cl:    0.007304
   5 C :    0.073845
   6 C :    0.138605
   7 O :   -0.128400
   8 C :   -0.098464
   9 C :    0.292360
  10 C :   -0.318106
  11 C :   -0.192884
  12 N :    0.161019
  13 C :   -0.190772
  14 N :    0.174858
  15 C :   -0.027451
  16 C :    0.083989
  17 C :   -0.073552
  18 C :    0.108477
  19 C :   -0.124508
  20 C :    0.079744
  21 C :   -0.176879
  22 N :    0.137051
  23 C :    0.116458
  24 C :   -0.137049
  25 C :    0.104272
  26 C :   -0.019155
  27 C :   -0.081349
  28 C :   -0.182509
  29 N :    0.150883
  30 C :   -0.081525
  31 S :    0.179867
  32 C :   -0.094734
  33 C :    0.164700
  34 C :    0.128738
  35 C :   -0.054727
  36 C :   -0.164525
  37 C :    0.547624
  38 F :   -0.148152
  39 F :   -0.161627
  40 F :   -0.157264
  41 C :    0.253531
  42 O :   -0.273734
  43 C :    0.168200
  44 C :   -0.176323
  45 C :    0.010135
  46 C :   -0.064180
  47 C :    0.020447
  48 C :    0.083177
  49 N :    0.273918
  50 O :   -0.268447
  51 O :   -0.256535
  52 C :    0.029704
  53 C :   -0.027115
  54 C :    0.074008
  55 C :    0.007967
  56 C :   -0.015938
  57 C :    0.005986
  58 C :    0.075896
  59 N :    0.284401
  60 O :   -0.251554
  61 O :   -0.239587
  62 C :    0.029832
  63 C :   -0.013022
  64 C :   -0.007073
  65 C :    0.016302
  66 C :   -0.118091
  67 C :    0.134046
  68 O :   -0.124292
  69 C :    0.088679
  70 C :   -0.170627
  71 S :    0.189771
  72 C :   -0.126237
  73 C :    0.013220
  74 C :    0.290052
  75 C :   -0.319794
  76 C :   -0.189904
  77 N :    0.153160
  78 C :   -0.211711
  79 N :    0.175042
  80 Cl:    0.002695
  81 H :    0.057352
  82 H :    0.041301
  83 H :    0.016147
  84 H :    0.007902
  85 H :    0.012617
  86 H :    0.017623
  87 H :   -0.002961
  88 H :    0.053721
  89 H :    0.025416
  90 H :    0.043959
  91 H :   -0.034350
  92 H :    0.036091
  93 H :    0.032617
  94 H :    0.009486
  95 H :   -0.005935
  96 H :    0.018315
  97 H :    0.004235
  98 H :    0.036941
  99 H :    0.048270
 100 H :    0.028381
 101 H :    0.055104
Sum of atomic charges:   -0.0000000

LOEWDIN ATOMIC CHARGES
----------------------
   0 C :   -0.058824
   1 C :   -0.146831
   2 S :    0.484671
   3 C :   -0.269761
   4 Cl:    0.198111
   5 C :   -0.119229
   6 C :    0.082361
   7 O :   -0.120164
   8 C :   -0.074456
   9 C :    0.070228
  10 C :   -0.125474
  11 C :   -0.015240
  12 N :   -0.042720
  13 C :   -0.025126
  14 N :   -0.034625
  15 C :    0.072677
  16 C :   -0.023091
  17 C :    0.017755
  18 C :    0.040363
  19 C :   -0.095743
  20 C :    0.082536
  21 C :   -0.027988
  22 N :   -0.061867
  23 C :    0.038251
  24 C :   -0.018861
  25 C :   -0.034542
  26 C :    0.043681
  27 C :   -0.070190
  28 C :   -0.032008
  29 N :   -0.047590
  30 C :   -0.128378
  31 S :    0.511015
  32 C :   -0.182600
  33 C :   -0.003980
  34 C :   -0.051658
  35 C :    0.027488
  36 C :   -0.085496
  37 C :    0.166470
  38 F :   -0.048826
  39 F :   -0.060075
  40 F :   -0.055776
  41 C :    0.081444
  42 O :   -0.065539
  43 C :    0.082017
  44 C :   -0.079134
  45 C :    0.012289
  46 C :   -0.027920
  47 C :    0.023387
  48 C :   -0.075694
  49 N :    0.285136
  50 O :   -0.231808
  51 O :   -0.220644
  52 C :    0.043027
  53 C :   -0.065732
  54 C :    0.051112
  55 C :    0.016109
  56 C :   -0.014999
  57 C :   -0.027013
  58 C :   -0.029022
  59 N :    0.289005
  60 O :   -0.214856
  61 O :   -0.199895
  62 C :    0.000131
  63 C :    0.028916
  64 C :   -0.019228
  65 C :    0.066498
  66 C :   -0.081167
  67 C :    0.078924
  68 O :   -0.130224
  69 C :   -0.118970
  70 C :   -0.271775
  71 S :    0.477751
  72 C :   -0.150569
  73 C :   -0.058185
  74 C :    0.068628
  75 C :   -0.132950
  76 C :   -0.015533
  77 N :   -0.046251
  78 C :   -0.025816
  79 N :   -0.044940
  80 Cl:    0.194395
  81 H :    0.039209
  82 H :    0.054258
  83 H :    0.040739
  84 H :    0.039120
  85 H :    0.034721
  86 H :    0.035368
  87 H :    0.041231
  88 H :    0.038902
  89 H :    0.018357
  90 H :    0.020087
  91 H :    0.031126
  92 H :    0.042965
  93 H :    0.032764
  94 H :    0.040901
  95 H :    0.029312
  96 H :    0.036298
  97 H :    0.035378
  98 H :    0.041890
  99 H :    0.034659
 100 H :    0.049463
 101 H :    0.037860

  Mayer bond orders larger than 0.100000
B(  0-C ,  1-C ) :   1.5416 B(  0-C ,  5-C ) :   1.2228 B(  0-C ,  9-C ) :   1.0031
B(  1-C ,  2-S ) :   1.1656 B(  1-C , 81-H ) :   0.9547 B(  2-S ,  3-C ) :   1.1558
B(  3-C ,  4-Cl) :   1.1352 B(  3-C ,  5-C ) :   1.4681 B(  5-C ,  6-C ) :   0.9557
B(  6-C ,  7-O ) :   2.2238 B(  6-C ,  8-C ) :   0.9322 B(  8-C ,  9-C ) :   1.0465
B(  8-C , 15-C ) :   1.6529 B(  9-C , 10-C ) :   1.6712 B( 10-C , 11-C ) :   1.1450
B( 10-C , 13-C ) :   1.1362 B( 11-C , 12-N ) :   2.9911 B( 13-C , 14-N ) :   2.9818
B( 15-C , 16-C ) :   1.0879 B( 15-C , 82-H ) :   0.9465 B( 16-C , 17-C ) :   1.5300
B( 16-C , 20-C ) :   1.0489 B( 17-C , 18-C ) :   1.1031 B( 17-C , 83-H ) :   1.0059
B( 18-C , 19-C ) :   1.1193 B( 18-C , 23-C ) :   1.3991 B( 19-C , 20-C ) :   1.6685
B( 19-C , 21-C ) :   1.0957 B( 20-C , 84-H ) :   1.0061 B( 21-C , 22-N ) :   2.9631
B( 23-C , 24-C ) :   1.1460 B( 23-C , 27-C ) :   1.1027 B( 24-C , 25-C ) :   1.5096
B( 24-C , 85-H ) :   0.9945 B( 25-C , 26-C ) :   1.0307 B( 25-C , 30-C ) :   1.1393
B( 26-C , 27-C ) :   1.6968 B( 26-C , 86-H ) :   1.0088 B( 27-C , 28-C ) :   1.0822
B( 28-C , 29-N ) :   2.9696 B( 30-C , 31-S ) :   1.1903 B( 30-C , 34-C ) :   1.2976
B( 31-S , 32-C ) :   1.0999 B( 32-C , 33-C ) :   1.2255 B( 32-C , 45-C ) :   1.3315
B( 33-C , 34-C ) :   1.2258 B( 33-C , 44-C ) :   1.2315 B( 34-C , 35-C ) :   1.1774
B( 35-C , 36-C ) :   1.5789 B( 35-C , 87-H ) :   0.9942 B( 36-C , 37-C ) :   0.9260
B( 36-C , 41-C ) :   1.2141 B( 37-C , 38-F ) :   1.1656 B( 37-C , 39-F ) :   1.1685
B( 37-C , 40-F ) :   1.1744 B( 41-C , 42-O ) :   1.2689 B( 41-C , 44-C ) :   1.3958
B( 42-O , 43-C ) :   0.9202 B( 43-C , 88-H ) :   0.9753 B( 43-C , 89-H ) :   0.9650
B( 43-C , 90-H ) :   0.9636 B( 44-C , 91-H ) :   0.9924 B( 45-C , 46-C ) :   1.4152
B( 45-C , 92-H ) :   0.9356 B( 46-C , 47-C ) :   1.3138 B( 46-C , 93-H ) :   0.9469
B( 47-C , 48-C ) :   1.4232 B( 47-C , 54-C ) :   0.9863 B( 48-C , 49-N ) :   0.9707
B( 48-C , 52-C ) :   1.1665 B( 49-N , 50-O ) :   1.4804 B( 49-N , 51-O ) :   1.5283
B( 50-O , 51-O ) :   0.2471 B( 52-C , 53-C ) :   1.5170 B( 52-C , 94-H ) :   1.0103
B( 53-C , 54-C ) :   1.1576 B( 53-C , 95-H ) :   1.0039 B( 54-C , 55-C ) :   1.5115
B( 55-C , 56-C ) :   1.1056 B( 55-C , 62-C ) :   1.0510 B( 56-C , 57-C ) :   1.5808
B( 56-C , 96-H ) :   0.9752 B( 57-C , 58-C ) :   1.1451 B( 57-C , 97-H ) :   1.0164
B( 58-C , 59-N ) :   0.9483 B( 58-C , 62-C ) :   1.5179 B( 59-N , 60-O ) :   1.4928
B( 59-N , 61-O ) :   1.5059 B( 60-O , 61-O ) :   0.2576 B( 62-C , 63-C ) :   1.1179
B( 63-C , 64-C ) :   1.6378 B( 63-C , 98-H ) :   0.9546 B( 64-C , 65-C ) :   1.1338
B( 64-C , 99-H ) :   0.9519 B( 65-C , 66-C ) :   1.6348 B( 65-C ,100-H ) :   0.9561
B( 66-C , 67-C ) :   0.9321 B( 66-C , 74-C ) :   1.0388 B( 67-C , 68-O ) :   2.2806
B( 67-C , 69-C ) :   0.9302 B( 69-C , 70-C ) :   1.4800 B( 69-C , 73-C ) :   1.2216
B( 70-C , 71-S ) :   1.1519 B( 70-C , 80-Cl) :   1.1323 B( 71-S , 72-C ) :   1.1619
B( 72-C , 73-C ) :   1.5493 B( 72-C ,101-H ) :   0.9544 B( 73-C , 74-C ) :   1.0107
B( 74-C , 75-C ) :   1.6476 B( 75-C , 76-C ) :   1.1348 B( 75-C , 78-C ) :   1.1552
B( 76-C , 77-N ) :   2.9942 B( 78-C , 79-N ) :   3.0070

-----------------------------------------------------------------------------
         ABSORPTION SPECTRUM VIA TRANSITION ELECTRIC DIPOLE MOMENTS
-----------------------------------------------------------------------------
State   Energy  Wavelength   fosc         T2         TX        TY        TZ
        (cm-1)    (nm)                  (au**2)     (au)      (au)      (au)
-----------------------------------------------------------------------------
   0    6876.5   1454.2   0.593598948  28.41846  -3.82240   3.61435   0.86268
   1   11746.8    851.3   0.199971842   5.60433  -1.88495   1.43167  -0.04045
   2   14446.9    692.2   0.012524602   0.28541  -0.20868   0.43989  -0.21991
   3   16612.9    601.9   0.063701703   1.26235  -0.72399   0.84847   0.13522
   4   18047.0    554.1   0.054995250   1.00322  -0.21266  -0.96684   0.15236
   5   18917.7    528.6   0.033062056   0.57536  -0.64551   0.31669   0.24163
   6   20040.1    499.0   0.170193226   2.79588   1.36938  -0.60773  -0.74252
   7   21381.5    467.7   0.088241537   1.35866   0.74110  -0.63932  -0.63301
   8   21608.3    462.8   0.640312112   9.75542   2.40439  -1.84792  -0.74799
   9   22319.6    448.0   0.156182186   2.30367  -0.25164   1.08100  -1.03527
  10   23104.1    432.8   0.043361233   0.61786  -0.17999   0.62575   0.44034
  11   23634.0    423.1   0.152248305   2.12076  -0.87061   1.16472   0.07895
  12   24297.2    411.6   0.036983536   0.50110   0.34892  -0.28243  -0.54735
  13   24587.1    406.7   0.097697446   1.30813   0.62880  -0.67154  -0.67954
  14   24876.0    402.0   0.032027888   0.42386   0.17464   0.03083   0.62643
  15   25718.2    388.8   0.007257230   0.09290  -0.16626   0.13683  -0.21572
  16   26325.2    379.9   0.020214736   0.25280  -0.38363  -0.03085   0.32353
  17   26588.8    376.1   0.048823256   0.60451  -0.54174   0.55043  -0.08976
  18   26877.9    372.1   0.047475382   0.58150   0.62432  -0.43785  -0.00332
  19   26966.9    370.8   0.023990529   0.29288  -0.20863   0.12964   0.48223
  20   27140.3    368.5   0.042759541   0.51867   0.59096  -0.31254  -0.26787
  21   27682.5    361.2   0.060466383   0.71909  -0.79499  -0.07786   0.28463
  22   27993.6    357.2   0.169551191   1.99396  -0.35253   1.17828  -0.69379
  23   28347.8    352.8   0.169241311   1.96546   1.04867  -0.92742  -0.07509
  24   28541.0    350.4   0.060408446   0.69679   0.12035   0.45332  -0.69052
  25   28851.0    346.6   0.080891131   0.92303   0.72379  -0.51573  -0.36495
  26   28893.1    346.1   0.142736187   1.62635   0.47997  -1.15593  -0.24458
  27   29543.3    338.5   0.021070348   0.23479   0.01146  -0.10477   0.47295
  28   29869.5    334.8   0.084957694   0.93638  -0.90732   0.11275  -0.31691
  29   29941.7    334.0   0.010002888   0.10998  -0.25465   0.11007   0.18171
  30   30528.6    327.6   0.031764765   0.34254   0.19118   0.50895  -0.21672
  31   30844.7    324.2   0.025792725   0.27529  -0.08488  -0.09435  -0.50910
  32   31230.1    320.2   0.351165523   3.70181   0.95189   1.10723  -1.25290
  33   31417.9    318.3   0.107109745   1.12235   0.33490   0.90584  -0.43548
  34   31588.4    316.6   0.016185545   0.16868   0.32924   0.06930  -0.23555
  35   31766.6    314.8   0.037701768   0.39072  -0.51035  -0.16873   0.31906
  36   31890.6    313.6   0.014339333   0.14803   0.33633  -0.11929   0.14381
  37   32095.0    311.6   0.081565483   0.83665   0.64938   0.11933  -0.63302
  38   32233.9    310.2   0.036704180   0.37487   0.49835   0.32907  -0.13502
  39   32559.0    307.1   0.041098955   0.41556  -0.10209   0.28039   0.57142
  40   32655.7    306.2   0.125217989   1.26236   1.10822  -0.13614  -0.12516
  41   32732.4    305.5   0.018238262   0.18343  -0.39589   0.12541   0.10478
  42   33151.6    301.6   0.225577798   2.24010   0.10187   1.26580  -0.79213
  43   33287.5    300.4   0.088480139   0.87506  -0.02168   0.83764  -0.41588
  44   33717.2    296.6   0.024522473   0.23944  -0.43810  -0.13031  -0.17471
  45   33884.5    295.1   0.111553716   1.08382   0.89945   0.41123  -0.32513
  46   33964.6    294.4   0.187410649   1.81653  -1.05136   0.43450   0.72276
  47   34199.1    292.4   0.052059870   0.50115   0.26183   0.23423   0.61459
  48   34480.9    290.0   0.060814077   0.58063   0.27013  -0.22364  -0.67650
  49   34614.2    288.9   0.025031739   0.23807  -0.18102   0.23132   0.38961
  50   34986.4    285.8   0.117595829   1.10654   0.40652   0.75210   0.61289
  51   35045.2    285.3   0.009378385   0.08810  -0.00940   0.22907  -0.18851
  52   35159.4    284.4   0.030447794   0.28510   0.02021   0.10187  -0.52374
  53   35239.8    283.8   0.071519711   0.66814   0.52873  -0.02587  -0.62283
  54   35460.2    282.0   0.065805195   0.61093   0.37977   0.30152  -0.61302
  55   35587.0    281.0   0.013951790   0.12907   0.12967  -0.02532  -0.33408
  56   35883.9    278.7   0.003793144   0.03480   0.18598   0.01373  -0.00489
  57   36093.1    277.1   0.010928950   0.09968   0.28551  -0.07328  -0.11314
  58   36200.2    276.2   0.003823198   0.03477  -0.03532  -0.18237   0.01620
  59   36318.0    275.3   0.121276798   1.09934  -0.37613   0.97869   0.00586
  60   36376.3    274.9   0.136721278   1.23735   0.56687  -0.84389   0.45150
  61   36697.3    272.5   0.092165833   0.82682  -0.41798   0.78402   0.19348
  62   36801.9    271.7   0.101501528   0.90798   0.67503   0.09115  -0.66634
  63   37064.6    269.8   0.021486303   0.19084   0.29108   0.31055  -0.09837
  64   37211.3    268.7   0.002912661   0.02577   0.14317   0.05880  -0.04257
  65   37642.6    265.7   0.038882882   0.34006   0.35412   0.45834  -0.06768
  66   37726.9    265.1   0.204749029   1.78668   0.59355   0.40269   1.12792
  67   37814.3    264.5   0.166422176   1.44887  -0.33550   0.04660  -1.15505
  68   37894.3    263.9   0.121582864   1.05627   0.10519  -0.82894  -0.59839
  69   37999.9    263.2   0.110470438   0.95706  -0.53397   0.34774   0.74230
  70   38200.5    261.8   0.302096726   2.60347   1.52777  -0.08054   0.51273
  71   38443.3    260.1   0.111977899   0.95893  -0.71559   0.64344  -0.18122
  72   38478.8    259.9   0.018783801   0.16071   0.09211  -0.15016  -0.36010
  73   38645.2    258.8   0.134351062   1.14452   0.74148  -0.00681  -0.77115
  74   38778.5    257.9   0.049925382   0.42384  -0.53628   0.07938   0.36048
  75   38951.2    256.7   0.020868482   0.17638   0.41325  -0.05208  -0.05379
  76   38978.0    256.6   0.050064165   0.42285   0.47392   0.40666   0.18131
  77   39140.3    255.5   0.026534684   0.22319   0.40293  -0.00058  -0.24664
  78   39397.8    253.8   0.060503385   0.50557   0.51377  -0.46511   0.15903
  79   39763.0    251.5   0.095015958   0.78667  -0.10572   0.12794   0.87128
  80   39946.4    250.3   0.098914407   0.81519  -0.48816   0.41739   0.63456
  81   40178.7    248.9   0.051166995   0.41925   0.62217   0.11391  -0.13847
  82   40306.0    248.1   0.025197175   0.20581   0.20642   0.36493   0.17326

FINAL SINGLE POINT ENERGY     -5596.470409751362

DIPOLE MOMENT
-------------
                                X             Y             Z
Electronic contribution:    -12.53036      20.01139       9.70842
Nuclear contribution   :     13.70511     -19.04849      -8.12461
                        -----------------------------------------
Total Dipole Moment    :      1.17474       0.96290       1.58381
                        -----------------------------------------
Magnitude (a.u.)       :      2.19446
Magnitude (Debye)      :      5.57787

Rotational constants in cm-1:     0.001607     0.000176     0.000166
Rotational constants in MHz :    48.169164     5.264544     4.978502

                             ****ORCA TERMINATED NORMALLY****
TOTAL RUN TIME: 0 days 0 hours 12 minutes 49 seconds 840 msec
