                         Program Version 4.2.0 -  RELEASE  -
|  1> # ORCA input file
|  2> # SCF done       -212.669580291514          0.000944836230
|  3> ! CAM-B3LYP def2-SVP def2/J RIJCOSX Grid4 TightSCF
|  4> %maxcore 5000
|  5> %tddft
|  6>     Mode sTDDFT
|  7>     Ethresh 5.0
|  8>     maxcore 5000
|  9> end
| 10>
| 11> %pal
| 12>   nprocs 6
| 13>   end
| 14> * xyz 0 1
| 15>    C       12.35023        -0.55230         4.82540
| 16>    C       13.50740        -0.67964         5.53063
| 17>    S       13.32775        -0.08159         7.13824
| 18>    C       11.65917         0.35114         6.86533
| 19>   Cl       10.71302         1.05099         8.07993
| 20>    C       11.28918         0.03951         5.58818
| 21>    C       10.08258         0.14154         4.77591
| 22>    O        9.00536         0.60604         5.07361
| 23>    C       10.47299        -0.43227         3.44183
| 24>    C       11.86703        -0.86873         3.49859
| 25>    C       12.58415        -1.49585         2.52168
| 26>    C       13.93261        -1.86642         2.72345
| 27>    N       15.02777        -2.17045         2.87352
| 28>    C       12.08704        -1.86040         1.25233
| 29>    N       11.73862        -2.19493         0.21195
| 30>    C        9.65392        -0.44961         2.37573
| 31>    C        8.26477        -0.02444         2.43575
| 32>    C        7.76195         0.99791         1.62536
| 33>    C        8.62162         1.75092         0.69033
| 34>    O        9.80008         1.61582         0.53577
| 35>    S        7.62004         2.94126        -0.18203
| 36>    C        6.10870         2.46566         0.69092
| 37>    O        5.04257         2.92439         0.42065
| 38>    C        6.43929         1.42754         1.68573
| 39>    C        5.49899         0.88424         2.58742
| 40>    C        6.00663        -0.16190         3.38458
| 41>    C        7.32712        -0.58977         3.30137
| 42>    C        7.51909        -1.66905         4.30351
| 43>    O        8.47187        -2.34687         4.52970
| 44>    O        6.33495        -1.79925         4.97564
| 45>    C        5.38581        -0.92868         4.49425
| 46>    O        4.28980        -0.87826         4.96009
| 47>    C        4.18349         1.44672         2.71101
| 48>    C        3.04878         0.75401         2.95189
| 49>    C        1.79949         1.41180         3.12689
| 50>    N        0.60417         0.76051         3.29109
| 51>    C        0.39970        -0.66646         3.36707
| 52>    C        0.79556        -1.22769         4.73060
| 53>    C       -0.47159         1.66180         3.44900
| 54>    O       -1.62130         1.31694         3.60697
| 55>    C        0.15242         2.96606         3.36536
| 56>    C        1.54026         2.78043         3.17022
| 57>    C        2.14894         4.09139         3.11621
| 58>    O        3.30490         4.44614         3.00939
| 59>    N        1.07201         4.99131         3.25771
| 60>    C        1.32497         6.41138         3.20771
| 61>    C        1.07744         6.97864         1.81187
| 62>    C       -0.12465         4.33093         3.40644
| 63>    C       -1.43545         4.84445         3.60569
| 64>    C       -1.88446         6.11977         3.56485
| 65>    C       -3.24835         6.44833         3.82158
| 66>    O       -4.15268         5.47657         4.15456
| 67>    C       -5.31272         6.13473         4.34273
| 68>    C       -5.06143         7.52304         4.10737
| 69>    N       -3.74078         7.65087         3.78432
| 70>    C       -6.05485         8.48029         4.22309
| 71>    C       -7.29548         7.98103         4.58846
| 72>    C       -7.51937         6.58985         4.82349
| 73>    C       -6.54127         5.62141         4.70553
| 74>    O       -8.81240         6.44268         5.17002
| 75>    C       -9.33491         7.70266         5.12302
| 76>    N       -8.47937         8.62537         4.79180
| 77>    C      -10.69086         7.88858         5.51984
| 78>    C      -11.42447         9.01993         5.42469
| 79>    C      -12.66246         9.15910         6.26762
| 80>    O      -13.25116         8.26834         6.82663
| 81>    C      -12.91920        10.60164         6.28602
| 82>    C      -13.78519        11.45485         6.90519
| 83>    S      -13.46811        13.10341         6.42358
| 84>    C      -12.17752        12.62148         5.38306
| 85>    C      -11.99894        11.27426         5.41365
| 86>    C      -11.15577        10.28864         4.76282
| 87>    C      -10.43382        10.50457         3.62492
| 88>    C      -10.30210        11.79922         3.07816
| 89>    N      -10.18227        12.85089         2.63639
| 90>    C       -9.86539         9.49106         2.82449
| 91>    N       -9.47928         8.71579         2.07177
| 92>   Cl      -15.02106        11.07523         7.99837
| 93>    H       14.45181        -1.08068         5.21971
| 94>    H       10.01611        -0.75440         1.40224
| 95>    H        4.12323         2.52058         2.57405
| 96>    H        3.05750        -0.32390         2.99275
| 97>    H        0.95687        -1.15845         2.56494
| 98>    H       -0.66983        -0.82436         3.20046
| 99>    H        1.84946        -1.06010         4.93822
|100>    H        0.59956        -2.29612         4.75467
|101>    H        0.20757        -0.75105         5.51101
|102>    H        2.38201         6.53582         3.46231
|103>    H        0.72115         6.91706         3.96394
|104>    H        1.76245         6.51883         1.10370
|105>    H        1.24928         8.05128         1.81417
|106>    H        0.05937         6.78567         1.48161
|107>    H       -2.15840         4.06265         3.80813
|108>    H       -1.27279         6.97476         3.33330
|109>    H       -5.87983         9.52527         4.04094
|110>    H       -6.71810         4.57450         4.87945
|111>    H      -11.14239         7.04835         6.03438
|112>    H      -11.63822        13.36573         4.83149
|113> *
|114>
|115>                          ****END OF INPUT****

CARTESIAN COORDINATES (ANGSTROEM)
---------------------------------
  C     12.350230   -0.552300    4.825400
  C     13.507400   -0.679640    5.530630
  S     13.327750   -0.081590    7.138240
  C     11.659170    0.351140    6.865330
  Cl    10.713020    1.050990    8.079930
  C     11.289180    0.039510    5.588180
  C     10.082580    0.141540    4.775910
  O      9.005360    0.606040    5.073610
  C     10.472990   -0.432270    3.441830
  C     11.867030   -0.868730    3.498590
  C     12.584150   -1.495850    2.521680
  C     13.932610   -1.866420    2.723450
  N     15.027770   -2.170450    2.873520
  C     12.087040   -1.860400    1.252330
  N     11.738620   -2.194930    0.211950
  C      9.653920   -0.449610    2.375730
  C      8.264770   -0.024440    2.435750
  C      7.761950    0.997910    1.625360
  C      8.621620    1.750920    0.690330
  O      9.800080    1.615820    0.535770
  S      7.620040    2.941260   -0.182030
  C      6.108700    2.465660    0.690920
  O      5.042570    2.924390    0.420650
  C      6.439290    1.427540    1.685730
  C      5.498990    0.884240    2.587420
  C      6.006630   -0.161900    3.384580
  C      7.327120   -0.589770    3.301370
  C      7.519090   -1.669050    4.303510
  O      8.471870   -2.346870    4.529700
  O      6.334950   -1.799250    4.975640
  C      5.385810   -0.928680    4.494250
  O      4.289800   -0.878260    4.960090
  C      4.183490    1.446720    2.711010
  C      3.048780    0.754010    2.951890
  C      1.799490    1.411800    3.126890
  N      0.604170    0.760510    3.291090
  C      0.399700   -0.666460    3.367070
  C      0.795560   -1.227690    4.730600
  C     -0.471590    1.661800    3.449000
  O     -1.621300    1.316940    3.606970
  C      0.152420    2.966060    3.365360
  C      1.540260    2.780430    3.170220
  C      2.148940    4.091390    3.116210
  O      3.304900    4.446140    3.009390
  N      1.072010    4.991310    3.257710
  C      1.324970    6.411380    3.207710
  C      1.077440    6.978640    1.811870
  C     -0.124650    4.330930    3.406440
  C     -1.435450    4.844450    3.605690
  C     -1.884460    6.119770    3.564850
  C     -3.248350    6.448330    3.821580
  O     -4.152680    5.476570    4.154560
  C     -5.312720    6.134730    4.342730
  C     -5.061430    7.523040    4.107370
  N     -3.740780    7.650870    3.784320
  C     -6.054850    8.480290    4.223090
  C     -7.295480    7.981030    4.588460
  C     -7.519370    6.589850    4.823490
  C     -6.541270    5.621410    4.705530
  O     -8.812400    6.442680    5.170020
  C     -9.334910    7.702660    5.123020
  N     -8.479370    8.625370    4.791800
  C    -10.690860    7.888580    5.519840
  C    -11.424470    9.019930    5.424690
  C    -12.662460    9.159100    6.267620
  O    -13.251160    8.268340    6.826630
  C    -12.919200   10.601640    6.286020
  C    -13.785190   11.454850    6.905190
  S    -13.468110   13.103410    6.423580
  C    -12.177520   12.621480    5.383060
  C    -11.998940   11.274260    5.413650
  C    -11.155770   10.288640    4.762820
  C    -10.433820   10.504570    3.624920
  C    -10.302100   11.799220    3.078160
  N    -10.182270   12.850890    2.636390
  C     -9.865390    9.491060    2.824490
  N     -9.479280    8.715790    2.071770
  Cl   -15.021060   11.075230    7.998370
  H     14.451810   -1.080680    5.219710
  H     10.016110   -0.754400    1.402240
  H      4.123230    2.520580    2.574050
  H      3.057500   -0.323900    2.992750
  H      0.956870   -1.158450    2.564940
  H     -0.669830   -0.824360    3.200460
  H      1.849460   -1.060100    4.938220
  H      0.599560   -2.296120    4.754670
  H      0.207570   -0.751050    5.511010
  H      2.382010    6.535820    3.462310
  H      0.721150    6.917060    3.963940
  H      1.762450    6.518830    1.103700
  H      1.249280    8.051280    1.814170
  H      0.059370    6.785670    1.481610
  H     -2.158400    4.062650    3.808130
  H     -1.272790    6.974760    3.333300
  H     -5.879830    9.525270    4.040940
  H     -6.718100    4.574500    4.879450
  H    -11.142390    7.048350    6.034380
  H    -11.638220   13.365730    4.831490

 Total Charge           Charge          ....    0
 Multiplicity           Mult            ....    1
 Number of Electrons    NEL             ....  570
 Basis Dimension        Dim             .... 1212

ORBITAL ENERGIES
----------------

  NO   OCC          E(Eh)            E(eV)
   0   2.0000    -101.627698     -2765.4302
   1   2.0000    -101.619786     -2765.2149
   2   2.0000     -89.004994     -2421.9490
   3   2.0000     -88.995280     -2421.6847
   4   2.0000     -88.963671     -2420.8245
   5   2.0000     -19.311739      -525.4991
   6   2.0000     -19.306644      -525.3605
   7   2.0000     -19.306481      -525.3561
   8   2.0000     -19.258417      -524.0482
   9   2.0000     -19.255791      -523.9767
  10   2.0000     -19.254958      -523.9541
  11   2.0000     -19.251574      -523.8620
  12   2.0000     -19.238154      -523.4968
  13   2.0000     -19.225730      -523.1587
  14   2.0000     -19.199714      -522.4508
  15   2.0000     -19.197806      -522.3989
  16   2.0000     -14.461100      -393.5065
  17   2.0000     -14.460197      -393.4820
  18   2.0000     -14.430743      -392.6805
  19   2.0000     -14.430496      -392.6738
  20   2.0000     -14.427760      -392.5993
  21   2.0000     -14.422946      -392.4683
  22   2.0000     -14.416063      -392.2810
  23   2.0000     -14.415295      -392.2601
  24   2.0000     -10.450102      -284.3617
  25   2.0000     -10.446574      -284.2657
  26   2.0000     -10.418965      -283.5145
  27   2.0000     -10.417435      -283.4728
  28   2.0000     -10.394258      -282.8421
  29   2.0000     -10.388153      -282.6760
  30   2.0000     -10.385216      -282.5961
  31   2.0000     -10.381899      -282.5058
  32   2.0000     -10.381879      -282.5053
  33   2.0000     -10.381352      -282.4910
  34   2.0000     -10.378996      -282.4268
  35   2.0000     -10.378620      -282.4166
  36   2.0000     -10.361670      -281.9554
  37   2.0000     -10.359470      -281.8955
  38   2.0000     -10.353701      -281.7385
  39   2.0000     -10.352969      -281.7186
  40   2.0000     -10.351950      -281.6909
  41   2.0000     -10.351797      -281.6867
  42   2.0000     -10.351015      -281.6654
  43   2.0000     -10.350290      -281.6457
  44   2.0000     -10.348194      -281.5887
  45   2.0000     -10.346640      -281.5464
  46   2.0000     -10.344697      -281.4935
  47   2.0000     -10.343301      -281.4555
  48   2.0000     -10.342584      -281.4360
  49   2.0000     -10.340244      -281.3723
  50   2.0000     -10.339825      -281.3609
  51   2.0000     -10.338019      -281.3118
  52   2.0000     -10.331860      -281.1442
  53   2.0000     -10.331599      -281.1371
  54   2.0000     -10.329775      -281.0875
  55   2.0000     -10.327643      -281.0295
  56   2.0000     -10.324367      -280.9403
  57   2.0000     -10.324116      -280.9335
  58   2.0000     -10.323933      -280.9285
  59   2.0000     -10.318816      -280.7892
  60   2.0000     -10.318501      -280.7807
  61   2.0000     -10.316773      -280.7337
  62   2.0000     -10.315409      -280.6966
  63   2.0000     -10.314601      -280.6746
  64   2.0000     -10.312279      -280.6114
  65   2.0000     -10.311561      -280.5919
  66   2.0000     -10.311189      -280.5817
  67   2.0000     -10.309442      -280.5342
  68   2.0000     -10.307086      -280.4701
  69   2.0000     -10.306303      -280.4488
  70   2.0000     -10.304661      -280.4041
  71   2.0000     -10.303385      -280.3694
  72   2.0000     -10.300588      -280.2932
  73   2.0000     -10.291414      -280.0436
  74   2.0000     -10.271438      -279.5000
  75   2.0000     -10.270109      -279.4639
  76   2.0000     -10.266046      -279.3533
  77   2.0000     -10.259847      -279.1846
  78   2.0000      -9.582465      -260.7521
  79   2.0000      -9.574545      -260.5366
  80   2.0000      -8.100708      -220.4315
  81   2.0000      -8.090968      -220.1664
  82   2.0000      -8.062773      -219.3992
  83   2.0000      -7.353115      -200.0884
  84   2.0000      -7.345191      -199.8728
  85   2.0000      -7.342511      -199.7999
  86   2.0000      -7.341924      -199.7839
  87   2.0000      -7.334593      -199.5844
  88   2.0000      -7.334023      -199.5689
  89   2.0000      -6.070038      -165.1741
  90   2.0000      -6.065412      -165.0483
  91   2.0000      -6.063056      -164.9841
  92   2.0000      -6.060351      -164.9105
  93   2.0000      -6.055729      -164.7848
  94   2.0000      -6.053236      -164.7169
  95   2.0000      -6.031665      -164.1300
  96   2.0000      -6.028337      -164.0394
  97   2.0000      -6.023826      -163.9166
  98   2.0000      -1.257231       -34.2110
  99   2.0000      -1.242404       -33.8075
 100   2.0000      -1.236685       -33.6519
 101   2.0000      -1.182265       -32.1711
 102   2.0000      -1.182070       -32.1658
 103   2.0000      -1.177816       -32.0500
 104   2.0000      -1.155863       -31.4526
 105   2.0000      -1.143731       -31.1225
 106   2.0000      -1.143052       -31.1040
 107   2.0000      -1.141427       -31.0598
 108   2.0000      -1.134639       -30.8751
 109   2.0000      -1.071490       -29.1567
 110   2.0000      -1.062464       -28.9111
 111   2.0000      -1.049668       -28.5629
 112   2.0000      -1.042135       -28.3579
 113   2.0000      -1.037725       -28.2379
 114   2.0000      -1.033557       -28.1245
 115   2.0000      -1.028365       -27.9832
 116   2.0000      -1.027584       -27.9620
 117   2.0000      -1.016331       -27.6558
 118   2.0000      -1.008854       -27.4523
 119   2.0000      -0.999701       -27.2033
 120   2.0000      -0.996782       -27.1238
 121   2.0000      -0.990540       -26.9540
 122   2.0000      -0.969255       -26.3748
 123   2.0000      -0.968290       -26.3485
 124   2.0000      -0.965797       -26.2807
 125   2.0000      -0.955676       -26.0053
 126   2.0000      -0.951708       -25.8973
 127   2.0000      -0.935529       -25.4570
 128   2.0000      -0.924182       -25.1483
 129   2.0000      -0.920860       -25.0579
 130   2.0000      -0.912098       -24.8194
 131   2.0000      -0.910698       -24.7813
 132   2.0000      -0.897538       -24.4232
 133   2.0000      -0.891685       -24.2640
 134   2.0000      -0.879207       -23.9245
 135   2.0000      -0.871744       -23.7214
 136   2.0000      -0.860223       -23.4079
 137   2.0000      -0.852288       -23.1919
 138   2.0000      -0.844037       -22.9674
 139   2.0000      -0.834440       -22.7063
 140   2.0000      -0.827111       -22.5068
 141   2.0000      -0.823863       -22.4185
 142   2.0000      -0.818349       -22.2684
 143   2.0000      -0.814287       -22.1579
 144   2.0000      -0.796012       -21.6606
 145   2.0000      -0.787880       -21.4393
 146   2.0000      -0.777777       -21.1644
 147   2.0000      -0.770885       -20.9769
 148   2.0000      -0.766426       -20.8555
 149   2.0000      -0.763759       -20.7829
 150   2.0000      -0.760628       -20.6978
 151   2.0000      -0.748177       -20.3589
 152   2.0000      -0.734882       -19.9972
 153   2.0000      -0.725712       -19.7476
 154   2.0000      -0.717800       -19.5323
 155   2.0000      -0.716510       -19.4972
 156   2.0000      -0.713315       -19.4103
 157   2.0000      -0.705465       -19.1967
 158   2.0000      -0.699916       -19.0457
 159   2.0000      -0.694149       -18.8888
 160   2.0000      -0.692638       -18.8476
 161   2.0000      -0.688671       -18.7397
 162   2.0000      -0.678987       -18.4762
 163   2.0000      -0.677332       -18.4311
 164   2.0000      -0.669315       -18.2130
 165   2.0000      -0.663094       -18.0437
 166   2.0000      -0.657468       -17.8906
 167   2.0000      -0.653502       -17.7827
 168   2.0000      -0.648430       -17.6447
 169   2.0000      -0.644546       -17.5390
 170   2.0000      -0.640739       -17.4354
 171   2.0000      -0.634685       -17.2707
 172   2.0000      -0.625678       -17.0256
 173   2.0000      -0.625614       -17.0238
 174   2.0000      -0.620129       -16.8746
 175   2.0000      -0.619134       -16.8475
 176   2.0000      -0.616227       -16.7684
 177   2.0000      -0.610021       -16.5995
 178   2.0000      -0.602593       -16.3974
 179   2.0000      -0.595431       -16.2025
 180   2.0000      -0.593715       -16.1558
 181   2.0000      -0.587380       -15.9834
 182   2.0000      -0.585478       -15.9317
 183   2.0000      -0.581684       -15.8284
 184   2.0000      -0.580832       -15.8052
 185   2.0000      -0.578464       -15.7408
 186   2.0000      -0.574163       -15.6238
 187   2.0000      -0.572716       -15.5844
 188   2.0000      -0.570452       -15.5228
 189   2.0000      -0.569559       -15.4985
 190   2.0000      -0.568105       -15.4589
 191   2.0000      -0.563743       -15.3402
 192   2.0000      -0.558727       -15.2037
 193   2.0000      -0.556227       -15.1357
 194   2.0000      -0.552379       -15.0310
 195   2.0000      -0.551426       -15.0051
 196   2.0000      -0.550936       -14.9917
 197   2.0000      -0.549974       -14.9655
 198   2.0000      -0.549672       -14.9573
 199   2.0000      -0.543201       -14.7813
 200   2.0000      -0.541748       -14.7417
 201   2.0000      -0.538187       -14.6448
 202   2.0000      -0.536726       -14.6051
 203   2.0000      -0.535807       -14.5801
 204   2.0000      -0.534069       -14.5328
 205   2.0000      -0.530099       -14.4247
 206   2.0000      -0.528971       -14.3940
 207   2.0000      -0.527460       -14.3529
 208   2.0000      -0.524804       -14.2806
 209   2.0000      -0.523556       -14.2467
 210   2.0000      -0.519650       -14.1404
 211   2.0000      -0.518230       -14.1018
 212   2.0000      -0.515811       -14.0359
 213   2.0000      -0.514991       -14.0136
 214   2.0000      -0.510492       -13.8912
 215   2.0000      -0.510302       -13.8860
 216   2.0000      -0.506842       -13.7919
 217   2.0000      -0.506006       -13.7691
 218   2.0000      -0.505288       -13.7496
 219   2.0000      -0.501523       -13.6471
 220   2.0000      -0.496513       -13.5108
 221   2.0000      -0.494809       -13.4644
 222   2.0000      -0.492197       -13.3934
 223   2.0000      -0.491045       -13.3620
 224   2.0000      -0.487749       -13.2723
 225   2.0000      -0.485378       -13.2078
 226   2.0000      -0.480132       -13.0651
 227   2.0000      -0.473399       -12.8818
 228   2.0000      -0.471184       -12.8216
 229   2.0000      -0.470467       -12.8021
 230   2.0000      -0.466070       -12.6824
 231   2.0000      -0.462285       -12.5794
 232   2.0000      -0.462136       -12.5754
 233   2.0000      -0.461276       -12.5520
 234   2.0000      -0.459174       -12.4948
 235   2.0000      -0.456795       -12.4300
 236   2.0000      -0.456673       -12.4267
 237   2.0000      -0.455297       -12.3893
 238   2.0000      -0.455104       -12.3840
 239   2.0000      -0.453685       -12.3454
 240   2.0000      -0.451929       -12.2976
 241   2.0000      -0.450947       -12.2709
 242   2.0000      -0.446469       -12.1490
 243   2.0000      -0.444758       -12.1025
 244   2.0000      -0.443886       -12.0787
 245   2.0000      -0.442975       -12.0540
 246   2.0000      -0.441351       -12.0098
 247   2.0000      -0.441156       -12.0045
 248   2.0000      -0.433648       -11.8001
 249   2.0000      -0.431856       -11.7514
 250   2.0000      -0.428999       -11.6736
 251   2.0000      -0.428510       -11.6603
 252   2.0000      -0.428015       -11.6469
 253   2.0000      -0.426991       -11.6190
 254   2.0000      -0.424584       -11.5535
 255   2.0000      -0.421376       -11.4662
 256   2.0000      -0.414109       -11.2685
 257   2.0000      -0.413851       -11.2615
 258   2.0000      -0.410703       -11.1758
 259   2.0000      -0.406091       -11.0503
 260   2.0000      -0.402804       -10.9609
 261   2.0000      -0.399056       -10.8589
 262   2.0000      -0.392370       -10.6769
 263   2.0000      -0.389683       -10.6038
 264   2.0000      -0.382180       -10.3996
 265   2.0000      -0.379333       -10.3222
 266   2.0000      -0.376681       -10.2500
 267   2.0000      -0.373734       -10.1698
 268   2.0000      -0.372350       -10.1322
 269   2.0000      -0.359965        -9.7951
 270   2.0000      -0.358854        -9.7649
 271   2.0000      -0.356923        -9.7124
 272   2.0000      -0.355702        -9.6791
 273   2.0000      -0.350804        -9.5459
 274   2.0000      -0.349268        -9.5041
 275   2.0000      -0.342905        -9.3309
 276   2.0000      -0.339633        -9.2419
 277   2.0000      -0.335824        -9.1382
 278   2.0000      -0.331839        -9.0298
 279   2.0000      -0.322933        -8.7874
 280   2.0000      -0.318048        -8.6545
 281   2.0000      -0.314660        -8.5623
 282   2.0000      -0.306280        -8.3343
 283   2.0000      -0.292428        -7.9574
 284   2.0000      -0.248113        -6.7515
 285   0.0000      -0.114489        -3.1154
 286   0.0000      -0.105687        -2.8759
 287   0.0000      -0.103362        -2.8126
 288   0.0000      -0.094247        -2.5646
 289   0.0000      -0.068428        -1.8620

MULLIKEN ATOMIC CHARGES
-----------------------
   0 C :    0.034588
   1 C :   -0.126617
   2 S :    0.200095
   3 C :   -0.163860
   4 Cl:    0.008923
   5 C :    0.075739
   6 C :    0.158452
   7 O :   -0.145905
   8 C :   -0.048597
   9 C :    0.297793
  10 C :   -0.315534
  11 C :   -0.197267
  12 N :    0.167912
  13 C :   -0.183319
  14 N :    0.173049
  15 C :   -0.059262
  16 C :    0.001747
  17 C :    0.042010
  18 C :    0.049431
  19 O :   -0.127177
  20 S :    0.034644
  21 C :    0.033279
  22 O :   -0.105519
  23 C :    0.039837
  24 C :    0.059513
  25 C :   -0.067546
  26 C :   -0.024560
  27 C :    0.237563
  28 O :   -0.105083
  29 O :   -0.221632
  30 C :    0.237285
  31 O :   -0.092336
  32 C :   -0.057328
  33 C :    0.041322
  34 C :    0.113276
  35 N :   -0.261457
  36 C :    0.093178
  37 C :   -0.007025
  38 C :    0.153128
  39 O :   -0.181960
  40 C :   -0.037988
  41 C :   -0.059885
  42 C :    0.172730
  43 O :   -0.206155
  44 N :   -0.263255
  45 C :    0.100757
  46 C :   -0.001936
  47 C :    0.117237
  48 C :   -0.016540
  49 C :   -0.018089
  50 C :    0.104111
  51 O :   -0.201846
  52 C :    0.225616
  53 C :    0.013809
  54 N :   -0.033309
  55 C :   -0.069703
  56 C :    0.036849
  57 C :    0.221715
  58 C :   -0.156198
  59 O :   -0.186227
  60 C :    0.123839
  61 N :   -0.068206
  62 C :    0.017223
  63 C :   -0.103719
  64 C :    0.130861
  65 O :   -0.118590
  66 C :    0.083317
  67 C :   -0.169147
  68 S :    0.186944
  69 C :   -0.128902
  70 C :    0.024656
  71 C :    0.269094
  72 C :   -0.266306
  73 C :   -0.196525
  74 N :    0.155521
  75 C :   -0.182763
  76 N :    0.167585
  77 Cl:    0.001932
  78 H :    0.056546
  79 H :    0.054587
  80 H :    0.058778
  81 H :   -0.014199
  82 H :    0.021670
  83 H :    0.044236
  84 H :    0.032427
  85 H :    0.022711
  86 H :    0.025453
  87 H :    0.043286
  88 H :    0.025880
  89 H :    0.033203
  90 H :    0.026802
  91 H :    0.023400
  92 H :    0.032292
  93 H :    0.014731
  94 H :   -0.016955
  95 H :   -0.004641
  96 H :    0.036409
  97 H :    0.054097
Sum of atomic charges:   -0.0000000

LOEWDIN ATOMIC CHARGES
----------------------
   0 C :   -0.055128
   1 C :   -0.146323
   2 S :    0.489574
   3 C :   -0.267726
   4 Cl:    0.201055
   5 C :   -0.116703
   6 C :    0.090463
   7 O :   -0.137019
   8 C :   -0.053334
   9 C :    0.075308
  10 C :   -0.117075
  11 C :   -0.014521
  12 N :   -0.040228
  13 C :   -0.019666
  14 N :   -0.033468
  15 C :    0.071364
  16 C :    0.020079
  17 C :   -0.040424
  18 C :   -0.048016
  19 O :   -0.107605
  20 S :    0.315262
  21 C :   -0.038031
  22 O :   -0.089340
  23 C :   -0.050751
  24 C :    0.037389
  25 C :   -0.044914
  26 C :   -0.020431
  27 C :    0.107802
  28 O :   -0.099787
  29 O :   -0.045850
  30 C :    0.117684
  31 O :   -0.093748
  32 C :    0.012376
  33 C :   -0.003845
  34 C :    0.082936
  35 N :   -0.000004
  36 C :    0.035684
  37 C :   -0.064495
  38 C :    0.081513
  39 O :   -0.185019
  40 C :   -0.104969
  41 C :   -0.117968
  42 C :    0.084799
  43 O :   -0.191256
  44 N :    0.000506
  45 C :    0.035604
  46 C :   -0.062253
  47 C :    0.067505
  48 C :   -0.002819
  49 C :   -0.029328
  50 C :    0.063302
  51 O :   -0.004978
  52 C :    0.047005
  53 C :   -0.034321
  54 N :   -0.095436
  55 C :   -0.006499
  56 C :   -0.031655
  57 C :    0.045416
  58 C :   -0.059737
  59 O :    0.005014
  60 C :    0.050910
  61 N :   -0.068184
  62 C :    0.036668
  63 C :   -0.046220
  64 C :    0.081170
  65 O :   -0.124485
  66 C :   -0.120623
  67 C :   -0.271589
  68 S :    0.477110
  69 C :   -0.153830
  70 C :   -0.053677
  71 C :    0.062392
  72 C :   -0.104883
  73 C :   -0.013484
  74 N :   -0.045234
  75 C :   -0.019112
  76 N :   -0.044280
  77 Cl:    0.194188
  78 H :    0.039382
  79 H :    0.052814
  80 H :    0.044370
  81 H :    0.030711
  82 H :    0.022513
  83 H :    0.037670
  84 H :    0.024741
  85 H :    0.030975
  86 H :    0.031060
  87 H :    0.037657
  88 H :    0.023588
  89 H :    0.034464
  90 H :    0.032362
  91 H :    0.022935
  92 H :    0.052024
  93 H :    0.044705
  94 H :    0.045770
  95 H :    0.047722
  96 H :    0.056737
  97 H :    0.037992

  Mayer bond orders larger than 0.100000
B(  0-C ,  1-C ) :   1.5394 B(  0-C ,  5-C ) :   1.2235 B(  0-C ,  9-C ) :   1.0082
B(  1-C ,  2-S ) :   1.1668 B(  1-C , 78-H ) :   0.9539 B(  2-S ,  3-C ) :   1.1611
B(  3-C ,  4-Cl) :   1.1382 B(  3-C ,  5-C ) :   1.4579 B(  5-C ,  6-C ) :   0.9713
B(  6-C ,  7-O ) :   2.2064 B(  6-C ,  8-C ) :   0.9148 B(  8-C ,  9-C ) :   1.0342
B(  8-C , 15-C ) :   1.7816 B(  9-C , 10-C ) :   1.6955 B( 10-C , 11-C ) :   1.1433
B( 10-C , 13-C ) :   1.1379 B( 11-C , 12-N ) :   2.9957 B( 13-C , 14-N ) :   2.9769
B( 15-C , 16-C ) :   1.0082 B( 15-C , 79-H ) :   0.9137 B( 16-C , 17-C ) :   1.4232
B( 16-C , 26-C ) :   1.3610 B( 17-C , 18-C ) :   0.8456 B( 17-C , 23-C ) :   1.3007
B( 18-C , 19-O ) :   2.1528 B( 18-C , 20-S ) :   1.0481 B( 19-O , 20-S ) :   0.1113
B( 20-S , 21-C ) :   1.0146 B( 20-S , 22-O ) :   0.1055 B( 21-C , 22-O ) :   2.1875
B( 21-C , 23-C ) :   0.8485 B( 23-C , 24-C ) :   1.3653 B( 24-C , 25-C ) :   1.3007
B( 24-C , 32-C ) :   1.0939 B( 25-C , 26-C ) :   1.3837 B( 25-C , 30-C ) :   0.9056
B( 26-C , 27-C ) :   0.8889 B( 27-C , 28-O ) :   2.2561 B( 27-C , 29-O ) :   1.0634
B( 29-O , 30-C ) :   1.0559 B( 30-C , 31-O ) :   2.2124 B( 32-C , 33-C ) :   1.6626
B( 32-C , 80-H ) :   0.9127 B( 33-C , 34-C ) :   1.1636 B( 33-C , 81-H ) :   0.9551
B( 34-C , 35-N ) :   1.1755 B( 34-C , 41-C ) :   1.3406 B( 35-N , 36-C ) :   0.9394
B( 35-N , 38-C ) :   1.0303 B( 36-C , 37-C ) :   1.1190 B( 36-C , 82-H ) :   0.9504
B( 36-C , 83-H ) :   0.9289 B( 37-C , 84-H ) :   0.9630 B( 37-C , 85-H ) :   0.9660
B( 37-C , 86-H ) :   0.9611 B( 38-C , 39-O ) :   2.1428 B( 38-C , 40-C ) :   0.9696
B( 40-C , 41-C ) :   1.2481 B( 40-C , 47-C ) :   1.3627 B( 41-C , 42-C ) :   0.9842
B( 42-C , 43-O ) :   2.0238 B( 42-C , 44-N ) :   1.0614 B( 43-O , 80-H ) :   0.1085
B( 44-N , 45-C ) :   0.9411 B( 44-N , 47-C ) :   1.1675 B( 45-C , 46-C ) :   1.1175
B( 45-C , 87-H ) :   0.9254 B( 45-C , 88-H ) :   0.9500 B( 46-C , 89-H ) :   0.9613
B( 46-C , 90-H ) :   0.9687 B( 46-C , 91-H ) :   0.9681 B( 47-C , 48-C ) :   1.1522
B( 48-C , 49-C ) :   1.5902 B( 48-C , 92-H ) :   0.9506 B( 49-C , 50-C ) :   1.1084
B( 49-C , 93-H ) :   0.9629 B( 50-C , 51-O ) :   1.1223 B( 50-C , 54-N ) :   1.7386
B( 51-O , 52-C ) :   1.1176 B( 52-C , 53-C ) :   1.2316 B( 52-C , 58-C ) :   1.3289
B( 53-C , 54-N ) :   1.2918 B( 53-C , 55-C ) :   1.3005 B( 55-C , 56-C ) :   1.2719
B( 55-C , 58-C ) :   0.1479 B( 55-C , 94-H ) :   1.0487 B( 56-C , 57-C ) :   1.2383
B( 56-C , 61-N ) :   1.2827 B( 57-C , 58-C ) :   1.3039 B( 57-C , 59-O ) :   1.1246
B( 58-C , 95-H ) :   1.0464 B( 59-O , 60-C ) :   1.1278 B( 60-C , 61-N ) :   1.6783
B( 60-C , 62-C ) :   1.0655 B( 62-C , 63-C ) :   1.7077 B( 62-C , 96-H ) :   0.9458
B( 63-C , 64-C ) :   0.9252 B( 63-C , 71-C ) :   1.0193 B( 64-C , 65-O ) :   2.2923
B( 64-C , 66-C ) :   0.9280 B( 66-C , 67-C ) :   1.4766 B( 66-C , 70-C ) :   1.2215
B( 67-C , 68-S ) :   1.1581 B( 67-C , 77-Cl) :   1.1315 B( 68-S , 69-C ) :   1.1544
B( 69-C , 70-C ) :   1.5552 B( 69-C , 97-H ) :   0.9562 B( 70-C , 71-C ) :   1.0098
B( 71-C , 72-C ) :   1.7110 B( 72-C , 73-C ) :   1.1419 B( 72-C , 75-C ) :   1.1421
B( 73-C , 74-N ) :   2.9964 B( 75-C , 76-N ) :   2.9904

-----------------------------------------------------------------------------
         ABSORPTION SPECTRUM VIA TRANSITION ELECTRIC DIPOLE MOMENTS
-----------------------------------------------------------------------------
State   Energy  Wavelength   fosc         T2         TX        TY        TZ
        (cm-1)    (nm)                  (au**2)     (au)      (au)      (au)
-----------------------------------------------------------------------------
   0   14649.9    682.6   0.791009008  17.77555  -3.31159   2.56632   0.47211
   1   15915.6    628.3   0.109111710   2.25696   0.97828  -1.12824   0.16436
   2   20234.8    494.2   0.256382287   4.17123  -1.27840   1.57825   0.21459
   3   21476.4    465.6   0.134932045   2.06837   1.41149  -0.26228   0.08532
   4   24483.9    408.4   0.292460330   3.93244   1.81400  -0.79470   0.10149
   5   25244.9    396.1   0.062184551   0.81093  -0.59829   0.67116   0.05034
   6   26354.9    379.4   0.078811305   0.98447  -0.82562   0.51976   0.18077
   7   26623.8    375.6   0.057782786   0.71450   0.79601   0.27054  -0.08767
   8   27183.7    367.9   0.110049297   1.33277  -1.02880   0.52123  -0.05163
   9   27237.9    367.1   0.048375377   0.58469  -0.67259   0.32304   0.16720
  10   27446.2    364.3   0.122951521   1.47478   0.96665  -0.41966  -0.60353
  11   27652.0    361.6   0.050728056   0.60394  -0.60653   0.32487   0.36128
  12   28167.3    355.0   0.018936063   0.22132   0.32189  -0.14861  -0.30922
  13   28441.7    351.6   0.062111572   0.71894  -0.48106   0.61930  -0.32247
  14   28867.8    346.4   0.004263344   0.04862  -0.00670   0.21987  -0.01527
  15   28894.9    346.1   0.001056022   0.01203   0.05907   0.06375  -0.06692
  16   29265.6    341.7   0.051717444   0.58177   0.51861   0.50689  -0.23639
  17   30605.7    326.7   0.091958877   0.98916  -0.65837   0.73215  -0.14028
  18   30636.9    326.4   0.005681336   0.06105  -0.02217   0.01329   0.24573
  19   31224.2    320.3   0.093358701   0.98433  -0.98852  -0.02730  -0.08002
  20   31353.8    318.9   0.104919205   1.10164  -0.95409   0.34135  -0.27355
  21   32052.4    312.0   0.404608040   4.15575  -2.00342   0.11046   0.36036
  22   32122.4    311.3   0.071962973   0.73752  -0.69849   0.18304   0.46490
  23   32154.5    311.0   0.000487123   0.00499  -0.03753  -0.02113  -0.05597
  24   32845.1    304.5   0.363731106   3.64574   1.82450  -0.31260  -0.46822
  25   32974.4    303.3   0.015437708   0.15413  -0.23199   0.19551   0.24917
  26   33018.1    302.9   0.035767905   0.35663   0.58408  -0.11437  -0.04899
  27   33125.7    301.9   0.116316875   1.15599   0.82489   0.08312   0.68457
  28   33281.9    300.5   0.029257774   0.28941  -0.45635   0.27158   0.08599
  29   33441.9    299.0   0.030499706   0.30025   0.32940  -0.13225   0.41744
  30   33928.8    294.7   0.009774149   0.09484   0.15486  -0.23802  -0.11918
  31   34103.9    293.2   0.005136832   0.04959   0.22108  -0.01132   0.02412
  32   34330.5    291.3   0.037631984   0.36087   0.57128   0.14075   0.12125
  33   34375.7    290.9   0.031686676   0.30346  -0.08092  -0.26774  -0.47458
  34   34771.9    287.6   0.004431915   0.04196   0.07158   0.14159   0.12958
  35   35408.4    282.4   0.004384041   0.04076   0.12934  -0.14592  -0.05234
  36   35618.0    280.8   0.042300575   0.39098  -0.58941   0.14159  -0.15338
  37   35751.9    279.7   0.089536682   0.82448   0.53304  -0.39787   0.61810
  38   35869.7    278.8   0.015721755   0.14429  -0.24640  -0.27527   0.08834
  39   36056.3    277.3   0.001134051   0.01035  -0.01827   0.07666  -0.06438
  40   36221.1    276.1   0.441463132   4.01243   1.23780  -0.42706  -1.51588
  41   36284.1    275.6   0.165735798   1.50375  -0.44000  -0.54571  -1.00616
  42   36458.4    274.3   0.134858592   1.21774  -0.10292  -0.17016   1.08545
  43   36828.2    271.5   0.011564522   0.10338  -0.21884  -0.10677  -0.20997
  44   36925.1    270.8   0.089597089   0.79882   0.57642  -0.44078  -0.52180
  45   37264.6    268.4   0.288287277   2.54686   0.02608   0.43689   1.53470
  46   37365.0    267.6   0.017492568   0.15412   0.01241  -0.30221  -0.25028
  47   37407.5    267.3   0.023679054   0.20839   0.32004   0.00635  -0.32546
  48   37853.6    264.2   0.393006341   3.41796  -1.17940   0.41950   1.36051
  49   38053.4    262.8   0.013382909   0.11578   0.24604   0.22220   0.07661
  50   38655.4    258.7   0.002026960   0.01726  -0.07096   0.00056   0.11058
  51   38805.4    257.7   0.034655309   0.29400  -0.44095   0.00219  -0.31554
  52   39342.0    254.2   0.047710293   0.39924   0.61140  -0.15931  -0.00690
  53   39450.7    253.5   0.024078507   0.20093   0.43636   0.10162   0.01413
  54   39539.6    252.9   0.019050749   0.15862  -0.23764   0.31024  -0.07678
  55   39641.1    252.3   0.120564365   1.00126   0.56861  -0.69433  -0.44255
  56   40008.5    249.9   0.006886365   0.05666   0.11491   0.09998   0.18293
  57   40087.8    249.5   0.007610213   0.06250   0.21227   0.13111  -0.01576
  58   40217.0    248.7   0.092708772   0.75890   0.70216  -0.44319  -0.26354
  59   40298.6    248.1   0.017835740   0.14571  -0.05575  -0.04465  -0.37497

FINAL SINGLE POINT ENERGY     -5445.462047757852

DIPOLE MOMENT
-------------
                                X             Y             Z
Electronic contribution:      3.12940      11.48694      21.63062
Nuclear contribution   :     -2.92589     -10.88472     -19.34322
                        -----------------------------------------
Total Dipole Moment    :      0.20351       0.60222       2.28739
                        -----------------------------------------
Magnitude (a.u.)       :      2.37408
Magnitude (Debye)      :      6.03444

Rotational constants in cm-1:     0.002310     0.000146     0.000145
Rotational constants in MHz :    69.265850     4.369017     4.333389

                             ****ORCA TERMINATED NORMALLY****
TOTAL RUN TIME: 0 days 0 hours 10 minutes 5 seconds 437 msec
