                         Program Version 4.2.0 -  RELEASE  -
|  1> # ORCA input file
|  2> # SCF done       -194.915903578158          0.000945304716
|  3> ! CAM-B3LYP def2-SVP def2/J RIJCOSX Grid4 TightSCF
|  4> %maxcore 5000
|  5> %tddft
|  6>     Mode sTDDFT
|  7>     Ethresh 5.0
|  8>     maxcore 5000
|  9> end
| 10>
| 11> %pal
| 12>   nprocs 6
| 13>   end
| 14> * xyz 0 1
| 15>    C        0.22283        -0.31603        -2.97424
| 16>    C       -0.97763         0.23092        -3.30966
| 17>    S       -2.22634        -0.30736        -2.24817
| 18>    C       -1.11482        -1.29880        -1.33249
| 19>   Cl       -1.62683        -2.21113        -0.00333
| 20>    C        0.14536        -1.19095        -1.84193
| 21>    C        1.46514        -1.74935        -1.54994
| 22>    O        1.75184        -2.62426        -0.76682
| 23>    C        2.37973        -1.09933        -2.54532
| 24>    C        1.59387        -0.25905        -3.43725
| 25>    C        2.03794         0.50116        -4.48603
| 26>    C        1.15054         1.29155        -5.24775
| 27>    N        0.44166         1.93587        -5.87847
| 28>    C        3.37508         0.59315        -4.91978
| 29>    N        4.44842         0.70816        -5.30996
| 30>    C        3.70690        -1.37472        -2.65556
| 31>    C        4.48208        -2.02942        -1.66144
| 32>    S        5.84011        -3.02299        -2.09724
| 33>    C        6.21036        -3.41382        -0.44550
| 34>    C        5.34015        -2.72996         0.39563
| 35>    C        4.38079        -1.96426        -0.27959
| 36>    O        3.50129        -1.17457         0.38551
| 37>    C        3.46618        -1.21884         1.74021
| 38>    O        2.64594        -0.58472         2.33148
| 39>    C        4.54877        -2.02642         2.47975
| 40>    O        4.63400        -2.00130         3.66947
| 41>    O        5.45611        -2.71201         1.74556
| 42>    C        7.17974        -4.35506        -0.00448
| 43>    N        8.37388        -4.65037        -0.61123
| 44>    C        8.90119        -4.09970        -1.83676
| 45>    C        8.51465        -4.94741        -3.04519
| 46>    C        9.10867        -5.59732         0.12983
| 47>    O       10.20619        -5.99832        -0.20227
| 48>    C        8.26404        -5.90444         1.26075
| 49>    C        7.08580        -5.12761         1.14790
| 50>    C        6.18752        -5.51064         2.22333
| 51>    O        5.04720        -5.20321         2.47864
| 52>    N        6.93489        -6.44423         2.97079
| 53>    C        6.37993        -7.06909         4.14916
| 54>    C        5.83808        -8.46515         3.85460
| 55>    C        8.15412        -6.70440         2.40153
| 56>    C        9.08460        -7.63505         2.92662
| 57>    C       10.27374        -7.89192         2.31881
| 58>    C       11.22353        -8.82813         2.79269
| 59>    S       12.73082        -9.04980         1.96392
| 60>    C       13.30198       -10.24166         3.09360
| 61>    C       12.31890       -10.46593         4.05262
| 62>    C       11.17190        -9.68519         3.88957
| 63>    O       10.11225        -9.78604         4.74356
| 64>    C       10.16663       -10.65651         5.77776
| 65>    O        9.24712       -10.73584         6.53630
| 66>    C       11.41263       -11.54056         5.93250
| 67>    O       11.50762       -12.34640         6.80821
| 68>    O       12.42144       -11.40361         5.03575
| 69>    C       14.55358       -10.87352         2.90767
| 70>    C       15.33130       -11.56865         3.78065
| 71>    C       16.38003       -12.47786         3.19639
| 72>    O       16.73652       -12.49941         2.04451
| 73>    C       16.79572       -13.32118         4.31800
| 74>    C       17.60889       -14.39833         4.51690
| 75>    S       17.58330       -14.88102         6.19596
| 76>    C       16.48508       -13.61605         6.61207
| 77>    C       16.15564       -12.87519         5.52134
| 78>    C       15.34511       -11.70908         5.22326
| 79>    C       14.89646       -10.82447         6.16874
| 80>    C       15.07530       -11.06162         7.54884
| 81>    N       15.21751       -11.23132         8.67366
| 82>    C       14.28580        -9.59399         5.87629
| 83>    N       13.76711        -8.59461         5.64978
| 84>   Cl       18.54836       -15.22154         3.37443
| 85>    H       -1.21769         0.90902        -4.10455
| 86>    H        4.23891        -1.10285        -3.55837
| 87>    H        9.98983        -4.09697        -1.73118
| 88>    H        8.54804        -3.07293        -1.95273
| 89>    H        8.92234        -5.94913        -2.93730
| 90>    H        8.91884        -4.50126        -3.94863
| 91>    H        7.43371        -5.01448        -3.14265
| 92>    H        5.56310        -6.42126         4.47828
| 93>    H        7.13967        -7.10473         4.93386
| 94>    H        5.04754        -8.40890         3.11039
| 95>    H        5.42981        -8.89600         4.76408
| 96>    H        6.62227        -9.12010         3.48142
| 97>    H        8.82334        -8.14846         3.83860
| 98>    H       10.53926        -7.36606         1.41032
| 99>    H       14.93062       -10.85401         1.88875
|100>    H       16.15106       -13.51924         7.62609
|101> *
|102>
|103>                          ****END OF INPUT****

CARTESIAN COORDINATES (ANGSTROEM)
---------------------------------
  C      0.222830   -0.316030   -2.974240
  C     -0.977630    0.230920   -3.309660
  S     -2.226340   -0.307360   -2.248170
  C     -1.114820   -1.298800   -1.332490
  Cl    -1.626830   -2.211130   -0.003330
  C      0.145360   -1.190950   -1.841930
  C      1.465140   -1.749350   -1.549940
  O      1.751840   -2.624260   -0.766820
  C      2.379730   -1.099330   -2.545320
  C      1.593870   -0.259050   -3.437250
  C      2.037940    0.501160   -4.486030
  C      1.150540    1.291550   -5.247750
  N      0.441660    1.935870   -5.878470
  C      3.375080    0.593150   -4.919780
  N      4.448420    0.708160   -5.309960
  C      3.706900   -1.374720   -2.655560
  C      4.482080   -2.029420   -1.661440
  S      5.840110   -3.022990   -2.097240
  C      6.210360   -3.413820   -0.445500
  C      5.340150   -2.729960    0.395630
  C      4.380790   -1.964260   -0.279590
  O      3.501290   -1.174570    0.385510
  C      3.466180   -1.218840    1.740210
  O      2.645940   -0.584720    2.331480
  C      4.548770   -2.026420    2.479750
  O      4.634000   -2.001300    3.669470
  O      5.456110   -2.712010    1.745560
  C      7.179740   -4.355060   -0.004480
  N      8.373880   -4.650370   -0.611230
  C      8.901190   -4.099700   -1.836760
  C      8.514650   -4.947410   -3.045190
  C      9.108670   -5.597320    0.129830
  O     10.206190   -5.998320   -0.202270
  C      8.264040   -5.904440    1.260750
  C      7.085800   -5.127610    1.147900
  C      6.187520   -5.510640    2.223330
  O      5.047200   -5.203210    2.478640
  N      6.934890   -6.444230    2.970790
  C      6.379930   -7.069090    4.149160
  C      5.838080   -8.465150    3.854600
  C      8.154120   -6.704400    2.401530
  C      9.084600   -7.635050    2.926620
  C     10.273740   -7.891920    2.318810
  C     11.223530   -8.828130    2.792690
  S     12.730820   -9.049800    1.963920
  C     13.301980  -10.241660    3.093600
  C     12.318900  -10.465930    4.052620
  C     11.171900   -9.685190    3.889570
  O     10.112250   -9.786040    4.743560
  C     10.166630  -10.656510    5.777760
  O      9.247120  -10.735840    6.536300
  C     11.412630  -11.540560    5.932500
  O     11.507620  -12.346400    6.808210
  O     12.421440  -11.403610    5.035750
  C     14.553580  -10.873520    2.907670
  C     15.331300  -11.568650    3.780650
  C     16.380030  -12.477860    3.196390
  O     16.736520  -12.499410    2.044510
  C     16.795720  -13.321180    4.318000
  C     17.608890  -14.398330    4.516900
  S     17.583300  -14.881020    6.195960
  C     16.485080  -13.616050    6.612070
  C     16.155640  -12.875190    5.521340
  C     15.345110  -11.709080    5.223260
  C     14.896460  -10.824470    6.168740
  C     15.075300  -11.061620    7.548840
  N     15.217510  -11.231320    8.673660
  C     14.285800   -9.593990    5.876290
  N     13.767110   -8.594610    5.649780
  Cl    18.548360  -15.221540    3.374430
  H     -1.217690    0.909020   -4.104550
  H      4.238910   -1.102850   -3.558370
  H      9.989830   -4.096970   -1.731180
  H      8.548040   -3.072930   -1.952730
  H      8.922340   -5.949130   -2.937300
  H      8.918840   -4.501260   -3.948630
  H      7.433710   -5.014480   -3.142650
  H      5.563100   -6.421260    4.478280
  H      7.139670   -7.104730    4.933860
  H      5.047540   -8.408900    3.110390
  H      5.429810   -8.896000    4.764080
  H      6.622270   -9.120100    3.481420
  H      8.823340   -8.148460    3.838600
  H     10.539260   -7.366060    1.410320
  H     14.930620  -10.854010    1.888750
  H     16.151060  -13.519240    7.626090

 Total Charge           Charge          ....    0
 Multiplicity           Mult            ....    1
 Number of Electrons    NEL             ....  528
 Basis Dimension        Dim             .... 1084

ORBITAL ENERGIES
----------------

  NO   OCC          E(Eh)            E(eV)
   0   2.0000    -101.622008     -2765.2754
   1   2.0000    -101.619104     -2765.1964
   2   2.0000     -89.000494     -2421.8266
   3   2.0000     -88.999007     -2421.7861
   4   2.0000     -88.997126     -2421.7349
   5   2.0000     -88.996991     -2421.7312
   6   2.0000     -19.336958      -526.1854
   7   2.0000     -19.335426      -526.1437
   8   2.0000     -19.321072      -525.7531
   9   2.0000     -19.316682      -525.6336
  10   2.0000     -19.263121      -524.1762
  11   2.0000     -19.260445      -524.1034
  12   2.0000     -19.246124      -523.7137
  13   2.0000     -19.242488      -523.6147
  14   2.0000     -19.228104      -523.2233
  15   2.0000     -19.226019      -523.1666
  16   2.0000     -19.204675      -522.5858
  17   2.0000     -19.203455      -522.5526
  18   2.0000     -14.470227      -393.7549
  19   2.0000     -14.465758      -393.6333
  20   2.0000     -14.432296      -392.7227
  21   2.0000     -14.428822      -392.6282
  22   2.0000     -14.425482      -392.5373
  23   2.0000     -14.425305      -392.5325
  24   2.0000     -10.463968      -284.7390
  25   2.0000     -10.462610      -284.7021
  26   2.0000     -10.447288      -284.2852
  27   2.0000     -10.444866      -284.2193
  28   2.0000     -10.394589      -282.8511
  29   2.0000     -10.388142      -282.6757
  30   2.0000     -10.387641      -282.6621
  31   2.0000     -10.387094      -282.6472
  32   2.0000     -10.386826      -282.6399
  33   2.0000     -10.383991      -282.5628
  34   2.0000     -10.383684      -282.5544
  35   2.0000     -10.382464      -282.5212
  36   2.0000     -10.381366      -282.4913
  37   2.0000     -10.379279      -282.4345
  38   2.0000     -10.360497      -281.9235
  39   2.0000     -10.357013      -281.8287
  40   2.0000     -10.356005      -281.8012
  41   2.0000     -10.355800      -281.7957
  42   2.0000     -10.355229      -281.7801
  43   2.0000     -10.355020      -281.7744
  44   2.0000     -10.351590      -281.6811
  45   2.0000     -10.350508      -281.6517
  46   2.0000     -10.349068      -281.6125
  47   2.0000     -10.344314      -281.4831
  48   2.0000     -10.339206      -281.3441
  49   2.0000     -10.339153      -281.3427
  50   2.0000     -10.333691      -281.1940
  51   2.0000     -10.333495      -281.1887
  52   2.0000     -10.332839      -281.1708
  53   2.0000     -10.330890      -281.1178
  54   2.0000     -10.327356      -281.0216
  55   2.0000     -10.326837      -281.0075
  56   2.0000     -10.321033      -280.8496
  57   2.0000     -10.318997      -280.7942
  58   2.0000     -10.318781      -280.7883
  59   2.0000     -10.318393      -280.7778
  60   2.0000     -10.317475      -280.7528
  61   2.0000     -10.317147      -280.7438
  62   2.0000     -10.314986      -280.6850
  63   2.0000     -10.309926      -280.5473
  64   2.0000     -10.305560      -280.4285
  65   2.0000     -10.303402      -280.3698
  66   2.0000     -10.280983      -279.7598
  67   2.0000     -10.275498      -279.6105
  68   2.0000     -10.272609      -279.5319
  69   2.0000     -10.268413      -279.4177
  70   2.0000      -9.576777      -260.5974
  71   2.0000      -9.573901      -260.5191
  72   2.0000      -8.095111      -220.2792
  73   2.0000      -8.094288      -220.2568
  74   2.0000      -8.092941      -220.2201
  75   2.0000      -8.092703      -220.2136
  76   2.0000      -7.347397      -199.9328
  77   2.0000      -7.344565      -199.8558
  78   2.0000      -7.336837      -199.6455
  79   2.0000      -7.336272      -199.6301
  80   2.0000      -7.333915      -199.5660
  81   2.0000      -7.333372      -199.5512
  82   2.0000      -6.064660      -165.0278
  83   2.0000      -6.063602      -164.9990
  84   2.0000      -6.062318      -164.9641
  85   2.0000      -6.062080      -164.9576
  86   2.0000      -6.060474      -164.9139
  87   2.0000      -6.059687      -164.8925
  88   2.0000      -6.057711      -164.8387
  89   2.0000      -6.057445      -164.8315
  90   2.0000      -6.056752      -164.8126
  91   2.0000      -6.056001      -164.7922
  92   2.0000      -6.055154      -164.7691
  93   2.0000      -6.054984      -164.7645
  94   2.0000      -1.279068       -34.8052
  95   2.0000      -1.264155       -34.3994
  96   2.0000      -1.244373       -33.8611
  97   2.0000      -1.228998       -33.4427
  98   2.0000      -1.181494       -32.1501
  99   2.0000      -1.165976       -31.7278
 100   2.0000      -1.154213       -31.4077
 101   2.0000      -1.147927       -31.2367
 102   2.0000      -1.145630       -31.1742
 103   2.0000      -1.143729       -31.1224
 104   2.0000      -1.140937       -31.0465
 105   2.0000      -1.137422       -30.9508
 106   2.0000      -1.079877       -29.3850
 107   2.0000      -1.070971       -29.1426
 108   2.0000      -1.043733       -28.4014
 109   2.0000      -1.042361       -28.3641
 110   2.0000      -1.033445       -28.1215
 111   2.0000      -1.026909       -27.9436
 112   2.0000      -1.024732       -27.8844
 113   2.0000      -1.023391       -27.8479
 114   2.0000      -1.007317       -27.4105
 115   2.0000      -1.005746       -27.3677
 116   2.0000      -0.994359       -27.0579
 117   2.0000      -0.992977       -27.0203
 118   2.0000      -0.961127       -26.1536
 119   2.0000      -0.959787       -26.1171
 120   2.0000      -0.944664       -25.7056
 121   2.0000      -0.939253       -25.5584
 122   2.0000      -0.926730       -25.2176
 123   2.0000      -0.917192       -24.9581
 124   2.0000      -0.909259       -24.7422
 125   2.0000      -0.904650       -24.6168
 126   2.0000      -0.890743       -24.2384
 127   2.0000      -0.885469       -24.0948
 128   2.0000      -0.883410       -24.0388
 129   2.0000      -0.869039       -23.6478
 130   2.0000      -0.861872       -23.4527
 131   2.0000      -0.838196       -22.8085
 132   2.0000      -0.837049       -22.7773
 133   2.0000      -0.831728       -22.6325
 134   2.0000      -0.828576       -22.5467
 135   2.0000      -0.822795       -22.3894
 136   2.0000      -0.811914       -22.0933
 137   2.0000      -0.805848       -21.9282
 138   2.0000      -0.802056       -21.8251
 139   2.0000      -0.799282       -21.7496
 140   2.0000      -0.770785       -20.9741
 141   2.0000      -0.767048       -20.8724
 142   2.0000      -0.760901       -20.7052
 143   2.0000      -0.754487       -20.5306
 144   2.0000      -0.743823       -20.2404
 145   2.0000      -0.743525       -20.2324
 146   2.0000      -0.733097       -19.9486
 147   2.0000      -0.722297       -19.6547
 148   2.0000      -0.721229       -19.6257
 149   2.0000      -0.710484       -19.3333
 150   2.0000      -0.706342       -19.2205
 151   2.0000      -0.703602       -19.1460
 152   2.0000      -0.689020       -18.7492
 153   2.0000      -0.681774       -18.5520
 154   2.0000      -0.681604       -18.5474
 155   2.0000      -0.676625       -18.4119
 156   2.0000      -0.673070       -18.3152
 157   2.0000      -0.665119       -18.0988
 158   2.0000      -0.662932       -18.0393
 159   2.0000      -0.639702       -17.4072
 160   2.0000      -0.630377       -17.1534
 161   2.0000      -0.628080       -17.0909
 162   2.0000      -0.625841       -17.0300
 163   2.0000      -0.621736       -16.9183
 164   2.0000      -0.619545       -16.8587
 165   2.0000      -0.618238       -16.8231
 166   2.0000      -0.613704       -16.6997
 167   2.0000      -0.609146       -16.5757
 168   2.0000      -0.595253       -16.1976
 169   2.0000      -0.589667       -16.0457
 170   2.0000      -0.588890       -16.0245
 171   2.0000      -0.584021       -15.8920
 172   2.0000      -0.580659       -15.8005
 173   2.0000      -0.579508       -15.7692
 174   2.0000      -0.574899       -15.6438
 175   2.0000      -0.568892       -15.4803
 176   2.0000      -0.566063       -15.4033
 177   2.0000      -0.564428       -15.3589
 178   2.0000      -0.564383       -15.3577
 179   2.0000      -0.561865       -15.2891
 180   2.0000      -0.558498       -15.1975
 181   2.0000      -0.558110       -15.1869
 182   2.0000      -0.556082       -15.1318
 183   2.0000      -0.552006       -15.0208
 184   2.0000      -0.551800       -15.0152
 185   2.0000      -0.546615       -14.8742
 186   2.0000      -0.544984       -14.8298
 187   2.0000      -0.544145       -14.8069
 188   2.0000      -0.540846       -14.7172
 189   2.0000      -0.539003       -14.6670
 190   2.0000      -0.537978       -14.6391
 191   2.0000      -0.535371       -14.5682
 192   2.0000      -0.532272       -14.4839
 193   2.0000      -0.529400       -14.4057
 194   2.0000      -0.525967       -14.3123
 195   2.0000      -0.525342       -14.2953
 196   2.0000      -0.520431       -14.1617
 197   2.0000      -0.519520       -14.1368
 198   2.0000      -0.517237       -14.0747
 199   2.0000      -0.511854       -13.9283
 200   2.0000      -0.510176       -13.8826
 201   2.0000      -0.509341       -13.8599
 202   2.0000      -0.504983       -13.7413
 203   2.0000      -0.501620       -13.6498
 204   2.0000      -0.500349       -13.6152
 205   2.0000      -0.494317       -13.4510
 206   2.0000      -0.493538       -13.4298
 207   2.0000      -0.491221       -13.3668
 208   2.0000      -0.485381       -13.2079
 209   2.0000      -0.480762       -13.0822
 210   2.0000      -0.477198       -12.9852
 211   2.0000      -0.475435       -12.9372
 212   2.0000      -0.472348       -12.8532
 213   2.0000      -0.471033       -12.8175
 214   2.0000      -0.469977       -12.7887
 215   2.0000      -0.468078       -12.7371
 216   2.0000      -0.465384       -12.6638
 217   2.0000      -0.463973       -12.6253
 218   2.0000      -0.461661       -12.5624
 219   2.0000      -0.460664       -12.5353
 220   2.0000      -0.460419       -12.5286
 221   2.0000      -0.459755       -12.5106
 222   2.0000      -0.454811       -12.3760
 223   2.0000      -0.453622       -12.3437
 224   2.0000      -0.453005       -12.3269
 225   2.0000      -0.452684       -12.3182
 226   2.0000      -0.449648       -12.2355
 227   2.0000      -0.449166       -12.2224
 228   2.0000      -0.448643       -12.2082
 229   2.0000      -0.446470       -12.1491
 230   2.0000      -0.441364       -12.0101
 231   2.0000      -0.440268       -11.9803
 232   2.0000      -0.438544       -11.9334
 233   2.0000      -0.437763       -11.9121
 234   2.0000      -0.437126       -11.8948
 235   2.0000      -0.433542       -11.7973
 236   2.0000      -0.427129       -11.6228
 237   2.0000      -0.424470       -11.5504
 238   2.0000      -0.424374       -11.5478
 239   2.0000      -0.423641       -11.5278
 240   2.0000      -0.419622       -11.4185
 241   2.0000      -0.414904       -11.2901
 242   2.0000      -0.408113       -11.1053
 243   2.0000      -0.406970       -11.0742
 244   2.0000      -0.405254       -11.0275
 245   2.0000      -0.398369       -10.8402
 246   2.0000      -0.393748       -10.7144
 247   2.0000      -0.378693       -10.3048
 248   2.0000      -0.377702       -10.2778
 249   2.0000      -0.364256        -9.9119
 250   2.0000      -0.360361        -9.8059
 251   2.0000      -0.351912        -9.5760
 252   2.0000      -0.351372        -9.5613
 253   2.0000      -0.345524        -9.4022
 254   2.0000      -0.343709        -9.3528
 255   2.0000      -0.340295        -9.2599
 256   2.0000      -0.337177        -9.1750
 257   2.0000      -0.331914        -9.0318
 258   2.0000      -0.329172        -8.9572
 259   2.0000      -0.324056        -8.8180
 260   2.0000      -0.318710        -8.6725
 261   2.0000      -0.308866        -8.4047
 262   2.0000      -0.302883        -8.2419
 263   2.0000      -0.252289        -6.8651
 264   0.0000      -0.123163        -3.3514
 265   0.0000      -0.105167        -2.8617
 266   0.0000      -0.078541        -2.1372
 267   0.0000      -0.063256        -1.7213
 268   0.0000      -0.059794        -1.6271

MULLIKEN ATOMIC CHARGES
-----------------------
   0 C :    0.032847
   1 C :   -0.129012
   2 S :    0.191200
   3 C :   -0.166506
   4 Cl:    0.006797
   5 C :    0.080092
   6 C :    0.153230
   7 O :   -0.135884
   8 C :   -0.090108
   9 C :    0.286519
  10 C :   -0.325648
  11 C :   -0.195106
  12 N :    0.163060
  13 C :   -0.188523
  14 N :    0.160291
  15 C :    0.014160
  16 C :   -0.168572
  17 S :    0.186344
  18 C :   -0.210028
  19 C :    0.179838
  20 C :    0.223401
  21 O :   -0.191933
  22 C :    0.156461
  23 O :   -0.091729
  24 C :    0.166851
  25 O :   -0.091511
  26 O :   -0.180240
  27 C :    0.135801
  28 N :   -0.255023
  29 C :    0.090018
  30 C :    0.001982
  31 C :    0.170364
  32 O :   -0.212014
  33 C :   -0.082268
  34 C :   -0.045952
  35 C :    0.150883
  36 O :   -0.176622
  37 N :   -0.259533
  38 C :    0.091297
  39 C :    0.004172
  40 C :    0.146427
  41 C :   -0.032984
  42 C :    0.081934
  43 C :   -0.155914
  44 S :    0.226247
  45 C :   -0.177488
  46 C :    0.184659
  47 C :    0.181239
  48 O :   -0.209378
  49 C :    0.166581
  50 O :   -0.089286
  51 C :    0.159343
  52 O :   -0.083849
  53 O :   -0.205782
  54 C :    0.070970
  55 C :   -0.138034
  56 C :    0.123365
  57 O :   -0.125698
  58 C :    0.097290
  59 C :   -0.169573
  60 S :    0.188568
  61 C :   -0.123941
  62 C :    0.014106
  63 C :    0.291008
  64 C :   -0.307857
  65 C :   -0.183059
  66 N :    0.164287
  67 C :   -0.207329
  68 N :    0.163970
  69 Cl:    0.003035
  70 H :    0.055911
  71 H :    0.028109
  72 H :    0.044799
  73 H :    0.030565
  74 H :    0.034701
  75 H :    0.028151
  76 H :    0.017686
  77 H :    0.051034
  78 H :    0.035353
  79 H :    0.031461
  80 H :    0.032493
  81 H :    0.012254
  82 H :    0.003435
  83 H :    0.002204
  84 H :    0.032001
  85 H :    0.057592
Sum of atomic charges:   -0.0000000

LOEWDIN ATOMIC CHARGES
----------------------
   0 C :   -0.059584
   1 C :   -0.147771
   2 S :    0.480652
   3 C :   -0.270592
   4 Cl:    0.198857
   5 C :   -0.114842
   6 C :    0.079773
   7 O :   -0.130699
   8 C :   -0.072591
   9 C :    0.073473
  10 C :   -0.132789
  11 C :   -0.016117
  12 N :   -0.046573
  13 C :   -0.022213
  14 N :   -0.045330
  15 C :    0.040727
  16 C :   -0.193521
  17 S :    0.495198
  18 C :   -0.186499
  19 C :    0.009430
  20 C :    0.020799
  21 O :   -0.008232
  22 C :    0.064347
  23 O :   -0.073562
  24 C :    0.063263
  25 O :   -0.071654
  26 O :   -0.000672
  27 C :    0.041972
  28 N :    0.002516
  29 C :    0.030638
  30 C :   -0.063585
  31 C :    0.079386
  32 O :   -0.202904
  33 C :   -0.125395
  34 C :   -0.101399
  35 C :    0.083047
  36 O :   -0.175663
  37 N :    0.002973
  38 C :    0.037943
  39 C :   -0.059932
  40 C :    0.086870
  41 C :   -0.030633
  42 C :    0.009774
  43 C :   -0.168461
  44 S :    0.511368
  45 C :   -0.194677
  46 C :    0.008592
  47 C :    0.000263
  48 O :   -0.017561
  49 C :    0.060498
  50 O :   -0.073071
  51 C :    0.062001
  52 O :   -0.066659
  53 O :   -0.010679
  54 C :    0.038775
  55 C :   -0.074260
  56 C :    0.082093
  57 O :   -0.129260
  58 C :   -0.120241
  59 C :   -0.270965
  60 S :    0.478124
  61 C :   -0.148909
  62 C :   -0.055281
  63 C :    0.068075
  64 C :   -0.131827
  65 C :   -0.018038
  66 N :   -0.041449
  67 C :   -0.020467
  68 N :   -0.053623
  69 Cl:    0.194804
  70 H :    0.038399
  71 H :    0.047124
  72 H :    0.039055
  73 H :    0.018093
  74 H :    0.033299
  75 H :    0.033058
  76 H :    0.012246
  77 H :    0.041473
  78 H :    0.027968
  79 H :    0.032408
  80 H :    0.035044
  81 H :    0.021078
  82 H :    0.032830
  83 H :    0.039553
  84 H :    0.050806
  85 H :    0.039517

  Mayer bond orders larger than 0.100000
B(  0-C ,  1-C ) :   1.5397 B(  0-C ,  5-C ) :   1.2232 B(  0-C ,  9-C ) :   1.0050
B(  1-C ,  2-S ) :   1.1656 B(  1-C , 70-H ) :   0.9545 B(  2-S ,  3-C ) :   1.1506
B(  3-C ,  4-Cl) :   1.1350 B(  3-C ,  5-C ) :   1.4750 B(  5-C ,  6-C ) :   0.9513
B(  6-C ,  7-O ) :   2.2305 B(  6-C ,  8-C ) :   0.9348 B(  8-C ,  9-C ) :   1.0719
B(  8-C , 15-C ) :   1.6643 B(  9-C , 10-C ) :   1.6578 B( 10-C , 11-C ) :   1.1460
B( 10-C , 13-C ) :   1.1387 B( 11-C , 12-N ) :   2.9935 B( 13-C , 14-N ) :   2.9736
B( 15-C , 16-C ) :   1.1248 B( 15-C , 71-H ) :   0.9279 B( 16-C , 17-S ) :   1.0932
B( 16-C , 18-C ) :   0.1222 B( 16-C , 20-C ) :   1.4663 B( 17-S , 18-C ) :   1.1189
B( 18-C , 19-C ) :   1.4874 B( 18-C , 27-C ) :   1.0817 B( 19-C , 20-C ) :   1.2444
B( 19-C , 26-O ) :   1.1075 B( 20-C , 21-O ) :   1.0961 B( 21-O , 22-C ) :   1.0450
B( 22-C , 23-O ) :   2.2626 B( 22-C , 24-C ) :   0.8360 B( 24-C , 25-O ) :   2.2570
B( 24-C , 26-O ) :   1.0516 B( 27-C , 28-N ) :   1.1892 B( 27-C , 34-C ) :   1.4171
B( 28-N , 29-C ) :   0.9405 B( 28-N , 31-C ) :   1.0542 B( 29-C , 30-C ) :   1.1150
B( 29-C , 72-H ) :   0.9294 B( 29-C , 73-H ) :   0.9481 B( 30-C , 74-H ) :   0.9645
B( 30-C , 75-H ) :   0.9679 B( 30-C , 76-H ) :   0.9632 B( 31-C , 32-O ) :   2.0142
B( 31-C , 33-C ) :   0.9989 B( 32-O , 83-H ) :   0.1192 B( 33-C , 34-C ) :   1.2493
B( 33-C , 40-C ) :   1.3187 B( 34-C , 35-C ) :   0.9576 B( 35-C , 36-O ) :   2.1414
B( 35-C , 37-N ) :   1.0286 B( 37-N , 38-C ) :   0.9368 B( 37-N , 40-C ) :   1.1836
B( 38-C , 39-C ) :   1.1224 B( 38-C , 77-H ) :   0.9287 B( 38-C , 78-H ) :   0.9500
B( 39-C , 79-H ) :   0.9634 B( 39-C , 80-H ) :   0.9675 B( 39-C , 81-H ) :   0.9676
B( 40-C , 41-C ) :   1.1602 B( 41-C , 42-C ) :   1.5949 B( 41-C , 82-H ) :   0.9631
B( 42-C , 43-C ) :   1.1491 B( 42-C , 83-H ) :   0.9280 B( 43-C , 44-S ) :   1.1420
B( 43-C , 45-C ) :   0.1108 B( 43-C , 47-C ) :   1.4318 B( 44-S , 45-C ) :   1.1219
B( 45-C , 46-C ) :   1.4418 B( 45-C , 54-C ) :   1.1310 B( 46-C , 47-C ) :   1.2721
B( 46-C , 53-O ) :   1.0779 B( 47-C , 48-O ) :   1.0616 B( 48-O , 49-C ) :   1.0604
B( 49-C , 50-O ) :   2.2593 B( 49-C , 51-C ) :   0.8362 B( 51-C , 52-O ) :   2.2660
B( 51-C , 53-O ) :   1.0371 B( 54-C , 55-C ) :   1.6908 B( 54-C , 84-H ) :   0.9217
B( 55-C , 56-C ) :   0.9289 B( 55-C , 63-C ) :   1.0478 B( 56-C , 57-O ) :   2.2743
B( 56-C , 58-C ) :   0.9336 B( 58-C , 59-C ) :   1.4756 B( 58-C , 62-C ) :   1.2192
B( 59-C , 60-S ) :   1.1542 B( 59-C , 69-Cl) :   1.1324 B( 60-S , 61-C ) :   1.1568
B( 61-C , 62-C ) :   1.5562 B( 61-C , 85-H ) :   0.9552 B( 62-C , 63-C ) :   1.0106
B( 63-C , 64-C ) :   1.6569 B( 64-C , 65-C ) :   1.1296 B( 64-C , 67-C ) :   1.1719
B( 65-C , 66-N ) :   3.0020 B( 67-C , 68-N ) :   2.9886

-----------------------------------------------------------------------------
         ABSORPTION SPECTRUM VIA TRANSITION ELECTRIC DIPOLE MOMENTS
-----------------------------------------------------------------------------
State   Energy  Wavelength   fosc         T2         TX        TY        TZ
        (cm-1)    (nm)                  (au**2)     (au)      (au)      (au)
-----------------------------------------------------------------------------
   0   13372.9    747.8   1.243619890  30.61522   3.34432  -3.43771   2.75915
   1   18633.6    536.7   0.004220269   0.07456  -0.05532  -0.05343   0.26201
   2   23606.7    423.6   0.344369102   4.80247  -2.03502   0.54298  -0.60525
   3   24384.4    410.1   0.033701164   0.45500  -0.52837   0.41783   0.03518
   4   24865.1    402.2   0.430325014   5.69748   1.58737  -1.29908   1.22070
   5   25975.5    385.0   0.003141175   0.03981  -0.17654   0.06655   0.06492
   6   26508.4    377.2   0.033395523   0.41474   0.55176  -0.33169   0.01701
   7   26938.8    371.2   0.019164955   0.23421   0.15297  -0.45596   0.05396
   8   27043.2    369.8   0.024778367   0.30164   0.37312  -0.27178  -0.29759
   9   27432.6    364.5   0.086327769   1.03600   0.62547  -0.69646   0.39965
  10   27917.7    358.2   0.008289806   0.09776  -0.09046   0.19955   0.22305
  11   28309.7    353.2   0.165067262   1.91956  -1.03437   0.88592  -0.25454
  12   28969.1    345.2   0.035178937   0.39978  -0.40156   0.14739   0.46563
  13   29155.6    343.0   0.011303295   0.12763  -0.15650   0.09063   0.30810
  14   29762.2    336.0   0.078337774   0.86653   0.29535   0.20515   0.85861
  15   30090.1    332.3   0.123107841   1.34691   0.84713  -0.76477   0.21071
  16   30516.8    327.7   0.269239085   2.90453  -1.51030   0.18649   0.76730
  17   30803.3    324.6   0.017564477   0.18772   0.30754   0.19519   0.23460
  18   31213.0    320.4   0.020779216   0.21916  -0.38159  -0.18293   0.20022
  19   31639.1    316.1   0.186402538   1.93956   1.34167  -0.08491  -0.36369
  20   32125.9    311.3   0.075416403   0.77283   0.34651  -0.79671  -0.13421
  21   32349.5    309.1   0.049847821   0.50729  -0.17475  -0.13380   0.67738
  22   32749.4    305.3   0.007959796   0.08002   0.05087  -0.25813   0.10390
  23   34011.4    294.0   0.013540694   0.13107   0.33407   0.01266   0.13894
  24   34520.1    289.7   0.014702818   0.14022  -0.08508   0.32624  -0.16293
  25   34974.0    285.9   0.030138377   0.28369   0.13029  -0.45401  -0.24615
  26   35252.1    283.7   0.008334949   0.07784   0.16799   0.22167  -0.02194
  27   35450.1    282.1   0.132580528   1.23123   0.79675  -0.77218   0.01280
  28   35680.3    280.3   0.167681792   1.54715  -0.77100   0.96361   0.15543
  29   36422.0    274.6   0.037314255   0.33728   0.12163   0.50132   0.26676
  30   36509.1    273.9   0.276782771   2.49582  -1.38883  -0.19756   0.72660
  31   37106.8    269.5   0.143034460   1.26900   0.79890   0.33638  -0.71945
  32   37482.4    266.8   0.030560587   0.26842  -0.10411   0.38486   0.33085
  33   37577.6    266.1   0.017649716   0.15463   0.09176  -0.38002  -0.04231
  34   37605.3    265.9   0.410930299   3.59744  -1.47025   1.18447   0.18119
  35   37742.0    265.0   0.038046293   0.33187   0.51514  -0.22274  -0.12992
  36   37898.9    263.9   0.020709306   0.17989  -0.01721  -0.39167   0.16184
  37   38058.6    262.8   0.073452648   0.63537  -0.59681  -0.49119   0.19474
  38   38506.2    259.7   0.084517893   0.72259  -0.75637   0.38228   0.06606
  39   38593.1    259.1   0.064710940   0.55201  -0.39969  -0.34405   0.52334
  40   38724.4    258.2   0.038780482   0.32969   0.45376  -0.34959   0.03966
  41   38997.1    256.4   0.013807900   0.11657   0.02274  -0.28744  -0.18282
  42   39155.5    255.4   0.008808955   0.07406   0.07912   0.07354  -0.24979
  43   39574.4    252.7   0.037562164   0.31247  -0.05893   0.41066  -0.37465
  44   39667.7    252.1   0.058857302   0.48847  -0.47623   0.37936   0.34317
  45   40141.9    249.1   0.098504084   0.80785   0.36938   0.56942  -0.58921

FINAL SINGLE POINT ENERGY     -5502.378932389424

DIPOLE MOMENT
-------------
                                X             Y             Z
Electronic contribution:      5.09147      -7.73078       9.28084
Nuclear contribution   :     -4.67936       5.69313     -10.64160
                        -----------------------------------------
Total Dipole Moment    :      0.41211      -2.03765      -1.36076
                        -----------------------------------------
Magnitude (a.u.)       :      2.48466
Magnitude (Debye)      :      6.31550

Rotational constants in cm-1:     0.002724     0.000241     0.000229
Rotational constants in MHz :    81.666379     7.227346     6.865312

                             ****ORCA TERMINATED NORMALLY****
TOTAL RUN TIME: 0 days 0 hours 8 minutes 0 seconds 376 msec
