                         Program Version 4.2.0 -  RELEASE  -
|  1> # ORCA input file
|  2> # SCF done       -141.701084553832          0.000724990142
|  3> ! CAM-B3LYP def2-SVP def2/J RIJCOSX Grid4 TightSCF
|  4> %maxcore 5000
|  5> %tddft
|  6>     Mode sTDDFT
|  7>     Ethresh 5.0
|  8>     maxcore 5000
|  9> end
| 10>
| 11> %pal
| 12>   nprocs 6
| 13>   end
| 14> * xyz 0 1
| 15>    C        3.27395         1.65558         4.15106
| 16>    C        2.68238         2.56266         4.97500
| 17>    S        3.56914         4.04259         5.01415
| 18>    C        4.76632         3.43268         3.89658
| 19>   Cl        6.07675         4.38134         3.39874
| 20>    C        4.46728         2.15250         3.53284
| 21>    C        5.03889         1.12240         2.66751
| 22>    O        6.04949         1.19028         1.99744
| 23>    C        4.11992        -0.03619         2.77930
| 24>    C        3.04059         0.29685         3.70301
| 25>    C        1.98958        -0.48187         4.10582
| 26>    C        1.02676         0.00339         5.01780
| 27>    N        0.23225         0.37600         5.75613
| 28>    C        1.72790        -1.80522         3.69715
| 29>    N        1.45864        -2.88219         3.40417
| 30>    C        4.24827        -1.21907         2.11435
| 31>    C        5.23002        -1.64911         1.18965
| 32>    S        6.62811        -0.77608         0.64864
| 33>    C        7.09358        -2.07995        -0.38600
| 34>    C        8.36467        -1.94634        -1.06626
| 35>    O        8.90030        -2.76165        -1.77833
| 36>    C        6.19176        -3.15087        -0.33114
| 37>    C        5.16081        -2.89431         0.57711
| 38>    C        6.26755        -4.37208        -1.09590
| 39>    S        5.64105        -5.84965        -0.44044
| 40>    C        6.07884        -6.72424        -1.87460
| 41>    C        5.92319        -8.16082        -1.89708
| 42>    O        6.30544        -8.89646        -2.77436
| 43>    C        6.65602        -5.88585        -2.81717
| 44>    C        6.76043        -4.56019        -2.36157
| 45>    C        7.11128        -6.27573        -4.14910
| 46>    C        8.36110        -5.86100        -4.59788
| 47>    C        8.76012        -6.18430        -5.89072
| 48>    C        7.85473        -6.88934        -6.69125
| 49>    N        6.66782        -7.27099        -6.26979
| 50>    C        6.30038        -6.98377        -5.03788
| 51>    C       10.05042        -5.78385        -6.42956
| 52>    N       11.25333        -6.06648        -5.83731
| 53>    C       11.47710        -6.91673        -4.69252
| 54>    C       11.11551        -8.37073        -4.98159
| 55>    C       12.33772        -5.55409        -6.59283
| 56>    O       13.49864        -5.69443        -6.27029
| 57>    C       11.70459        -4.89339        -7.70698
| 58>    C       10.29289        -5.07303        -7.58254
| 59>    C        9.66595        -4.36126        -8.67011
| 60>    O        8.50655        -4.19527        -8.98314
| 61>    N       10.74929        -3.80518        -9.39379
| 62>    C       10.47981        -3.01671       -10.57028
| 63>    C       10.56951        -3.85050       -11.84697
| 64>    C       11.96154        -4.12137        -8.82497
| 65>    C       13.29175        -3.74381        -9.22282
| 66>    C       13.71972        -3.13926       -10.33091
| 67>    H        1.78991         2.46951         5.56146
| 68>    H        3.48616        -1.96854         2.29334
| 69>    H        8.84947        -0.97555        -0.84665
| 70>    H        4.36645        -3.59309         0.77670
| 71>    H        5.42290        -8.55434        -0.99010
| 72>    H        7.17094        -3.76770        -2.95865
| 73>    H        8.99945        -5.27645        -3.95078
| 74>    H        8.11105        -7.15662        -7.70666
| 75>    H        5.30997        -7.30741        -4.75101
| 76>    H       10.91023        -6.54996        -3.83319
| 77>    H       12.54538        -6.83268        -4.47184
| 78>    H       10.05006        -8.47646        -5.17491
| 79>    H       11.37355        -8.98856        -4.12603
| 80>    H       11.66586        -8.72940        -5.84836
| 81>    H       11.15807        -2.16105       -10.59786
| 82>    H        9.45484        -2.64911       -10.45686
| 83>    H       11.54414        -4.32494       -11.93939
| 84>    H       10.39931        -3.21859       -12.71476
| 85>    H        9.80968        -4.62781       -11.82884
| 86>    H       14.02014        -4.03944        -8.47703
| 87>    H       13.08276        -2.83776       -11.14192
| 88>    H       14.76950        -2.93778       -10.46154
| 89> *
| 90>
| 91>                          ****END OF INPUT****

CARTESIAN COORDINATES (ANGSTROEM)
---------------------------------
  C      3.273950    1.655580    4.151060
  C      2.682380    2.562660    4.975000
  S      3.569140    4.042590    5.014150
  C      4.766320    3.432680    3.896580
  Cl     6.076750    4.381340    3.398740
  C      4.467280    2.152500    3.532840
  C      5.038890    1.122400    2.667510
  O      6.049490    1.190280    1.997440
  C      4.119920   -0.036190    2.779300
  C      3.040590    0.296850    3.703010
  C      1.989580   -0.481870    4.105820
  C      1.026760    0.003390    5.017800
  N      0.232250    0.376000    5.756130
  C      1.727900   -1.805220    3.697150
  N      1.458640   -2.882190    3.404170
  C      4.248270   -1.219070    2.114350
  C      5.230020   -1.649110    1.189650
  S      6.628110   -0.776080    0.648640
  C      7.093580   -2.079950   -0.386000
  C      8.364670   -1.946340   -1.066260
  O      8.900300   -2.761650   -1.778330
  C      6.191760   -3.150870   -0.331140
  C      5.160810   -2.894310    0.577110
  C      6.267550   -4.372080   -1.095900
  S      5.641050   -5.849650   -0.440440
  C      6.078840   -6.724240   -1.874600
  C      5.923190   -8.160820   -1.897080
  O      6.305440   -8.896460   -2.774360
  C      6.656020   -5.885850   -2.817170
  C      6.760430   -4.560190   -2.361570
  C      7.111280   -6.275730   -4.149100
  C      8.361100   -5.861000   -4.597880
  C      8.760120   -6.184300   -5.890720
  C      7.854730   -6.889340   -6.691250
  N      6.667820   -7.270990   -6.269790
  C      6.300380   -6.983770   -5.037880
  C     10.050420   -5.783850   -6.429560
  N     11.253330   -6.066480   -5.837310
  C     11.477100   -6.916730   -4.692520
  C     11.115510   -8.370730   -4.981590
  C     12.337720   -5.554090   -6.592830
  O     13.498640   -5.694430   -6.270290
  C     11.704590   -4.893390   -7.706980
  C     10.292890   -5.073030   -7.582540
  C      9.665950   -4.361260   -8.670110
  O      8.506550   -4.195270   -8.983140
  N     10.749290   -3.805180   -9.393790
  C     10.479810   -3.016710  -10.570280
  C     10.569510   -3.850500  -11.846970
  C     11.961540   -4.121370   -8.824970
  C     13.291750   -3.743810   -9.222820
  C     13.719720   -3.139260  -10.330910
  H      1.789910    2.469510    5.561460
  H      3.486160   -1.968540    2.293340
  H      8.849470   -0.975550   -0.846650
  H      4.366450   -3.593090    0.776700
  H      5.422900   -8.554340   -0.990100
  H      7.170940   -3.767700   -2.958650
  H      8.999450   -5.276450   -3.950780
  H      8.111050   -7.156620   -7.706660
  H      5.309970   -7.307410   -4.751010
  H     10.910230   -6.549960   -3.833190
  H     12.545380   -6.832680   -4.471840
  H     10.050060   -8.476460   -5.174910
  H     11.373550   -8.988560   -4.126030
  H     11.665860   -8.729400   -5.848360
  H     11.158070   -2.161050  -10.597860
  H      9.454840   -2.649110  -10.456860
  H     11.544140   -4.324940  -11.939390
  H     10.399310   -3.218590  -12.714760
  H      9.809680   -4.627810  -11.828840
  H     14.020140   -4.039440   -8.477030
  H     13.082760   -2.837760  -11.141920
  H     14.769500   -2.937780  -10.461540

 Total Charge           Charge          ....    0
 Multiplicity           Mult            ....    1
 Number of Electrons    NEL             ....  390
 Basis Dimension        Dim             ....  854

ORBITAL ENERGIES
----------------

  NO   OCC          E(Eh)            E(eV)
   0   2.0000    -101.629579     -2765.4814
   1   2.0000     -89.005967     -2421.9755
   2   2.0000     -88.991370     -2421.5783
   3   2.0000     -88.976877     -2421.1839
   4   2.0000     -19.243132      -523.6323
   5   2.0000     -19.230336      -523.2841
   6   2.0000     -19.212259      -522.7922
   7   2.0000     -19.181266      -521.9488
   8   2.0000     -19.178228      -521.8661
   9   2.0000     -14.445110      -393.0714
  10   2.0000     -14.443791      -393.0355
  11   2.0000     -14.435984      -392.8231
  12   2.0000     -14.431925      -392.7126
  13   2.0000     -14.397306      -391.7706
  14   2.0000     -10.396619      -282.9064
  15   2.0000     -10.389573      -282.7147
  16   2.0000     -10.378992      -282.4267
  17   2.0000     -10.364961      -282.0449
  18   2.0000     -10.363724      -282.0113
  19   2.0000     -10.363707      -282.0108
  20   2.0000     -10.363412      -282.0028
  21   2.0000     -10.362566      -281.9798
  22   2.0000     -10.345959      -281.5279
  23   2.0000     -10.343014      -281.4477
  24   2.0000     -10.342225      -281.4262
  25   2.0000     -10.337813      -281.3062
  26   2.0000     -10.333659      -281.1932
  27   2.0000     -10.332796      -281.1697
  28   2.0000     -10.330763      -281.1144
  29   2.0000     -10.327007      -281.0121
  30   2.0000     -10.325810      -280.9796
  31   2.0000     -10.325655      -280.9754
  32   2.0000     -10.324513      -280.9443
  33   2.0000     -10.323440      -280.9151
  34   2.0000     -10.314806      -280.6802
  35   2.0000     -10.313624      -280.6480
  36   2.0000     -10.308306      -280.5033
  37   2.0000     -10.303430      -280.3706
  38   2.0000     -10.303150      -280.3630
  39   2.0000     -10.303129      -280.3624
  40   2.0000     -10.299420      -280.2615
  41   2.0000     -10.297699      -280.2146
  42   2.0000     -10.292954      -280.0855
  43   2.0000     -10.290980      -280.0318
  44   2.0000     -10.289515      -279.9919
  45   2.0000     -10.288063      -279.9524
  46   2.0000     -10.284371      -279.8520
  47   2.0000     -10.279146      -279.7098
  48   2.0000     -10.256355      -279.0896
  49   2.0000     -10.252934      -278.9965
  50   2.0000     -10.250645      -278.9342
  51   2.0000     -10.250406      -278.9277
  52   2.0000      -9.584335      -260.8030
  53   2.0000      -8.101709      -220.4587
  54   2.0000      -8.084896      -220.0012
  55   2.0000      -8.072422      -219.6618
  56   2.0000      -7.355001      -200.1398
  57   2.0000      -7.344359      -199.8502
  58   2.0000      -7.343806      -199.8351
  59   2.0000      -6.071089      -165.2027
  60   2.0000      -6.066441      -165.0763
  61   2.0000      -6.063969      -165.0090
  62   2.0000      -6.054009      -164.7380
  63   2.0000      -6.049513      -164.6156
  64   2.0000      -6.047651      -164.5650
  65   2.0000      -6.041497      -164.3975
  66   2.0000      -6.037470      -164.2879
  67   2.0000      -6.034885      -164.2176
  68   2.0000      -1.160397       -31.5760
  69   2.0000      -1.142949       -31.1012
  70   2.0000      -1.126139       -30.6438
  71   2.0000      -1.123003       -30.5585
  72   2.0000      -1.115963       -30.3669
  73   2.0000      -1.054700       -28.6998
  74   2.0000      -1.051834       -28.6219
  75   2.0000      -1.045220       -28.4419
  76   2.0000      -1.034788       -28.1580
  77   2.0000      -1.031594       -28.0711
  78   2.0000      -1.023214       -27.8431
  79   2.0000      -1.012372       -27.5480
  80   2.0000      -1.002952       -27.2917
  81   2.0000      -0.998528       -27.1713
  82   2.0000      -0.968156       -26.3449
  83   2.0000      -0.928483       -25.2653
  84   2.0000      -0.919338       -25.0165
  85   2.0000      -0.917870       -24.9765
  86   2.0000      -0.912070       -24.8187
  87   2.0000      -0.895368       -24.3642
  88   2.0000      -0.885116       -24.0852
  89   2.0000      -0.878785       -23.9129
  90   2.0000      -0.864561       -23.5259
  91   2.0000      -0.861717       -23.4485
  92   2.0000      -0.846122       -23.0242
  93   2.0000      -0.841337       -22.8939
  94   2.0000      -0.819890       -22.3103
  95   2.0000      -0.811212       -22.0742
  96   2.0000      -0.801875       -21.8201
  97   2.0000      -0.797756       -21.7080
  98   2.0000      -0.771379       -20.9903
  99   2.0000      -0.768692       -20.9172
 100   2.0000      -0.757487       -20.6123
 101   2.0000      -0.751976       -20.4623
 102   2.0000      -0.739860       -20.1326
 103   2.0000      -0.721342       -19.6287
 104   2.0000      -0.709903       -19.3175
 105   2.0000      -0.703338       -19.1388
 106   2.0000      -0.701757       -19.0958
 107   2.0000      -0.693487       -18.8708
 108   2.0000      -0.690010       -18.7761
 109   2.0000      -0.681828       -18.5535
 110   2.0000      -0.676252       -18.4018
 111   2.0000      -0.667528       -18.1644
 112   2.0000      -0.656623       -17.8676
 113   2.0000      -0.645707       -17.5706
 114   2.0000      -0.636497       -17.3200
 115   2.0000      -0.630833       -17.1658
 116   2.0000      -0.620863       -16.8945
 117   2.0000      -0.615117       -16.7382
 118   2.0000      -0.606241       -16.4967
 119   2.0000      -0.596967       -16.2443
 120   2.0000      -0.586066       -15.9477
 121   2.0000      -0.580490       -15.7959
 122   2.0000      -0.578544       -15.7430
 123   2.0000      -0.573867       -15.6157
 124   2.0000      -0.570235       -15.5169
 125   2.0000      -0.566928       -15.4269
 126   2.0000      -0.566312       -15.4101
 127   2.0000      -0.564176       -15.3520
 128   2.0000      -0.559496       -15.2247
 129   2.0000      -0.551969       -15.0199
 130   2.0000      -0.544201       -14.8085
 131   2.0000      -0.543616       -14.7925
 132   2.0000      -0.537643       -14.6300
 133   2.0000      -0.536454       -14.5977
 134   2.0000      -0.532346       -14.4859
 135   2.0000      -0.530014       -14.4224
 136   2.0000      -0.527405       -14.3514
 137   2.0000      -0.526702       -14.3323
 138   2.0000      -0.519625       -14.1397
 139   2.0000      -0.518996       -14.1226
 140   2.0000      -0.515787       -14.0353
 141   2.0000      -0.512862       -13.9557
 142   2.0000      -0.508423       -13.8349
 143   2.0000      -0.507406       -13.8072
 144   2.0000      -0.505068       -13.7436
 145   2.0000      -0.500108       -13.6086
 146   2.0000      -0.495765       -13.4904
 147   2.0000      -0.493528       -13.4296
 148   2.0000      -0.491655       -13.3786
 149   2.0000      -0.491066       -13.3626
 150   2.0000      -0.486533       -13.2392
 151   2.0000      -0.485929       -13.2228
 152   2.0000      -0.480002       -13.0615
 153   2.0000      -0.473411       -12.8822
 154   2.0000      -0.467987       -12.7346
 155   2.0000      -0.467196       -12.7130
 156   2.0000      -0.466121       -12.6838
 157   2.0000      -0.464739       -12.6462
 158   2.0000      -0.459620       -12.5069
 159   2.0000      -0.458352       -12.4724
 160   2.0000      -0.455821       -12.4035
 161   2.0000      -0.453724       -12.3464
 162   2.0000      -0.450243       -12.2517
 163   2.0000      -0.447760       -12.1842
 164   2.0000      -0.445229       -12.1153
 165   2.0000      -0.444493       -12.0953
 166   2.0000      -0.443882       -12.0786
 167   2.0000      -0.440288       -11.9809
 168   2.0000      -0.434203       -11.8153
 169   2.0000      -0.432956       -11.7813
 170   2.0000      -0.428882       -11.6705
 171   2.0000      -0.427626       -11.6363
 172   2.0000      -0.424454       -11.5500
 173   2.0000      -0.419599       -11.4179
 174   2.0000      -0.414691       -11.2843
 175   2.0000      -0.413389       -11.2489
 176   2.0000      -0.399501       -10.8710
 177   2.0000      -0.393026       -10.6948
 178   2.0000      -0.373903       -10.1744
 179   2.0000      -0.364532        -9.9194
 180   2.0000      -0.361106        -9.8262
 181   2.0000      -0.351729        -9.5710
 182   2.0000      -0.349918        -9.5218
 183   2.0000      -0.347228        -9.4486
 184   2.0000      -0.343508        -9.3473
 185   2.0000      -0.337557        -9.1854
 186   2.0000      -0.335725        -9.1355
 187   2.0000      -0.332399        -9.0450
 188   2.0000      -0.323812        -8.8114
 189   2.0000      -0.318047        -8.6545
 190   2.0000      -0.315921        -8.5966
 191   2.0000      -0.307831        -8.3765
 192   2.0000      -0.305745        -8.3197
 193   2.0000      -0.294056        -8.0017
 194   2.0000      -0.242167        -6.5897
 195   0.0000      -0.115992        -3.1563
 196   0.0000      -0.070084        -1.9071
 197   0.0000      -0.064742        -1.7617
 198   0.0000      -0.055729        -1.5165
 199   0.0000      -0.035509        -0.9662

MULLIKEN ATOMIC CHARGES
-----------------------
   0 C :    0.026186
   1 C :   -0.126009
   2 S :    0.196127
   3 C :   -0.168490
   4 Cl:    0.006264
   5 C :    0.080563
   6 C :    0.172353
   7 O :   -0.158643
   8 C :   -0.095690
   9 C :    0.306095
  10 C :   -0.329481
  11 C :   -0.192826
  12 N :    0.160007
  13 C :   -0.181710
  14 N :    0.160064
  15 C :   -0.015424
  16 C :   -0.051517
  17 S :    0.227842
  18 C :   -0.202504
  19 C :    0.191902
  20 O :   -0.177621
  21 C :    0.195275
  22 C :   -0.047888
  23 C :   -0.121053
  24 S :    0.148384
  25 C :   -0.192473
  26 C :    0.181015
  27 O :   -0.179497
  28 C :    0.098199
  29 C :    0.038394
  30 C :    0.000313
  31 C :    0.010970
  32 C :   -0.072095
  33 C :    0.047054
  34 N :   -0.056447
  35 C :    0.049519
  36 C :    0.098032
  37 N :   -0.264916
  38 C :    0.108253
  39 C :   -0.007363
  40 C :    0.155437
  41 O :   -0.193856
  42 C :   -0.059481
  43 C :   -0.009654
  44 C :    0.127097
  45 O :   -0.189769
  46 N :   -0.272758
  47 C :    0.101058
  48 C :    0.003791
  49 C :    0.084244
  50 C :   -0.022439
  51 C :   -0.006795
  52 H :    0.057209
  53 H :    0.015129
  54 H :   -0.007228
  55 H :    0.015774
  56 H :   -0.019625
  57 H :   -0.000967
  58 H :    0.014652
  59 H :    0.006773
  60 H :   -0.002231
  61 H :    0.018136
  62 H :    0.044191
  63 H :    0.035748
  64 H :    0.022518
  65 H :    0.023250
  66 H :    0.020341
  67 H :    0.038413
  68 H :    0.017572
  69 H :    0.018511
  70 H :    0.030611
  71 H :    0.017563
  72 H :    0.022259
  73 H :    0.033361
Sum of atomic charges:   -0.0000000

LOEWDIN ATOMIC CHARGES
----------------------
   0 C :   -0.059237
   1 C :   -0.145289
   2 S :    0.483912
   3 C :   -0.269805
   4 Cl:    0.197767
   5 C :   -0.118214
   6 C :    0.083836
   7 O :   -0.150747
   8 C :   -0.087444
   9 C :    0.074611
  10 C :   -0.131375
  11 C :   -0.015506
  12 N :   -0.044115
  13 C :   -0.022911
  14 N :   -0.041317
  15 C :    0.059999
  16 C :   -0.174761
  17 S :    0.548066
  18 C :   -0.224536
  19 C :    0.087280
  20 O :   -0.129364
  21 C :   -0.045780
  22 C :   -0.019681
  23 C :   -0.156650
  24 S :    0.460408
  25 C :   -0.235608
  26 C :    0.082309
  27 O :   -0.134278
  28 C :   -0.013897
  29 C :   -0.023971
  30 C :   -0.042490
  31 C :    0.024169
  32 C :   -0.059478
  33 C :    0.048681
  34 N :   -0.058301
  35 C :    0.051701
  36 C :    0.085992
  37 N :   -0.003070
  38 C :    0.035723
  39 C :   -0.061623
  40 C :    0.080647
  41 O :   -0.195434
  42 C :   -0.122677
  43 C :   -0.128706
  44 C :    0.080683
  45 O :   -0.195429
  46 N :   -0.007825
  47 C :    0.034854
  48 C :   -0.063466
  49 C :    0.075558
  50 C :   -0.028331
  51 C :   -0.020929
  52 H :    0.039263
  53 H :    0.053335
  54 H :   -0.000868
  55 H :    0.036012
  56 H :   -0.006197
  57 H :    0.034869
  58 H :    0.037997
  59 H :    0.027959
  60 H :    0.023585
  61 H :    0.021687
  62 H :    0.036584
  63 H :    0.027129
  64 H :    0.031318
  65 H :    0.028989
  66 H :    0.021546
  67 H :    0.035899
  68 H :    0.021236
  69 H :    0.028724
  70 H :    0.033110
  71 H :    0.048859
  72 H :    0.022662
  73 H :    0.032356

  Mayer bond orders larger than 0.100000
B(  0-C ,  1-C ) :   1.5442 B(  0-C ,  5-C ) :   1.2255 B(  0-C ,  9-C ) :   0.9967
B(  1-C ,  2-S ) :   1.1650 B(  1-C , 52-H ) :   0.9543 B(  2-S ,  3-C ) :   1.1542
B(  3-C ,  4-Cl) :   1.1351 B(  3-C ,  5-C ) :   1.4654 B(  5-C ,  6-C ) :   0.9724
B(  6-C ,  7-O ) :   2.1539 B(  6-C ,  8-C ) :   0.9552 B(  8-C ,  9-C ) :   1.0647
B(  8-C , 15-C ) :   1.5880 B(  9-C , 10-C ) :   1.6572 B( 10-C , 11-C ) :   1.1465
B( 10-C , 13-C ) :   1.1388 B( 11-C , 12-N ) :   2.9898 B( 13-C , 14-N ) :   2.9614
B( 15-C , 16-C ) :   1.1936 B( 15-C , 53-H ) :   0.9412 B( 16-C , 17-S ) :   1.1453
B( 16-C , 22-C ) :   1.3823 B( 17-S , 18-C ) :   1.1192 B( 18-C , 19-C ) :   1.0066
B( 18-C , 21-C ) :   1.4096 B( 19-C , 20-O ) :   2.1377 B( 19-C , 54-H ) :   0.9520
B( 21-C , 22-C ) :   1.3061 B( 21-C , 23-C ) :   1.0325 B( 22-C , 55-H ) :   1.0043
B( 23-C , 24-S ) :   1.1640 B( 23-C , 29-C ) :   1.5065 B( 24-S , 25-C ) :   1.0967
B( 25-C , 26-C ) :   1.0101 B( 25-C , 28-C ) :   1.4838 B( 26-C , 27-O ) :   2.1508
B( 26-C , 56-H ) :   0.9488 B( 28-C , 29-C ) :   1.3041 B( 28-C , 30-C ) :   0.9529
B( 29-C , 57-H ) :   0.9915 B( 30-C , 31-C ) :   1.4065 B( 30-C , 35-C ) :   1.3558
B( 31-C , 32-C ) :   1.3803 B( 31-C , 58-H ) :   0.9881 B( 32-C , 33-C ) :   1.3654
B( 32-C , 36-C ) :   0.9559 B( 33-C , 34-N ) :   1.5551 B( 33-C , 59-H ) :   0.9886
B( 34-N , 35-C ) :   1.5649 B( 35-C , 60-H ) :   0.9860 B( 36-C , 37-N ) :   1.2161
B( 36-C , 43-C ) :   1.4700 B( 37-N , 38-C ) :   0.9464 B( 37-N , 40-C ) :   1.0155
B( 38-C , 39-C ) :   1.1168 B( 38-C , 61-H ) :   0.9480 B( 38-C , 62-H ) :   0.9284
B( 39-C , 63-H ) :   0.9683 B( 39-C , 64-H ) :   0.9664 B( 39-C , 65-H ) :   0.9649
B( 40-C , 41-O ) :   2.1291 B( 40-C , 42-C ) :   0.9879 B( 42-C , 43-C ) :   1.1765
B( 42-C , 49-C ) :   1.4121 B( 43-C , 44-C ) :   0.9655 B( 44-C , 45-O ) :   2.1567
B( 44-C , 46-N ) :   1.0257 B( 46-N , 47-C ) :   0.9454 B( 46-N , 49-C ) :   1.1661
B( 47-C , 48-C ) :   1.1170 B( 47-C , 66-H ) :   0.9522 B( 47-C , 67-H ) :   0.9259
B( 48-C , 68-H ) :   0.9677 B( 48-C , 69-H ) :   0.9687 B( 48-C , 70-H ) :   0.9614
B( 49-C , 50-C ) :   1.1448 B( 50-C , 51-C ) :   1.8859 B( 50-C , 71-H ) :   0.9362
B( 51-C , 72-H ) :   0.9590 B( 51-C , 73-H ) :   0.9403

-----------------------------------------------------------------------------
         ABSORPTION SPECTRUM VIA TRANSITION ELECTRIC DIPOLE MOMENTS
-----------------------------------------------------------------------------
State   Energy  Wavelength   fosc         T2         TX        TY        TZ
        (cm-1)    (nm)                  (au**2)     (au)      (au)      (au)
-----------------------------------------------------------------------------
   0   18291.5    546.7   0.000122926   0.00221   0.01984   0.00689  -0.04209
   1   23103.6    432.8   0.186298204   2.65464  -1.25098   0.13454   1.03518
   2   23749.2    421.1   0.460322401   6.38100  -0.45195  -1.11895   2.21917
   3   25889.4    386.3   0.046483059   0.59108   0.32348  -0.20592  -0.66637
   4   26056.6    383.8   0.329599470   4.16432  -1.19494   1.06094   1.26919
   5   26518.2    377.1   0.253755152   3.15026  -1.03308   0.97542   1.06374
   6   27955.5    357.7   0.006235554   0.07343   0.21169  -0.09379  -0.14079
   7   28830.4    346.9   0.375058688   4.28277  -0.86480   1.43657   1.21290
   8   29700.0    336.7   0.000290652   0.00322  -0.01775   0.03117  -0.04399
   9   30076.5    332.5   0.009703044   0.10621   0.15293   0.01678  -0.28729
  10   30252.1    330.6   0.058264604   0.63405   0.53240  -0.00822  -0.59206
  11   30792.8    324.8   0.003898378   0.04168  -0.00057  -0.16245   0.12364
  12   31519.6    317.3   0.003193277   0.03335  -0.11876   0.03988   0.13289
  13   32054.8    312.0   0.000525696   0.00540  -0.04094   0.03238   0.05172
  14   32133.3    311.2   0.000513823   0.00526   0.02013   0.04786  -0.05068
  15   32797.1    304.9   0.016937575   0.17002  -0.08506  -0.27222  -0.29778
  16   33066.5    302.4   0.525723520   5.23413   0.47597   2.18308   0.49166
  17   33386.9    299.5   0.280103654   2.76196   0.18404   1.51649   0.65449
  18   33816.4    295.7   0.063627084   0.61943  -0.06359   0.66715   0.41267
  19   34995.6    285.7   0.014318023   0.13469   0.33937   0.13423  -0.03876
  20   35169.3    284.3   0.007860377   0.07358  -0.10874  -0.23005   0.09397
  21   35382.1    282.6   0.012722069   0.11837   0.32652  -0.09389  -0.05423
  22   35429.0    282.3   0.016126733   0.14985   0.19620   0.33208   0.03288
  23   35536.1    281.4   0.024233815   0.22451   0.04765  -0.14335  -0.44909
  24   36050.8    277.4   0.041493084   0.37891  -0.20717  -0.29895   0.49661
  25   36318.0    275.3   0.164782698   1.49371  -0.80526  -0.91934   0.00886
  26   36528.1    273.8   0.178118032   1.60530  -0.19031  -1.13713  -0.52538
  27   37168.6    269.0   0.126654080   1.12181   0.70718   0.78366   0.08707
  28   37453.3    267.0   0.048189250   0.42358  -0.51349   0.32067   0.23892
  29   37779.5    264.7   0.129704325   1.13025   0.52262   0.92327  -0.06852
  30   37811.3    264.5   0.180625775   1.57265  -0.62027   0.43114   1.00102
  31   38078.2    262.6   0.144582211   1.25001  -0.66220  -0.87398   0.21833
  32   38797.7    257.7   0.006224445   0.05282  -0.00449   0.22605   0.04122
  33   39134.3    255.5   0.005287162   0.04448   0.20605   0.02876   0.03458
  34   39262.5    254.7   0.000103538   0.00087  -0.02447  -0.00872   0.01391
  35   39919.1    250.5   0.001992906   0.01644  -0.07466  -0.09531   0.04216
  36   40112.5    249.3   0.063677381   0.52261   0.29359   0.49083  -0.44216

FINAL SINGLE POINT ENERGY     -3762.736911331356

DIPOLE MOMENT
-------------
                                X             Y             Z
Electronic contribution:    -47.56636      51.24010      86.58577
Nuclear contribution   :     47.91112     -48.26947     -85.11575
                        -----------------------------------------
Total Dipole Moment    :      0.34476       2.97063       1.47002
                        -----------------------------------------
Magnitude (a.u.)       :      3.33234
Magnitude (Debye)      :      8.47013

Rotational constants in cm-1:     0.002733     0.000520     0.000465
Rotational constants in MHz :    81.925734    15.583298    13.948558

                             ****ORCA TERMINATED NORMALLY****
TOTAL RUN TIME: 0 days 0 hours 5 minutes 25 seconds 468 msec
