                         Program Version 4.2.0 -  RELEASE  -
|  1> # ORCA input file
|  2> # SCF done       -166.096693525303          0.000813076611
|  3> ! CAM-B3LYP def2-SVP def2/J RIJCOSX Grid4 TightSCF
|  4> %maxcore 5000
|  5> %tddft
|  6>     Mode sTDDFT
|  7>     Ethresh 5.0
|  8>     maxcore 5000
|  9> end
| 10>
| 11> %pal
| 12>   nprocs 6
| 13>   end
| 14> * xyz 0 1
| 15>    C        8.34204        -2.70807        -6.71403
| 16>    C        8.38755        -2.51457        -8.05934
| 17>    S       10.00294        -2.64814        -8.65323
| 18>    C       10.63379        -2.97930        -7.05731
| 19>   Cl       12.28354        -3.25337        -6.79674
| 20>    C        9.62679        -2.97379        -6.13762
| 21>    C        9.49541        -3.18154        -4.69243
| 22>    O       10.36315        -3.47852        -3.90510
| 23>    C        8.05239        -2.92726        -4.40566
| 24>    C        7.34286        -2.75017        -5.66564
| 25>    C        5.98968        -2.71919        -5.86576
| 26>    C        5.44887        -2.53731        -7.15683
| 27>    N        5.00091        -2.38269        -8.20136
| 28>    C        5.00796        -2.93774        -4.87567
| 29>    N        4.16025        -3.16477        -4.13685
| 30>    C        7.49618        -2.71341        -3.17962
| 31>    C        8.05754        -2.85854        -1.88971
| 32>    S        9.52219        -3.69927        -1.46949
| 33>    C        9.24548        -3.48323         0.32706
| 34>    O        9.94315        -4.02048         1.13898
| 35>    C        8.06704        -2.65330         0.47479
| 36>    C        7.41180        -2.38349        -0.74769
| 37>    C        6.17873        -1.65336        -0.62721
| 38>    O        5.42209        -1.21633        -1.44499
| 39>    S        5.88301        -1.43775         1.17581
| 40>    C        7.40589        -2.18660         1.60186
| 41>    C        7.93306        -2.18599         2.91845
| 42>    N        7.23079        -2.26396         4.09274
| 43>    C        5.82048        -2.53268         4.24490
| 44>    C        5.46300        -3.95049         3.81186
| 45>    C        8.08747        -2.21077         5.21605
| 46>    O        7.70137        -2.29565         6.36002
| 47>    C        9.40462        -2.03012         4.64357
| 48>    C        9.28027        -2.02899         3.24082
| 49>    C       10.58532        -1.73338         2.68260
| 50>    O       10.96043        -1.53197         1.55185
| 51>    N       11.43678        -1.64920         3.80981
| 52>    C       12.85252        -1.46346         3.60131
| 53>    C       13.59777        -2.79635         3.62436
| 54>    C       10.74557        -1.81920         4.98271
| 55>    C       11.19005        -1.76135         6.32769
| 56>    C       12.45573        -1.68334         6.81753
| 57>    C       12.71124        -1.59660         8.17424
| 58>    C       12.96720        -1.49139         9.36398
| 59>    C       13.24933        -1.35955        10.66326
| 60>    C       13.48277        -1.19379        11.85223
| 61>    C       13.80439        -1.08781        13.18604
| 62>    C       13.03401        -0.61083        14.20213
| 63>    C       13.48133        -0.85579        15.60948
| 64>    O       14.56883        -1.25450        15.95182
| 65>    C       12.30287        -0.54832        16.42509
| 66>    C       11.95501        -0.59944        17.74191
| 67>    S       10.30311        -0.07054        17.95909
| 68>    C       10.10657         0.22165        16.26936
| 69>    C       11.24223        -0.07539        15.58292
| 70>    C       11.71484        -0.00780        14.21103
| 71>    C       11.05683         0.63013        13.19344
| 72>    C        9.75331         1.14078        13.37729
| 73>    N        8.68872         1.54531        13.51291
| 74>    C       11.59998         0.95497        11.93603
| 75>    N       12.00110         1.32016        10.92462
| 76>   Cl       12.90527        -1.08651        19.05659
| 77>    H        7.59093        -2.29813        -8.74317
| 78>    H        6.47492        -2.34451        -3.15761
| 79>    H        5.24366        -1.79960         3.67480
| 80>    H        5.60989        -2.40179         5.31003
| 81>    H        5.68341        -4.10165         2.75758
| 82>    H        4.40308        -4.12433         3.97204
| 83>    H        6.02800        -4.67534         4.39315
| 84>    H       13.24546        -0.75771         4.33693
| 85>    H       12.95094        -1.01756         2.60680
| 86>    H       13.46009        -3.31467         4.57111
| 87>    H       14.65946        -2.63026         3.46336
| 88>    H       13.22065        -3.43478         2.82920
| 89>    H       10.37351        -1.79882         7.03917
| 90>    H       13.33004        -1.69234         6.18255
| 91>    H       14.77110        -1.49067        13.48096
| 92>    H        9.16600         0.58426        15.90486
| 93> *
| 94>
| 95>                          ****END OF INPUT****

CARTESIAN COORDINATES (ANGSTROEM)
---------------------------------
  C      8.342040   -2.708070   -6.714030
  C      8.387550   -2.514570   -8.059340
  S     10.002940   -2.648140   -8.653230
  C     10.633790   -2.979300   -7.057310
  Cl    12.283540   -3.253370   -6.796740
  C      9.626790   -2.973790   -6.137620
  C      9.495410   -3.181540   -4.692430
  O     10.363150   -3.478520   -3.905100
  C      8.052390   -2.927260   -4.405660
  C      7.342860   -2.750170   -5.665640
  C      5.989680   -2.719190   -5.865760
  C      5.448870   -2.537310   -7.156830
  N      5.000910   -2.382690   -8.201360
  C      5.007960   -2.937740   -4.875670
  N      4.160250   -3.164770   -4.136850
  C      7.496180   -2.713410   -3.179620
  C      8.057540   -2.858540   -1.889710
  S      9.522190   -3.699270   -1.469490
  C      9.245480   -3.483230    0.327060
  O      9.943150   -4.020480    1.138980
  C      8.067040   -2.653300    0.474790
  C      7.411800   -2.383490   -0.747690
  C      6.178730   -1.653360   -0.627210
  O      5.422090   -1.216330   -1.444990
  S      5.883010   -1.437750    1.175810
  C      7.405890   -2.186600    1.601860
  C      7.933060   -2.185990    2.918450
  N      7.230790   -2.263960    4.092740
  C      5.820480   -2.532680    4.244900
  C      5.463000   -3.950490    3.811860
  C      8.087470   -2.210770    5.216050
  O      7.701370   -2.295650    6.360020
  C      9.404620   -2.030120    4.643570
  C      9.280270   -2.028990    3.240820
  C     10.585320   -1.733380    2.682600
  O     10.960430   -1.531970    1.551850
  N     11.436780   -1.649200    3.809810
  C     12.852520   -1.463460    3.601310
  C     13.597770   -2.796350    3.624360
  C     10.745570   -1.819200    4.982710
  C     11.190050   -1.761350    6.327690
  C     12.455730   -1.683340    6.817530
  C     12.711240   -1.596600    8.174240
  C     12.967200   -1.491390    9.363980
  C     13.249330   -1.359550   10.663260
  C     13.482770   -1.193790   11.852230
  C     13.804390   -1.087810   13.186040
  C     13.034010   -0.610830   14.202130
  C     13.481330   -0.855790   15.609480
  O     14.568830   -1.254500   15.951820
  C     12.302870   -0.548320   16.425090
  C     11.955010   -0.599440   17.741910
  S     10.303110   -0.070540   17.959090
  C     10.106570    0.221650   16.269360
  C     11.242230   -0.075390   15.582920
  C     11.714840   -0.007800   14.211030
  C     11.056830    0.630130   13.193440
  C      9.753310    1.140780   13.377290
  N      8.688720    1.545310   13.512910
  C     11.599980    0.954970   11.936030
  N     12.001100    1.320160   10.924620
  Cl    12.905270   -1.086510   19.056590
  H      7.590930   -2.298130   -8.743170
  H      6.474920   -2.344510   -3.157610
  H      5.243660   -1.799600    3.674800
  H      5.609890   -2.401790    5.310030
  H      5.683410   -4.101650    2.757580
  H      4.403080   -4.124330    3.972040
  H      6.028000   -4.675340    4.393150
  H     13.245460   -0.757710    4.336930
  H     12.950940   -1.017560    2.606800
  H     13.460090   -3.314670    4.571110
  H     14.659460   -2.630260    3.463360
  H     13.220650   -3.434780    2.829200
  H     10.373510   -1.798820    7.039170
  H     13.330040   -1.692340    6.182550
  H     14.771100   -1.490670   13.480960
  H      9.166000    0.584260   15.904860

 Total Charge           Charge          ....    0
 Multiplicity           Mult            ....    1
 Number of Electrons    NEL             ....  468
 Basis Dimension        Dim             ....  972

ORBITAL ENERGIES
----------------

  NO   OCC          E(Eh)            E(eV)
   0   2.0000    -101.622815     -2765.2974
   1   2.0000    -101.620975     -2765.2473
   2   2.0000     -88.999685     -2421.8045
   3   2.0000     -88.996928     -2421.7295
   4   2.0000     -88.964649     -2420.8512
   5   2.0000     -88.952956     -2420.5330
   6   2.0000     -19.239768      -523.5407
   7   2.0000     -19.233506      -523.3703
   8   2.0000     -19.226772      -523.1871
   9   2.0000     -19.221931      -523.0553
  10   2.0000     -19.212494      -522.7985
  11   2.0000     -19.201588      -522.5018
  12   2.0000     -14.470527      -393.7631
  13   2.0000     -14.465817      -393.6349
  14   2.0000     -14.426733      -392.5714
  15   2.0000     -14.425501      -392.5378
  16   2.0000     -14.423371      -392.4799
  17   2.0000     -14.419661      -392.3789
  18   2.0000     -10.403730      -283.0999
  19   2.0000     -10.391536      -282.7681
  20   2.0000     -10.389138      -282.7028
  21   2.0000     -10.386789      -282.6389
  22   2.0000     -10.384509      -282.5769
  23   2.0000     -10.382874      -282.5324
  24   2.0000     -10.382170      -282.5132
  25   2.0000     -10.380415      -282.4655
  26   2.0000     -10.361825      -281.9596
  27   2.0000     -10.359319      -281.8914
  28   2.0000     -10.357643      -281.8458
  29   2.0000     -10.356068      -281.8029
  30   2.0000     -10.356012      -281.8014
  31   2.0000     -10.355014      -281.7743
  32   2.0000     -10.353849      -281.7426
  33   2.0000     -10.350431      -281.6495
  34   2.0000     -10.339175      -281.3432
  35   2.0000     -10.335288      -281.2375
  36   2.0000     -10.332461      -281.1606
  37   2.0000     -10.332333      -281.1571
  38   2.0000     -10.328950      -281.0650
  39   2.0000     -10.327943      -281.0376
  40   2.0000     -10.326621      -281.0016
  41   2.0000     -10.324567      -280.9457
  42   2.0000     -10.324192      -280.9355
  43   2.0000     -10.321474      -280.8616
  44   2.0000     -10.320757      -280.8421
  45   2.0000     -10.319480      -280.8073
  46   2.0000     -10.319308      -280.8027
  47   2.0000     -10.318895      -280.7914
  48   2.0000     -10.318683      -280.7856
  49   2.0000     -10.317553      -280.7549
  50   2.0000     -10.313532      -280.6455
  51   2.0000     -10.312520      -280.6179
  52   2.0000     -10.311250      -280.5834
  53   2.0000     -10.310763      -280.5701
  54   2.0000     -10.310367      -280.5593
  55   2.0000     -10.306987      -280.4674
  56   2.0000     -10.306686      -280.4592
  57   2.0000     -10.304793      -280.4077
  58   2.0000     -10.287506      -279.9373
  59   2.0000     -10.281099      -279.7629
  60   2.0000     -10.271531      -279.5026
  61   2.0000     -10.266627      -279.3691
  62   2.0000      -9.577585      -260.6194
  63   2.0000      -9.575742      -260.5692
  64   2.0000      -8.095401      -220.2871
  65   2.0000      -8.092627      -220.2116
  66   2.0000      -8.061589      -219.3670
  67   2.0000      -8.049070      -219.0263
  68   2.0000      -7.348244      -199.9559
  69   2.0000      -7.346402      -199.9058
  70   2.0000      -7.337621      -199.6668
  71   2.0000      -7.337048      -199.6512
  72   2.0000      -7.335772      -199.6165
  73   2.0000      -7.335221      -199.6015
  74   2.0000      -6.064772      -165.0308
  75   2.0000      -6.061988      -164.9551
  76   2.0000      -6.060152      -164.9051
  77   2.0000      -6.057671      -164.8376
  78   2.0000      -6.057409      -164.8305
  79   2.0000      -6.054886      -164.7618
  80   2.0000      -6.031117      -164.1150
  81   2.0000      -6.026946      -164.0015
  82   2.0000      -6.022705      -163.8861
  83   2.0000      -6.018527      -163.7725
  84   2.0000      -6.014184      -163.6543
  85   2.0000      -6.010358      -163.5501
  86   2.0000      -1.161589       -31.6084
  87   2.0000      -1.152984       -31.3743
  88   2.0000      -1.151658       -31.3382
  89   2.0000      -1.143045       -31.1038
  90   2.0000      -1.142467       -31.0881
  91   2.0000      -1.140374       -31.0312
  92   2.0000      -1.080638       -29.4057
  93   2.0000      -1.071174       -29.1481
  94   2.0000      -1.045162       -28.4403
  95   2.0000      -1.042347       -28.3637
  96   2.0000      -1.022812       -27.8321
  97   2.0000      -1.020680       -27.7741
  98   2.0000      -1.011876       -27.5345
  99   2.0000      -1.002874       -27.2896
 100   2.0000      -1.000790       -27.2329
 101   2.0000      -0.995278       -27.0829
 102   2.0000      -0.992739       -27.0138
 103   2.0000      -0.965692       -26.2778
 104   2.0000      -0.959979       -26.1223
 105   2.0000      -0.954412       -25.9709
 106   2.0000      -0.944859       -25.7109
 107   2.0000      -0.939574       -25.5671
 108   2.0000      -0.924796       -25.1650
 109   2.0000      -0.914739       -24.8913
 110   2.0000      -0.908730       -24.7278
 111   2.0000      -0.893791       -24.3213
 112   2.0000      -0.891923       -24.2705
 113   2.0000      -0.884121       -24.0581
 114   2.0000      -0.865105       -23.5407
 115   2.0000      -0.852078       -23.1862
 116   2.0000      -0.839502       -22.8440
 117   2.0000      -0.839216       -22.8362
 118   2.0000      -0.836833       -22.7714
 119   2.0000      -0.830809       -22.6075
 120   2.0000      -0.829465       -22.5709
 121   2.0000      -0.817853       -22.2549
 122   2.0000      -0.793617       -21.5954
 123   2.0000      -0.783255       -21.3134
 124   2.0000      -0.770530       -20.9672
 125   2.0000      -0.762709       -20.7544
 126   2.0000      -0.761008       -20.7081
 127   2.0000      -0.741168       -20.1682
 128   2.0000      -0.732470       -19.9315
 129   2.0000      -0.719341       -19.5743
 130   2.0000      -0.708002       -19.2657
 131   2.0000      -0.707415       -19.2497
 132   2.0000      -0.704203       -19.1623
 133   2.0000      -0.697883       -18.9904
 134   2.0000      -0.693246       -18.8642
 135   2.0000      -0.683260       -18.5924
 136   2.0000      -0.680557       -18.5189
 137   2.0000      -0.672944       -18.3117
 138   2.0000      -0.668012       -18.1775
 139   2.0000      -0.663786       -18.0625
 140   2.0000      -0.648204       -17.6385
 141   2.0000      -0.639588       -17.4041
 142   2.0000      -0.625206       -17.0127
 143   2.0000      -0.624666       -16.9980
 144   2.0000      -0.621425       -16.9098
 145   2.0000      -0.617693       -16.8083
 146   2.0000      -0.614655       -16.7256
 147   2.0000      -0.607772       -16.5383
 148   2.0000      -0.596317       -16.2266
 149   2.0000      -0.590329       -16.0637
 150   2.0000      -0.587485       -15.9863
 151   2.0000      -0.585818       -15.9409
 152   2.0000      -0.566165       -15.4061
 153   2.0000      -0.565687       -15.3931
 154   2.0000      -0.564189       -15.3524
 155   2.0000      -0.559687       -15.2299
 156   2.0000      -0.558520       -15.1981
 157   2.0000      -0.552549       -15.0356
 158   2.0000      -0.552507       -15.0345
 159   2.0000      -0.550674       -14.9846
 160   2.0000      -0.545964       -14.8564
 161   2.0000      -0.543605       -14.7923
 162   2.0000      -0.539421       -14.6784
 163   2.0000      -0.538700       -14.6588
 164   2.0000      -0.537771       -14.6335
 165   2.0000      -0.530376       -14.4323
 166   2.0000      -0.529928       -14.4201
 167   2.0000      -0.529325       -14.4037
 168   2.0000      -0.524993       -14.2858
 169   2.0000      -0.518349       -14.1050
 170   2.0000      -0.516439       -14.0530
 171   2.0000      -0.515782       -14.0351
 172   2.0000      -0.513640       -13.9769
 173   2.0000      -0.510466       -13.8905
 174   2.0000      -0.509087       -13.8530
 175   2.0000      -0.508818       -13.8456
 176   2.0000      -0.504552       -13.7296
 177   2.0000      -0.499988       -13.6054
 178   2.0000      -0.498843       -13.5742
 179   2.0000      -0.495743       -13.4899
 180   2.0000      -0.495088       -13.4720
 181   2.0000      -0.492150       -13.3921
 182   2.0000      -0.484259       -13.1774
 183   2.0000      -0.484064       -13.1721
 184   2.0000      -0.478533       -13.0216
 185   2.0000      -0.473282       -12.8786
 186   2.0000      -0.465674       -12.6716
 187   2.0000      -0.463578       -12.6146
 188   2.0000      -0.461414       -12.5557
 189   2.0000      -0.461125       -12.5478
 190   2.0000      -0.458402       -12.4737
 191   2.0000      -0.457085       -12.4379
 192   2.0000      -0.456657       -12.4263
 193   2.0000      -0.455052       -12.3826
 194   2.0000      -0.453409       -12.3379
 195   2.0000      -0.451479       -12.2854
 196   2.0000      -0.450120       -12.2484
 197   2.0000      -0.448753       -12.2112
 198   2.0000      -0.448294       -12.1987
 199   2.0000      -0.447089       -12.1659
 200   2.0000      -0.444503       -12.0955
 201   2.0000      -0.444375       -12.0920
 202   2.0000      -0.436991       -11.8911
 203   2.0000      -0.435838       -11.8597
 204   2.0000      -0.434968       -11.8361
 205   2.0000      -0.432081       -11.7575
 206   2.0000      -0.429516       -11.6877
 207   2.0000      -0.427801       -11.6411
 208   2.0000      -0.423486       -11.5236
 209   2.0000      -0.420323       -11.4376
 210   2.0000      -0.416701       -11.3390
 211   2.0000      -0.412642       -11.2286
 212   2.0000      -0.408704       -11.1214
 213   2.0000      -0.407064       -11.0768
 214   2.0000      -0.399992       -10.8843
 215   2.0000      -0.393382       -10.7045
 216   2.0000      -0.369304       -10.0493
 217   2.0000      -0.367394        -9.9973
 218   2.0000      -0.363185        -9.8828
 219   2.0000      -0.356707        -9.7065
 220   2.0000      -0.353287        -9.6134
 221   2.0000      -0.353119        -9.6089
 222   2.0000      -0.346497        -9.4287
 223   2.0000      -0.341877        -9.3030
 224   2.0000      -0.340221        -9.2579
 225   2.0000      -0.336875        -9.1668
 226   2.0000      -0.331367        -9.0170
 227   2.0000      -0.327106        -8.9010
 228   2.0000      -0.323401        -8.8002
 229   2.0000      -0.318870        -8.6769
 230   2.0000      -0.316064        -8.6005
 231   2.0000      -0.304326        -8.2811
 232   2.0000      -0.291518        -7.9326
 233   2.0000      -0.253182        -6.8894
 234   0.0000      -0.138161        -3.7596
 235   0.0000      -0.111490        -3.0338
 236   0.0000      -0.087225        -2.3735
 237   0.0000      -0.063946        -1.7401
 238   0.0000      -0.056408        -1.5349

MULLIKEN ATOMIC CHARGES
-----------------------
   0 C :    0.035388
   1 C :   -0.127472
   2 S :    0.191947
   3 C :   -0.168289
   4 Cl:    0.006389
   5 C :    0.073337
   6 C :    0.159757
   7 O :   -0.124476
   8 C :   -0.074245
   9 C :    0.273534
  10 C :   -0.301773
  11 C :   -0.192144
  12 N :    0.158743
  13 C :   -0.202722
  14 N :    0.185094
  15 C :   -0.074299
  16 C :   -0.066840
  17 S :    0.128302
  18 C :    0.039298
  19 O :   -0.148310
  20 C :    0.126836
  21 C :    0.045500
  22 C :    0.052905
  23 O :   -0.128380
  24 S :    0.066971
  25 C :   -0.184243
  26 C :    0.117686
  27 N :   -0.260876
  28 C :    0.085659
  29 C :   -0.000920
  30 C :    0.159280
  31 O :   -0.179267
  32 C :   -0.063060
  33 C :   -0.000315
  34 C :    0.160337
  35 O :   -0.166254
  36 N :   -0.270604
  37 C :    0.096807
  38 C :   -0.003381
  39 C :    0.126329
  40 C :   -0.007825
  41 C :   -0.099901
  42 C :    0.056218
  43 C :    0.020019
  44 C :    0.030605
  45 C :    0.060402
  46 C :   -0.063869
  47 C :   -0.124244
  48 C :    0.131527
  49 O :   -0.124543
  50 C :    0.086374
  51 C :   -0.169442
  52 S :    0.188754
  53 C :   -0.129842
  54 C :    0.021418
  55 C :    0.288451
  56 C :   -0.311436
  57 C :   -0.193186
  58 N :    0.158419
  59 C :   -0.198970
  60 N :    0.189746
  61 Cl:    0.002238
  62 H :    0.055955
  63 H :    0.046880
  64 H :    0.036933
  65 H :    0.050170
  66 H :    0.026323
  67 H :    0.030119
  68 H :    0.029045
  69 H :    0.026980
  70 H :    0.047927
  71 H :    0.019640
  72 H :    0.027684
  73 H :    0.042472
  74 H :    0.039225
  75 H :    0.044529
  76 H :    0.058500
  77 H :    0.054477
Sum of atomic charges:   -0.0000000

LOEWDIN ATOMIC CHARGES
----------------------
   0 C :   -0.058083
   1 C :   -0.148543
   2 S :    0.481348
   3 C :   -0.270571
   4 Cl:    0.197513
   5 C :   -0.117782
   6 C :    0.078846
   7 O :   -0.127059
   8 C :   -0.058250
   9 C :    0.067160
  10 C :   -0.118978
  11 C :   -0.014188
  12 N :   -0.043040
  13 C :   -0.030270
  14 N :   -0.025621
  15 C :    0.040934
  16 C :   -0.111690
  17 S :    0.411745
  18 C :   -0.047102
  19 O :   -0.134206
  20 C :   -0.111553
  21 C :   -0.110050
  22 C :   -0.032714
  23 O :   -0.121110
  24 S :    0.352347
  25 C :   -0.110628
  26 C :    0.045012
  27 N :   -0.002416
  28 C :    0.029903
  29 C :   -0.060776
  30 C :    0.080899
  31 O :   -0.182667
  32 C :   -0.106156
  33 C :   -0.076706
  34 C :    0.092434
  35 O :   -0.154923
  36 N :    0.001405
  37 C :    0.034929
  38 C :   -0.062140
  39 C :    0.083477
  40 C :    0.008303
  41 C :   -0.018593
  42 C :    0.027208
  43 C :   -0.027688
  44 C :    0.010247
  45 C :   -0.007744
  46 C :    0.044243
  47 C :   -0.059258
  48 C :    0.079763
  49 O :   -0.128146
  50 C :   -0.119654
  51 C :   -0.270431
  52 S :    0.477670
  53 C :   -0.151120
  54 C :   -0.056309
  55 C :    0.064238
  56 C :   -0.118501
  57 C :   -0.013801
  58 N :   -0.043661
  59 C :   -0.019986
  60 N :   -0.033019
  61 Cl:    0.194162
  62 H :    0.038755
  63 H :    0.053807
  64 H :    0.014838
  65 H :    0.039732
  66 H :    0.022040
  67 H :    0.034377
  68 H :    0.031469
  69 H :    0.023290
  70 H :    0.039793
  71 H :    0.021374
  72 H :    0.032581
  73 H :    0.038560
  74 H :    0.058379
  75 H :    0.048875
  76 H :    0.065483
  77 H :    0.037991

  Mayer bond orders larger than 0.100000
B(  0-C ,  1-C ) :   1.5478 B(  0-C ,  5-C ) :   1.2231 B(  0-C ,  9-C ) :   1.0003
B(  1-C ,  2-S ) :   1.1608 B(  1-C , 62-H ) :   0.9549 B(  2-S ,  3-C ) :   1.1561
B(  3-C ,  4-Cl) :   1.1340 B(  3-C ,  5-C ) :   1.4728 B(  5-C ,  6-C ) :   0.9584
B(  6-C ,  7-O ) :   2.2201 B(  6-C ,  8-C ) :   0.9261 B(  8-C ,  9-C ) :   1.0533
B(  8-C , 15-C ) :   1.6106 B(  9-C , 10-C ) :   1.6752 B( 10-C , 11-C ) :   1.1442
B( 10-C , 13-C ) :   1.1287 B( 11-C , 12-N ) :   2.9922 B( 13-C , 14-N ) :   3.0078
B( 15-C , 16-C ) :   1.2008 B( 15-C , 63-H ) :   0.9361 B( 16-C , 17-S ) :   1.1175
B( 16-C , 21-C ) :   1.4237 B( 17-S , 18-C ) :   0.9736 B( 17-S , 19-O ) :   0.1001
B( 18-C , 19-O ) :   2.1561 B( 18-C , 20-C ) :   0.9112 B( 20-C , 21-C ) :   1.1754
B( 20-C , 25-C ) :   1.4670 B( 21-C , 22-C ) :   0.9493 B( 22-C , 23-O ) :   2.1425
B( 22-C , 24-S ) :   0.9716 B( 23-O , 24-S ) :   0.1061 B( 24-S , 25-C ) :   1.0902
B( 25-C , 26-C ) :   1.1470 B( 26-C , 27-N ) :   1.1923 B( 26-C , 33-C ) :   1.3869
B( 27-N , 28-C ) :   0.9386 B( 27-N , 30-C ) :   1.0278 B( 28-C , 29-C ) :   1.1171
B( 28-C , 64-H ) :   0.9453 B( 28-C , 65-H ) :   0.9259 B( 29-C , 66-H ) :   0.9667
B( 29-C , 67-H ) :   0.9672 B( 29-C , 68-H ) :   0.9643 B( 30-C , 31-O ) :   2.1414
B( 30-C , 32-C ) :   0.9739 B( 32-C , 33-C ) :   1.2762 B( 32-C , 39-C ) :   1.3220
B( 33-C , 34-C ) :   0.9527 B( 34-C , 35-O ) :   2.1341 B( 34-C , 36-N ) :   1.0271
B( 36-N , 37-C ) :   0.9391 B( 36-N , 39-C ) :   1.1848 B( 37-C , 38-C ) :   1.1155
B( 37-C , 69-H ) :   0.9495 B( 37-C , 70-H ) :   0.9235 B( 38-C , 71-H ) :   0.9676
B( 38-C , 72-H ) :   0.9689 B( 38-C , 73-H ) :   0.9602 B( 39-C , 40-C ) :   1.1867
B( 40-C , 41-C ) :   1.6175 B( 40-C , 74-H ) :   0.9489 B( 41-C , 42-C ) :   1.0244
B( 41-C , 75-H ) :   0.9493 B( 42-C , 43-C ) :   2.1122 B( 42-C , 45-C ) :   0.1728
B( 43-C , 44-C ) :   0.8885 B( 44-C , 45-C ) :   2.0794 B( 45-C , 46-C ) :   0.9423
B( 46-C , 47-C ) :   1.6947 B( 46-C , 76-H ) :   0.9455 B( 47-C , 48-C ) :   0.9341
B( 47-C , 55-C ) :   1.0324 B( 48-C , 49-O ) :   2.2780 B( 48-C , 50-C ) :   0.9306
B( 50-C , 51-C ) :   1.4800 B( 50-C , 54-C ) :   1.2221 B( 51-C , 52-S ) :   1.1540
B( 51-C , 61-Cl) :   1.1311 B( 52-S , 53-C ) :   1.1588 B( 53-C , 54-C ) :   1.5524
B( 53-C , 77-H ) :   0.9542 B( 54-C , 55-C ) :   1.0118 B( 55-C , 56-C ) :   1.6610
B( 56-C , 57-C ) :   1.1369 B( 56-C , 59-C ) :   1.1644 B( 57-C , 58-N ) :   2.9938
B( 59-C , 60-N ) :   2.9927

-----------------------------------------------------------------------------
         ABSORPTION SPECTRUM VIA TRANSITION ELECTRIC DIPOLE MOMENTS
-----------------------------------------------------------------------------
State   Energy  Wavelength   fosc         T2         TX        TY        TZ
        (cm-1)    (nm)                  (au**2)     (au)      (au)      (au)
-----------------------------------------------------------------------------
   0   10003.5    999.7   0.789288198  25.97529   1.67068   0.94394   4.72156
   1   16991.7    588.5   0.096540230   1.87045   1.32259  -0.27068  -0.21895
   2   17562.0    569.4   0.146631835   2.74872  -0.72649  -0.52734  -1.39386
   3   18845.4    530.6   0.072088590   1.25932   0.00548   0.22913   1.09854
   4   21667.4    461.5   0.253978662   3.85892   0.96570  -0.16307  -1.70287
   5   22617.2    442.1   0.008093030   0.11780  -0.24017   0.20108   0.14030
   6   23164.2    431.7   0.289101344   4.10874   0.04528   0.53668   1.95414
   7   23418.3    427.0   0.011252881   0.15819   0.37459  -0.09319   0.09588
   8   23629.3    423.2   0.030398697   0.42353  -0.35739  -0.01946  -0.54353
   9   23888.8    418.6   0.006366005   0.08773  -0.06395  -0.08952  -0.27500
  10   24569.9    407.0   0.002256822   0.03024  -0.15315  -0.05497  -0.06135
  11   25099.5    398.4   0.003706572   0.04862  -0.13946  -0.14637  -0.08800
  12   26109.9    383.0   0.045941265   0.57926   0.41171   0.03189  -0.63932
  13   26604.6    375.9   0.008668091   0.10726  -0.14046   0.19167  -0.22538
  14   26866.4    372.2   0.055088668   0.67504  -0.17554  -0.01361   0.80252
  15   27345.7    365.7   0.320150564   3.85426   1.63688  -0.47525   0.97418
  16   28300.5    353.4   0.048610739   0.56548  -0.58653  -0.00809  -0.47053
  17   28426.4    351.8   0.020958768   0.24273  -0.21730   0.39335   0.20196
  18   28499.7    350.9   0.010017967   0.11572   0.27000  -0.00287   0.20692
  19   28568.8    350.0   0.002031627   0.02341   0.07094  -0.10178  -0.08954
  20   29210.5    342.3   0.033615483   0.37886  -0.06635   0.07278   0.60759
  21   30223.8    330.9   0.069325564   0.75513   0.15370   0.17005   0.83820
  22   31193.6    320.6   0.036600633   0.38628  -0.13370   0.17280   0.58184
  23   31275.8    319.7   0.207589689   2.18511  -0.22418   0.25446  -1.43879
  24   31591.6    316.5   0.039296998   0.40951  -0.14494   0.08372  -0.61765
  25   31692.0    315.5   0.065720528   0.68270  -0.38390   0.17130  -0.71132
  26   32039.7    312.1   0.446938492   4.59235  -0.38617  -0.02685   2.10773
  27   32864.8    304.3   0.074784754   0.74913   0.39304  -0.07850   0.76713
  28   33236.1    300.9   0.103170470   1.02193  -0.57605   0.06796   0.82794
  29   33507.8    298.4   0.075096420   0.73782   0.00944   0.00557   0.85889
  30   33892.6    295.0   0.101205198   0.98305   0.27714  -0.21168   0.92813
  31   34054.0    293.7   0.028663399   0.27710   0.28358   0.04119  -0.44157
  32   34291.9    291.6   0.028188507   0.27062  -0.47283   0.10160   0.19164
  33   34866.7    286.8   0.025007638   0.23612   0.34185  -0.05228  -0.34136
  34   35044.2    285.4   0.102419826   0.96215  -0.96884   0.06667   0.13807
  35   35530.5    281.4   0.076086889   0.70499  -0.29516   0.29861  -0.72712
  36   35730.0    279.9   0.022843919   0.21048  -0.20010   0.26646  -0.31535
  37   36164.2    276.5   0.063655865   0.57948  -0.45563   0.21229   0.57167
  38   36755.7    272.1   0.042951674   0.38471  -0.14086   0.15853  -0.58287
  39   36990.9    270.3   0.195463741   1.73959   0.88470   0.03476  -0.97760
  40   37291.6    268.2   0.055410130   0.48916   0.56050   0.03806  -0.41660
  41   37352.1    267.7   0.086878911   0.76573   0.86878   0.09964  -0.03207
  42   37507.6    266.6   0.051307556   0.45034   0.20977  -0.09064   0.63097
  43   37617.9    265.8   0.165771049   1.45074   0.95239   0.01546  -0.73719
  44   37814.9    264.4   0.201397654   1.75334  -0.64782   0.35836  -1.09784
  45   38143.6    262.2   0.112088071   0.96742  -0.00980  -0.11996   0.97618
  46   38439.5    260.1   0.196191631   1.68027  -0.29013   0.36404  -1.20978
  47   38488.8    259.8   0.143418015   1.22672  -0.17606   0.16917  -1.08033
  48   38608.2    259.0   0.000918082   0.00783   0.01592  -0.06540  -0.05743
  49   39001.5    256.4   0.032567841   0.27491  -0.26325  -0.02701  -0.45263
  50   39424.9    253.6   0.053654789   0.44804  -0.65933  -0.09272  -0.06873
  51   39920.6    250.5   0.012957273   0.10685  -0.21104  -0.20804  -0.13798
  52   40015.9    249.9   0.086159070   0.70883   0.76854  -0.08256   0.33370

FINAL SINGLE POINT ENERGY     -4975.261026246115

DIPOLE MOMENT
-------------
                                X             Y             Z
Electronic contribution:      9.34600       5.94517       1.47007
Nuclear contribution   :     -7.40168      -6.44089      -0.79831
                        -----------------------------------------
Total Dipole Moment    :      1.94432      -0.49572       0.67176
                        -----------------------------------------
Magnitude (a.u.)       :      2.11598
Magnitude (Debye)      :      5.37839

Rotational constants in cm-1:     0.003251     0.000242     0.000229
Rotational constants in MHz :    97.455200     7.257115     6.873493

                             ****ORCA TERMINATED NORMALLY****
TOTAL RUN TIME: 0 days 0 hours 9 minutes 16 seconds 116 msec
