                         Program Version 4.2.0 -  RELEASE  -
|  1> # ORCA input file
|  2> # SCF done       -135.075931191111          0.000387837341
|  3> ! CAM-B3LYP def2-SVP def2/J RIJCOSX Grid4 TightSCF
|  4> %maxcore 5000
|  5> %tddft
|  6>     Mode sTDDFT
|  7>     Ethresh 5.0
|  8>     maxcore 5000
|  9> end
| 10>
| 11> %pal
| 12>   nprocs 6
| 13>   end
| 14> * xyz 0 1
| 15>    C        0.23773        -6.61112        -2.83450
| 16>    C       -0.68266        -7.25190        -3.60414
| 17>    S       -2.25706        -6.57828        -3.38577
| 18>    C       -1.66374        -5.40585        -2.23168
| 19>   Cl       -2.70322        -4.28477        -1.50174
| 20>    C       -0.32245        -5.55499        -2.04886
| 21>    C        0.72784        -4.91535        -1.24793
| 22>    O        0.58636        -3.98412        -0.48445
| 23>    C        1.97052        -5.66280        -1.57900
| 24>    C        1.66140        -6.68456        -2.56927
| 25>    C        2.50583        -7.57047        -3.18958
| 26>    C        2.02057        -8.49888        -4.13488
| 27>    N        1.64902        -9.26363        -4.90554
| 28>    C        3.89743        -7.68701        -3.00741
| 29>    N        5.03266        -7.84103        -2.91745
| 30>    C        3.22710        -5.50149        -1.05400
| 31>    C        3.74779        -4.59739        -0.11313
| 32>    C        3.21911        -3.52083         0.58872
| 33>    C        4.12699        -2.89748         1.42500
| 34>    C        5.39473        -3.46976         1.40282
| 35>    S        5.44127        -4.81141         0.30464
| 36>    C        6.52941        -3.07868         2.13938
| 37>    S        6.48620        -1.72227         3.24712
| 38>    C        8.15727        -1.90327         3.71897
| 39>    C        8.72433        -2.98033         3.03619
| 40>    C        7.80590        -3.62585         2.15730
| 41>    N        8.44886        -4.65081         1.54565
| 42>    C        9.74944        -4.67725         2.00901
| 43>    C       10.67420        -5.63401         1.56427
| 44>    N       11.43608        -6.41432         1.20958
| 45>    C        9.95493        -3.66711         2.92501
| 46>    C        8.74585        -1.02763         4.64954
| 47>    C        8.14301         0.04420         5.29818
| 48>    C        9.00822         0.74741         6.11574
| 49>    C       10.29855         0.23091         6.14006
| 50>    S       10.40818        -1.17782         5.11985
| 51>    C       11.41713         0.62686         6.90163
| 52>    C       11.67238         1.82272         7.50759
| 53>    C       12.67434         1.85628         8.61816
| 54>    O       13.43603         0.97053         8.92403
| 55>    C       12.47214         3.16458         9.25319
| 56>    C       12.94904         3.83857        10.33673
| 57>    S       12.20013         5.41449        10.45694
| 58>    C       11.26148         5.14686         9.03216
| 59>    C       11.50607         3.91745         8.50762
| 60>    C       11.09623         3.14099         7.35099
| 61>    C       10.48997         3.67327         6.24099
| 62>    C       10.03614         5.00729         6.21964
| 63>    N        9.63882         6.08356         6.19712
| 64>    C       10.33470         2.99605         5.01808
| 65>    N       10.22041         2.49056         3.99359
| 66>   Cl       14.09980         3.32231        11.46743
| 67>    H       -0.55416        -8.07121        -4.28296
| 68>    H        3.97198        -6.19986        -1.41762
| 69>    H        2.19375        -3.21934         0.47727
| 70>    H        3.89721        -2.04832         2.04402
| 71>    H        8.06184        -5.28719         0.86816
| 72>    H       10.87011        -3.45717         3.43974
| 73>    H        7.10655         0.29266         5.15441
| 74>    H        8.70622         1.58504         6.71895
| 75>    H       12.15577        -0.14455         7.09922
| 76>    H       10.59209         5.91160         8.69134
| 77> *
| 78>
| 79>                          ****END OF INPUT****

CARTESIAN COORDINATES (ANGSTROEM)
---------------------------------
  C      0.237730   -6.611120   -2.834500
  C     -0.682660   -7.251900   -3.604140
  S     -2.257060   -6.578280   -3.385770
  C     -1.663740   -5.405850   -2.231680
  Cl    -2.703220   -4.284770   -1.501740
  C     -0.322450   -5.554990   -2.048860
  C      0.727840   -4.915350   -1.247930
  O      0.586360   -3.984120   -0.484450
  C      1.970520   -5.662800   -1.579000
  C      1.661400   -6.684560   -2.569270
  C      2.505830   -7.570470   -3.189580
  C      2.020570   -8.498880   -4.134880
  N      1.649020   -9.263630   -4.905540
  C      3.897430   -7.687010   -3.007410
  N      5.032660   -7.841030   -2.917450
  C      3.227100   -5.501490   -1.054000
  C      3.747790   -4.597390   -0.113130
  C      3.219110   -3.520830    0.588720
  C      4.126990   -2.897480    1.425000
  C      5.394730   -3.469760    1.402820
  S      5.441270   -4.811410    0.304640
  C      6.529410   -3.078680    2.139380
  S      6.486200   -1.722270    3.247120
  C      8.157270   -1.903270    3.718970
  C      8.724330   -2.980330    3.036190
  C      7.805900   -3.625850    2.157300
  N      8.448860   -4.650810    1.545650
  C      9.749440   -4.677250    2.009010
  C     10.674200   -5.634010    1.564270
  N     11.436080   -6.414320    1.209580
  C      9.954930   -3.667110    2.925010
  C      8.745850   -1.027630    4.649540
  C      8.143010    0.044200    5.298180
  C      9.008220    0.747410    6.115740
  C     10.298550    0.230910    6.140060
  S     10.408180   -1.177820    5.119850
  C     11.417130    0.626860    6.901630
  C     11.672380    1.822720    7.507590
  C     12.674340    1.856280    8.618160
  O     13.436030    0.970530    8.924030
  C     12.472140    3.164580    9.253190
  C     12.949040    3.838570   10.336730
  S     12.200130    5.414490   10.456940
  C     11.261480    5.146860    9.032160
  C     11.506070    3.917450    8.507620
  C     11.096230    3.140990    7.350990
  C     10.489970    3.673270    6.240990
  C     10.036140    5.007290    6.219640
  N      9.638820    6.083560    6.197120
  C     10.334700    2.996050    5.018080
  N     10.220410    2.490560    3.993590
  Cl    14.099800    3.322310   11.467430
  H     -0.554160   -8.071210   -4.282960
  H      3.971980   -6.199860   -1.417620
  H      2.193750   -3.219340    0.477270
  H      3.897210   -2.048320    2.044020
  H      8.061840   -5.287190    0.868160
  H     10.870110   -3.457170    3.439740
  H      7.106550    0.292660    5.154410
  H      8.706220    1.585040    6.718950
  H     12.155770   -0.144550    7.099220
  H     10.592090    5.911600    8.691340

 Total Charge           Charge          ....    0
 Multiplicity           Mult            ....    1
 Number of Electrons    NEL             ....  404
 Basis Dimension        Dim             ....  806

ORBITAL ENERGIES
----------------

  NO   OCC          E(Eh)            E(eV)
   0   2.0000    -101.618400     -2765.1772
   1   2.0000    -101.616201     -2765.1174
   2   2.0000     -88.993955     -2421.6486
   3   2.0000     -88.993023     -2421.6233
   4   2.0000     -88.990798     -2421.5627
   5   2.0000     -88.985846     -2421.4280
   6   2.0000     -88.985440     -2421.4169
   7   2.0000     -19.222046      -523.0585
   8   2.0000     -19.220030      -523.0036
   9   2.0000     -14.499113      -394.5409
  10   2.0000     -14.429649      -392.6507
  11   2.0000     -14.422597      -392.4588
  12   2.0000     -14.422376      -392.4528
  13   2.0000     -14.420818      -392.4104
  14   2.0000     -14.415737      -392.2722
  15   2.0000     -10.378743      -282.4200
  16   2.0000     -10.377204      -282.3781
  17   2.0000     -10.376926      -282.3705
  18   2.0000     -10.373995      -282.2907
  19   2.0000     -10.368295      -282.1357
  20   2.0000     -10.352044      -281.6934
  21   2.0000     -10.349588      -281.6266
  22   2.0000     -10.348762      -281.6041
  23   2.0000     -10.347101      -281.5589
  24   2.0000     -10.346874      -281.5528
  25   2.0000     -10.345120      -281.5050
  26   2.0000     -10.342915      -281.4450
  27   2.0000     -10.342380      -281.4305
  28   2.0000     -10.339289      -281.3463
  29   2.0000     -10.330587      -281.1096
  30   2.0000     -10.330549      -281.1085
  31   2.0000     -10.329667      -281.0845
  32   2.0000     -10.329262      -281.0735
  33   2.0000     -10.327965      -281.0382
  34   2.0000     -10.327297      -281.0200
  35   2.0000     -10.326709      -281.0040
  36   2.0000     -10.324887      -280.9545
  37   2.0000     -10.323896      -280.9275
  38   2.0000     -10.323422      -280.9146
  39   2.0000     -10.318713      -280.7865
  40   2.0000     -10.314541      -280.6729
  41   2.0000     -10.311496      -280.5901
  42   2.0000     -10.309873      -280.5459
  43   2.0000     -10.309489      -280.5355
  44   2.0000     -10.309042      -280.5233
  45   2.0000     -10.307285      -280.4755
  46   2.0000     -10.305451      -280.4256
  47   2.0000     -10.302773      -280.3527
  48   2.0000     -10.301502      -280.3181
  49   2.0000     -10.299206      -280.2556
  50   2.0000     -10.298179      -280.2277
  51   2.0000     -10.297501      -280.2092
  52   2.0000      -9.573161      -260.4990
  53   2.0000      -9.570963      -260.4391
  54   2.0000      -8.089724      -220.1326
  55   2.0000      -8.087355      -220.0681
  56   2.0000      -8.086608      -220.0478
  57   2.0000      -8.081242      -219.9018
  58   2.0000      -8.081046      -219.8964
  59   2.0000      -7.343811      -199.8353
  60   2.0000      -7.341573      -199.7744
  61   2.0000      -7.333194      -199.5464
  62   2.0000      -7.332655      -199.5317
  63   2.0000      -7.331002      -199.4867
  64   2.0000      -7.330501      -199.4731
  65   2.0000      -6.059124      -164.8771
  66   2.0000      -6.056891      -164.8164
  67   2.0000      -6.056024      -164.7928
  68   2.0000      -6.054529      -164.7521
  69   2.0000      -6.052650      -164.7010
  70   2.0000      -6.051908      -164.6808
  71   2.0000      -6.051392      -164.6667
  72   2.0000      -6.050565      -164.6443
  73   2.0000      -6.050359      -164.6386
  74   2.0000      -6.049231      -164.6080
  75   2.0000      -6.048796      -164.5961
  76   2.0000      -6.046390      -164.5306
  77   2.0000      -6.046332      -164.5291
  78   2.0000      -6.043319      -164.4471
  79   2.0000      -6.043024      -164.4391
  80   2.0000      -1.138341       -30.9758
  81   2.0000      -1.137234       -30.9457
  82   2.0000      -1.122726       -30.5509
  83   2.0000      -1.039629       -28.2897
  84   2.0000      -1.036277       -28.1985
  85   2.0000      -1.025987       -27.9185
  86   2.0000      -1.020023       -27.7562
  87   2.0000      -1.016622       -27.6637
  88   2.0000      -1.013992       -27.5921
  89   2.0000      -1.009367       -27.4663
  90   2.0000      -1.001016       -27.2390
  91   2.0000      -0.997203       -27.1353
  92   2.0000      -0.994156       -27.0524
  93   2.0000      -0.988946       -26.9106
  94   2.0000      -0.985868       -26.8268
  95   2.0000      -0.955901       -26.0114
  96   2.0000      -0.953095       -25.9350
  97   2.0000      -0.929947       -25.3051
  98   2.0000      -0.914399       -24.8821
  99   2.0000      -0.907803       -24.7026
 100   2.0000      -0.902951       -24.5706
 101   2.0000      -0.897004       -24.4087
 102   2.0000      -0.876075       -23.8392
 103   2.0000      -0.869949       -23.6725
 104   2.0000      -0.859992       -23.4016
 105   2.0000      -0.856557       -23.3081
 106   2.0000      -0.839866       -22.8539
 107   2.0000      -0.833961       -22.6932
 108   2.0000      -0.830534       -22.6000
 109   2.0000      -0.811795       -22.0901
 110   2.0000      -0.786884       -21.4122
 111   2.0000      -0.772797       -21.0289
 112   2.0000      -0.765823       -20.8391
 113   2.0000      -0.754220       -20.5234
 114   2.0000      -0.753915       -20.5151
 115   2.0000      -0.730389       -19.8749
 116   2.0000      -0.713027       -19.4025
 117   2.0000      -0.710692       -19.3389
 118   2.0000      -0.703180       -19.1345
 119   2.0000      -0.689352       -18.7582
 120   2.0000      -0.682213       -18.5640
 121   2.0000      -0.679758       -18.4971
 122   2.0000      -0.677110       -18.4251
 123   2.0000      -0.675318       -18.3763
 124   2.0000      -0.650705       -17.7066
 125   2.0000      -0.643076       -17.4990
 126   2.0000      -0.634356       -17.2617
 127   2.0000      -0.625604       -17.0235
 128   2.0000      -0.621383       -16.9087
 129   2.0000      -0.615792       -16.7565
 130   2.0000      -0.611100       -16.6289
 131   2.0000      -0.607644       -16.5348
 132   2.0000      -0.596176       -16.2228
 133   2.0000      -0.589974       -16.0540
 134   2.0000      -0.579982       -15.7821
 135   2.0000      -0.572793       -15.5865
 136   2.0000      -0.569259       -15.4903
 137   2.0000      -0.560592       -15.2545
 138   2.0000      -0.551297       -15.0016
 139   2.0000      -0.549351       -14.9486
 140   2.0000      -0.548728       -14.9317
 141   2.0000      -0.545345       -14.8396
 142   2.0000      -0.540265       -14.7014
 143   2.0000      -0.535224       -14.5642
 144   2.0000      -0.531746       -14.4696
 145   2.0000      -0.530757       -14.4426
 146   2.0000      -0.524246       -14.2655
 147   2.0000      -0.521693       -14.1960
 148   2.0000      -0.519801       -14.1445
 149   2.0000      -0.513219       -13.9654
 150   2.0000      -0.512625       -13.9492
 151   2.0000      -0.510066       -13.8796
 152   2.0000      -0.504176       -13.7193
 153   2.0000      -0.503714       -13.7068
 154   2.0000      -0.501003       -13.6330
 155   2.0000      -0.498241       -13.5578
 156   2.0000      -0.492431       -13.3997
 157   2.0000      -0.489771       -13.3273
 158   2.0000      -0.488141       -13.2830
 159   2.0000      -0.483642       -13.1606
 160   2.0000      -0.480401       -13.0724
 161   2.0000      -0.475547       -12.9403
 162   2.0000      -0.467830       -12.7303
 163   2.0000      -0.458297       -12.4709
 164   2.0000      -0.456669       -12.4266
 165   2.0000      -0.455756       -12.4017
 166   2.0000      -0.454351       -12.3635
 167   2.0000      -0.451962       -12.2985
 168   2.0000      -0.451440       -12.2843
 169   2.0000      -0.449306       -12.2262
 170   2.0000      -0.448483       -12.2038
 171   2.0000      -0.446686       -12.1549
 172   2.0000      -0.444169       -12.0865
 173   2.0000      -0.443707       -12.0739
 174   2.0000      -0.443455       -12.0670
 175   2.0000      -0.438960       -11.9447
 176   2.0000      -0.436139       -11.8679
 177   2.0000      -0.434508       -11.8236
 178   2.0000      -0.433941       -11.8081
 179   2.0000      -0.431299       -11.7362
 180   2.0000      -0.429244       -11.6803
 181   2.0000      -0.428587       -11.6625
 182   2.0000      -0.418733       -11.3943
 183   2.0000      -0.413624       -11.2553
 184   2.0000      -0.412049       -11.2124
 185   2.0000      -0.404835       -11.0161
 186   2.0000      -0.402024       -10.9396
 187   2.0000      -0.401829       -10.9343
 188   2.0000      -0.378682       -10.3045
 189   2.0000      -0.373575       -10.1655
 190   2.0000      -0.352284        -9.5861
 191   2.0000      -0.350160        -9.5283
 192   2.0000      -0.345611        -9.4046
 193   2.0000      -0.343649        -9.3512
 194   2.0000      -0.340536        -9.2664
 195   2.0000      -0.336026        -9.1437
 196   2.0000      -0.332416        -9.0455
 197   2.0000      -0.324896        -8.8409
 198   2.0000      -0.317825        -8.6485
 199   2.0000      -0.311045        -8.4640
 200   2.0000      -0.296630        -8.0717
 201   2.0000      -0.250947        -6.8286
 202   0.0000      -0.117762        -3.2045
 203   0.0000      -0.092303        -2.5117
 204   0.0000      -0.067388        -1.8337
 205   0.0000      -0.051311        -1.3962
 206   0.0000      -0.046634        -1.2690

MULLIKEN ATOMIC CHARGES
-----------------------
   0 C :    0.028036
   1 C :   -0.130175
   2 S :    0.182552
   3 C :   -0.174855
   4 Cl:   -0.004935
   5 C :    0.082853
   6 C :    0.159664
   7 O :   -0.150476
   8 C :   -0.113271
   9 C :    0.301645
  10 C :   -0.351641
  11 C :   -0.192293
  12 N :    0.148020
  13 C :   -0.173339
  14 N :    0.145504
  15 C :    0.055915
  16 C :   -0.099441
  17 C :    0.050364
  18 C :   -0.022088
  19 C :   -0.036988
  20 S :    0.104448
  21 C :   -0.129069
  22 S :    0.168436
  23 C :   -0.072212
  24 C :    0.072505
  25 C :    0.093147
  26 N :   -0.030824
  27 C :   -0.086899
  28 C :   -0.144486
  29 N :    0.176289
  30 C :   -0.025099
  31 C :   -0.046920
  32 C :   -0.019883
  33 C :    0.071089
  34 C :   -0.108176
  35 S :    0.155983
  36 C :    0.094673
  37 C :   -0.157788
  38 C :    0.133002
  39 O :   -0.132093
  40 C :    0.093785
  41 C :   -0.172481
  42 S :    0.182825
  43 C :   -0.132960
  44 C :    0.016537
  45 C :    0.266498
  46 C :   -0.332756
  47 C :   -0.183002
  48 N :    0.157084
  49 C :   -0.204431
  50 N :    0.177959
  51 Cl:   -0.000737
  52 H :    0.054535
  53 H :   -0.002891
  54 H :    0.025544
  55 H :   -0.001080
  56 H :    0.141275
  57 H :    0.000654
  58 H :    0.002005
  59 H :    0.008496
  60 H :    0.029104
  61 H :    0.052867
Sum of atomic charges:    0.0000000

LOEWDIN ATOMIC CHARGES
----------------------
   0 C :   -0.059723
   1 C :   -0.148494
   2 S :    0.470826
   3 C :   -0.273860
   4 Cl:    0.188087
   5 C :   -0.115523
   6 C :    0.084798
   7 O :   -0.141157
   8 C :   -0.100605
   9 C :    0.076984
  10 C :   -0.147893
  11 C :   -0.014980
  12 N :   -0.057614
  13 C :   -0.024068
  14 N :   -0.055677
  15 C :    0.044623
  16 C :   -0.180897
  17 C :    0.006480
  18 C :   -0.067111
  19 C :   -0.151553
  20 S :    0.435186
  21 C :   -0.220829
  22 S :    0.474359
  23 C :   -0.173196
  24 C :   -0.065509
  25 C :    0.001969
  26 N :    0.078012
  27 C :   -0.015659
  28 C :   -0.045139
  29 N :   -0.023282
  30 C :   -0.032111
  31 C :   -0.160129
  32 C :   -0.049053
  33 C :   -0.006251
  34 C :   -0.182551
  35 S :    0.472387
  36 C :    0.049013
  37 C :   -0.093790
  38 C :    0.079490
  39 O :   -0.136436
  40 C :   -0.117836
  41 C :   -0.272223
  42 S :    0.471347
  43 C :   -0.152943
  44 C :   -0.057536
  45 C :    0.064796
  46 C :   -0.143288
  47 C :   -0.018881
  48 N :   -0.052467
  49 C :   -0.020703
  50 N :   -0.040701
  51 Cl:    0.191564
  52 H :    0.037466
  53 H :    0.042276
  54 H :    0.039624
  55 H :    0.031276
  56 H :    0.089683
  57 H :    0.033861
  58 H :    0.032158
  59 H :    0.038216
  60 H :    0.047789
  61 H :    0.037398

  Mayer bond orders larger than 0.100000
B(  0-C ,  1-C ) :   1.5493 B(  0-C ,  5-C ) :   1.2236 B(  0-C ,  9-C ) :   0.9873
B(  1-C ,  2-S ) :   1.1592 B(  1-C , 52-H ) :   0.9536 B(  2-S ,  3-C ) :   1.1465
B(  3-C ,  4-Cl) :   1.1234 B(  3-C ,  5-C ) :   1.4786 B(  5-C ,  6-C ) :   0.9619
B(  6-C ,  7-O ) :   2.1744 B(  6-C ,  8-C ) :   0.9400 B(  8-C ,  9-C ) :   1.1017
B(  8-C , 15-C ) :   1.5813 B(  9-C , 10-C ) :   1.6200 B( 10-C , 11-C ) :   1.1537
B( 10-C , 13-C ) :   1.1390 B( 11-C , 12-N ) :   2.9849 B( 13-C , 14-N ) :   2.9543
B( 15-C , 16-C ) :   1.2430 B( 15-C , 53-H ) :   0.9043 B( 16-C , 17-C ) :   1.4139
B( 16-C , 20-S ) :   1.0782 B( 17-C , 18-C ) :   1.3213 B( 17-C , 54-H ) :   0.9734
B( 18-C , 19-C ) :   1.3931 B( 18-C , 55-H ) :   0.9971 B( 19-C , 20-S ) :   1.1459
B( 19-C , 21-C ) :   1.2193 B( 21-C , 22-S ) :   1.1018 B( 21-C , 23-C ) :   0.1079
B( 21-C , 25-C ) :   1.3778 B( 22-S , 23-C ) :   1.1412 B( 23-C , 24-C ) :   1.3243
B( 23-C , 31-C ) :   1.2107 B( 24-C , 25-C ) :   1.2373 B( 24-C , 30-C ) :   1.1762
B( 25-C , 26-N ) :   1.1990 B( 26-N , 27-C ) :   1.1972 B( 26-N , 56-H ) :   0.9258
B( 27-C , 28-C ) :   1.0523 B( 27-C , 30-C ) :   1.5945 B( 28-C , 29-N ) :   3.0543
B( 30-C , 57-H ) :   1.0053 B( 31-C , 32-C ) :   1.4145 B( 31-C , 35-S ) :   1.1546
B( 32-C , 33-C ) :   1.3497 B( 32-C , 58-H ) :   0.9922 B( 33-C , 34-C ) :   1.4160
B( 33-C , 59-H ) :   0.9886 B( 34-C , 35-S ) :   1.1048 B( 34-C , 36-C ) :   1.1414
B( 36-C , 37-C ) :   1.6606 B( 36-C , 60-H ) :   0.9265 B( 37-C , 38-C ) :   0.9432
B( 37-C , 45-C ) :   1.0541 B( 38-C , 39-O ) :   2.2731 B( 38-C , 40-C ) :   0.9249
B( 40-C , 41-C ) :   1.4863 B( 40-C , 44-C ) :   1.2233 B( 41-C , 42-S ) :   1.1485
B( 41-C , 51-Cl) :   1.1287 B( 42-S , 43-C ) :   1.1568 B( 43-C , 44-C ) :   1.5527
B( 43-C , 61-H ) :   0.9571 B( 44-C , 45-C ) :   1.0064 B( 45-C , 46-C ) :   1.6462
B( 46-C , 47-C ) :   1.1339 B( 46-C , 49-C ) :   1.1649 B( 47-C , 48-N ) :   2.9988
B( 49-C , 50-N ) :   3.0029

-----------------------------------------------------------------------------
         ABSORPTION SPECTRUM VIA TRANSITION ELECTRIC DIPOLE MOMENTS
-----------------------------------------------------------------------------
State   Energy  Wavelength   fosc         T2         TX        TY        TZ
        (cm-1)    (nm)                  (au**2)     (au)      (au)      (au)
-----------------------------------------------------------------------------
   0   14277.6    700.4   1.872775425  43.18243  -3.72022  -3.81403  -3.84650
   1   20257.5    493.6   0.163441954   2.65616  -1.27377   0.18743  -0.99927
   2   25112.8    398.2   0.061847177   0.81077   0.51361  -0.59746   0.43591
   3   25498.2    392.2   0.006196762   0.08001  -0.17478  -0.12598  -0.18327
   4   27470.2    364.0   0.043019076   0.51556   0.30839  -0.22534   0.60801
   5   28071.5    356.2   0.002003712   0.02350   0.03857  -0.03357   0.14451
   6   28779.6    347.5   0.000509109   0.00582   0.02276   0.01857   0.07043
   7   28952.3    345.4   0.011966912   0.13607  -0.05097   0.36366   0.03506
   8   29079.8    343.9   0.040497275   0.45847  -0.19961   0.61728   0.19387
   9   29705.8    336.6   0.214623116   2.37854   1.31634  -0.67615  -0.43431
  10   30583.8    327.0   0.105586013   1.13656  -0.96241  -0.13943  -0.43689
  11   31604.5    316.4   0.121541625   1.26605  -0.15324   1.00411   0.48407
  12   32127.8    311.3   0.024533353   0.25139  -0.19260  -0.28113  -0.36778
  13   32367.6    309.0   0.097895658   0.99570   0.74477  -0.01889   0.66383
  14   33091.6    302.2   0.062047323   0.61728  -0.78031   0.00754   0.09127
  15   33942.0    294.6   0.069150522   0.67071  -0.52960  -0.51653  -0.35132
  16   34794.0    287.4   0.254132155   2.40453   0.09091   0.70003   1.38066
  17   35161.2    284.4   0.100622584   0.94212   0.29923  -0.49695  -0.77822
  18   35297.5    283.3   0.095315108   0.88898  -0.83465   0.42200  -0.11941
  19   35573.0    281.1   0.000030534   0.00028   0.00268  -0.01402  -0.00888
  20   36153.3    276.6   0.146775628   1.33654  -0.89335  -0.21236  -0.70240
  21   36520.7    273.8   0.065639379   0.59170  -0.73190   0.22291   0.07958
  22   36954.7    270.6   0.109366479   0.97430   0.60698   0.19385   0.75385
  23   37472.5    266.9   0.347687029   3.05458   1.63266  -0.17001   0.60009
  24   37726.6    265.1   0.237579535   2.07318   1.06159  -0.80043  -0.55275
  25   38169.0    262.0   0.046448432   0.40062  -0.07121   0.09294  -0.62202
  26   38252.4    261.4   0.034616169   0.29792   0.13830  -0.00440   0.52799
  27   38464.6    260.0   0.110869198   0.94891   0.42995   0.29615   0.82240
  28   39836.3    251.0   0.000688947   0.00569   0.01309  -0.07272  -0.01530
  29   40263.2    248.4   0.043444171   0.35522  -0.31889   0.45138   0.22313

FINAL SINGLE POINT ENERGY     -4802.853945253049

DIPOLE MOMENT
-------------
                                X             Y             Z
Electronic contribution:     -3.87051       6.21622       7.98897
Nuclear contribution   :      2.29489      -4.94974      -5.65587
                        -----------------------------------------
Total Dipole Moment    :     -1.57561       1.26649       2.33310
                        -----------------------------------------
Magnitude (a.u.)       :      3.08705
Magnitude (Debye)      :      7.84666

Rotational constants in cm-1:     0.003513     0.000355     0.000329
Rotational constants in MHz :   105.328168    10.639086     9.864996

                             ****ORCA TERMINATED NORMALLY****
TOTAL RUN TIME: 0 days 0 hours 4 minutes 42 seconds 20 msec
