                         Program Version 4.2.0 -  RELEASE  -
|  1> # ORCA input file
|  2> # SCF done       -173.907531240722          0.000519757955
|  3> ! CAM-B3LYP def2-SVP def2/J RIJCOSX Grid4 TightSCF
|  4> %maxcore 5000
|  5> %tddft
|  6>     Mode sTDDFT
|  7>     Ethresh 5.0
|  8>     maxcore 5000
|  9> end
| 10>
| 11> %pal
| 12>   nprocs 6
| 13>   end
| 14> * xyz 0 1
| 15>    C        3.27759         2.68468         2.10685
| 16>    C        2.94210         3.77731         2.84557
| 17>    S        3.33727         3.55077         4.50944
| 18>    C        3.96906         1.94911         4.21014
| 19>   Cl        4.59864         0.99899         5.46190
| 20>    C        3.86488         1.63563         2.88678
| 21>    C        4.19502         0.49521         2.02920
| 22>    O        4.71268        -0.55082         2.34546
| 23>    C        3.79653         0.93223         0.65051
| 24>    C        3.20778         2.26553         0.72291
| 25>    C        2.64871         2.99455        -0.29043
| 26>    C        2.10153         4.27512        -0.05806
| 27>    N        1.65833         5.31847         0.11548
| 28>    C        2.53475         2.57812        -1.63218
| 29>    N        2.40854         2.28822        -2.73557
| 30>    C        4.08973         0.24525        -0.47891
| 31>    C        4.65293        -1.07832        -0.51936
| 32>    C        4.16645        -2.16051         0.23194
| 33>    N        4.73356        -3.34070         0.21302
| 34>    C        5.78932        -3.52130        -0.58354
| 35>    N        6.26898        -2.58523        -1.40409
| 36>    C        5.72896        -1.39631        -1.36821
| 37>    C        6.46851        -4.79278        -0.61814
| 38>    N        6.05575        -5.93791        -0.00410
| 39>    C        4.92478        -6.12035         0.87453
| 40>    C        5.23122        -5.63576         2.28811
| 41>    C        6.93334        -7.01281        -0.27445
| 42>    O        6.77070        -8.13370         0.15154
| 43>    C        7.95524        -6.43465        -1.12293
| 44>    C        7.64340        -5.07002        -1.31474
| 45>    C        8.68288        -4.48124        -2.14683
| 46>    O        8.87243        -3.36932        -2.57191
| 47>    N        9.55249        -5.56636        -2.41202
| 48>    C       10.75467        -5.37981        -3.18917
| 49>    C       11.99282        -5.26651        -2.30338
| 50>    C        9.13624        -6.72743        -1.81208
| 51>    C        9.81785        -7.95760        -1.93199
| 52>    C        9.39545        -9.12899        -1.37385
| 53>    C       10.10981       -10.33140        -1.53001
| 54>    C        9.76014       -11.58639        -1.06885
| 55>    C       10.68019       -12.62094        -1.36571
| 56>    C       11.84902       -12.21962        -2.10956
| 57>    O       12.78695       -12.83731        -2.51477
| 58>    S       11.65056       -10.42060        -2.38994
| 59>    C       10.19609       -13.79420        -0.81184
| 60>    O        8.99754       -13.55221        -0.21687
| 61>    C        8.66044       -12.19703        -0.33462
| 62>    O        7.63646       -11.76920         0.10485
| 63>    C       10.74270       -15.09517        -0.86055
| 64>    C       10.35674       -16.17127        -0.12107
| 65>    C       10.67157       -17.56021        -0.60069
| 66>    O       11.46227       -17.86101        -1.45859
| 67>    C        9.75817       -18.41316         0.16731
| 68>    C        9.41154       -19.73221         0.20008
| 69>    S        8.20056       -20.01587         1.42730
| 70>    C        8.18441       -18.35214         1.89069
| 71>    C        9.05245       -17.62667         1.13876
| 72>    C        9.52157       -16.25568         1.06202
| 73>    C        9.39026       -15.32028         2.05258
| 74>    C        8.59759       -15.56715         3.19268
| 75>    N        7.95067       -15.76217         4.11928
| 76>    C       10.10761       -14.10683         2.08352
| 77>    N       10.73380       -13.14841         2.16023
| 78>   Cl       10.00693       -20.99167        -0.76155
| 79>    H        2.49518         4.69970         2.53155
| 80>    H        3.93997         0.71756        -1.44221
| 81>    H        3.27308        -2.07128         0.83429
| 82>    H        6.17361        -0.65246        -2.01587
| 83>    H        4.72245        -7.19496         0.88570
| 84>    H        4.06741        -5.58043         0.47017
| 85>    H        6.10427        -6.15110         2.68108
| 86>    H        4.38396        -5.84497         2.93432
| 87>    H        5.41468        -4.56467         2.28914
| 88>    H       10.61297        -4.44633        -3.74082
| 89>    H       10.86025        -6.19989        -3.90445
| 90>    H       11.89051        -4.41937        -1.62983
| 91>    H       12.87261        -5.11370        -2.92191
| 92>    H       12.13543        -6.16654        -1.70973
| 93>    H       10.72904        -7.97201        -2.51587
| 94>    H        8.48457        -9.17800        -0.78842
| 95>    H       11.49630       -15.26072        -1.62228
| 96>    H        7.52966       -18.02761         2.67502
| 97> *
| 98>
| 99>                          ****END OF INPUT****

CARTESIAN COORDINATES (ANGSTROEM)
---------------------------------
  C      3.277590    2.684680    2.106850
  C      2.942100    3.777310    2.845570
  S      3.337270    3.550770    4.509440
  C      3.969060    1.949110    4.210140
  Cl     4.598640    0.998990    5.461900
  C      3.864880    1.635630    2.886780
  C      4.195020    0.495210    2.029200
  O      4.712680   -0.550820    2.345460
  C      3.796530    0.932230    0.650510
  C      3.207780    2.265530    0.722910
  C      2.648710    2.994550   -0.290430
  C      2.101530    4.275120   -0.058060
  N      1.658330    5.318470    0.115480
  C      2.534750    2.578120   -1.632180
  N      2.408540    2.288220   -2.735570
  C      4.089730    0.245250   -0.478910
  C      4.652930   -1.078320   -0.519360
  C      4.166450   -2.160510    0.231940
  N      4.733560   -3.340700    0.213020
  C      5.789320   -3.521300   -0.583540
  N      6.268980   -2.585230   -1.404090
  C      5.728960   -1.396310   -1.368210
  C      6.468510   -4.792780   -0.618140
  N      6.055750   -5.937910   -0.004100
  C      4.924780   -6.120350    0.874530
  C      5.231220   -5.635760    2.288110
  C      6.933340   -7.012810   -0.274450
  O      6.770700   -8.133700    0.151540
  C      7.955240   -6.434650   -1.122930
  C      7.643400   -5.070020   -1.314740
  C      8.682880   -4.481240   -2.146830
  O      8.872430   -3.369320   -2.571910
  N      9.552490   -5.566360   -2.412020
  C     10.754670   -5.379810   -3.189170
  C     11.992820   -5.266510   -2.303380
  C      9.136240   -6.727430   -1.812080
  C      9.817850   -7.957600   -1.931990
  C      9.395450   -9.128990   -1.373850
  C     10.109810  -10.331400   -1.530010
  C      9.760140  -11.586390   -1.068850
  C     10.680190  -12.620940   -1.365710
  C     11.849020  -12.219620   -2.109560
  O     12.786950  -12.837310   -2.514770
  S     11.650560  -10.420600   -2.389940
  C     10.196090  -13.794200   -0.811840
  O      8.997540  -13.552210   -0.216870
  C      8.660440  -12.197030   -0.334620
  O      7.636460  -11.769200    0.104850
  C     10.742700  -15.095170   -0.860550
  C     10.356740  -16.171270   -0.121070
  C     10.671570  -17.560210   -0.600690
  O     11.462270  -17.861010   -1.458590
  C      9.758170  -18.413160    0.167310
  C      9.411540  -19.732210    0.200080
  S      8.200560  -20.015870    1.427300
  C      8.184410  -18.352140    1.890690
  C      9.052450  -17.626670    1.138760
  C      9.521570  -16.255680    1.062020
  C      9.390260  -15.320280    2.052580
  C      8.597590  -15.567150    3.192680
  N      7.950670  -15.762170    4.119280
  C     10.107610  -14.106830    2.083520
  N     10.733800  -13.148410    2.160230
  Cl    10.006930  -20.991670   -0.761550
  H      2.495180    4.699700    2.531550
  H      3.939970    0.717560   -1.442210
  H      3.273080   -2.071280    0.834290
  H      6.173610   -0.652460   -2.015870
  H      4.722450   -7.194960    0.885700
  H      4.067410   -5.580430    0.470170
  H      6.104270   -6.151100    2.681080
  H      4.383960   -5.844970    2.934320
  H      5.414680   -4.564670    2.289140
  H     10.612970   -4.446330   -3.740820
  H     10.860250   -6.199890   -3.904450
  H     11.890510   -4.419370   -1.629830
  H     12.872610   -5.113700   -2.921910
  H     12.135430   -6.166540   -1.709730
  H     10.729040   -7.972010   -2.515870
  H      8.484570   -9.178000   -0.788420
  H     11.496300  -15.260720   -1.622280
  H      7.529660  -18.027610    2.675020

 Total Charge           Charge          ....    0
 Multiplicity           Mult            ....    1
 Number of Electrons    NEL             ....  476
 Basis Dimension        Dim             .... 1006

ORBITAL ENERGIES
----------------

  NO   OCC          E(Eh)            E(eV)
   0   2.0000    -101.627946     -2765.4370
   1   2.0000    -101.620506     -2765.2345
   2   2.0000     -89.005802     -2421.9710
   3   2.0000     -88.996411     -2421.7155
   4   2.0000     -88.958941     -2420.6958
   5   2.0000     -19.295561      -525.0589
   6   2.0000     -19.238658      -523.5105
   7   2.0000     -19.236580      -523.4539
   8   2.0000     -19.227708      -523.2125
   9   2.0000     -19.223138      -523.0882
  10   2.0000     -19.200221      -522.4646
  11   2.0000     -19.192427      -522.2525
  12   2.0000     -14.459616      -393.4662
  13   2.0000     -14.458053      -393.4236
  14   2.0000     -14.433793      -392.7635
  15   2.0000     -14.432165      -392.7192
  16   2.0000     -14.431944      -392.7132
  17   2.0000     -14.425874      -392.5480
  18   2.0000     -14.424464      -392.5096
  19   2.0000     -14.421149      -392.4194
  20   2.0000     -10.420056      -283.5441
  21   2.0000     -10.405084      -283.1367
  22   2.0000     -10.393603      -282.8243
  23   2.0000     -10.388428      -282.6835
  24   2.0000     -10.386152      -282.6216
  25   2.0000     -10.383984      -282.5626
  26   2.0000     -10.380569      -282.4697
  27   2.0000     -10.380309      -282.4626
  28   2.0000     -10.378779      -282.4209
  29   2.0000     -10.369450      -282.1671
  30   2.0000     -10.362921      -281.9894
  31   2.0000     -10.362089      -281.9668
  32   2.0000     -10.356111      -281.8041
  33   2.0000     -10.352224      -281.6983
  34   2.0000     -10.351267      -281.6723
  35   2.0000     -10.349474      -281.6235
  36   2.0000     -10.345146      -281.5057
  37   2.0000     -10.345081      -281.5040
  38   2.0000     -10.341874      -281.4167
  39   2.0000     -10.341588      -281.4089
  40   2.0000     -10.338643      -281.3288
  41   2.0000     -10.335275      -281.2371
  42   2.0000     -10.333606      -281.1917
  43   2.0000     -10.331480      -281.1339
  44   2.0000     -10.330291      -281.1015
  45   2.0000     -10.325362      -280.9674
  46   2.0000     -10.325319      -280.9662
  47   2.0000     -10.325163      -280.9620
  48   2.0000     -10.324141      -280.9342
  49   2.0000     -10.323620      -280.9200
  50   2.0000     -10.317164      -280.7443
  51   2.0000     -10.316340      -280.7219
  52   2.0000     -10.315053      -280.6869
  53   2.0000     -10.312750      -280.6242
  54   2.0000     -10.312524      -280.6181
  55   2.0000     -10.310028      -280.5501
  56   2.0000     -10.308376      -280.5052
  57   2.0000     -10.306891      -280.4648
  58   2.0000     -10.305098      -280.4160
  59   2.0000     -10.295879      -280.1651
  60   2.0000     -10.275389      -279.6076
  61   2.0000     -10.275065      -279.5987
  62   2.0000     -10.267623      -279.3962
  63   2.0000     -10.249709      -278.9088
  64   2.0000      -9.582697      -260.7584
  65   2.0000      -9.575298      -260.5571
  66   2.0000      -8.101456      -220.4518
  67   2.0000      -8.092107      -220.1974
  68   2.0000      -8.056072      -219.2169
  69   2.0000      -7.353363      -200.0952
  70   2.0000      -7.345954      -199.8936
  71   2.0000      -7.342733      -199.8059
  72   2.0000      -7.342154      -199.7902
  73   2.0000      -7.335332      -199.6045
  74   2.0000      -7.334766      -199.5891
  75   2.0000      -6.070794      -165.1947
  76   2.0000      -6.066185      -165.0693
  77   2.0000      -6.063794      -165.0042
  78   2.0000      -6.061497      -164.9417
  79   2.0000      -6.056873      -164.8159
  80   2.0000      -6.054347      -164.7472
  81   2.0000      -6.025500      -163.9622
  82   2.0000      -6.021613      -163.8564
  83   2.0000      -6.017116      -163.7341
  84   2.0000      -1.227081       -33.3906
  85   2.0000      -1.160615       -31.5820
  86   2.0000      -1.153847       -31.3978
  87   2.0000      -1.144908       -31.1545
  88   2.0000      -1.141220       -31.0542
  89   2.0000      -1.133482       -30.8436
  90   2.0000      -1.133049       -30.8318
  91   2.0000      -1.107455       -30.1354
  92   2.0000      -1.070124       -29.1196
  93   2.0000      -1.060549       -28.8590
  94   2.0000      -1.050629       -28.5891
  95   2.0000      -1.042235       -28.3607
  96   2.0000      -1.030030       -28.0285
  97   2.0000      -1.020087       -27.7580
  98   2.0000      -1.011290       -27.5186
  99   2.0000      -1.001227       -27.2448
 100   2.0000      -1.001126       -27.2420
 101   2.0000      -0.999675       -27.2025
 102   2.0000      -0.997402       -27.1407
 103   2.0000      -0.993226       -27.0271
 104   2.0000      -0.968723       -26.3603
 105   2.0000      -0.959985       -26.1225
 106   2.0000      -0.942771       -25.6541
 107   2.0000      -0.935165       -25.4471
 108   2.0000      -0.928698       -25.2712
 109   2.0000      -0.918643       -24.9976
 110   2.0000      -0.917817       -24.9751
 111   2.0000      -0.905153       -24.6305
 112   2.0000      -0.886045       -24.1105
 113   2.0000      -0.878018       -23.8921
 114   2.0000      -0.869959       -23.6728
 115   2.0000      -0.847933       -23.0734
 116   2.0000      -0.845227       -22.9998
 117   2.0000      -0.836551       -22.7637
 118   2.0000      -0.834259       -22.7013
 119   2.0000      -0.827160       -22.5082
 120   2.0000      -0.820357       -22.3231
 121   2.0000      -0.791528       -21.5386
 122   2.0000      -0.782026       -21.2800
 123   2.0000      -0.770957       -20.9788
 124   2.0000      -0.766569       -20.8594
 125   2.0000      -0.765943       -20.8424
 126   2.0000      -0.759774       -20.6745
 127   2.0000      -0.750971       -20.4350
 128   2.0000      -0.742377       -20.2011
 129   2.0000      -0.733858       -19.9693
 130   2.0000      -0.713150       -19.4058
 131   2.0000      -0.708148       -19.2697
 132   2.0000      -0.702012       -19.1027
 133   2.0000      -0.700295       -19.0560
 134   2.0000      -0.689869       -18.7723
 135   2.0000      -0.689162       -18.7530
 136   2.0000      -0.679387       -18.4871
 137   2.0000      -0.676811       -18.4170
 138   2.0000      -0.674628       -18.3576
 139   2.0000      -0.660162       -17.9639
 140   2.0000      -0.656174       -17.8554
 141   2.0000      -0.643843       -17.5199
 142   2.0000      -0.634765       -17.2728
 143   2.0000      -0.631002       -17.1704
 144   2.0000      -0.625667       -17.0253
 145   2.0000      -0.621954       -16.9242
 146   2.0000      -0.618795       -16.8383
 147   2.0000      -0.613556       -16.6957
 148   2.0000      -0.600114       -16.3299
 149   2.0000      -0.592190       -16.1143
 150   2.0000      -0.590967       -16.0810
 151   2.0000      -0.589194       -16.0328
 152   2.0000      -0.583681       -15.8828
 153   2.0000      -0.577349       -15.7105
 154   2.0000      -0.569607       -15.4998
 155   2.0000      -0.567406       -15.4399
 156   2.0000      -0.563954       -15.3460
 157   2.0000      -0.559681       -15.2297
 158   2.0000      -0.554677       -15.0935
 159   2.0000      -0.553150       -15.0520
 160   2.0000      -0.550119       -14.9695
 161   2.0000      -0.549674       -14.9574
 162   2.0000      -0.545099       -14.8329
 163   2.0000      -0.538923       -14.6648
 164   2.0000      -0.537672       -14.6308
 165   2.0000      -0.535952       -14.5840
 166   2.0000      -0.532456       -14.4889
 167   2.0000      -0.531495       -14.4627
 168   2.0000      -0.530763       -14.4428
 169   2.0000      -0.527595       -14.3566
 170   2.0000      -0.525962       -14.3122
 171   2.0000      -0.525688       -14.3047
 172   2.0000      -0.522063       -14.2061
 173   2.0000      -0.519977       -14.1493
 174   2.0000      -0.517607       -14.0848
 175   2.0000      -0.515456       -14.0263
 176   2.0000      -0.512512       -13.9462
 177   2.0000      -0.510318       -13.8864
 178   2.0000      -0.508597       -13.8396
 179   2.0000      -0.506688       -13.7877
 180   2.0000      -0.503393       -13.6980
 181   2.0000      -0.500725       -13.6254
 182   2.0000      -0.499549       -13.5934
 183   2.0000      -0.497391       -13.5347
 184   2.0000      -0.495327       -13.4785
 185   2.0000      -0.491853       -13.3840
 186   2.0000      -0.482786       -13.1373
 187   2.0000      -0.477345       -12.9892
 188   2.0000      -0.474863       -12.9217
 189   2.0000      -0.467924       -12.7329
 190   2.0000      -0.467330       -12.7167
 191   2.0000      -0.465293       -12.6613
 192   2.0000      -0.464704       -12.6452
 193   2.0000      -0.459812       -12.5121
 194   2.0000      -0.459147       -12.4940
 195   2.0000      -0.457932       -12.4610
 196   2.0000      -0.456898       -12.4328
 197   2.0000      -0.456481       -12.4215
 198   2.0000      -0.454546       -12.3688
 199   2.0000      -0.449803       -12.2398
 200   2.0000      -0.446360       -12.1461
 201   2.0000      -0.445659       -12.1270
 202   2.0000      -0.445601       -12.1254
 203   2.0000      -0.444011       -12.0821
 204   2.0000      -0.437946       -11.9171
 205   2.0000      -0.436969       -11.8905
 206   2.0000      -0.435499       -11.8505
 207   2.0000      -0.434008       -11.8099
 208   2.0000      -0.432655       -11.7731
 209   2.0000      -0.430251       -11.7077
 210   2.0000      -0.426020       -11.5926
 211   2.0000      -0.422450       -11.4954
 212   2.0000      -0.419089       -11.4040
 213   2.0000      -0.418584       -11.3903
 214   2.0000      -0.413918       -11.2633
 215   2.0000      -0.410174       -11.1614
 216   2.0000      -0.408108       -11.1052
 217   2.0000      -0.406010       -11.0481
 218   2.0000      -0.396578       -10.7914
 219   2.0000      -0.388661       -10.5760
 220   2.0000      -0.382740       -10.4149
 221   2.0000      -0.370891       -10.0924
 222   2.0000      -0.363808        -9.8997
 223   2.0000      -0.361926        -9.8485
 224   2.0000      -0.355452        -9.6723
 225   2.0000      -0.353070        -9.6075
 226   2.0000      -0.350741        -9.5441
 227   2.0000      -0.349331        -9.5058
 228   2.0000      -0.345706        -9.4071
 229   2.0000      -0.341920        -9.3041
 230   2.0000      -0.336732        -9.1630
 231   2.0000      -0.335460        -9.1283
 232   2.0000      -0.326969        -8.8973
 233   2.0000      -0.321788        -8.7563
 234   2.0000      -0.317634        -8.6432
 235   2.0000      -0.315878        -8.5955
 236   2.0000      -0.288863        -7.8603
 237   2.0000      -0.247821        -6.7436
 238   0.0000      -0.134445        -3.6584
 239   0.0000      -0.109161        -2.9704
 240   0.0000      -0.087093        -2.3699
 241   0.0000      -0.065590        -1.7848
 242   0.0000      -0.057497        -1.5646

MULLIKEN ATOMIC CHARGES
-----------------------
   0 C :    0.031428
   1 C :   -0.127212
   2 S :    0.197514
   3 C :   -0.166796
   4 Cl:    0.008044
   5 C :    0.072468
   6 C :    0.143442
   7 O :   -0.123111
   8 C :   -0.094954
   9 C :    0.291632
  10 C :   -0.320644
  11 C :   -0.191594
  12 N :    0.165772
  13 C :   -0.193237
  14 N :    0.170712
  15 C :   -0.020215
  16 C :   -0.019223
  17 C :    0.120973
  18 N :   -0.063358
  19 C :   -0.176010
  20 N :    0.002136
  21 C :    0.060587
  22 C :    0.200388
  23 N :   -0.257329
  24 C :    0.136388
  25 C :   -0.001289
  26 C :    0.161648
  27 O :   -0.173245
  28 C :   -0.058050
  29 C :   -0.059455
  30 C :    0.151081
  31 O :   -0.151814
  32 N :   -0.266033
  33 C :    0.093320
  34 C :    0.002728
  35 C :    0.149345
  36 C :   -0.020722
  37 C :    0.000602
  38 C :   -0.087977
  39 C :   -0.008585
  40 C :    0.071560
  41 C :    0.052825
  42 O :   -0.118995
  43 S :    0.018956
  44 C :    0.099324
  45 O :   -0.261471
  46 C :    0.239466
  47 O :   -0.098132
  48 C :    0.003684
  49 C :   -0.104958
  50 C :    0.138656
  51 O :   -0.114690
  52 C :    0.081519
  53 C :   -0.167155
  54 S :    0.188628
  55 C :   -0.125891
  56 C :    0.025915
  57 C :    0.259678
  58 C :   -0.273161
  59 C :   -0.181471
  60 N :    0.159228
  61 C :   -0.184171
  62 N :    0.162865
  63 Cl:    0.004201
  64 H :    0.056556
  65 H :    0.044444
  66 H :    0.008549
  67 H :    0.018769
  68 H :    0.039041
  69 H :    0.024360
  70 H :    0.020304
  71 H :    0.017442
  72 H :    0.024524
  73 H :    0.046098
  74 H :    0.026537
  75 H :    0.031648
  76 H :    0.026842
  77 H :    0.016539
  78 H :   -0.001500
  79 H :    0.043413
  80 H :    0.044970
  81 H :    0.055697
Sum of atomic charges:   -0.0000000

LOEWDIN ATOMIC CHARGES
----------------------
   0 C :   -0.059651
   1 C :   -0.146641
   2 S :    0.485994
   3 C :   -0.269478
   4 Cl:    0.198781
   5 C :   -0.119032
   6 C :    0.082092
   7 O :   -0.122257
   8 C :   -0.074353
   9 C :    0.072143
  10 C :   -0.127061
  11 C :   -0.015650
  12 N :   -0.042346
  13 C :   -0.024187
  14 N :   -0.036931
  15 C :    0.072721
  16 C :   -0.078581
  17 C :    0.085610
  18 N :   -0.064815
  19 C :    0.026617
  20 N :   -0.042318
  21 C :    0.070155
  22 C :    0.061529
  23 N :    0.014869
  24 C :    0.036467
  25 C :   -0.060986
  26 C :    0.080467
  27 O :   -0.167208
  28 C :   -0.104010
  29 C :   -0.095640
  30 C :    0.082449
  31 O :   -0.162761
  32 N :   -0.005780
  33 C :    0.035424
  34 C :   -0.060745
  35 C :    0.073376
  36 C :   -0.014502
  37 C :    0.004535
  38 C :   -0.088810
  39 C :   -0.104609
  40 C :   -0.101168
  41 C :   -0.034336
  42 O :   -0.120186
  43 S :    0.325242
  44 C :    0.092676
  45 O :   -0.045316
  46 C :    0.109328
  47 O :   -0.104031
  48 C :    0.033832
  49 C :   -0.040107
  50 C :    0.080326
  51 O :   -0.119153
  52 C :   -0.120021
  53 C :   -0.270495
  54 S :    0.478395
  55 C :   -0.151235
  56 C :   -0.054298
  57 C :    0.061513
  58 C :   -0.108011
  59 C :   -0.014179
  60 N :   -0.038783
  61 C :   -0.020257
  62 N :   -0.045409
  63 Cl:    0.196074
  64 H :    0.039092
  65 H :    0.050587
  66 H :    0.028396
  67 H :    0.033207
  68 H :    0.032922
  69 H :    0.023692
  70 H :    0.026583
  71 H :    0.029635
  72 H :    0.021890
  73 H :    0.038776
  74 H :    0.023471
  75 H :    0.033102
  76 H :    0.032305
  77 H :    0.021947
  78 H :    0.026945
  79 H :    0.050760
  80 H :    0.062368
  81 H :    0.039045

  Mayer bond orders larger than 0.100000
B(  0-C ,  1-C ) :   1.5396 B(  0-C ,  5-C ) :   1.2205 B(  0-C ,  9-C ) :   1.0081
B(  1-C ,  2-S ) :   1.1672 B(  1-C , 64-H ) :   0.9542 B(  2-S ,  3-C ) :   1.1567
B(  3-C ,  4-Cl) :   1.1357 B(  3-C ,  5-C ) :   1.4707 B(  5-C ,  6-C ) :   0.9539
B(  6-C ,  7-O ) :   2.2419 B(  6-C ,  8-C ) :   0.9190 B(  8-C ,  9-C ) :   1.0371
B(  8-C , 15-C ) :   1.7411 B(  9-C , 10-C ) :   1.6784 B( 10-C , 11-C ) :   1.1418
B( 10-C , 13-C ) :   1.1373 B( 11-C , 12-N ) :   2.9941 B( 13-C , 14-N ) :   2.9807
B( 15-C , 16-C ) :   1.0289 B( 15-C , 65-H ) :   0.9426 B( 16-C , 17-C ) :   1.3113
B( 16-C , 21-C ) :   1.2937 B( 17-C , 18-N ) :   1.5607 B( 17-C , 66-H ) :   0.9827
B( 18-N , 19-C ) :   1.4922 B( 19-C , 20-N ) :   1.6444 B( 19-C , 22-C ) :   0.9841
B( 20-N , 21-C ) :   1.5828 B( 20-N , 22-C ) :  -0.1282 B( 21-C , 67-H ) :   0.9929
B( 22-C , 23-N ) :   1.2273 B( 22-C , 29-C ) :   1.3623 B( 23-N , 24-C ) :   0.9314
B( 23-N , 26-C ) :   1.0436 B( 24-C , 25-C ) :   1.1238 B( 24-C , 68-H ) :   0.9282
B( 24-C , 69-H ) :   0.9363 B( 25-C , 70-H ) :   0.9651 B( 25-C , 71-H ) :   0.9679
B( 25-C , 72-H ) :   0.9654 B( 26-C , 27-O ) :   2.0681 B( 26-C , 28-C ) :   0.9716
B( 28-C , 29-C ) :   1.2690 B( 28-C , 35-C ) :   1.3210 B( 29-C , 30-C ) :   0.9436
B( 30-C , 31-O ) :   2.1894 B( 30-C , 32-N ) :   1.0149 B( 32-N , 33-C ) :   0.9439
B( 32-N , 35-C ) :   1.1771 B( 33-C , 34-C ) :   1.1200 B( 33-C , 73-H ) :   0.9267
B( 33-C , 74-H ) :   0.9501 B( 34-C , 75-H ) :   0.9635 B( 34-C , 76-H ) :   0.9679
B( 34-C , 77-H ) :   0.9684 B( 35-C , 36-C ) :   1.1659 B( 36-C , 37-C ) :   1.5251
B( 36-C , 78-H ) :   0.9596 B( 37-C , 38-C ) :   1.2226 B( 37-C , 79-H ) :   0.9535
B( 38-C , 39-C ) :   1.4448 B( 38-C , 43-S ) :   1.0512 B( 39-C , 40-C ) :   1.1788
B( 39-C , 46-C ) :   0.9591 B( 40-C , 41-C ) :   0.9131 B( 40-C , 44-C ) :   1.4269
B( 41-C , 42-O ) :   2.2046 B( 41-C , 43-S ) :   0.9915 B( 42-O , 43-S ) :   0.1153
B( 44-C , 45-O ) :   1.1297 B( 44-C , 48-C ) :   1.1457 B( 45-O , 46-C ) :   0.9699
B( 46-C , 47-O ) :   2.2698 B( 48-C , 49-C ) :   1.6313 B( 48-C , 80-H ) :   0.9455
B( 49-C , 50-C ) :   0.9216 B( 49-C , 57-C ) :   1.0356 B( 50-C , 51-O ) :   2.2939
B( 50-C , 52-C ) :   0.9280 B( 52-C , 53-C ) :   1.4774 B( 52-C , 56-C ) :   1.2228
B( 53-C , 54-S ) :   1.1582 B( 53-C , 63-Cl) :   1.1331 B( 54-S , 55-C ) :   1.1544
B( 55-C , 56-C ) :   1.5564 B( 55-C , 81-H ) :   0.9574 B( 56-C , 57-C ) :   1.0073
B( 57-C , 58-C ) :   1.6916 B( 58-C , 59-C ) :   1.1401 B( 58-C , 61-C ) :   1.1491
B( 59-C , 60-N ) :   2.9968 B( 61-C , 62-N ) :   2.9935

-----------------------------------------------------------------------------
         ABSORPTION SPECTRUM VIA TRANSITION ELECTRIC DIPOLE MOMENTS
-----------------------------------------------------------------------------
State   Energy  Wavelength   fosc         T2         TX        TY        TZ
        (cm-1)    (nm)                  (au**2)     (au)      (au)      (au)
-----------------------------------------------------------------------------
   0   10466.6    955.4   0.756694368  23.80081   1.80943  -4.53065   0.00124
   1   17093.7    585.0   0.224506406   4.32384  -1.53207   0.09192   1.40291
   2   18032.6    554.6   0.313935005   5.73136   0.57481   2.07077  -1.05493
   3   21108.2    473.8   0.013080878   0.20402  -0.29783  -0.23967   0.24056
   4   23111.6    432.7   0.007273481   0.10361   0.00142  -0.24461  -0.20922
   5   23159.3    431.8   0.018363093   0.26103  -0.06098   0.03559  -0.50601
   6   23438.4    426.7   0.024593890   0.34544   0.33364  -0.46436  -0.13599
   7   25107.9    398.3   0.057154651   0.74941  -0.25402   0.82158   0.09943
   8   25522.6    391.8   0.001602784   0.02067   0.01563  -0.03227  -0.13924
   9   26181.1    382.0   0.005029814   0.06325   0.05481   0.19319  -0.15139
  10   26411.3    378.6   0.126890551   1.58167  -0.43391   1.18029  -0.01763
  11   26503.7    377.3   0.232716215   2.89065   0.02496  -1.69022   0.18213
  12   26739.1    374.0   0.019356214   0.23831  -0.46406   0.15085   0.01446
  13   27569.8    362.7   0.086907502   1.03777  -0.12934   0.78991  -0.63014
  14   28110.9    355.7   0.018144451   0.21249   0.42019   0.04726  -0.18359
  15   28317.6    353.1   0.012483640   0.14513   0.22211   0.11340  -0.28799
  16   28785.6    347.4   0.206770087   2.36477   0.19222   1.50096  -0.27372
  17   28892.7    346.1   0.057698444   0.65743  -0.35342  -0.61850  -0.38728
  18   29496.2    339.0   0.021169771   0.23628   0.07330   0.46839   0.10730
  19   30078.1    332.5   0.083537358   0.91433   0.63574  -0.59556  -0.39431
  20   30809.3    324.6   0.001240603   0.01326  -0.04325  -0.02916  -0.10264
  21   31521.2    317.2   0.029785032   0.31108   0.42219   0.29079  -0.21973
  22   31738.1    315.1   0.259474946   2.69147   0.66440  -1.49843  -0.06890
  23   32167.6    310.9   0.024668762   0.25247   0.15633   0.44633  -0.16976
  24   32530.4    307.4   0.014555111   0.14730   0.29762  -0.18859  -0.15217
  25   32992.9    303.1   0.122389245   1.22123  -0.21681   0.70400   0.82378
  26   33296.5    300.3   0.118391315   1.17057  -0.52630   0.94492   0.02640
  27   33778.2    296.0   0.019130283   0.18645  -0.08443   0.40796   0.11352
  28   34342.1    291.2   0.064635770   0.61961   0.32319   0.52308  -0.49147
  29   34425.1    290.5   0.064307424   0.61498  -0.40247  -0.66407  -0.10963
  30   35057.3    285.2   0.134213301   1.26036  -0.15777   0.99468   0.49606
  31   35305.6    283.2   0.030015202   0.27988  -0.05357   0.36032  -0.38364
  32   35630.6    280.7   0.026568776   0.24548  -0.37344  -0.07316   0.31729
  33   35878.3    278.7   0.056048260   0.51429   0.00709   0.29008   0.65581
  34   36229.4    276.0   0.007842457   0.07126   0.06808   0.17874   0.18622
  35   36309.4    275.4   0.088301500   0.80062  -0.30236   0.77249   0.33535
  36   36606.2    273.2   0.347354840   3.12388   0.28089   0.31343   1.71661
  37   37099.1    269.5   0.226863979   2.01316  -0.02138   1.41854  -0.02124
  38   37291.2    268.2   0.294295291   2.59808   0.34681   0.15325   1.56663
  39   37564.4    266.2   0.015503726   0.13587  -0.35831  -0.07590  -0.04156
  40   37708.8    265.2   0.002111004   0.01843  -0.03491   0.02780   0.12821
  41   38019.1    263.0   0.179895676   1.55774   0.07912   1.22015  -0.25043
  42   38100.3    262.5   0.061950202   0.53529  -0.09646  -0.70289   0.17871
  43   38622.0    258.9   0.024363265   0.20767   0.33787   0.11413  -0.28370
  44   38853.6    257.4   0.002648462   0.02244   0.11507   0.02197  -0.09336
  45   39263.7    254.7   0.086317793   0.72374  -0.27712  -0.12366  -0.79477
  46   39291.5    254.5   0.099985886   0.83775   0.18663  -0.50878   0.73760
  47   39436.8    253.6   0.086409126   0.72133  -0.14125   0.79844   0.25272
  48   39549.9    252.8   0.077849814   0.64802  -0.33020   0.67114   0.29758

FINAL SINGLE POINT ENERGY     -4763.047180951676

DIPOLE MOMENT
-------------
                                X             Y             Z
Electronic contribution:     -4.60009     -36.42028      16.98275
Nuclear contribution   :      3.90180      37.25334     -16.33501
                        -----------------------------------------
Total Dipole Moment    :     -0.69829       0.83306       0.64774
                        -----------------------------------------
Magnitude (a.u.)       :      1.26537
Magnitude (Debye)      :      3.21632

Rotational constants in cm-1:     0.002432     0.000264     0.000249
Rotational constants in MHz :    72.909556     7.909660     7.461244

                             ****ORCA TERMINATED NORMALLY****
TOTAL RUN TIME: 0 days 0 hours 7 minutes 22 seconds 115 msec
