                         Program Version 4.2.0 -  RELEASE  -
|  1> # ORCA input file
|  2> # SCF done       -173.974152349405          0.000835804611
|  3> ! CAM-B3LYP def2-SVP def2/J RIJCOSX Grid4 TightSCF
|  4> %maxcore 5000
|  5> %tddft
|  6>     Mode sTDDFT
|  7>     Ethresh 5.0
|  8>     maxcore 5000
|  9> end
| 10>
| 11> %pal
| 12>   nprocs 6
| 13>   end
| 14> * xyz 0 1
| 15>    C        0.55068         0.95439        -0.19409
| 16>    C       -0.51688         1.78064        -0.36735
| 17>    S       -1.69725         1.06524        -1.40189
| 18>    C       -0.73581        -0.37939        -1.60970
| 19>   Cl       -1.26829        -1.66317        -2.57716
| 20>    C        0.42807        -0.28267        -0.90566
| 21>    C        1.61060        -1.11930        -0.67723
| 22>    O        1.83239        -2.22058        -1.12136
| 23>    C        2.44863        -0.32876         0.28540
| 24>    C        1.81136         0.96634         0.51608
| 25>    C        2.31154         2.03262         1.20977
| 26>    C        1.58208         3.23556         1.33041
| 27>    N        0.99721         4.21612         1.43782
| 28>    C        3.57330         2.08122         1.83771
| 29>    N        4.59346         2.18618         2.35261
| 30>    C        3.49892        -0.81638         0.98539
| 31>    C        4.16972        -2.07944         0.76874
| 32>    C        4.56702        -2.82862         1.87281
| 33>    C        5.18010        -4.06158         1.71382
| 34>    N        5.55185        -4.75488         2.91993
| 35>    O        4.97391        -4.44227         3.94007
| 36>    O        6.42036        -5.60131         2.85982
| 37>    C        5.45261        -4.58707         0.43527
| 38>    C        5.09912        -3.78756        -0.66066
| 39>    C        4.47631        -2.57148        -0.50745
| 40>    C        6.01193        -5.90559         0.23400
| 41>    C        6.77470        -6.24411        -0.81738
| 42>    C        7.32331        -7.56165        -1.02879
| 43>    C        7.39616        -8.54810        -0.08154
| 44>    S        8.10247        -9.99301        -0.66925
| 45>    C        8.31521        -9.30708        -2.21527
| 46>    C        7.87305        -8.01197        -2.28078
| 47>    C        7.96874        -7.20441        -3.49816
| 48>    O        7.68431        -6.03782        -3.61521
| 49>    O        8.44356        -7.95006        -4.53365
| 50>    C        8.67460        -7.32690        -5.72372
| 51>    C        9.01666        -8.03554        -6.80094
| 52>    C        9.31540        -7.48594        -8.10758
| 53>    C        9.38490        -8.34200        -9.20259
| 54>    C        9.68006        -7.87109       -10.47405
| 55>    N        9.73267        -8.85608       -11.52067
| 56>    O        9.17038        -9.91036       -11.32089
| 57>    O       10.32738        -8.59008       -12.54844
| 58>    C        9.93922        -6.50779       -10.70739
| 59>    C        9.85672        -5.65970        -9.59604
| 60>    C        9.55789        -6.12541        -8.33668
| 61>    C       10.26149        -5.98082       -12.01680
| 62>    C       11.05806        -4.91800       -12.22337
| 63>    C       11.37574        -4.40518       -13.52361
| 64>    C       11.60844        -5.08729       -14.66734
| 65>    C       11.56721        -4.34339       -15.97095
| 66>    O       11.55213        -3.14412       -16.10684
| 67>    C       11.49486        -5.39512       -16.98803
| 68>    C       11.33943        -5.47225       -18.34062
| 69>    S       11.33874        -7.13909       -18.86241
| 70>    C       11.55942        -7.71240       -17.24872
| 71>    C       11.62332        -6.68120       -16.36576
| 72>    C       11.83012        -6.50364       -14.93951
| 73>    C       12.35272        -7.45810       -14.11502
| 74>    C       12.61223        -8.76613       -14.58019
| 75>    N       12.84497        -9.82433       -14.95431
| 76>    C       12.75116        -7.25578       -12.77920
| 77>    N       13.13256        -7.13921       -11.70307
| 78>   Cl       11.16441        -4.20037       -19.44595
| 79>    H       -0.69659         2.75471         0.04251
| 80>    H        3.86140        -0.24601         1.83269
| 81>    H        4.38104        -2.47143         2.87562
| 82>    H        5.29654        -4.15849        -1.65384
| 83>    H        4.23788        -1.98198        -1.37736
| 84>    H        5.80292        -6.64326         0.99440
| 85>    H        7.02962        -5.51462        -1.57122
| 86>    H        7.10248        -8.49125         0.94717
| 87>    H        8.76044        -9.88083        -3.00320
| 88>    H        8.54685        -6.25176        -5.70581
| 89>    H        9.06770        -9.11154        -6.71121
| 90>    H        9.21228        -9.40126        -9.07949
| 91>    H       10.01454        -4.60261        -9.74171
| 92>    H        9.52261        -5.42952        -7.51408
| 93>    H        9.84692        -6.49062       -12.87549
| 94>    H       11.46899        -4.37061       -11.38543
| 95>    H       11.39702        -3.32304       -13.62062
| 96>    H       11.61599        -8.76703       -17.06653
| 97> *
| 98>
| 99>                          ****END OF INPUT****

CARTESIAN COORDINATES (ANGSTROEM)
---------------------------------
  C      0.550680    0.954390   -0.194090
  C     -0.516880    1.780640   -0.367350
  S     -1.697250    1.065240   -1.401890
  C     -0.735810   -0.379390   -1.609700
  Cl    -1.268290   -1.663170   -2.577160
  C      0.428070   -0.282670   -0.905660
  C      1.610600   -1.119300   -0.677230
  O      1.832390   -2.220580   -1.121360
  C      2.448630   -0.328760    0.285400
  C      1.811360    0.966340    0.516080
  C      2.311540    2.032620    1.209770
  C      1.582080    3.235560    1.330410
  N      0.997210    4.216120    1.437820
  C      3.573300    2.081220    1.837710
  N      4.593460    2.186180    2.352610
  C      3.498920   -0.816380    0.985390
  C      4.169720   -2.079440    0.768740
  C      4.567020   -2.828620    1.872810
  C      5.180100   -4.061580    1.713820
  N      5.551850   -4.754880    2.919930
  O      4.973910   -4.442270    3.940070
  O      6.420360   -5.601310    2.859820
  C      5.452610   -4.587070    0.435270
  C      5.099120   -3.787560   -0.660660
  C      4.476310   -2.571480   -0.507450
  C      6.011930   -5.905590    0.234000
  C      6.774700   -6.244110   -0.817380
  C      7.323310   -7.561650   -1.028790
  C      7.396160   -8.548100   -0.081540
  S      8.102470   -9.993010   -0.669250
  C      8.315210   -9.307080   -2.215270
  C      7.873050   -8.011970   -2.280780
  C      7.968740   -7.204410   -3.498160
  O      7.684310   -6.037820   -3.615210
  O      8.443560   -7.950060   -4.533650
  C      8.674600   -7.326900   -5.723720
  C      9.016660   -8.035540   -6.800940
  C      9.315400   -7.485940   -8.107580
  C      9.384900   -8.342000   -9.202590
  C      9.680060   -7.871090  -10.474050
  N      9.732670   -8.856080  -11.520670
  O      9.170380   -9.910360  -11.320890
  O     10.327380   -8.590080  -12.548440
  C      9.939220   -6.507790  -10.707390
  C      9.856720   -5.659700   -9.596040
  C      9.557890   -6.125410   -8.336680
  C     10.261490   -5.980820  -12.016800
  C     11.058060   -4.918000  -12.223370
  C     11.375740   -4.405180  -13.523610
  C     11.608440   -5.087290  -14.667340
  C     11.567210   -4.343390  -15.970950
  O     11.552130   -3.144120  -16.106840
  C     11.494860   -5.395120  -16.988030
  C     11.339430   -5.472250  -18.340620
  S     11.338740   -7.139090  -18.862410
  C     11.559420   -7.712400  -17.248720
  C     11.623320   -6.681200  -16.365760
  C     11.830120   -6.503640  -14.939510
  C     12.352720   -7.458100  -14.115020
  C     12.612230   -8.766130  -14.580190
  N     12.844970   -9.824330  -14.954310
  C     12.751160   -7.255780  -12.779200
  N     13.132560   -7.139210  -11.703070
  Cl    11.164410   -4.200370  -19.445950
  H     -0.696590    2.754710    0.042510
  H      3.861400   -0.246010    1.832690
  H      4.381040   -2.471430    2.875620
  H      5.296540   -4.158490   -1.653840
  H      4.237880   -1.981980   -1.377360
  H      5.802920   -6.643260    0.994400
  H      7.029620   -5.514620   -1.571220
  H      7.102480   -8.491250    0.947170
  H      8.760440   -9.880830   -3.003200
  H      8.546850   -6.251760   -5.705810
  H      9.067700   -9.111540   -6.711210
  H      9.212280   -9.401260   -9.079490
  H     10.014540   -4.602610   -9.741710
  H      9.522610   -5.429520   -7.514080
  H      9.846920   -6.490620  -12.875490
  H     11.468990   -4.370610  -11.385430
  H     11.397020   -3.323040  -13.620620
  H     11.615990   -8.767030  -17.066530

 Total Charge           Charge          ....    0
 Multiplicity           Mult            ....    1
 Number of Electrons    NEL             ....  476
 Basis Dimension        Dim             .... 1006

ORBITAL ENERGIES
----------------

  NO   OCC          E(Eh)            E(eV)
   0   2.0000    -101.624297     -2765.3377
   1   2.0000    -101.614857     -2765.0808
   2   2.0000     -89.001246     -2421.8470
   3   2.0000     -88.989525     -2421.5281
   4   2.0000     -88.980069     -2421.2708
   5   2.0000     -19.295010      -525.0439
   6   2.0000     -19.254365      -523.9379
   7   2.0000     -19.252972      -523.9000
   8   2.0000     -19.248381      -523.7751
   9   2.0000     -19.246490      -523.7236
  10   2.0000     -19.231393      -523.3128
  11   2.0000     -19.230222      -523.2809
  12   2.0000     -19.217300      -522.9293
  13   2.0000     -14.659356      -398.9013
  14   2.0000     -14.653627      -398.7455
  15   2.0000     -14.427333      -392.5877
  16   2.0000     -14.426925      -392.5766
  17   2.0000     -14.412867      -392.1941
  18   2.0000     -14.412391      -392.1811
  19   2.0000     -10.429448      -283.7997
  20   2.0000     -10.387808      -282.6666
  21   2.0000     -10.383736      -282.5558
  22   2.0000     -10.373323      -282.2725
  23   2.0000     -10.373162      -282.2681
  24   2.0000     -10.356582      -281.8169
  25   2.0000     -10.355959      -281.8000
  26   2.0000     -10.350463      -281.6504
  27   2.0000     -10.343675      -281.4657
  28   2.0000     -10.342567      -281.4356
  29   2.0000     -10.340406      -281.3768
  30   2.0000     -10.336928      -281.2821
  31   2.0000     -10.336390      -281.2675
  32   2.0000     -10.331300      -281.1290
  33   2.0000     -10.329202      -281.0719
  34   2.0000     -10.328621      -281.0561
  35   2.0000     -10.324051      -280.9317
  36   2.0000     -10.320647      -280.8391
  37   2.0000     -10.320465      -280.8341
  38   2.0000     -10.320209      -280.8272
  39   2.0000     -10.318974      -280.7936
  40   2.0000     -10.316783      -280.7339
  41   2.0000     -10.316753      -280.7331
  42   2.0000     -10.315296      -280.6935
  43   2.0000     -10.314602      -280.6746
  44   2.0000     -10.309754      -280.5427
  45   2.0000     -10.309337      -280.5313
  46   2.0000     -10.308825      -280.5174
  47   2.0000     -10.308805      -280.5169
  48   2.0000     -10.308062      -280.4966
  49   2.0000     -10.307627      -280.4848
  50   2.0000     -10.303794      -280.3805
  51   2.0000     -10.303623      -280.3758
  52   2.0000     -10.302903      -280.3563
  53   2.0000     -10.302654      -280.3495
  54   2.0000     -10.302647      -280.3493
  55   2.0000     -10.302218      -280.3376
  56   2.0000     -10.300912      -280.3021
  57   2.0000     -10.300768      -280.2981
  58   2.0000     -10.297848      -280.2187
  59   2.0000     -10.296992      -280.1954
  60   2.0000     -10.293918      -280.1117
  61   2.0000     -10.290747      -280.0255
  62   2.0000     -10.287089      -279.9259
  63   2.0000     -10.286371      -279.9064
  64   2.0000      -9.579066      -260.6596
  65   2.0000      -9.569622      -260.4027
  66   2.0000      -8.096912      -220.3282
  67   2.0000      -8.085353      -220.0136
  68   2.0000      -8.076343      -219.7685
  69   2.0000      -7.349720      -199.9961
  70   2.0000      -7.340231      -199.7378
  71   2.0000      -7.339098      -199.7070
  72   2.0000      -7.338547      -199.6920
  73   2.0000      -7.329675      -199.4506
  74   2.0000      -7.329148      -199.4363
  75   2.0000      -6.066277      -165.0718
  76   2.0000      -6.061647      -164.9458
  77   2.0000      -6.059223      -164.8798
  78   2.0000      -6.054738      -164.7578
  79   2.0000      -6.050131      -164.6324
  80   2.0000      -6.047566      -164.5626
  81   2.0000      -6.045395      -164.5036
  82   2.0000      -6.040894      -164.3811
  83   2.0000      -6.039200      -164.3350
  84   2.0000      -1.334480       -36.3131
  85   2.0000      -1.328643       -36.1542
  86   2.0000      -1.224986       -33.3336
  87   2.0000      -1.152284       -31.3552
  88   2.0000      -1.148009       -31.2389
  89   2.0000      -1.146601       -31.2006
  90   2.0000      -1.134248       -30.8645
  91   2.0000      -1.129494       -30.7351
  92   2.0000      -1.045739       -28.4560
  93   2.0000      -1.034313       -28.1451
  94   2.0000      -1.024536       -27.8790
  95   2.0000      -1.011068       -27.5126
  96   2.0000      -1.005724       -27.3671
  97   2.0000      -1.005529       -27.3618
  98   2.0000      -0.999633       -27.2014
  99   2.0000      -0.998984       -27.1837
 100   2.0000      -0.993809       -27.0429
 101   2.0000      -0.991237       -26.9729
 102   2.0000      -0.983924       -26.7739
 103   2.0000      -0.962550       -26.1923
 104   2.0000      -0.952390       -25.9158
 105   2.0000      -0.935355       -25.4523
 106   2.0000      -0.932290       -25.3689
 107   2.0000      -0.920163       -25.0389
 108   2.0000      -0.913117       -24.8472
 109   2.0000      -0.909690       -24.7539
 110   2.0000      -0.902658       -24.5626
 111   2.0000      -0.896502       -24.3951
 112   2.0000      -0.888069       -24.1656
 113   2.0000      -0.882002       -24.0005
 114   2.0000      -0.863744       -23.5037
 115   2.0000      -0.853677       -23.2297
 116   2.0000      -0.840154       -22.8618
 117   2.0000      -0.833222       -22.6731
 118   2.0000      -0.828218       -22.5370
 119   2.0000      -0.822223       -22.3738
 120   2.0000      -0.802971       -21.8499
 121   2.0000      -0.795930       -21.6584
 122   2.0000      -0.782704       -21.2985
 123   2.0000      -0.780883       -21.2489
 124   2.0000      -0.762692       -20.7539
 125   2.0000      -0.762006       -20.7352
 126   2.0000      -0.746019       -20.3002
 127   2.0000      -0.736128       -20.0311
 128   2.0000      -0.725699       -19.7473
 129   2.0000      -0.705433       -19.1958
 130   2.0000      -0.702139       -19.1062
 131   2.0000      -0.697818       -18.9886
 132   2.0000      -0.696826       -18.9616
 133   2.0000      -0.689168       -18.7532
 134   2.0000      -0.684304       -18.6209
 135   2.0000      -0.681918       -18.5559
 136   2.0000      -0.674974       -18.3670
 137   2.0000      -0.671459       -18.2713
 138   2.0000      -0.666076       -18.1249
 139   2.0000      -0.655869       -17.8471
 140   2.0000      -0.655011       -17.8238
 141   2.0000      -0.642391       -17.4803
 142   2.0000      -0.638648       -17.3785
 143   2.0000      -0.634193       -17.2573
 144   2.0000      -0.632034       -17.1985
 145   2.0000      -0.626682       -17.0529
 146   2.0000      -0.621801       -16.9201
 147   2.0000      -0.612940       -16.6789
 148   2.0000      -0.611429       -16.6378
 149   2.0000      -0.610983       -16.6257
 150   2.0000      -0.610071       -16.6009
 151   2.0000      -0.606316       -16.4987
 152   2.0000      -0.599705       -16.3188
 153   2.0000      -0.598451       -16.2847
 154   2.0000      -0.597229       -16.2514
 155   2.0000      -0.583074       -15.8663
 156   2.0000      -0.578674       -15.7465
 157   2.0000      -0.575268       -15.6538
 158   2.0000      -0.569735       -15.5033
 159   2.0000      -0.568513       -15.4700
 160   2.0000      -0.562585       -15.3087
 161   2.0000      -0.558403       -15.1949
 162   2.0000      -0.551853       -15.0167
 163   2.0000      -0.545207       -14.8358
 164   2.0000      -0.544016       -14.8034
 165   2.0000      -0.542290       -14.7565
 166   2.0000      -0.541046       -14.7226
 167   2.0000      -0.539485       -14.6801
 168   2.0000      -0.537297       -14.6206
 169   2.0000      -0.534304       -14.5392
 170   2.0000      -0.531063       -14.4510
 171   2.0000      -0.528491       -14.3810
 172   2.0000      -0.521851       -14.2003
 173   2.0000      -0.520261       -14.1570
 174   2.0000      -0.513237       -13.9659
 175   2.0000      -0.512247       -13.9389
 176   2.0000      -0.504213       -13.7203
 177   2.0000      -0.500717       -13.6252
 178   2.0000      -0.498495       -13.5647
 179   2.0000      -0.496838       -13.5196
 180   2.0000      -0.496725       -13.5166
 181   2.0000      -0.494710       -13.4617
 182   2.0000      -0.493893       -13.4395
 183   2.0000      -0.490475       -13.3465
 184   2.0000      -0.488868       -13.3028
 185   2.0000      -0.487412       -13.2632
 186   2.0000      -0.485059       -13.1991
 187   2.0000      -0.482222       -13.1219
 188   2.0000      -0.480914       -13.0863
 189   2.0000      -0.467961       -12.7339
 190   2.0000      -0.465696       -12.6722
 191   2.0000      -0.461651       -12.5622
 192   2.0000      -0.459646       -12.5076
 193   2.0000      -0.459366       -12.5000
 194   2.0000      -0.457044       -12.4368
 195   2.0000      -0.454403       -12.3649
 196   2.0000      -0.452422       -12.3110
 197   2.0000      -0.451098       -12.2750
 198   2.0000      -0.450916       -12.2700
 199   2.0000      -0.448253       -12.1976
 200   2.0000      -0.446678       -12.1547
 201   2.0000      -0.443483       -12.0678
 202   2.0000      -0.440654       -11.9908
 203   2.0000      -0.440012       -11.9733
 204   2.0000      -0.438110       -11.9216
 205   2.0000      -0.436403       -11.8751
 206   2.0000      -0.435393       -11.8476
 207   2.0000      -0.427902       -11.6438
 208   2.0000      -0.424832       -11.5603
 209   2.0000      -0.422466       -11.4959
 210   2.0000      -0.419203       -11.4071
 211   2.0000      -0.410508       -11.1705
 212   2.0000      -0.409159       -11.1338
 213   2.0000      -0.407340       -11.0843
 214   2.0000      -0.402027       -10.9397
 215   2.0000      -0.399798       -10.8790
 216   2.0000      -0.395536       -10.7631
 217   2.0000      -0.390530       -10.6269
 218   2.0000      -0.389296       -10.5933
 219   2.0000      -0.386005       -10.5037
 220   2.0000      -0.379791       -10.3346
 221   2.0000      -0.377672       -10.2770
 222   2.0000      -0.376772       -10.2525
 223   2.0000      -0.373444       -10.1619
 224   2.0000      -0.371845       -10.1184
 225   2.0000      -0.359558        -9.7841
 226   2.0000      -0.354377        -9.6431
 227   2.0000      -0.347822        -9.4647
 228   2.0000      -0.343677        -9.3519
 229   2.0000      -0.341453        -9.2914
 230   2.0000      -0.340517        -9.2659
 231   2.0000      -0.332887        -9.0583
 232   2.0000      -0.330685        -8.9984
 233   2.0000      -0.325524        -8.8580
 234   2.0000      -0.315367        -8.5816
 235   2.0000      -0.307108        -8.3568
 236   2.0000      -0.286604        -7.7989
 237   2.0000      -0.285167        -7.7598
 238   0.0000      -0.100632        -2.7383
 239   0.0000      -0.090340        -2.4583
 240   0.0000      -0.061999        -1.6871
 241   0.0000      -0.059100        -1.6082
 242   0.0000      -0.054080        -1.4716

MULLIKEN ATOMIC CHARGES
-----------------------
   0 C :    0.032451
   1 C :   -0.125968
   2 S :    0.192895
   3 C :   -0.172044
   4 Cl:    0.002560
   5 C :    0.075598
   6 C :    0.145644
   7 O :   -0.125813
   8 C :   -0.093263
   9 C :    0.281578
  10 C :   -0.320884
  11 C :   -0.190646
  12 N :    0.157265
  13 C :   -0.200072
  14 N :    0.173972
  15 C :   -0.029003
  16 C :    0.057309
  17 C :   -0.057786
  18 C :    0.139261
  19 N :    0.244481
  20 O :   -0.233996
  21 O :   -0.237177
  22 C :    0.073573
  23 C :   -0.058564
  24 C :    0.118446
  25 C :    0.009074
  26 C :   -0.004862
  27 C :    0.093422
  28 C :   -0.145124
  29 S :    0.160622
  30 C :   -0.085340
  31 C :   -0.020394
  32 C :    0.226461
  33 O :   -0.196373
  34 O :   -0.250993
  35 C :    0.157069
  36 C :   -0.005167
  37 C :    0.112710
  38 C :   -0.079609
  39 C :    0.153575
  40 N :    0.268906
  41 O :   -0.221436
  42 O :   -0.249222
  43 C :    0.054494
  44 C :   -0.029666
  45 C :    0.018632
  46 C :    0.023123
  47 C :   -0.004352
  48 C :    0.023208
  49 C :   -0.126259
  50 C :    0.128671
  51 O :   -0.130919
  52 C :    0.088930
  53 C :   -0.170824
  54 S :    0.182167
  55 C :   -0.129817
  56 C :    0.016381
  57 C :    0.263130
  58 C :   -0.299928
  59 C :   -0.181684
  60 N :    0.158523
  61 C :   -0.185187
  62 N :    0.164992
  63 Cl:   -0.002382
  64 H :    0.055238
  65 H :    0.040833
  66 H :    0.009384
  67 H :    0.001930
  68 H :   -0.006539
  69 H :    0.002988
  70 H :    0.019999
  71 H :    0.045383
  72 H :    0.040556
  73 H :    0.032357
  74 H :    0.001310
  75 H :    0.004629
  76 H :   -0.011627
  77 H :   -0.012912
  78 H :    0.031710
  79 H :    0.020047
  80 H :    0.034555
  81 H :    0.055791
Sum of atomic charges:    0.0000000

LOEWDIN ATOMIC CHARGES
----------------------
   0 C :   -0.059867
   1 C :   -0.147691
   2 S :    0.481460
   3 C :   -0.271651
   4 Cl:    0.194390
   5 C :   -0.117693
   6 C :    0.081004
   7 O :   -0.122748
   8 C :   -0.083094
   9 C :    0.073663
  10 C :   -0.130750
  11 C :   -0.015353
  12 N :   -0.046463
  13 C :   -0.026383
  14 N :   -0.039138
  15 C :    0.081270
  16 C :   -0.043970
  17 C :    0.025089
  18 C :   -0.036165
  19 N :    0.285712
  20 O :   -0.201264
  21 O :   -0.197168
  22 C :    0.017901
  23 C :   -0.007609
  24 C :    0.045382
  25 C :   -0.015281
  26 C :   -0.002717
  27 C :   -0.045188
  28 C :   -0.174333
  29 S :    0.488374
  30 C :   -0.148208
  31 C :   -0.113180
  32 C :    0.114894
  33 O :   -0.163572
  34 O :   -0.045453
  35 C :    0.074731
  36 C :   -0.056487
  37 C :   -0.013198
  38 C :    0.007722
  39 C :   -0.021670
  40 N :    0.293410
  41 O :   -0.187181
  42 O :   -0.192391
  43 C :   -0.004500
  44 C :    0.000478
  45 C :    0.010012
  46 C :    0.017908
  47 C :   -0.022556
  48 C :    0.063135
  49 C :   -0.077576
  50 C :    0.080875
  51 O :   -0.133690
  52 C :   -0.120443
  53 C :   -0.273309
  54 S :    0.473052
  55 C :   -0.152521
  56 C :   -0.055218
  57 C :    0.059019
  58 C :   -0.117089
  59 C :   -0.011969
  60 N :   -0.048214
  61 C :   -0.016295
  62 N :   -0.052419
  63 Cl:    0.189824
  64 H :    0.038597
  65 H :    0.049290
  66 H :    0.043168
  67 H :    0.040225
  68 H :    0.036365
  69 H :    0.026250
  70 H :    0.031427
  71 H :    0.030134
  72 H :    0.030694
  73 H :    0.022956
  74 H :    0.037704
  75 H :    0.040775
  76 H :    0.034959
  77 H :    0.033389
  78 H :    0.032635
  79 H :    0.037222
  80 H :    0.048210
  81 H :    0.038364

  Mayer bond orders larger than 0.100000
B(  0-C ,  1-C ) :   1.5405 B(  0-C ,  5-C ) :   1.2210 B(  0-C ,  9-C ) :   1.0068
B(  1-C ,  2-S ) :   1.1655 B(  1-C , 64-H ) :   0.9545 B(  2-S ,  3-C ) :   1.1551
B(  3-C ,  4-Cl) :   1.1310 B(  3-C ,  5-C ) :   1.4732 B(  5-C ,  6-C ) :   0.9533
B(  6-C ,  7-O ) :   2.2415 B(  6-C ,  8-C ) :   0.9218 B(  8-C ,  9-C ) :   1.0389
B(  8-C , 15-C ) :   1.7061 B(  9-C , 10-C ) :   1.6779 B( 10-C , 11-C ) :   1.1393
B( 10-C , 13-C ) :   1.1362 B( 11-C , 12-N ) :   2.9942 B( 13-C , 14-N ) :   2.9930
B( 15-C , 16-C ) :   1.0447 B( 15-C , 65-H ) :   0.9516 B( 16-C , 17-C ) :   1.2974
B( 16-C , 24-C ) :   1.3219 B( 17-C , 18-C ) :   1.3671 B( 17-C , 66-H ) :   0.9981
B( 18-C , 19-N ) :   0.8845 B( 18-C , 22-C ) :   1.3341 B( 19-N , 20-O ) :   1.5573
B( 19-N , 21-O ) :   1.5211 B( 20-O , 21-O ) :   0.2624 B( 22-C , 23-C ) :   1.3381
B( 22-C , 25-C ) :   1.0661 B( 23-C , 24-C ) :   1.4179 B( 23-C , 67-H ) :   0.9916
B( 24-C , 68-H ) :   0.9822 B( 25-C , 26-C ) :   1.7581 B( 25-C , 69-H ) :   0.9431
B( 26-C , 27-C ) :   1.0892 B( 26-C , 70-H ) :   0.9554 B( 27-C , 28-C ) :   1.5524
B( 27-C , 31-C ) :   1.2239 B( 28-C , 29-S ) :   1.1728 B( 28-C , 71-H ) :   0.9542
B( 29-S , 30-C ) :   1.2243 B( 30-C , 31-C ) :   1.5131 B( 30-C , 72-H ) :   0.9618
B( 31-C , 32-C ) :   0.9675 B( 32-C , 33-O ) :   2.0734 B( 32-C , 34-O ) :   1.1414
B( 34-O , 35-C ) :   1.0198 B( 35-C , 36-C ) :   1.7458 B( 35-C , 73-H ) :   0.9659
B( 36-C , 37-C ) :   1.0659 B( 36-C , 74-H ) :   0.9775 B( 37-C , 38-C ) :   1.3080
B( 37-C , 45-C ) :   1.3205 B( 38-C , 39-C ) :   1.3608 B( 38-C , 75-H ) :   0.9992
B( 39-C , 40-N ) :   0.8906 B( 39-C , 43-C ) :   1.3583 B( 40-N , 41-O ) :   1.5729
B( 40-N , 42-O ) :   1.4828 B( 41-O , 42-O ) :   0.2573 B( 43-C , 44-C ) :   1.3431
B( 43-C , 46-C ) :   1.0724 B( 44-C , 45-C ) :   1.4134 B( 44-C , 76-H ) :   0.9886
B( 45-C , 77-H ) :   0.9894 B( 46-C , 47-C ) :   1.7677 B( 46-C , 78-H ) :   0.9459
B( 47-C , 48-C ) :   1.0751 B( 47-C , 79-H ) :   0.9458 B( 48-C , 49-C ) :   1.7665
B( 48-C , 80-H ) :   0.9254 B( 49-C , 50-C ) :   0.9317 B( 49-C , 57-C ) :   1.0110
B( 50-C , 51-O ) :   2.2784 B( 50-C , 52-C ) :   0.9274 B( 52-C , 53-C ) :   1.4773
B( 52-C , 56-C ) :   1.2219 B( 53-C , 54-S ) :   1.1551 B( 53-C , 63-Cl) :   1.1262
B( 54-S , 55-C ) :   1.1547 B( 55-C , 56-C ) :   1.5560 B( 55-C , 81-H ) :   0.9558
B( 56-C , 57-C ) :   1.0057 B( 57-C , 58-C ) :   1.7133 B( 58-C , 59-C ) :   1.1295
B( 58-C , 61-C ) :   1.1538 B( 59-C , 60-N ) :   3.0046 B( 61-C , 62-N ) :   2.9902

-----------------------------------------------------------------------------
         ABSORPTION SPECTRUM VIA TRANSITION ELECTRIC DIPOLE MOMENTS
-----------------------------------------------------------------------------
State   Energy  Wavelength   fosc         T2         TX        TY        TZ
        (cm-1)    (nm)                  (au**2)     (au)      (au)      (au)
-----------------------------------------------------------------------------
   0   24374.7    410.3   0.838993304  11.33169  -1.99041   2.47065   1.12511
   1   24741.5    404.2   0.340754297   4.53410  -0.49743  -1.11456   1.74482
   2   28164.7    355.1   0.116420040   1.36081  -0.70011   0.86411   0.35210
   3   28763.6    347.7   0.053487923   0.61219  -0.21622   0.12183  -0.74202
   4   30049.3    332.8   0.079244670   0.86818   0.16896  -0.91441   0.05906
   5   30081.0    332.4   0.033974407   0.37182   0.51325   0.18311   0.27362
   6   30123.1    332.0   0.065131159   0.71181   0.21888  -0.11638  -0.80645
   7   30321.8    329.8   0.010119218   0.10987   0.14895  -0.14450   0.25846
   8   32445.3    308.2   0.014733611   0.14950  -0.18435  -0.18603   0.28444
   9   32491.9    307.8   0.079424464   0.80474  -0.49862  -0.42441  -0.61318
  10   33218.1    301.0   0.034816935   0.34506  -0.26089   0.48208  -0.21118
  11   33401.0    299.4   0.044168427   0.43534  -0.27623  -0.55905  -0.21564
  12   33932.5    294.7   0.195177655   1.89361   0.12631   0.72472  -1.16294
  13   34244.4    292.0   0.016574468   0.15934  -0.12799   0.36508   0.09835
  14   35367.7    282.7   0.298025611   2.77410   0.51611  -0.21589  -1.56880
  15   35470.0    281.9   0.043678827   0.40540   0.11107  -0.26504   0.56817
  16   35662.6    280.4   0.005378256   0.04965  -0.09090  -0.20017   0.03629
  17   35888.0    278.6   0.230788515   2.11710   0.31399   0.04741  -1.41995
  18   36212.2    276.1   0.131416474   1.19473  -0.64154   0.16958  -0.86856
  19   36402.6    274.7   0.385991503   3.49077   0.17097   0.41747  -1.81308
  20   36560.1    273.5   0.291166213   2.62186  -0.98218   1.11111  -0.65009
  21   36876.4    271.2   0.155616248   1.38926  -0.10731  -0.38154   1.11003
  22   37803.8    264.5   0.683459395   5.95186   1.38752   1.02647   1.72424
  23   37833.3    264.3   0.260208566   2.26424   1.46501  -0.20106  -0.27848
  24   38502.0    259.7   0.058968002   0.50421  -0.02578  -0.06556   0.70657
  25   38570.6    259.3   0.430213590   3.67201  -0.53935   0.53365  -1.75964
  26   38995.2    256.4   0.015698465   0.13253   0.22699   0.21143  -0.19054
  27   39472.7    253.3   0.086744296   0.72347   0.13081  -0.45720  -0.70522
  28   40156.7    249.0   0.040298665   0.33038  -0.01487   0.53984  -0.19679

FINAL SINGLE POINT ENERGY     -4766.633984471347

DIPOLE MOMENT
-------------
                                X             Y             Z
Electronic contribution:    -17.51106      14.60339     -30.58912
Nuclear contribution   :     15.40066     -14.89926      29.85356
                        -----------------------------------------
Total Dipole Moment    :     -2.11040      -0.29587      -0.73556
                        -----------------------------------------
Magnitude (a.u.)       :      2.25441
Magnitude (Debye)      :      5.73025

Rotational constants in cm-1:     0.001231     0.000247     0.000217
Rotational constants in MHz :    36.889998     7.398186     6.494320

                             ****ORCA TERMINATED NORMALLY****
TOTAL RUN TIME: 0 days 0 hours 6 minutes 42 seconds 364 msec
