                         Program Version 4.2.0 -  RELEASE  -
|  1> # ORCA input file
|  2> # SCF done       -201.766383645896          0.000574479118
|  3> ! CAM-B3LYP def2-SVP def2/J RIJCOSX Grid4 TightSCF
|  4> %maxcore 5000
|  5> %tddft
|  6>     Mode sTDDFT
|  7>     Ethresh 5.0
|  8>     maxcore 5000
|  9> end
| 10>
| 11> %pal
| 12>   nprocs 6
| 13>   end
| 14> * xyz 0 1
| 15>    C        7.14068         2.74822        -8.78872
| 16>    C        6.79044         3.89906        -9.42524
| 17>    S        5.09201         4.18104        -9.31407
| 18>    C        4.84183         2.71617        -8.39283
| 19>   Cl        3.30351         2.25905        -7.85593
| 20>    C        6.02677         2.07122        -8.19699
| 21>    C        6.47588         0.84425        -7.53274
| 22>    O        5.79003         0.00385        -7.00157
| 23>    C        7.96128         0.82253        -7.74118
| 24>    C        8.34633         1.99084        -8.52260
| 25>    C        9.60177         2.37142        -8.91865
| 26>    C        9.80638         3.55186        -9.66529
| 27>    N        9.99269         4.50409       -10.27710
| 28>    C       10.80462         1.68673        -8.65476
| 29>    N       11.82182         1.18540        -8.47404
| 30>    C        8.80867        -0.18537        -7.38843
| 31>    C        8.56777        -1.29799        -6.53970
| 32>    C        7.64507        -1.47270        -5.53348
| 33>    C        7.83127        -2.76196        -4.94686
| 34>    C        8.96333        -3.38050        -5.65918
| 35>    C        9.40750        -2.49300        -6.58496
| 36>    C        9.50718        -4.64961        -5.42629
| 37>    N        9.97371        -5.68548        -5.25930
| 38>    C        7.08093        -3.32654        -3.94231
| 39>    C        7.17380        -4.65022        -3.42840
| 40>    C        6.18599        -4.82866        -2.48148
| 41>    C        5.44379        -3.58277        -2.35241
| 42>    C        5.97049        -2.67625        -3.21267
| 43>    C        5.54831        -1.34393        -3.32010
| 44>    N        5.18487        -0.25527        -3.34485
| 45>    C        5.91959        -6.00562        -1.75741
| 46>    S        4.53120        -6.09737        -0.63188
| 47>    C        4.99066        -7.71074        -0.31010
| 48>    C        6.14254        -8.05418        -1.05772
| 49>    N        6.62174        -7.10941        -1.83753
| 50>    C        6.55907        -9.46003        -0.77676
| 51>    C        5.51025        -9.88201         0.20817
| 52>    C        4.60465        -8.82147         0.45212
| 53>    S        3.37588        -9.24397         1.56154
| 54>    C        4.06198       -10.85453         1.71863
| 55>    C        5.20511       -11.01704         0.92092
| 56>    C        3.42994       -11.76824         2.56812
| 57>    C        3.93163       -13.00837         2.89074
| 58>    C        3.29280       -13.91217         3.74625
| 59>    C        3.89108       -14.91467         4.51877
| 60>    N        5.21957       -15.36063         4.47078
| 61>    O        5.96129       -14.90019         3.61393
| 62>    O        5.55966       -16.19940         5.28731
| 63>    C        2.93907       -15.40171         5.46348
| 64>    C        1.75862       -14.72978         5.30158
| 65>    C        1.88200       -13.84917         4.19004
| 66>    C        0.84881       -13.25909         3.48422
| 67>    C        0.81486       -13.12788         2.05407
| 68>    C       -0.45433       -12.82474         1.66992
| 69>    C       -1.26285       -12.67075         2.84041
| 70>    N       -2.61735       -12.28756         2.76924
| 71>    O       -3.25862       -12.19431         3.80226
| 72>    O       -3.07530       -12.07917         1.66014
| 73>    C       -0.48720       -12.90899         3.97822
| 74>    C       -0.84846       -12.60558         5.31020
| 75>    C        0.04305       -12.34302         6.30976
| 76>    C       -0.35917       -11.90826         7.58557
| 77>    C        0.44278       -11.43117         8.58466
| 78>    C       -0.13014       -11.31681         9.96357
| 79>    O       -1.29490       -11.41889        10.26273
| 80>    C        1.03421       -11.10542        10.82960
| 81>    C        1.28307       -10.99263        12.16432
| 82>    S        2.99320       -10.76207        12.44896
| 83>    C        3.34603       -10.81250        10.76083
| 84>    C        2.21671       -10.99986        10.02590
| 85>    C        1.84978       -11.08959         8.62209
| 86>    C        2.69729       -10.73685         7.60017
| 87>    C        4.04363       -10.39303         7.85376
| 88>    N        5.14646       -10.12333         8.01889
| 89>    C        2.39184       -10.57015         6.23790
| 90>    N        2.25128       -10.36741         5.11504
| 91>   Cl        0.17538       -11.04988        13.44338
| 92>    H        7.40558         4.60017        -9.95350
| 93>    H        9.80707        -0.16482        -7.81105
| 94>    H        6.90047        -0.77013        -5.22090
| 95>    H       10.22838        -2.63254        -7.26435
| 96>    H        7.87659        -5.39674        -3.73950
| 97>    H        4.62523        -3.42565        -1.67407
| 98>    H        7.56637        -9.50525        -0.35838
| 99>    H        6.55366       -10.07177        -1.68083
|100>    H        5.76207       -11.93530         0.88661
|101>    H        2.52131       -11.42675         3.04469
|102>    H        4.92474       -13.28523         2.56324
|103>    H        3.15123       -16.18027         6.17232
|104>    H        0.84333       -14.92363         5.82692
|105>    H        1.63566       -13.36641         1.40606
|106>    H       -0.82871       -12.71332         0.67022
|107>    H       -1.90364       -12.44851         5.49605
|108>    H        1.09979       -12.43508         6.11525
|109>    H       -1.41094       -11.99226         7.83967
|110>    H        4.36231       -10.70980        10.43604
|111> *
|112>
|113>                          ****END OF INPUT****

CARTESIAN COORDINATES (ANGSTROEM)
---------------------------------
  C      7.140680    2.748220   -8.788720
  C      6.790440    3.899060   -9.425240
  S      5.092010    4.181040   -9.314070
  C      4.841830    2.716170   -8.392830
  Cl     3.303510    2.259050   -7.855930
  C      6.026770    2.071220   -8.196990
  C      6.475880    0.844250   -7.532740
  O      5.790030    0.003850   -7.001570
  C      7.961280    0.822530   -7.741180
  C      8.346330    1.990840   -8.522600
  C      9.601770    2.371420   -8.918650
  C      9.806380    3.551860   -9.665290
  N      9.992690    4.504090  -10.277100
  C     10.804620    1.686730   -8.654760
  N     11.821820    1.185400   -8.474040
  C      8.808670   -0.185370   -7.388430
  C      8.567770   -1.297990   -6.539700
  C      7.645070   -1.472700   -5.533480
  C      7.831270   -2.761960   -4.946860
  C      8.963330   -3.380500   -5.659180
  C      9.407500   -2.493000   -6.584960
  C      9.507180   -4.649610   -5.426290
  N      9.973710   -5.685480   -5.259300
  C      7.080930   -3.326540   -3.942310
  C      7.173800   -4.650220   -3.428400
  C      6.185990   -4.828660   -2.481480
  C      5.443790   -3.582770   -2.352410
  C      5.970490   -2.676250   -3.212670
  C      5.548310   -1.343930   -3.320100
  N      5.184870   -0.255270   -3.344850
  C      5.919590   -6.005620   -1.757410
  S      4.531200   -6.097370   -0.631880
  C      4.990660   -7.710740   -0.310100
  C      6.142540   -8.054180   -1.057720
  N      6.621740   -7.109410   -1.837530
  C      6.559070   -9.460030   -0.776760
  C      5.510250   -9.882010    0.208170
  C      4.604650   -8.821470    0.452120
  S      3.375880   -9.243970    1.561540
  C      4.061980  -10.854530    1.718630
  C      5.205110  -11.017040    0.920920
  C      3.429940  -11.768240    2.568120
  C      3.931630  -13.008370    2.890740
  C      3.292800  -13.912170    3.746250
  C      3.891080  -14.914670    4.518770
  N      5.219570  -15.360630    4.470780
  O      5.961290  -14.900190    3.613930
  O      5.559660  -16.199400    5.287310
  C      2.939070  -15.401710    5.463480
  C      1.758620  -14.729780    5.301580
  C      1.882000  -13.849170    4.190040
  C      0.848810  -13.259090    3.484220
  C      0.814860  -13.127880    2.054070
  C     -0.454330  -12.824740    1.669920
  C     -1.262850  -12.670750    2.840410
  N     -2.617350  -12.287560    2.769240
  O     -3.258620  -12.194310    3.802260
  O     -3.075300  -12.079170    1.660140
  C     -0.487200  -12.908990    3.978220
  C     -0.848460  -12.605580    5.310200
  C      0.043050  -12.343020    6.309760
  C     -0.359170  -11.908260    7.585570
  C      0.442780  -11.431170    8.584660
  C     -0.130140  -11.316810    9.963570
  O     -1.294900  -11.418890   10.262730
  C      1.034210  -11.105420   10.829600
  C      1.283070  -10.992630   12.164320
  S      2.993200  -10.762070   12.448960
  C      3.346030  -10.812500   10.760830
  C      2.216710  -10.999860   10.025900
  C      1.849780  -11.089590    8.622090
  C      2.697290  -10.736850    7.600170
  C      4.043630  -10.393030    7.853760
  N      5.146460  -10.123330    8.018890
  C      2.391840  -10.570150    6.237900
  N      2.251280  -10.367410    5.115040
  Cl     0.175380  -11.049880   13.443380
  H      7.405580    4.600170   -9.953500
  H      9.807070   -0.164820   -7.811050
  H      6.900470   -0.770130   -5.220900
  H     10.228380   -2.632540   -7.264350
  H      7.876590   -5.396740   -3.739500
  H      4.625230   -3.425650   -1.674070
  H      7.566370   -9.505250   -0.358380
  H      6.553660  -10.071770   -1.680830
  H      5.762070  -11.935300    0.886610
  H      2.521310  -11.426750    3.044690
  H      4.924740  -13.285230    2.563240
  H      3.151230  -16.180270    6.172320
  H      0.843330  -14.923630    5.826920
  H      1.635660  -13.366410    1.406060
  H     -0.828710  -12.713320    0.670220
  H     -1.903640  -12.448510    5.496050
  H      1.099790  -12.435080    6.115250
  H     -1.410940  -11.992260    7.839670
  H      4.362310  -10.709800   10.436040

 Total Charge           Charge          ....    0
 Multiplicity           Mult            ....    1
 Number of Electrons    NEL             ....  564
 Basis Dimension        Dim             .... 1197

ORBITAL ENERGIES
----------------

  NO   OCC          E(Eh)            E(eV)
   0   2.0000    -101.620020     -2765.2213
   1   2.0000    -101.619590     -2765.2096
   2   2.0000     -89.002010     -2421.8678
   3   2.0000     -88.997181     -2421.7364
   4   2.0000     -88.996535     -2421.7188
   5   2.0000     -88.993791     -2421.6442
   6   2.0000     -19.246423      -523.7218
   7   2.0000     -19.245744      -523.7033
   8   2.0000     -19.230405      -523.2859
   9   2.0000     -19.230120      -523.2782
  10   2.0000     -19.226951      -523.1919
  11   2.0000     -19.221950      -523.0558
  12   2.0000     -14.654899      -398.7801
  13   2.0000     -14.640727      -398.3944
  14   2.0000     -14.443845      -393.0370
  15   2.0000     -14.434937      -392.7946
  16   2.0000     -14.427264      -392.5858
  17   2.0000     -14.426487      -392.5647
  18   2.0000     -14.424522      -392.5112
  19   2.0000     -14.419764      -392.3817
  20   2.0000     -14.413449      -392.2099
  21   2.0000     -10.384237      -282.5694
  22   2.0000     -10.379633      -282.4442
  23   2.0000     -10.379300      -282.4351
  24   2.0000     -10.377917      -282.3975
  25   2.0000     -10.369374      -282.1650
  26   2.0000     -10.358645      -281.8731
  27   2.0000     -10.356120      -281.8044
  28   2.0000     -10.354492      -281.7600
  29   2.0000     -10.353792      -281.7410
  30   2.0000     -10.343770      -281.4683
  31   2.0000     -10.342274      -281.4276
  32   2.0000     -10.341130      -281.3965
  33   2.0000     -10.341075      -281.3950
  34   2.0000     -10.340833      -281.3884
  35   2.0000     -10.340252      -281.3725
  36   2.0000     -10.338007      -281.3115
  37   2.0000     -10.334313      -281.2110
  38   2.0000     -10.334043      -281.2036
  39   2.0000     -10.333568      -281.1907
  40   2.0000     -10.333488      -281.1885
  41   2.0000     -10.333472      -281.1881
  42   2.0000     -10.330305      -281.1019
  43   2.0000     -10.329407      -281.0775
  44   2.0000     -10.329369      -281.0764
  45   2.0000     -10.328818      -281.0614
  46   2.0000     -10.327927      -281.0372
  47   2.0000     -10.327841      -281.0348
  48   2.0000     -10.326492      -280.9981
  49   2.0000     -10.324623      -280.9473
  50   2.0000     -10.324223      -280.9364
  51   2.0000     -10.322457      -280.8883
  52   2.0000     -10.321389      -280.8593
  53   2.0000     -10.320900      -280.8460
  54   2.0000     -10.320835      -280.8442
  55   2.0000     -10.320297      -280.8296
  56   2.0000     -10.317912      -280.7647
  57   2.0000     -10.317438      -280.7518
  58   2.0000     -10.317038      -280.7409
  59   2.0000     -10.316701      -280.7317
  60   2.0000     -10.316176      -280.7174
  61   2.0000     -10.315419      -280.6968
  62   2.0000     -10.315136      -280.6891
  63   2.0000     -10.314881      -280.6822
  64   2.0000     -10.313661      -280.6490
  65   2.0000     -10.312296      -280.6118
  66   2.0000     -10.309280      -280.5298
  67   2.0000     -10.309202      -280.5277
  68   2.0000     -10.304915      -280.4110
  69   2.0000     -10.304413      -280.3973
  70   2.0000     -10.303364      -280.3688
  71   2.0000     -10.303354      -280.3685
  72   2.0000     -10.303024      -280.3595
  73   2.0000     -10.299229      -280.2563
  74   2.0000     -10.297723      -280.2153
  75   2.0000     -10.297192      -280.2008
  76   2.0000     -10.288708      -279.9700
  77   2.0000      -9.574797      -260.5435
  78   2.0000      -9.574351      -260.5313
  79   2.0000      -8.096769      -220.3243
  80   2.0000      -8.092910      -220.2193
  81   2.0000      -8.092331      -220.2035
  82   2.0000      -8.088802      -220.1075
  83   2.0000      -7.345405      -199.8786
  84   2.0000      -7.344966      -199.8667
  85   2.0000      -7.334850      -199.5914
  86   2.0000      -7.334410      -199.5794
  87   2.0000      -7.334314      -199.5768
  88   2.0000      -7.333858      -199.5644
  89   2.0000      -6.065865      -165.0606
  90   2.0000      -6.062290      -164.9633
  91   2.0000      -6.061951      -164.9541
  92   2.0000      -6.061700      -164.9473
  93   2.0000      -6.059142      -164.8776
  94   2.0000      -6.058043      -164.8477
  95   2.0000      -6.057656      -164.8372
  96   2.0000      -6.057113      -164.8224
  97   2.0000      -6.055174      -164.7697
  98   2.0000      -6.054549      -164.7527
  99   2.0000      -6.053906      -164.7352
 100   2.0000      -6.051015      -164.6565
 101   2.0000      -1.325657       -36.0729
 102   2.0000      -1.309507       -35.6335
 103   2.0000      -1.144841       -31.1527
 104   2.0000      -1.142911       -31.1002
 105   2.0000      -1.139202       -30.9993
 106   2.0000      -1.126837       -30.6628
 107   2.0000      -1.101309       -29.9681
 108   2.0000      -1.042419       -28.3657
 109   2.0000      -1.042243       -28.3609
 110   2.0000      -1.031379       -28.0653
 111   2.0000      -1.028280       -27.9809
 112   2.0000      -1.027014       -27.9465
 113   2.0000      -1.023362       -27.8471
 114   2.0000      -1.022922       -27.8351
 115   2.0000      -1.010604       -27.4999
 116   2.0000      -1.008844       -27.4521
 117   2.0000      -1.004363       -27.3301
 118   2.0000      -1.002192       -27.2710
 119   2.0000      -0.996064       -27.1043
 120   2.0000      -0.993735       -27.0409
 121   2.0000      -0.993179       -27.0258
 122   2.0000      -0.989246       -26.9187
 123   2.0000      -0.960885       -26.1470
 124   2.0000      -0.959787       -26.1171
 125   2.0000      -0.958458       -26.0810
 126   2.0000      -0.933801       -25.4100
 127   2.0000      -0.931351       -25.3433
 128   2.0000      -0.918669       -24.9983
 129   2.0000      -0.916628       -24.9427
 130   2.0000      -0.913494       -24.8574
 131   2.0000      -0.910848       -24.7854
 132   2.0000      -0.904493       -24.6125
 133   2.0000      -0.889294       -24.1989
 134   2.0000      -0.884688       -24.0736
 135   2.0000      -0.875875       -23.8338
 136   2.0000      -0.870047       -23.6752
 137   2.0000      -0.867377       -23.6025
 138   2.0000      -0.850782       -23.1509
 139   2.0000      -0.844524       -22.9807
 140   2.0000      -0.837912       -22.8007
 141   2.0000      -0.836738       -22.7688
 142   2.0000      -0.828444       -22.5431
 143   2.0000      -0.821298       -22.3487
 144   2.0000      -0.812946       -22.1214
 145   2.0000      -0.802476       -21.8365
 146   2.0000      -0.791401       -21.5351
 147   2.0000      -0.777411       -21.1544
 148   2.0000      -0.773378       -21.0447
 149   2.0000      -0.759560       -20.6687
 150   2.0000      -0.757478       -20.6120
 151   2.0000      -0.750836       -20.4313
 152   2.0000      -0.735907       -20.0250
 153   2.0000      -0.730081       -19.8665
 154   2.0000      -0.715879       -19.4801
 155   2.0000      -0.713201       -19.4072
 156   2.0000      -0.709633       -19.3101
 157   2.0000      -0.701171       -19.0798
 158   2.0000      -0.687606       -18.7107
 159   2.0000      -0.684392       -18.6233
 160   2.0000      -0.682812       -18.5803
 161   2.0000      -0.682127       -18.5616
 162   2.0000      -0.680884       -18.5278
 163   2.0000      -0.678576       -18.4650
 164   2.0000      -0.670342       -18.2409
 165   2.0000      -0.663558       -18.0563
 166   2.0000      -0.656528       -17.8650
 167   2.0000      -0.652868       -17.7654
 168   2.0000      -0.645787       -17.5728
 169   2.0000      -0.639194       -17.3934
 170   2.0000      -0.636819       -17.3287
 171   2.0000      -0.635921       -17.3043
 172   2.0000      -0.632646       -17.2152
 173   2.0000      -0.630368       -17.1532
 174   2.0000      -0.622862       -16.9489
 175   2.0000      -0.621635       -16.9156
 176   2.0000      -0.620121       -16.8744
 177   2.0000      -0.615343       -16.7443
 178   2.0000      -0.613210       -16.6863
 179   2.0000      -0.611574       -16.6418
 180   2.0000      -0.602337       -16.3904
 181   2.0000      -0.594319       -16.1722
 182   2.0000      -0.589344       -16.0369
 183   2.0000      -0.582051       -15.8384
 184   2.0000      -0.581080       -15.8120
 185   2.0000      -0.579406       -15.7664
 186   2.0000      -0.570897       -15.5349
 187   2.0000      -0.569877       -15.5071
 188   2.0000      -0.568376       -15.4663
 189   2.0000      -0.559240       -15.2177
 190   2.0000      -0.555843       -15.1253
 191   2.0000      -0.555481       -15.1154
 192   2.0000      -0.552392       -15.0314
 193   2.0000      -0.550406       -14.9773
 194   2.0000      -0.547400       -14.8955
 195   2.0000      -0.544696       -14.8219
 196   2.0000      -0.541084       -14.7237
 197   2.0000      -0.539664       -14.6850
 198   2.0000      -0.537732       -14.6324
 199   2.0000      -0.535447       -14.5702
 200   2.0000      -0.533062       -14.5054
 201   2.0000      -0.531115       -14.4524
 202   2.0000      -0.529012       -14.3952
 203   2.0000      -0.526199       -14.3186
 204   2.0000      -0.523894       -14.2559
 205   2.0000      -0.520229       -14.1561
 206   2.0000      -0.516482       -14.0542
 207   2.0000      -0.514571       -14.0022
 208   2.0000      -0.512280       -13.9399
 209   2.0000      -0.511416       -13.9163
 210   2.0000      -0.508953       -13.8493
 211   2.0000      -0.507566       -13.8116
 212   2.0000      -0.502460       -13.6726
 213   2.0000      -0.502088       -13.6625
 214   2.0000      -0.500111       -13.6087
 215   2.0000      -0.499219       -13.5845
 216   2.0000      -0.497511       -13.5380
 217   2.0000      -0.495669       -13.4878
 218   2.0000      -0.492365       -13.3979
 219   2.0000      -0.491528       -13.3752
 220   2.0000      -0.490497       -13.3471
 221   2.0000      -0.489296       -13.3144
 222   2.0000      -0.487120       -13.2552
 223   2.0000      -0.485172       -13.2022
 224   2.0000      -0.482073       -13.1179
 225   2.0000      -0.478964       -13.0333
 226   2.0000      -0.477988       -13.0067
 227   2.0000      -0.471429       -12.8282
 228   2.0000      -0.463816       -12.6211
 229   2.0000      -0.460127       -12.5207
 230   2.0000      -0.459420       -12.5014
 231   2.0000      -0.458253       -12.4697
 232   2.0000      -0.456767       -12.4293
 233   2.0000      -0.453737       -12.3468
 234   2.0000      -0.452983       -12.3263
 235   2.0000      -0.452214       -12.3054
 236   2.0000      -0.450750       -12.2655
 237   2.0000      -0.449098       -12.2206
 238   2.0000      -0.448561       -12.2060
 239   2.0000      -0.447953       -12.1894
 240   2.0000      -0.445173       -12.1138
 241   2.0000      -0.444850       -12.1050
 242   2.0000      -0.443846       -12.0777
 243   2.0000      -0.442154       -12.0316
 244   2.0000      -0.439101       -11.9485
 245   2.0000      -0.437988       -11.9183
 246   2.0000      -0.436285       -11.8719
 247   2.0000      -0.432640       -11.7727
 248   2.0000      -0.425622       -11.5818
 249   2.0000      -0.424804       -11.5595
 250   2.0000      -0.421795       -11.4776
 251   2.0000      -0.421528       -11.4704
 252   2.0000      -0.414538       -11.2802
 253   2.0000      -0.406650       -11.0655
 254   2.0000      -0.406414       -11.0591
 255   2.0000      -0.405111       -11.0236
 256   2.0000      -0.402058       -10.9405
 257   2.0000      -0.392194       -10.6721
 258   2.0000      -0.391377       -10.6499
 259   2.0000      -0.384923       -10.4743
 260   2.0000      -0.384416       -10.4605
 261   2.0000      -0.380831       -10.3629
 262   2.0000      -0.378624       -10.3029
 263   2.0000      -0.372301       -10.1308
 264   2.0000      -0.371843       -10.1184
 265   2.0000      -0.365761        -9.9529
 266   2.0000      -0.358995        -9.7688
 267   2.0000      -0.355631        -9.6772
 268   2.0000      -0.353591        -9.6217
 269   2.0000      -0.349725        -9.5165
 270   2.0000      -0.347223        -9.4484
 271   2.0000      -0.345693        -9.4068
 272   2.0000      -0.341861        -9.3025
 273   2.0000      -0.337993        -9.1973
 274   2.0000      -0.337752        -9.1907
 275   2.0000      -0.333274        -9.0688
 276   2.0000      -0.319077        -8.6825
 277   2.0000      -0.318948        -8.6790
 278   2.0000      -0.305429        -8.3112
 279   2.0000      -0.295889        -8.0515
 280   2.0000      -0.284442        -7.7401
 281   2.0000      -0.253504        -6.8982
 282   0.0000      -0.151588        -4.1249
 283   0.0000      -0.137600        -3.7443
 284   0.0000      -0.104932        -2.8553
 285   0.0000      -0.088180        -2.3995
 286   0.0000      -0.073319        -1.9951

MULLIKEN ATOMIC CHARGES
-----------------------
   0 C :    0.031751
   1 C :   -0.127444
   2 S :    0.190493
   3 C :   -0.168478
   4 Cl:    0.006810
   5 C :    0.073419
   6 C :    0.149906
   7 O :   -0.123704
   8 C :   -0.082884
   9 C :    0.296324
  10 C :   -0.333357
  11 C :   -0.192471
  12 N :    0.157918
  13 C :   -0.181330
  14 N :    0.159787
  15 C :   -0.028984
  16 C :    0.085115
  17 C :   -0.043281
  18 C :    0.084301
  19 C :   -0.088870
  20 C :    0.000650
  21 C :   -0.183047
  22 N :    0.145648
  23 C :    0.117261
  24 C :   -0.118991
  25 C :    0.144986
  26 C :   -0.006817
  27 C :   -0.080042
  28 C :   -0.174024
  29 N :    0.145816
  30 C :   -0.124497
  31 S :    0.150202
  32 C :   -0.044483
  33 C :   -0.218112
  34 N :    0.022222
  35 C :    0.396153
  36 C :   -0.156121
  37 C :   -0.092044
  38 S :    0.213804
  39 C :   -0.110566
  40 C :    0.007815
  41 C :    0.074124
  42 C :   -0.069500
  43 C :    0.049910
  44 C :    0.072849
  45 N :    0.277423
  46 O :   -0.269741
  47 O :   -0.259026
  48 C :    0.027937
  49 C :   -0.014534
  50 C :    0.029497
  51 C :   -0.007070
  52 C :    0.022925
  53 C :   -0.003818
  54 C :    0.105318
  55 N :    0.269270
  56 O :   -0.247013
  57 O :   -0.237223
  58 C :    0.036380
  59 C :   -0.022215
  60 C :   -0.003163
  61 C :    0.017148
  62 C :   -0.125076
  63 C :    0.133962
  64 O :   -0.125990
  65 C :    0.089428
  66 C :   -0.173206
  67 S :    0.187624
  68 C :   -0.125806
  69 C :    0.009674
  70 C :    0.309646
  71 C :   -0.340411
  72 C :   -0.196485
  73 N :    0.155566
  74 C :   -0.182624
  75 N :    0.151153
  76 Cl:    0.002916
  77 H :    0.055961
  78 H :    0.014983
  79 H :    0.023298
  80 H :    0.011558
  81 H :    0.017860
  82 H :    0.012797
  83 H :    0.054202
  84 H :    0.051963
  85 H :    0.003344
  86 H :    0.042013
  87 H :    0.023404
  88 H :    0.009038
  89 H :   -0.003838
  90 H :    0.001288
  91 H :    0.002531
  92 H :    0.033555
  93 H :    0.042431
  94 H :    0.026984
  95 H :    0.055944
Sum of atomic charges:   -0.0000000

LOEWDIN ATOMIC CHARGES
----------------------
   0 C :   -0.060192
   1 C :   -0.148247
   2 S :    0.479878
   3 C :   -0.270570
   4 Cl:    0.197687
   5 C :   -0.117085
   6 C :    0.082314
   7 O :   -0.119741
   8 C :   -0.071851
   9 C :    0.073433
  10 C :   -0.133062
  11 C :   -0.014956
  12 N :   -0.047885
  13 C :   -0.023930
  14 N :   -0.043817
  15 C :    0.066446
  16 C :   -0.040104
  17 C :    0.042221
  18 C :    0.031712
  19 C :   -0.088282
  20 C :    0.061635
  21 C :   -0.032390
  22 N :   -0.057556
  23 C :    0.050971
  24 C :   -0.004732
  25 C :   -0.036686
  26 C :    0.045807
  27 C :   -0.067446
  28 C :   -0.032893
  29 N :   -0.046432
  30 C :   -0.114773
  31 S :    0.437272
  32 C :   -0.210547
  33 C :   -0.015570
  34 N :   -0.061740
  35 C :   -0.009547
  36 C :   -0.037912
  37 C :   -0.180738
  38 S :    0.485494
  39 C :   -0.166466
  40 C :   -0.016894
  41 C :    0.020560
  42 C :   -0.018952
  43 C :    0.024765
  44 C :   -0.083078
  45 N :    0.286339
  46 O :   -0.234080
  47 O :   -0.223071
  48 C :    0.044351
  49 C :   -0.064791
  50 C :    0.055738
  51 C :    0.019233
  52 C :   -0.017960
  53 C :   -0.014600
  54 C :   -0.019855
  55 N :    0.284641
  56 O :   -0.210608
  57 O :   -0.202052
  58 C :   -0.018652
  59 C :    0.037009
  60 C :   -0.027080
  61 C :    0.072090
  62 C :   -0.090315
  63 C :    0.078108
  64 O :   -0.131843
  65 C :   -0.117634
  66 C :   -0.272644
  67 S :    0.476474
  68 C :   -0.149814
  69 C :   -0.058608
  70 C :    0.076574
  71 C :   -0.144600
  72 C :   -0.016995
  73 N :   -0.050442
  74 C :   -0.004247
  75 N :   -0.064841
  76 Cl:    0.194015
  77 H :    0.038143
  78 H :    0.047514
  79 H :    0.037271
  80 H :    0.041643
  81 H :    0.042230
  82 H :    0.035231
  83 H :    0.064739
  84 H :    0.063525
  85 H :    0.042182
  86 H :    0.033097
  87 H :    0.036784
  88 H :    0.041005
  89 H :    0.030429
  90 H :    0.032218
  91 H :    0.037604
  92 H :    0.042352
  93 H :    0.031142
  94 H :    0.049129
  95 H :    0.037802

  Mayer bond orders larger than 0.100000
B(  0-C ,  1-C ) :   1.5436 B(  0-C ,  5-C ) :   1.2195 B(  0-C ,  9-C ) :   0.9985
B(  1-C ,  2-S ) :   1.1645 B(  1-C , 77-H ) :   0.9532 B(  2-S ,  3-C ) :   1.1512
B(  3-C ,  4-Cl) :   1.1345 B(  3-C ,  5-C ) :   1.4768 B(  5-C ,  6-C ) :   0.9509
B(  6-C ,  7-O ) :   2.2352 B(  6-C ,  8-C ) :   0.9216 B(  8-C ,  9-C ) :   1.0665
B(  8-C , 15-C ) :   1.6267 B(  9-C , 10-C ) :   1.6506 B( 10-C , 11-C ) :   1.1479
B( 10-C , 13-C ) :   1.1369 B( 11-C , 12-N ) :   2.9895 B( 13-C , 14-N ) :   2.9703
B( 15-C , 16-C ) :   1.1128 B( 15-C , 78-H ) :   0.9391 B( 16-C , 17-C ) :   1.5413
B( 16-C , 20-C ) :   1.0320 B( 17-C , 18-C ) :   1.1134 B( 17-C , 79-H ) :   0.9863
B( 18-C , 19-C ) :   1.1128 B( 18-C , 23-C ) :   1.4068 B( 19-C , 20-C ) :   1.6617
B( 19-C , 21-C ) :   1.0869 B( 20-C , 80-H ) :   1.0242 B( 21-C , 22-N ) :   2.9771
B( 23-C , 24-C ) :   1.1083 B( 23-C , 27-C ) :   1.0904 B( 24-C , 25-C ) :   1.5419
B( 24-C , 81-H ) :   1.0181 B( 25-C , 26-C ) :   1.0310 B( 25-C , 30-C ) :   1.0849
B( 26-C , 27-C ) :   1.7158 B( 26-C , 82-H ) :   1.0064 B( 27-C , 28-C ) :   1.0820
B( 28-C , 29-N ) :   2.9706 B( 30-C , 31-S ) :   1.0703 B( 30-C , 34-N ) :   1.6516
B( 31-S , 32-C ) :   1.1061 B( 32-C , 33-C ) :   1.4087 B( 32-C , 37-C ) :   1.2286
B( 33-C , 34-N ) :   1.4901 B( 33-C , 35-C ) :   1.0398 B( 35-C , 36-C ) :   0.9741
B( 35-C , 83-H ) :   0.8601 B( 35-C , 84-H ) :   0.8618 B( 36-C , 37-C ) :   1.4287
B( 36-C , 40-C ) :   1.3916 B( 37-C , 38-S ) :   1.1202 B( 38-S , 39-C ) :   1.1012
B( 39-C , 40-C ) :   1.3605 B( 39-C , 41-C ) :   1.2411 B( 40-C , 85-H ) :   0.9970
B( 41-C , 42-C ) :   1.4572 B( 41-C , 86-H ) :   0.9252 B( 42-C , 43-C ) :   1.2988
B( 42-C , 87-H ) :   0.9543 B( 43-C , 44-C ) :   1.4103 B( 43-C , 50-C ) :   0.9912
B( 44-C , 45-N ) :   0.9723 B( 44-C , 48-C ) :   1.1696 B( 45-N , 46-O ) :   1.4842
B( 45-N , 47-O ) :   1.5262 B( 46-O , 47-O ) :   0.2466 B( 48-C , 49-C ) :   1.4888
B( 48-C , 88-H ) :   1.0121 B( 49-C , 50-C ) :   1.2055 B( 49-C , 89-H ) :   1.0067
B( 50-C , 51-C ) :   1.4282 B( 51-C , 52-C ) :   1.1649 B( 51-C , 58-C ) :   1.0465
B( 52-C , 53-C ) :   1.5302 B( 52-C , 90-H ) :   0.9960 B( 53-C , 54-C ) :   1.1774
B( 53-C , 91-H ) :   1.0130 B( 54-C , 55-N ) :   0.9372 B( 54-C , 58-C ) :   1.4683
B( 55-N , 56-O ) :   1.5001 B( 55-N , 57-O ) :   1.5427 B( 56-O , 57-O ) :   0.2682
B( 58-C , 59-C ) :   1.1563 B( 59-C , 60-C ) :   1.5636 B( 59-C , 92-H ) :   0.9719
B( 60-C , 61-C ) :   1.1612 B( 60-C , 93-H ) :   0.9436 B( 61-C , 62-C ) :   1.5843
B( 61-C , 94-H ) :   0.9606 B( 62-C , 63-C ) :   0.9370 B( 62-C , 70-C ) :   1.0534
B( 63-C , 64-O ) :   2.2769 B( 63-C , 65-C ) :   0.9290 B( 65-C , 66-C ) :   1.4862
B( 65-C , 69-C ) :   1.2205 B( 66-C , 67-S ) :   1.1475 B( 66-C , 76-Cl) :   1.1310
B( 67-S , 68-C ) :   1.1627 B( 68-C , 69-C ) :   1.5474 B( 68-C , 95-H ) :   0.9537
B( 69-C , 70-C ) :   1.0116 B( 70-C , 71-C ) :   1.6187 B( 71-C , 72-C ) :   1.1358
B( 71-C , 74-C ) :   1.1702 B( 72-C , 73-N ) :   2.9949 B( 74-C , 75-N ) :   2.9457

-----------------------------------------------------------------------------
         ABSORPTION SPECTRUM VIA TRANSITION ELECTRIC DIPOLE MOMENTS
-----------------------------------------------------------------------------
State   Energy  Wavelength   fosc         T2         TX        TY        TZ
        (cm-1)    (nm)                  (au**2)     (au)      (au)      (au)
-----------------------------------------------------------------------------
   0    6989.3   1430.8   0.474915784  22.36973  -2.14789  -2.60019   3.31592
   1   11648.2    858.5   0.713532556  20.16654   1.23243   3.54729  -2.46259
   2   13190.7    758.1   0.058863756   1.46911   0.61674   0.70194   0.77202
   3   15732.1    635.6   0.014906840   0.31194  -0.15083  -0.01480   0.53756
   4   17504.6    571.3   0.187959683   3.53498   0.45454   1.69908   0.66446
   5   18248.0    548.0   0.116580396   2.10322  -0.53967  -1.14960   0.70028
   6   19642.4    509.1   0.419874646   7.03722   0.61361   2.08828  -1.51650
   7   21206.1    471.6   0.337929464   5.24615   0.44623  -0.36825   2.21617
   8   22451.5    445.4   0.039160353   0.57422   0.37751   0.61376  -0.23453
   9   22517.7    444.1   0.031659838   0.46287  -0.47902  -0.40116   0.26922
  10   22896.4    436.7   0.026950212   0.38750  -0.23885  -0.52153  -0.24178
  11   23300.9    429.2   0.031212994   0.44100   0.22122   0.44801  -0.43744
  12   23862.8    419.1   0.250981809   3.46255   0.57375   1.67142  -0.58286
  13   24902.0    401.6   0.277680997   3.67103  -0.33686  -1.07698   1.54844
  14   25953.1    385.3   0.035149661   0.44587  -0.29329   0.57892  -0.15718
  15   26123.7    382.8   0.045289027   0.57074   0.62858  -0.17726   0.37974
  16   26164.0    382.2   0.058500471   0.73609  -0.28417  -0.72536   0.35944
  17   26407.1    378.7   0.048296427   0.60210  -0.09670   0.70355  -0.31268
  18   26522.9    377.0   0.094650088   1.17483   0.81952  -0.18754   0.68414
  19   26892.2    371.9   0.093807046   1.14838   0.88318  -0.34302   0.50071
  20   27049.1    369.7   0.050200479   0.61098   0.54187  -0.06839   0.55918
  21   27178.2    367.9   0.219152017   2.65461   1.22805  -0.95856   0.47712
  22   28061.8    356.4   0.031099445   0.36485  -0.08165  -0.00483  -0.59846
  23   28393.7    352.2   0.155096572   1.79827  -0.37830  -0.91843   0.90092
  24   28678.5    348.7   0.085241393   0.97852   0.17774   0.77540  -0.58795
  25   28931.8    345.6   0.199881414   2.27443  -0.55515   0.80909  -1.14526
  26   29207.9    342.4   0.056553569   0.63743   0.24808  -0.68711   0.32214
  27   29303.4    341.3   0.069722468   0.78331  -0.26723   0.36716  -0.75966
  28   29781.3    335.8   0.096076651   1.06206   0.75774   0.41270  -0.56354
  29   29874.5    334.7   0.137261468   1.51260  -0.36009  -0.08075  -1.17321
  30   30417.0    328.8   0.031842628   0.34464   0.25503   0.28510  -0.44533
  31   30946.8    323.1   0.025708789   0.27349  -0.52123   0.00866  -0.04170
  32   31056.0    322.0   0.000520268   0.00552  -0.03178   0.02814   0.06094
  33   31210.7    320.4   0.029376915   0.30987  -0.46481   0.18198  -0.24639
  34   31483.4    317.6   0.021850690   0.22849   0.46373  -0.02598   0.11297
  35   31553.8    316.9   0.014978652   0.15628  -0.27760  -0.21685  -0.17941
  36   31796.3    314.5   0.156432122   1.61966  -1.26462   0.03367  -0.13877
  37   32010.2    312.4   0.041545910   0.42728  -0.43634   0.07051  -0.48158
  38   32176.9    310.8   0.009201962   0.09415  -0.15058   0.14312   0.22581
  39   32325.0    309.4   0.090379627   0.92047  -0.76257   0.32423  -0.48355
  40   32599.0    306.8   0.075754292   0.76503  -0.00480  -0.31514  -0.81590
  41   32835.7    304.5   0.175678126   1.76136   0.46254  -0.17159  -1.23206
  42   33177.4    301.4   0.052113364   0.51711   0.25145  -0.10209   0.66593
  43   33258.4    300.7   0.036652800   0.36281   0.42774  -0.31264  -0.28655
  44   33535.6    298.2   0.159714964   1.56789  -0.96229   0.32775  -0.73107
  45   33671.1    297.0   0.020191386   0.19742   0.42696  -0.07373   0.09843
  46   34049.7    293.7   0.088248210   0.85324  -0.76206   0.50890  -0.11629
  47   34131.2    293.0   0.056562918   0.54558   0.30338  -0.42472   0.52264
  48   34430.2    290.4   0.010296970   0.09846  -0.18755   0.17257  -0.18304
  49   34626.7    288.8   0.031177524   0.29642   0.44832  -0.10187  -0.29163
  50   34741.2    287.8   0.007255766   0.06876  -0.24145   0.07825   0.06586
  51   35123.7    284.7   0.023558722   0.22081   0.08642   0.05823  -0.45821
  52   35156.2    284.4   0.011690601   0.10947  -0.05546   0.31375  -0.08923
  53   35230.3    283.8   0.038302598   0.35792   0.30855   0.12613  -0.49680
  54   35280.2    283.4   0.043075263   0.40195  -0.33615   0.31191  -0.43780
  55   35485.0    281.8   0.002337397   0.02169   0.09839  -0.07653  -0.07840
  56   35926.7    278.3   0.042892512   0.39304   0.41629  -0.46395   0.06703
  57   36012.3    277.7   0.007601022   0.06949   0.20526  -0.12039  -0.11341
  58   36147.4    276.6   0.245504482   2.23593   1.13689  -0.63833   0.73208
  59   36305.7    275.4   0.032837754   0.29777   0.40999  -0.34558  -0.10123
  60   36577.4    273.4   0.147770380   1.33000  -1.12443   0.17996   0.18237
  61   36934.9    270.7   0.000895387   0.00798   0.05049  -0.02957   0.06750
  62   37185.3    268.9   0.072361579   0.64064   0.77648  -0.12965   0.14457
  63   37591.5    266.0   0.022594605   0.19787  -0.19229   0.32281   0.23809
  64   37643.9    265.6   0.036347002   0.31787   0.27928  -0.33120  -0.36080
  65   37756.2    264.9   0.097318279   0.84856   0.65703  -0.13072   0.63229
  66   38087.0    262.6   0.019096729   0.16507  -0.32981  -0.10796  -0.21127
  67   38236.5    261.5   0.003346912   0.02882   0.15749   0.02557  -0.05797
  68   38243.7    261.5   0.064100796   0.55180  -0.09186   0.05424   0.73513
  69   38338.9    260.8   0.006203271   0.05327   0.02335   0.07472  -0.21711
  70   38378.1    260.6   0.384402500   3.29745   0.51709  -0.07886  -1.73892
  71   38481.4    259.9   0.001591933   0.01362   0.10342  -0.02790   0.04632
  72   38651.3    258.7   0.289310435   2.46420   1.52241   0.06163  -0.37773
  73   38668.6    258.6   0.005915974   0.05037   0.09239  -0.02249   0.20329
  74   38837.6    257.5   0.076719551   0.65032   0.80306   0.02588   0.06886
  75   39000.2    256.4   0.003595702   0.03035   0.12747  -0.06101   0.10189
  76   39114.3    255.7   0.017107163   0.14399   0.35368   0.07260  -0.11672
  77   39307.0    254.4   0.115107831   0.96407   0.50501  -0.64546   0.54076
  78   39439.7    253.6   0.007115204   0.05939  -0.12414   0.09560  -0.18666
  79   39600.7    252.5   0.135720903   1.12829  -0.78236   0.37222   0.61453
  80   39805.7    251.2   0.011506027   0.09516  -0.18283  -0.11902  -0.21810
  81   39926.2    250.5   0.028087575   0.23160   0.39592  -0.02713   0.27223
  82   40001.6    250.0   0.036663371   0.30174   0.53394  -0.10478   0.07531
  83   40246.9    248.5   0.041892146   0.34267  -0.39370   0.04044  -0.43132
  84   40287.5    248.2   0.002754928   0.02251  -0.04628  -0.10487   0.09681

FINAL SINGLE POINT ENERGY     -5597.527029962162

DIPOLE MOMENT
-------------
                                X             Y             Z
Electronic contribution:     -8.48581      41.19850       3.96584
Nuclear contribution   :      7.15253     -41.37344      -3.44138
                        -----------------------------------------
Total Dipole Moment    :     -1.33327      -0.17494       0.52447
                        -----------------------------------------
Magnitude (a.u.)       :      1.44336
Magnitude (Debye)      :      3.66873

Rotational constants in cm-1:     0.001327     0.000170     0.000167
Rotational constants in MHz :    39.786771     5.087594     5.014642

                             ****ORCA TERMINATED NORMALLY****
TOTAL RUN TIME: 0 days 0 hours 12 minutes 46 seconds 730 msec
