                         Program Version 4.2.0 -  RELEASE  -
|  1> # ORCA input file
|  2> # SCF done       -212.953787039178          0.000668242156
|  3> ! CAM-B3LYP def2-SVP def2/J RIJCOSX Grid4 TightSCF
|  4> %maxcore 5000
|  5> %tddft
|  6>     Mode sTDDFT
|  7>     Ethresh 5.0
|  8>     maxcore 5000
|  9> end
| 10>
| 11> %pal
| 12>   nprocs 6
| 13>   end
| 14> * xyz 0 1
| 15>    C        3.54877        -5.56370        -5.34315
| 16>    C        3.04253        -6.07102        -6.49968
| 17>    S        2.48388        -4.81319        -7.54266
| 18>    C        2.94997        -3.57448        -6.40247
| 19>   Cl        2.64604        -1.93737        -6.71171
| 20>    C        3.51017        -4.13261        -5.29300
| 21>    C        4.06011        -3.66460        -4.01807
| 22>    O        4.31804        -2.52843        -3.69488
| 23>    C        4.29739        -4.91329        -3.22367
| 24>    C        4.06313        -6.07129        -4.08752
| 25>    C        4.19048        -7.39567        -3.78199
| 26>    C        3.80835        -8.39460        -4.70381
| 27>    N        3.48331        -9.21219        -5.43940
| 28>    C        4.68265        -7.92623        -2.57169
| 29>    N        5.09365        -8.42276        -1.62228
| 30>    C        4.61862        -4.95973        -1.91198
| 31>    C        4.63720        -3.85878        -0.96456
| 32>    C        5.72472        -3.78757        -0.08186
| 33>    C        5.78460        -2.74443         0.81131
| 34>    C        4.76353        -1.78818         0.87061
| 35>    C        5.11190        -0.80895         1.93181
| 36>    O        4.50649         0.16396         2.30201
| 37>    N        6.32949        -1.23557         2.43697
| 38>    C        6.80520        -2.38978         1.82871
| 39>    O        7.84094        -2.93895         2.10029
| 40>    C        7.02029        -0.56692         3.51962
| 41>    C        6.60447        -1.13257         4.87262
| 42>    C        3.67014        -1.86171         0.04324
| 43>    C        3.59227        -2.90743        -0.88858
| 44>    C        2.45396        -3.02890        -1.76945
| 45>    C        1.79391        -1.98078        -2.30425
| 46>    C        0.85918        -2.14828        -3.36487
| 47>    N        0.25175        -1.09478        -4.00366
| 48>    C        0.41838         0.30872        -3.70454
| 49>    C        1.69454         0.86593        -4.33130
| 50>    C       -0.51198        -1.51460        -5.09976
| 51>    O       -1.13489        -0.74838        -5.81413
| 52>    C       -0.36602        -2.95262        -5.11707
| 53>    C        0.47443        -3.31277        -4.02634
| 54>    C        0.66860        -4.74063        -4.07714
| 55>    O        1.31526        -5.50648        -3.37935
| 56>    N       -0.04933        -5.15680        -5.20679
| 57>    C       -0.18358        -6.55380        -5.54494
| 58>    C       -1.55344        -7.10290        -5.15587
| 59>    C       -0.66979        -4.10148        -5.84089
| 60>    C       -1.40832        -4.22707        -7.05027
| 61>    C       -2.07728        -3.16325        -7.55283
| 62>    C       -2.84082        -3.08685        -8.76952
| 63>    C       -3.08867        -4.22091        -9.56143
| 64>    C       -3.89619        -4.09702       -10.66405
| 65>    C       -4.47953        -2.86996       -11.00813
| 66>    C       -5.29861        -3.08065       -12.22756
| 67>    O       -5.98078        -2.30346       -12.84147
| 68>    N       -5.14599        -4.42655       -12.54330
| 69>    C       -4.32418        -5.10813       -11.66240
| 70>    O       -4.05080        -6.28014       -11.72661
| 71>    C       -5.76036        -5.04141       -13.70089
| 72>    C       -4.87205        -4.90656       -14.93249
| 73>    C       -4.24293        -1.73827       -10.26298
| 74>    C       -3.40664        -1.83585        -9.14098
| 75>    C       -3.09994        -0.64324        -8.37861
| 76>    C       -3.97252         0.35184        -8.11483
| 77>    C       -3.58739         1.45314        -7.30315
| 78>    C       -4.28726         2.58494        -7.02637
| 79>    C       -3.88083         3.41751        -5.85098
| 80>    O       -2.85287         3.32373        -5.22416
| 81>    C       -5.02633         4.30615        -5.61848
| 82>    C       -5.39671         5.24661        -4.70509
| 83>    S       -6.97341         5.89373        -5.09470
| 84>    C       -7.10823         4.89155        -6.49376
| 85>    C       -6.00919         4.10536        -6.64338
| 86>    C       -5.51083         3.12500        -7.59159
| 87>    C       -6.03209         2.92808        -8.84299
| 88>    C       -7.22545         3.56506        -9.24533
| 89>    N       -8.20423         4.06358        -9.57619
| 90>    C       -5.42283         2.18338        -9.87176
| 91>    N       -4.95108         1.62513       -10.75701
| 92>   Cl       -4.53331         5.78863        -3.35184
| 93>    H        2.95260        -7.09171        -6.81423
| 94>    H        4.89740        -5.91594        -1.48534
| 95>    H        6.51447        -4.52216        -0.12595
| 96>    H        6.77174         0.49515         3.45766
| 97>    H        8.09186        -0.70915         3.36106
| 98>    H        5.53516        -1.00218         5.02216
| 99>    H        7.13440        -0.61335         5.66591
|100>    H        6.84398        -2.19198         4.92675
|101>    H        2.87210        -1.14084         0.12680
|102>    H        2.18980        -4.02793        -2.09056
|103>    H        2.05471        -0.97228        -2.02171
|104>    H        0.41830         0.45093        -2.62144
|105>    H       -0.45055         0.82275        -4.12526
|106>    H        2.56983         0.30944        -4.00145
|107>    H        1.81397         1.90944        -4.05451
|108>    H        1.63269         0.80276        -5.41523
|109>    H        0.59615        -7.07861        -4.98580
|110>    H       -0.00053        -6.69213        -6.61457
|111>    H       -1.70687        -6.99642        -4.08476
|112>    H       -1.61070        -8.15696        -5.41171
|113>    H       -2.34850        -6.57127        -5.67418
|114>    H       -1.39632        -5.18523        -7.54714
|115>    H       -2.05100        -2.26137        -6.96237
|116>    H       -2.66764        -5.18080        -9.30923
|117>    H       -6.71796        -4.54215       -13.86725
|118>    H       -5.92501        -6.09474       -13.46175
|119>    H       -4.70127        -3.85656       -15.15840
|120>    H       -5.35430        -5.37396       -15.78615
|121>    H       -3.91454        -5.39321       -14.76118
|122>    H       -4.65400        -0.78433       -10.55949
|123>    H       -2.09718        -0.54375        -7.98601
|124>    H       -4.99596         0.28451        -8.45406
|125>    H       -2.65277         1.34058        -6.76239
|126>    H       -7.99167         4.94955        -7.09796
|127> *
|128>
|129>                          ****END OF INPUT****

CARTESIAN COORDINATES (ANGSTROEM)
---------------------------------
  C      3.548770   -5.563700   -5.343150
  C      3.042530   -6.071020   -6.499680
  S      2.483880   -4.813190   -7.542660
  C      2.949970   -3.574480   -6.402470
  Cl     2.646040   -1.937370   -6.711710
  C      3.510170   -4.132610   -5.293000
  C      4.060110   -3.664600   -4.018070
  O      4.318040   -2.528430   -3.694880
  C      4.297390   -4.913290   -3.223670
  C      4.063130   -6.071290   -4.087520
  C      4.190480   -7.395670   -3.781990
  C      3.808350   -8.394600   -4.703810
  N      3.483310   -9.212190   -5.439400
  C      4.682650   -7.926230   -2.571690
  N      5.093650   -8.422760   -1.622280
  C      4.618620   -4.959730   -1.911980
  C      4.637200   -3.858780   -0.964560
  C      5.724720   -3.787570   -0.081860
  C      5.784600   -2.744430    0.811310
  C      4.763530   -1.788180    0.870610
  C      5.111900   -0.808950    1.931810
  O      4.506490    0.163960    2.302010
  N      6.329490   -1.235570    2.436970
  C      6.805200   -2.389780    1.828710
  O      7.840940   -2.938950    2.100290
  C      7.020290   -0.566920    3.519620
  C      6.604470   -1.132570    4.872620
  C      3.670140   -1.861710    0.043240
  C      3.592270   -2.907430   -0.888580
  C      2.453960   -3.028900   -1.769450
  C      1.793910   -1.980780   -2.304250
  C      0.859180   -2.148280   -3.364870
  N      0.251750   -1.094780   -4.003660
  C      0.418380    0.308720   -3.704540
  C      1.694540    0.865930   -4.331300
  C     -0.511980   -1.514600   -5.099760
  O     -1.134890   -0.748380   -5.814130
  C     -0.366020   -2.952620   -5.117070
  C      0.474430   -3.312770   -4.026340
  C      0.668600   -4.740630   -4.077140
  O      1.315260   -5.506480   -3.379350
  N     -0.049330   -5.156800   -5.206790
  C     -0.183580   -6.553800   -5.544940
  C     -1.553440   -7.102900   -5.155870
  C     -0.669790   -4.101480   -5.840890
  C     -1.408320   -4.227070   -7.050270
  C     -2.077280   -3.163250   -7.552830
  C     -2.840820   -3.086850   -8.769520
  C     -3.088670   -4.220910   -9.561430
  C     -3.896190   -4.097020  -10.664050
  C     -4.479530   -2.869960  -11.008130
  C     -5.298610   -3.080650  -12.227560
  O     -5.980780   -2.303460  -12.841470
  N     -5.145990   -4.426550  -12.543300
  C     -4.324180   -5.108130  -11.662400
  O     -4.050800   -6.280140  -11.726610
  C     -5.760360   -5.041410  -13.700890
  C     -4.872050   -4.906560  -14.932490
  C     -4.242930   -1.738270  -10.262980
  C     -3.406640   -1.835850   -9.140980
  C     -3.099940   -0.643240   -8.378610
  C     -3.972520    0.351840   -8.114830
  C     -3.587390    1.453140   -7.303150
  C     -4.287260    2.584940   -7.026370
  C     -3.880830    3.417510   -5.850980
  O     -2.852870    3.323730   -5.224160
  C     -5.026330    4.306150   -5.618480
  C     -5.396710    5.246610   -4.705090
  S     -6.973410    5.893730   -5.094700
  C     -7.108230    4.891550   -6.493760
  C     -6.009190    4.105360   -6.643380
  C     -5.510830    3.125000   -7.591590
  C     -6.032090    2.928080   -8.842990
  C     -7.225450    3.565060   -9.245330
  N     -8.204230    4.063580   -9.576190
  C     -5.422830    2.183380   -9.871760
  N     -4.951080    1.625130  -10.757010
  Cl    -4.533310    5.788630   -3.351840
  H      2.952600   -7.091710   -6.814230
  H      4.897400   -5.915940   -1.485340
  H      6.514470   -4.522160   -0.125950
  H      6.771740    0.495150    3.457660
  H      8.091860   -0.709150    3.361060
  H      5.535160   -1.002180    5.022160
  H      7.134400   -0.613350    5.665910
  H      6.843980   -2.191980    4.926750
  H      2.872100   -1.140840    0.126800
  H      2.189800   -4.027930   -2.090560
  H      2.054710   -0.972280   -2.021710
  H      0.418300    0.450930   -2.621440
  H     -0.450550    0.822750   -4.125260
  H      2.569830    0.309440   -4.001450
  H      1.813970    1.909440   -4.054510
  H      1.632690    0.802760   -5.415230
  H      0.596150   -7.078610   -4.985800
  H     -0.000530   -6.692130   -6.614570
  H     -1.706870   -6.996420   -4.084760
  H     -1.610700   -8.156960   -5.411710
  H     -2.348500   -6.571270   -5.674180
  H     -1.396320   -5.185230   -7.547140
  H     -2.051000   -2.261370   -6.962370
  H     -2.667640   -5.180800   -9.309230
  H     -6.717960   -4.542150  -13.867250
  H     -5.925010   -6.094740  -13.461750
  H     -4.701270   -3.856560  -15.158400
  H     -5.354300   -5.373960  -15.786150
  H     -3.914540   -5.393210  -14.761180
  H     -4.654000   -0.784330  -10.559490
  H     -2.097180   -0.543750   -7.986010
  H     -4.995960    0.284510   -8.454060
  H     -2.652770    1.340580   -6.762390
  H     -7.991670    4.949550   -7.097960

 Total Charge           Charge          ....    0
 Multiplicity           Mult            ....    1
 Number of Electrons    NEL             ....  568
 Basis Dimension        Dim             .... 1278

ORBITAL ENERGIES
----------------

  NO   OCC          E(Eh)            E(eV)
   0   2.0000    -101.629527     -2765.4800
   1   2.0000    -101.618192     -2765.1716
   2   2.0000     -89.002731     -2421.8875
   3   2.0000     -88.993945     -2421.6484
   4   2.0000     -19.232638      -523.3467
   5   2.0000     -19.219368      -522.9856
   6   2.0000     -19.217215      -522.9270
   7   2.0000     -19.216386      -522.9045
   8   2.0000     -19.213769      -522.8332
   9   2.0000     -19.212144      -522.7890
  10   2.0000     -19.210186      -522.7357
  11   2.0000     -19.206169      -522.6264
  12   2.0000     -14.468656      -393.7121
  13   2.0000     -14.468246      -393.7010
  14   2.0000     -14.458184      -393.4272
  15   2.0000     -14.454699      -393.3324
  16   2.0000     -14.427873      -392.6024
  17   2.0000     -14.427742      -392.5988
  18   2.0000     -14.423154      -392.4740
  19   2.0000     -14.421574      -392.4310
  20   2.0000     -10.397263      -282.9239
  21   2.0000     -10.396675      -282.9079
  22   2.0000     -10.393752      -282.8284
  23   2.0000     -10.392151      -282.7848
  24   2.0000     -10.390390      -282.7369
  25   2.0000     -10.388976      -282.6984
  26   2.0000     -10.386581      -282.6332
  27   2.0000     -10.384317      -282.5716
  28   2.0000     -10.376645      -282.3629
  29   2.0000     -10.375503      -282.3318
  30   2.0000     -10.355421      -281.7853
  31   2.0000     -10.354807      -281.7686
  32   2.0000     -10.353905      -281.7441
  33   2.0000     -10.352150      -281.6963
  34   2.0000     -10.351364      -281.6749
  35   2.0000     -10.350507      -281.6516
  36   2.0000     -10.336177      -281.2617
  37   2.0000     -10.330105      -281.0964
  38   2.0000     -10.329729      -281.0862
  39   2.0000     -10.329345      -281.0758
  40   2.0000     -10.328243      -281.0458
  41   2.0000     -10.326297      -280.9928
  42   2.0000     -10.323567      -280.9185
  43   2.0000     -10.321100      -280.8514
  44   2.0000     -10.319745      -280.8145
  45   2.0000     -10.318918      -280.7920
  46   2.0000     -10.318081      -280.7693
  47   2.0000     -10.317741      -280.7600
  48   2.0000     -10.317219      -280.7458
  49   2.0000     -10.316324      -280.7215
  50   2.0000     -10.313751      -280.6514
  51   2.0000     -10.313463      -280.6436
  52   2.0000     -10.311675      -280.5949
  53   2.0000     -10.310105      -280.5522
  54   2.0000     -10.308908      -280.5196
  55   2.0000     -10.308279      -280.5025
  56   2.0000     -10.307634      -280.4850
  57   2.0000     -10.306620      -280.4574
  58   2.0000     -10.306306      -280.4488
  59   2.0000     -10.306048      -280.4418
  60   2.0000     -10.305786      -280.4347
  61   2.0000     -10.305058      -280.4149
  62   2.0000     -10.303789      -280.3804
  63   2.0000     -10.303036      -280.3599
  64   2.0000     -10.302807      -280.3536
  65   2.0000     -10.302518      -280.3458
  66   2.0000     -10.301504      -280.3182
  67   2.0000     -10.301365      -280.3144
  68   2.0000     -10.300715      -280.2967
  69   2.0000     -10.300257      -280.2842
  70   2.0000     -10.299711      -280.2694
  71   2.0000     -10.297273      -280.2030
  72   2.0000     -10.275104      -279.5998
  73   2.0000     -10.273843      -279.5655
  74   2.0000     -10.273715      -279.5620
  75   2.0000     -10.267957      -279.4053
  76   2.0000     -10.261469      -279.2288
  77   2.0000     -10.259042      -279.1627
  78   2.0000      -9.583651      -260.7844
  79   2.0000      -9.573001      -260.4946
  80   2.0000      -8.097838      -220.3534
  81   2.0000      -8.089603      -220.1293
  82   2.0000      -7.354232      -200.1188
  83   2.0000      -7.343758      -199.8338
  84   2.0000      -7.343637      -199.8305
  85   2.0000      -7.343235      -199.8196
  86   2.0000      -7.333026      -199.5418
  87   2.0000      -7.332508      -199.5277
  88   2.0000      -6.067276      -165.0990
  89   2.0000      -6.062671      -164.9737
  90   2.0000      -6.060085      -164.9033
  91   2.0000      -6.058995      -164.8736
  92   2.0000      -6.054393      -164.7484
  93   2.0000      -6.051854      -164.6793
  94   2.0000      -1.163032       -31.6477
  95   2.0000      -1.159248       -31.5447
  96   2.0000      -1.150183       -31.2981
  97   2.0000      -1.148748       -31.2590
  98   2.0000      -1.142797       -31.0971
  99   2.0000      -1.139553       -31.0088
 100   2.0000      -1.135868       -30.9085
 101   2.0000      -1.135636       -30.9022
 102   2.0000      -1.078768       -29.3548
 103   2.0000      -1.070299       -29.1243
 104   2.0000      -1.054050       -28.6822
 105   2.0000      -1.050238       -28.5784
 106   2.0000      -1.046203       -28.4686
 107   2.0000      -1.038746       -28.2657
 108   2.0000      -1.025129       -27.8952
 109   2.0000      -1.019514       -27.7424
 110   2.0000      -1.006485       -27.3879
 111   2.0000      -1.001286       -27.2464
 112   2.0000      -0.999371       -27.1943
 113   2.0000      -0.992321       -27.0024
 114   2.0000      -0.990788       -26.9607
 115   2.0000      -0.988617       -26.9016
 116   2.0000      -0.962464       -26.1900
 117   2.0000      -0.955969       -26.0132
 118   2.0000      -0.942316       -25.6417
 119   2.0000      -0.935037       -25.4436
 120   2.0000      -0.933338       -25.3974
 121   2.0000      -0.926254       -25.2046
 122   2.0000      -0.919413       -25.0185
 123   2.0000      -0.909700       -24.7542
 124   2.0000      -0.907966       -24.7070
 125   2.0000      -0.895936       -24.3796
 126   2.0000      -0.886548       -24.1242
 127   2.0000      -0.879380       -23.9292
 128   2.0000      -0.873444       -23.7676
 129   2.0000      -0.867355       -23.6019
 130   2.0000      -0.854456       -23.2509
 131   2.0000      -0.843901       -22.9637
 132   2.0000      -0.840404       -22.8686
 133   2.0000      -0.837042       -22.7771
 134   2.0000      -0.833089       -22.6695
 135   2.0000      -0.830440       -22.5974
 136   2.0000      -0.811997       -22.0956
 137   2.0000      -0.799131       -21.7455
 138   2.0000      -0.791826       -21.5467
 139   2.0000      -0.786460       -21.4007
 140   2.0000      -0.771012       -20.9803
 141   2.0000      -0.765011       -20.8170
 142   2.0000      -0.762599       -20.7514
 143   2.0000      -0.759900       -20.6779
 144   2.0000      -0.755334       -20.5537
 145   2.0000      -0.752220       -20.4690
 146   2.0000      -0.748141       -20.3579
 147   2.0000      -0.727996       -19.8098
 148   2.0000      -0.720884       -19.6162
 149   2.0000      -0.717662       -19.5286
 150   2.0000      -0.714250       -19.4357
 151   2.0000      -0.711263       -19.3545
 152   2.0000      -0.706006       -19.2114
 153   2.0000      -0.696593       -18.9553
 154   2.0000      -0.692502       -18.8439
 155   2.0000      -0.684529       -18.6270
 156   2.0000      -0.679904       -18.5011
 157   2.0000      -0.677460       -18.4346
 158   2.0000      -0.676995       -18.4220
 159   2.0000      -0.669679       -18.2229
 160   2.0000      -0.664940       -18.0939
 161   2.0000      -0.660336       -17.9687
 162   2.0000      -0.650328       -17.6963
 163   2.0000      -0.642707       -17.4890
 164   2.0000      -0.638481       -17.3739
 165   2.0000      -0.629696       -17.1349
 166   2.0000      -0.625406       -17.0182
 167   2.0000      -0.621176       -16.9031
 168   2.0000      -0.618351       -16.8262
 169   2.0000      -0.612650       -16.6710
 170   2.0000      -0.609105       -16.5746
 171   2.0000      -0.606354       -16.4997
 172   2.0000      -0.597128       -16.2487
 173   2.0000      -0.593569       -16.1518
 174   2.0000      -0.592881       -16.1331
 175   2.0000      -0.591949       -16.1078
 176   2.0000      -0.584899       -15.9159
 177   2.0000      -0.582691       -15.8558
 178   2.0000      -0.576906       -15.6984
 179   2.0000      -0.573213       -15.5979
 180   2.0000      -0.567911       -15.4536
 181   2.0000      -0.564922       -15.3723
 182   2.0000      -0.562206       -15.2984
 183   2.0000      -0.559427       -15.2228
 184   2.0000      -0.554223       -15.0812
 185   2.0000      -0.549351       -14.9486
 186   2.0000      -0.548805       -14.9337
 187   2.0000      -0.548126       -14.9153
 188   2.0000      -0.546690       -14.8762
 189   2.0000      -0.544818       -14.8252
 190   2.0000      -0.544270       -14.8103
 191   2.0000      -0.542122       -14.7519
 192   2.0000      -0.540067       -14.6960
 193   2.0000      -0.539428       -14.6786
 194   2.0000      -0.536936       -14.6108
 195   2.0000      -0.532980       -14.5031
 196   2.0000      -0.532170       -14.4811
 197   2.0000      -0.531669       -14.4674
 198   2.0000      -0.530280       -14.4297
 199   2.0000      -0.527621       -14.3573
 200   2.0000      -0.526505       -14.3269
 201   2.0000      -0.525714       -14.3054
 202   2.0000      -0.520781       -14.1712
 203   2.0000      -0.519662       -14.1407
 204   2.0000      -0.517228       -14.0745
 205   2.0000      -0.515684       -14.0325
 206   2.0000      -0.513441       -13.9714
 207   2.0000      -0.512024       -13.9329
 208   2.0000      -0.509105       -13.8535
 209   2.0000      -0.508347       -13.8328
 210   2.0000      -0.506563       -13.7843
 211   2.0000      -0.504998       -13.7417
 212   2.0000      -0.501132       -13.6365
 213   2.0000      -0.498802       -13.5731
 214   2.0000      -0.496787       -13.5183
 215   2.0000      -0.493566       -13.4306
 216   2.0000      -0.490576       -13.3493
 217   2.0000      -0.489985       -13.3332
 218   2.0000      -0.487007       -13.2521
 219   2.0000      -0.485847       -13.2206
 220   2.0000      -0.483652       -13.1609
 221   2.0000      -0.482023       -13.1165
 222   2.0000      -0.479647       -13.0519
 223   2.0000      -0.477079       -12.9820
 224   2.0000      -0.472116       -12.8469
 225   2.0000      -0.469425       -12.7737
 226   2.0000      -0.467060       -12.7093
 227   2.0000      -0.466657       -12.6984
 228   2.0000      -0.464999       -12.6533
 229   2.0000      -0.462990       -12.5986
 230   2.0000      -0.461211       -12.5502
 231   2.0000      -0.460335       -12.5264
 232   2.0000      -0.459773       -12.5111
 233   2.0000      -0.457924       -12.4608
 234   2.0000      -0.456927       -12.4336
 235   2.0000      -0.454762       -12.3747
 236   2.0000      -0.454466       -12.3667
 237   2.0000      -0.453188       -12.3319
 238   2.0000      -0.451063       -12.2740
 239   2.0000      -0.450134       -12.2488
 240   2.0000      -0.448375       -12.2009
 241   2.0000      -0.447475       -12.1764
 242   2.0000      -0.445398       -12.1199
 243   2.0000      -0.443134       -12.0583
 244   2.0000      -0.441274       -12.0077
 245   2.0000      -0.440352       -11.9826
 246   2.0000      -0.439721       -11.9654
 247   2.0000      -0.438791       -11.9401
 248   2.0000      -0.434927       -11.8350
 249   2.0000      -0.430972       -11.7274
 250   2.0000      -0.430391       -11.7115
 251   2.0000      -0.429104       -11.6765
 252   2.0000      -0.428624       -11.6635
 253   2.0000      -0.426192       -11.5973
 254   2.0000      -0.423588       -11.5264
 255   2.0000      -0.416771       -11.3409
 256   2.0000      -0.414858       -11.2889
 257   2.0000      -0.412907       -11.2358
 258   2.0000      -0.404531       -11.0078
 259   2.0000      -0.394604       -10.7377
 260   2.0000      -0.393265       -10.7013
 261   2.0000      -0.383665       -10.4401
 262   2.0000      -0.377988       -10.2856
 263   2.0000      -0.370931       -10.0935
 264   2.0000      -0.367304        -9.9948
 265   2.0000      -0.364723        -9.9246
 266   2.0000      -0.359344        -9.7782
 267   2.0000      -0.354341        -9.6421
 268   2.0000      -0.350076        -9.5260
 269   2.0000      -0.348840        -9.4924
 270   2.0000      -0.348179        -9.4744
 271   2.0000      -0.347390        -9.4530
 272   2.0000      -0.345317        -9.3966
 273   2.0000      -0.344257        -9.3677
 274   2.0000      -0.343979        -9.3601
 275   2.0000      -0.336608        -9.1596
 276   2.0000      -0.335976        -9.1424
 277   2.0000      -0.329567        -8.9680
 278   2.0000      -0.326247        -8.8776
 279   2.0000      -0.323166        -8.7938
 280   2.0000      -0.316202        -8.6043
 281   2.0000      -0.311916        -8.4877
 282   2.0000      -0.297118        -8.0850
 283   2.0000      -0.252943        -6.8829
 284   0.0000      -0.111821        -3.0428
 285   0.0000      -0.099937        -2.7194
 286   0.0000      -0.085143        -2.3169
 287   0.0000      -0.060841        -1.6556
 288   0.0000      -0.059541        -1.6202

MULLIKEN ATOMIC CHARGES
-----------------------
   0 C :    0.046336
   1 C :   -0.154527
   2 S :    0.180643
   3 C :   -0.180700
   4 Cl:    0.004853
   5 C :    0.101972
   6 C :    0.132982
   7 O :   -0.122402
   8 C :   -0.084530
   9 C :    0.339959
  10 C :   -0.324364
  11 C :   -0.198287
  12 N :    0.156545
  13 C :   -0.183192
  14 N :    0.165191
  15 C :   -0.058851
  16 C :    0.071899
  17 C :   -0.076861
  18 C :    0.014711
  19 C :    0.020784
  20 C :    0.189135
  21 O :   -0.154001
  22 N :   -0.300278
  23 C :    0.189264
  24 O :   -0.149099
  25 C :    0.127324
  26 C :   -0.009016
  27 C :   -0.094411
  28 C :    0.123329
  29 C :   -0.025709
  30 C :    0.004965
  31 C :    0.115801
  32 N :   -0.244174
  33 C :    0.089875
  34 C :   -0.002679
  35 C :    0.162407
  36 O :   -0.221748
  37 C :   -0.059790
  38 C :   -0.060928
  39 C :    0.170996
  40 O :   -0.236203
  41 N :   -0.262181
  42 C :    0.088860
  43 C :    0.018243
  44 C :    0.111879
  45 C :    0.007379
  46 C :   -0.047339
  47 C :    0.140099
  48 C :   -0.101799
  49 C :    0.016562
  50 C :    0.008738
  51 C :    0.190786
  52 O :   -0.143554
  53 N :   -0.302002
  54 C :    0.188886
  55 O :   -0.159796
  56 C :    0.133138
  57 C :   -0.009456
  58 C :   -0.066538
  59 C :    0.055024
  60 C :   -0.004940
  61 C :    0.015511
  62 C :    0.008820
  63 C :   -0.111530
  64 C :    0.137976
  65 O :   -0.132117
  66 C :    0.086237
  67 C :   -0.172138
  68 S :    0.184239
  69 C :   -0.128770
  70 C :    0.016374
  71 C :    0.281982
  72 C :   -0.325951
  73 C :   -0.190262
  74 N :    0.156635
  75 C :   -0.179394
  76 N :    0.166173
  77 Cl:   -0.003254
  78 H :    0.052108
  79 H :    0.038755
  80 H :    0.005641
  81 H :    0.034231
  82 H :    0.034640
  83 H :    0.026901
  84 H :    0.024870
  85 H :    0.029139
  86 H :   -0.004705
  87 H :    0.054712
  88 H :   -0.015284
  89 H :    0.027639
  90 H :    0.055730
  91 H :    0.029459
  92 H :    0.029881
  93 H :    0.020578
  94 H :    0.047955
  95 H :    0.016745
  96 H :    0.030868
  97 H :    0.032235
  98 H :    0.017462
  99 H :   -0.024749
 100 H :    0.022642
 101 H :   -0.014710
 102 H :    0.032115
 103 H :    0.032131
 104 H :    0.030681
 105 H :    0.023681
 106 H :    0.024192
 107 H :   -0.009409
 108 H :    0.041326
 109 H :    0.023323
 110 H :    0.034926
 111 H :    0.054554
Sum of atomic charges:   -0.0000000

LOEWDIN ATOMIC CHARGES
----------------------
   0 C :   -0.053449
   1 C :   -0.150188
   2 S :    0.476812
   3 C :   -0.272808
   4 Cl:    0.205053
   5 C :   -0.112317
   6 C :    0.082019
   7 O :   -0.122046
   8 C :   -0.062817
   9 C :    0.084843
  10 C :   -0.121713
  11 C :   -0.010627
  12 N :   -0.050928
  13 C :   -0.021119
  14 N :   -0.039109
  15 C :    0.073582
  16 C :   -0.009392
  17 C :    0.030627
  18 C :   -0.048980
  19 C :   -0.039444
  20 C :    0.087344
  21 O :   -0.155864
  22 N :   -0.034074
  23 C :    0.088374
  24 O :   -0.152303
  25 C :    0.044394
  26 C :   -0.059466
  27 C :    0.021970
  28 C :    0.009662
  29 C :    0.034836
  30 C :   -0.035067
  31 C :    0.083704
  32 N :    0.011361
  33 C :    0.037895
  34 C :   -0.062311
  35 C :    0.082275
  36 O :   -0.208346
  37 C :   -0.124419
  38 C :   -0.131877
  39 C :    0.078289
  40 O :   -0.216676
  41 N :    0.004131
  42 C :    0.032488
  43 C :   -0.058888
  44 C :    0.070408
  45 C :   -0.040192
  46 C :    0.027562
  47 C :   -0.011859
  48 C :    0.021521
  49 C :   -0.046436
  50 C :   -0.044972
  51 C :    0.088401
  52 O :   -0.146150
  53 N :   -0.034609
  54 C :    0.085843
  55 O :   -0.161412
  56 C :    0.044616
  57 C :   -0.059352
  58 C :    0.029819
  59 C :   -0.007645
  60 C :    0.041594
  61 C :   -0.020949
  62 C :    0.080556
  63 C :   -0.093997
  64 C :    0.081331
  65 O :   -0.137691
  66 C :   -0.117530
  67 C :   -0.273019
  68 S :    0.473351
  69 C :   -0.150681
  70 C :   -0.057951
  71 C :    0.073443
  72 C :   -0.138472
  73 C :   -0.016281
  74 N :   -0.048948
  75 C :   -0.015137
  76 N :   -0.044888
  77 Cl:    0.189288
  78 H :    0.035667
  79 H :    0.050021
  80 H :    0.044713
  81 H :    0.032989
  82 H :    0.033223
  83 H :    0.028193
  84 H :    0.031240
  85 H :    0.028947
  86 H :    0.039791
  87 H :    0.037307
  88 H :    0.031227
  89 H :    0.025616
  90 H :    0.041292
  91 H :    0.024996
  92 H :    0.033570
  93 H :    0.025736
  94 H :    0.036742
  95 H :    0.016173
  96 H :    0.033178
  97 H :    0.034707
  98 H :    0.023008
  99 H :    0.027635
 100 H :    0.037476
 101 H :    0.035771
 102 H :    0.032789
 103 H :    0.032255
 104 H :    0.029331
 105 H :    0.030796
 106 H :    0.027346
 107 H :    0.041325
 108 H :    0.040097
 109 H :    0.033455
 110 H :    0.050700
 111 H :    0.037693

  Mayer bond orders larger than 0.100000
B(  0-C ,  1-C ) :   1.5369 B(  0-C ,  5-C ) :   1.2270 B(  0-C ,  9-C ) :   0.9957
B(  1-C ,  2-S ) :   1.1535 B(  1-C , 78-H ) :   0.9536 B(  2-S ,  3-C ) :   1.1528
B(  3-C ,  4-Cl) :   1.1219 B(  3-C ,  5-C ) :   1.4630 B(  5-C ,  6-C ) :   0.9425
B(  6-C ,  7-O ) :   2.2371 B(  6-C ,  8-C ) :   0.9214 B(  8-C ,  9-C ) :   1.0359
B(  8-C , 15-C ) :   1.7487 B(  9-C , 10-C ) :   1.6803 B( 10-C , 11-C ) :   1.1524
B( 10-C , 13-C ) :   1.1336 B( 11-C , 12-N ) :   2.9797 B( 13-C , 14-N ) :   2.9711
B( 15-C , 16-C ) :   1.0297 B( 15-C , 79-H ) :   0.9339 B( 16-C , 17-C ) :   1.2987
B( 16-C , 28-C ) :   1.3560 B( 17-C , 18-C ) :   1.3942 B( 17-C , 80-H ) :   1.0144
B( 18-C , 19-C ) :   1.3479 B( 18-C , 23-C ) :   0.8752 B( 19-C , 20-C ) :   0.8721
B( 19-C , 27-C ) :   1.3948 B( 20-C , 21-O ) :   2.2299 B( 20-C , 22-N ) :   1.0703
B( 22-N , 23-C ) :   1.0607 B( 22-N , 25-C ) :   0.9155 B( 23-C , 24-O ) :   2.2363
B( 25-C , 26-C ) :   1.1247 B( 25-C , 81-H ) :   0.9427 B( 25-C , 82-H ) :   0.9427
B( 26-C , 83-H ) :   0.9695 B( 26-C , 84-H ) :   0.9699 B( 26-C , 85-H ) :   0.9698
B( 27-C , 28-C ) :   1.3060 B( 27-C , 86-H ) :   1.0097 B( 28-C , 29-C ) :   1.0608
B( 29-C , 30-C ) :   1.6844 B( 29-C , 87-H ) :   0.9152 B( 30-C , 31-C ) :   1.1488
B( 30-C , 88-H ) :   0.9590 B( 31-C , 32-N ) :   1.1717 B( 31-C , 38-C ) :   1.3353
B( 32-N , 33-C ) :   0.9362 B( 32-N , 35-C ) :   1.0774 B( 33-C , 34-C ) :   1.1209
B( 33-C , 89-H ) :   0.9499 B( 33-C , 90-H ) :   0.9300 B( 34-C , 91-H ) :   0.9668
B( 34-C , 92-H ) :   0.9670 B( 34-C , 93-H ) :   0.9627 B( 35-C , 36-O ) :   1.9707
B( 35-C , 37-C ) :   0.9927 B( 37-C , 38-C ) :   1.2392 B( 37-C , 44-C ) :   1.3557
B( 38-C , 39-C ) :   1.0003 B( 39-C , 40-O ) :   1.9632 B( 39-C , 41-N ) :   1.0801
B( 40-O , 87-H ) :   0.1055 B( 41-N , 42-C ) :   0.9406 B( 41-N , 44-C ) :   1.1456
B( 42-C , 43-C ) :   1.1193 B( 42-C , 94-H ) :   0.9254 B( 42-C , 95-H ) :   0.9445
B( 43-C , 96-H ) :   0.9632 B( 43-C , 97-H ) :   0.9668 B( 43-C , 98-H ) :   0.9658
B( 44-C , 45-C ) :   1.1371 B( 45-C , 46-C ) :   1.6224 B( 45-C , 99-H ) :   0.9641
B( 46-C , 47-C ) :   1.0791 B( 46-C ,100-H ) :   0.9570 B( 47-C , 48-C ) :   1.2775
B( 47-C , 59-C ) :   1.3154 B( 48-C , 49-C ) :   1.4224 B( 48-C ,101-H ) :   1.0070
B( 49-C , 50-C ) :   1.3309 B( 49-C , 54-C ) :   0.8738 B( 50-C , 51-C ) :   0.8728
B( 50-C , 58-C ) :   1.3977 B( 51-C , 52-O ) :   2.2347 B( 51-C , 53-N ) :   1.0556
B( 53-N , 54-C ) :   1.0749 B( 53-N , 56-C ) :   0.9176 B( 54-C , 55-O ) :   2.2223
B( 56-C , 57-C ) :   1.1244 B( 56-C ,102-H ) :   0.9422 B( 56-C ,103-H ) :   0.9423
B( 57-C ,104-H ) :   0.9697 B( 57-C ,105-H ) :   0.9704 B( 57-C ,106-H ) :   0.9695
B( 58-C , 59-C ) :   1.3154 B( 58-C ,107-H ) :   0.9957 B( 59-C , 60-C ) :   1.0278
B( 60-C , 61-C ) :   1.7231 B( 60-C ,108-H ) :   0.9493 B( 61-C , 62-C ) :   1.1227
B( 61-C ,109-H ) :   0.9613 B( 62-C , 63-C ) :   1.6178 B( 62-C ,110-H ) :   0.9538
B( 63-C , 64-C ) :   0.9404 B( 63-C , 71-C ) :   1.0408 B( 64-C , 65-O ) :   2.2732
B( 64-C , 66-C ) :   0.9270 B( 66-C , 67-C ) :   1.4864 B( 66-C , 70-C ) :   1.2207
B( 67-C , 68-S ) :   1.1495 B( 67-C , 77-Cl) :   1.1253 B( 68-S , 69-C ) :   1.1593
B( 69-C , 70-C ) :   1.5523 B( 69-C ,111-H ) :   0.9544 B( 70-C , 71-C ) :   1.0107
B( 71-C , 72-C ) :   1.6533 B( 72-C , 73-C ) :   1.1340 B( 72-C , 75-C ) :   1.1631
B( 73-C , 74-N ) :   2.9985 B( 75-C , 76-N ) :   2.9446

-----------------------------------------------------------------------------
         ABSORPTION SPECTRUM VIA TRANSITION ELECTRIC DIPOLE MOMENTS
-----------------------------------------------------------------------------
State   Energy  Wavelength   fosc         T2         TX        TY        TZ
        (cm-1)    (nm)                  (au**2)     (au)      (au)      (au)
-----------------------------------------------------------------------------
   0   13432.2    744.5   0.120392971   2.95074   1.31338   0.08805   1.10364
   1   17614.9    567.7   0.308891103   5.77300  -1.68137   0.45387  -1.65529
   2   20937.6    477.6   0.231315551   3.63709  -0.69517  -1.19361  -1.31497
   3   22742.0    439.7   0.032971284   0.47729   0.57233   0.20525   0.32804
   4   24950.8    400.8   0.486220879   6.41543  -1.24102   2.20128  -0.17222
   5   25894.2    386.2   0.297822864   3.78644  -0.48181   1.70309   0.80858
   6   26190.5    381.8   0.013150815   0.16530  -0.12747   0.19144   0.33527
   7   27271.6    366.7   0.012394147   0.14962   0.23175   0.30959   0.00774
   8   27761.3    360.2   0.048959151   0.58059  -0.03744   0.75522   0.09400
   9   28332.0    353.0   0.025411091   0.29527  -0.11976   0.38940   0.35958
  10   28843.3    346.7   0.049636185   0.56654   0.23229  -0.58515  -0.41252
  11   28999.0    344.8   0.013320633   0.15122  -0.28644   0.26159   0.02722
  12   29657.3    337.2   0.115259003   1.27944  -0.79211   0.73976  -0.32366
  13   29790.1    335.7   0.037479705   0.41419   0.61631  -0.07042   0.17146
  14   30018.7    333.1   0.022092789   0.24229   0.14892   0.43606   0.17309
  15   30388.0    329.1   0.106578336   1.15463   0.53381  -0.93255   0.00543
  16   30796.0    324.7   0.147425852   1.57599   0.25036   0.78672   0.94572
  17   31450.6    318.0   0.018410647   0.19271  -0.02641  -0.39933   0.18043
  18   31723.7    315.2   0.151271559   1.56982   0.59963   0.26047   1.06884
  19   32218.5    310.4   0.003204906   0.03275  -0.08982   0.06998   0.14065
  20   32460.6    308.1   0.032627146   0.33090  -0.32108   0.24376  -0.41036
  21   32689.5    305.9   0.043603331   0.43912   0.25442   0.03898   0.61063
  22   32883.6    304.1   0.025977161   0.26007  -0.22348  -0.04097  -0.45656
  23   33013.2    302.9   0.020717997   0.20660   0.15921   0.04457   0.42340
  24   33213.3    301.1   0.005268014   0.05222  -0.04061   0.04866   0.21954
  25   33385.4    299.5   0.141063256   1.39102  -0.19022  -0.75536  -0.88559
  26   33613.6    297.5   0.200733552   1.96599   0.70054   0.57602   1.06931
  27   33694.3    296.8   0.011687654   0.11419  -0.03106  -0.21423  -0.25949
  28   34102.8    293.2   0.017920915   0.17300   0.06744  -0.10833  -0.39587
  29   34388.3    290.8   0.157377206   1.50663  -0.60843   0.02207  -1.06581
  30   34905.5    286.5   0.047029406   0.44356   0.05641  -0.48559  -0.45230
  31   35364.2    282.8   0.032675328   0.30418  -0.30807  -0.21858  -0.40187
  32   35564.0    281.2   0.451395755   4.17852  -0.92054  -0.24730  -1.80831
  33   36017.8    277.6   0.213070035   1.94752  -0.52550   0.09732  -1.28914
  34   36137.8    276.7   0.075492156   0.68773   0.19671  -0.00107   0.80562
  35   36285.1    275.6   0.015183504   0.13776   0.24889  -0.11044   0.25222
  36   36324.8    275.3   0.110780270   1.00400  -0.11896   0.54237   0.83408
  37   36395.8    274.8   0.222875672   2.01599  -0.74039   1.01751  -0.65764
  38   36663.1    272.8   0.445184769   3.99749  -0.25239  -1.25006  -1.53985
  39   36688.1    272.6   0.264544623   2.37383  -0.41616   1.30943   0.69717
  40   36942.2    270.7   0.012387987   0.11040   0.31536  -0.10269   0.01990
  41   37481.4    266.8   0.137925432   1.21145  -0.01123  -1.09020   0.15098
  42   37622.5    265.8   0.193323207   1.69166  -0.65584   0.85477  -0.72862
  43   37933.9    263.6   0.254912001   2.21227   0.67294  -0.42649   1.25600
  44   38298.1    261.1   0.004781654   0.04110   0.19286  -0.00884  -0.06190
  45   38341.8    260.8   0.057544034   0.49409  -0.20806  -0.12024  -0.66056
  46   38358.3    260.7   0.082317480   0.70649  -0.33985   0.43835  -0.63154
  47   38497.8    259.8   0.045912439   0.39262   0.34492  -0.44848  -0.26930
  48   38640.3    258.8   0.034153537   0.29098   0.46307  -0.27559  -0.02449
  49   38788.7    257.8   0.046713151   0.39647   0.08770  -0.46697  -0.41318
  50   38894.8    257.1   0.139478484   1.18057  -0.06164   0.79880   0.73396
  51   38992.6    256.5   0.146571249   1.23749   0.39450  -0.35208   0.97872
  52   39294.4    254.5   0.074626927   0.62523   0.17412  -0.19216   0.74699
  53   39340.1    254.2   0.027650170   0.23139  -0.23641   0.18914  -0.37379
  54   39499.1    253.2   0.002197485   0.01832  -0.11061   0.07055   0.03322
  55   40062.4    249.6   0.053996691   0.44372   0.25366   0.11977   0.60418
  56   40133.3    249.2   0.000144401   0.00118  -0.01177  -0.02948  -0.01330

FINAL SINGLE POINT ENERGY     -4982.637367224519

DIPOLE MOMENT
-------------
                                X             Y             Z
Electronic contribution:    -12.92333      38.04923      -4.99910
Nuclear contribution   :     12.70842     -37.23511       5.82228
                        -----------------------------------------
Total Dipole Moment    :     -0.21491       0.81412       0.82318
                        -----------------------------------------
Magnitude (a.u.)       :      1.17754
Magnitude (Debye)      :      2.99308

Rotational constants in cm-1:     0.000906     0.000431     0.000305
Rotational constants in MHz :    27.175119    12.909171     9.154654

                             ****ORCA TERMINATED NORMALLY****
TOTAL RUN TIME: 0 days 0 hours 13 minutes 26 seconds 3 msec
