                         Program Version 4.2.0 -  RELEASE  -
|  1> # ORCA input file
|  2> # SCF done       -176.203563080674          0.000804967410
|  3> ! CAM-B3LYP def2-SVP def2/J RIJCOSX Grid4 TightSCF
|  4> %maxcore 5000
|  5> %tddft
|  6>     Mode sTDDFT
|  7>     Ethresh 5.0
|  8>     maxcore 5000
|  9> end
| 10>
| 11> %pal
| 12>   nprocs 6
| 13>   end
| 14> * xyz 0 1
| 15>    C        3.69848         2.62863        -3.81112
| 16>    C        3.34131         3.66007        -4.62444
| 17>    S        3.76995         3.33861        -6.26363
| 18>    C        4.44743         1.78156        -5.85141
| 19>   Cl        5.12995         0.77495        -7.02917
| 20>    C        4.33338         1.55209        -4.51145
| 21>    C        4.69475         0.48209        -3.57812
| 22>    O        5.23808        -0.56733        -3.82858
| 23>    C        4.17639         0.95300        -2.24838
| 24>    C        3.62645         2.29945        -2.40422
| 25>    C        3.18080         3.13848        -1.42216
| 26>    C        2.69015         4.42742        -1.72652
| 27>    N        2.28690         5.47446        -1.96288
| 28>    C        3.17975         2.85315        -0.04086
| 29>    N        3.16969         2.68126         1.09359
| 30>    C        4.05318         0.17906        -1.14741
| 31>    C        4.61163        -1.14540        -0.96302
| 32>    C        3.83867        -2.12618        -0.34897
| 33>    C        4.31963        -3.41731        -0.19435
| 34>    N        3.40452        -4.38035         0.36409
| 35>    O        2.48056        -3.95114         1.02112
| 36>    O        3.59326        -5.55864         0.13836
| 37>    C        5.62314        -3.76848        -0.59465
| 38>    C        6.40502        -2.74835        -1.15089
| 39>    C        5.91683        -1.47704        -1.34661
| 40>    C        6.16648        -5.09642        -0.39337
| 41>    C        7.08614        -5.66340        -1.18709
| 42>    C        7.60515        -7.00553        -1.00399
| 43>    C        8.83736        -7.34860        -1.55254
| 44>    C        9.36458        -8.62034        -1.38588
| 45>    N       10.62633        -8.89744        -2.02286
| 46>    O       11.30239        -7.94659        -2.35492
| 47>    O       10.93389       -10.05674        -2.20632
| 48>    C        8.67406        -9.61375        -0.67284
| 49>    C        7.42322        -9.26075        -0.15374
| 50>    C        6.89886        -7.99792        -0.31150
| 51>    C        9.21368       -10.93945        -0.42481
| 52>    C        8.46642       -12.05029        -0.47848
| 53>    C        8.93143       -13.39553        -0.20731
| 54>    C       10.11152       -13.66322         0.47994
| 55>    C       10.51167       -14.96529         0.73845
| 56>    N       11.75003       -15.11824         1.45446
| 57>    O       12.12883       -14.17686         2.11649
| 58>    O       12.34920       -16.17385         1.37006
| 59>    C        9.75188       -16.07090         0.31001
| 60>    C        8.56467       -15.78314        -0.37368
| 61>    C        8.16326       -14.49126        -0.62256
| 62>    C       10.13626       -17.43828         0.58600
| 63>    C        9.82376       -18.48674        -0.19552
| 64>    C       10.20688       -19.83490         0.10414
| 65>    C       11.35737       -20.28201         0.65611
| 66>    C       11.39525       -21.67349         1.21862
| 67>    O       10.56652       -22.53442         1.04802
| 68>    C       12.60914       -21.70122         2.03855
| 69>    C       13.21863       -22.56685         2.89812
| 70>    S       14.68948       -21.86837         3.52996
| 71>    C       14.47132       -20.41970         2.61579
| 72>    C       13.33172       -20.47252         1.87733
| 73>    C       12.63817       -19.63324         0.91655
| 74>    C       13.21361       -18.58997         0.25007
| 75>    C       14.52398       -18.15994         0.55431
| 76>    N       15.59469       -17.82142         0.78481
| 77>    C       12.63077       -17.89371        -0.82685
| 78>    N       12.21787       -17.32593        -1.73443
| 79>   Cl       12.70794       -24.11559         3.35752
| 80>    H        2.85287         4.58205        -4.37840
| 81>    H        3.44471         0.53751        -0.32557
| 82>    H        2.83146        -1.90896        -0.02348
| 83>    H        7.42690        -2.96653        -1.41721
| 84>    H        6.55748        -0.71992        -1.76809
| 85>    H        5.77628        -5.65812         0.44250
| 86>    H        7.48165        -5.12226        -2.03620
| 87>    H        9.40970        -6.62719        -2.11755
| 88>    H        6.87120       -10.00157         0.40404
| 89>    H        5.91868        -7.77835         0.08198
| 90>    H       10.27085       -11.00427        -0.21291
| 91>    H        7.43424       -11.97736        -0.79744
| 92>    H       10.74180       -12.86209         0.83400
| 93>    H        7.93512       -16.60129        -0.68612
| 94>    H        7.23831       -14.31541        -1.15197
| 95>    H       10.72410       -17.61868         1.47569
| 96>    H        9.21756       -18.35064        -1.08111
| 97>    H        9.46265       -20.60127        -0.09483
| 98>    H       15.19197       -19.63057         2.69693
| 99> *
|100>
|101>                          ****END OF INPUT****

CARTESIAN COORDINATES (ANGSTROEM)
---------------------------------
  C      3.698480    2.628630   -3.811120
  C      3.341310    3.660070   -4.624440
  S      3.769950    3.338610   -6.263630
  C      4.447430    1.781560   -5.851410
  Cl     5.129950    0.774950   -7.029170
  C      4.333380    1.552090   -4.511450
  C      4.694750    0.482090   -3.578120
  O      5.238080   -0.567330   -3.828580
  C      4.176390    0.953000   -2.248380
  C      3.626450    2.299450   -2.404220
  C      3.180800    3.138480   -1.422160
  C      2.690150    4.427420   -1.726520
  N      2.286900    5.474460   -1.962880
  C      3.179750    2.853150   -0.040860
  N      3.169690    2.681260    1.093590
  C      4.053180    0.179060   -1.147410
  C      4.611630   -1.145400   -0.963020
  C      3.838670   -2.126180   -0.348970
  C      4.319630   -3.417310   -0.194350
  N      3.404520   -4.380350    0.364090
  O      2.480560   -3.951140    1.021120
  O      3.593260   -5.558640    0.138360
  C      5.623140   -3.768480   -0.594650
  C      6.405020   -2.748350   -1.150890
  C      5.916830   -1.477040   -1.346610
  C      6.166480   -5.096420   -0.393370
  C      7.086140   -5.663400   -1.187090
  C      7.605150   -7.005530   -1.003990
  C      8.837360   -7.348600   -1.552540
  C      9.364580   -8.620340   -1.385880
  N     10.626330   -8.897440   -2.022860
  O     11.302390   -7.946590   -2.354920
  O     10.933890  -10.056740   -2.206320
  C      8.674060   -9.613750   -0.672840
  C      7.423220   -9.260750   -0.153740
  C      6.898860   -7.997920   -0.311500
  C      9.213680  -10.939450   -0.424810
  C      8.466420  -12.050290   -0.478480
  C      8.931430  -13.395530   -0.207310
  C     10.111520  -13.663220    0.479940
  C     10.511670  -14.965290    0.738450
  N     11.750030  -15.118240    1.454460
  O     12.128830  -14.176860    2.116490
  O     12.349200  -16.173850    1.370060
  C      9.751880  -16.070900    0.310010
  C      8.564670  -15.783140   -0.373680
  C      8.163260  -14.491260   -0.622560
  C     10.136260  -17.438280    0.586000
  C      9.823760  -18.486740   -0.195520
  C     10.206880  -19.834900    0.104140
  C     11.357370  -20.282010    0.656110
  C     11.395250  -21.673490    1.218620
  O     10.566520  -22.534420    1.048020
  C     12.609140  -21.701220    2.038550
  C     13.218630  -22.566850    2.898120
  S     14.689480  -21.868370    3.529960
  C     14.471320  -20.419700    2.615790
  C     13.331720  -20.472520    1.877330
  C     12.638170  -19.633240    0.916550
  C     13.213610  -18.589970    0.250070
  C     14.523980  -18.159940    0.554310
  N     15.594690  -17.821420    0.784810
  C     12.630770  -17.893710   -0.826850
  N     12.217870  -17.325930   -1.734430
  Cl    12.707940  -24.115590    3.357520
  H      2.852870    4.582050   -4.378400
  H      3.444710    0.537510   -0.325570
  H      2.831460   -1.908960   -0.023480
  H      7.426900   -2.966530   -1.417210
  H      6.557480   -0.719920   -1.768090
  H      5.776280   -5.658120    0.442500
  H      7.481650   -5.122260   -2.036200
  H      9.409700   -6.627190   -2.117550
  H      6.871200  -10.001570    0.404040
  H      5.918680   -7.778350    0.081980
  H     10.270850  -11.004270   -0.212910
  H      7.434240  -11.977360   -0.797440
  H     10.741800  -12.862090    0.834000
  H      7.935120  -16.601290   -0.686120
  H      7.238310  -14.315410   -1.151970
  H     10.724100  -17.618680    1.475690
  H      9.217560  -18.350640   -1.081110
  H      9.462650  -20.601270   -0.094830
  H     15.191970  -19.630570    2.696930

 Total Charge           Charge          ....    0
 Multiplicity           Mult            ....    1
 Number of Electrons    NEL             ....  474
 Basis Dimension        Dim             .... 1021

ORBITAL ENERGIES
----------------

  NO   OCC          E(Eh)            E(eV)
   0   2.0000    -101.627959     -2765.4374
   1   2.0000    -101.613355     -2765.0400
   2   2.0000     -89.005285     -2421.9569
   3   2.0000     -88.987888     -2421.4835
   4   2.0000     -19.255828      -523.9777
   5   2.0000     -19.254129      -523.9315
   6   2.0000     -19.253192      -523.9060
   7   2.0000     -19.251711      -523.8657
   8   2.0000     -19.248948      -523.7905
   9   2.0000     -19.246936      -523.7358
  10   2.0000     -19.235389      -523.4216
  11   2.0000     -19.215808      -522.8887
  12   2.0000     -14.661205      -398.9517
  13   2.0000     -14.657817      -398.8595
  14   2.0000     -14.653814      -398.7505
  15   2.0000     -14.431616      -392.7042
  16   2.0000     -14.430978      -392.6869
  17   2.0000     -14.410808      -392.1380
  18   2.0000     -14.410177      -392.1208
  19   2.0000     -10.392855      -282.8040
  20   2.0000     -10.387791      -282.6662
  21   2.0000     -10.371835      -282.2320
  22   2.0000     -10.371546      -282.2241
  23   2.0000     -10.361400      -281.9480
  24   2.0000     -10.360547      -281.9248
  25   2.0000     -10.344402      -281.4855
  26   2.0000     -10.341785      -281.4143
  27   2.0000     -10.340959      -281.3918
  28   2.0000     -10.340459      -281.3782
  29   2.0000     -10.339281      -281.3462
  30   2.0000     -10.337967      -281.3104
  31   2.0000     -10.336022      -281.2575
  32   2.0000     -10.333277      -281.1828
  33   2.0000     -10.332478      -281.1610
  34   2.0000     -10.328397      -281.0500
  35   2.0000     -10.324450      -280.9426
  36   2.0000     -10.322644      -280.8934
  37   2.0000     -10.322371      -280.8860
  38   2.0000     -10.318016      -280.7675
  39   2.0000     -10.317826      -280.7623
  40   2.0000     -10.316112      -280.7157
  41   2.0000     -10.315708      -280.7047
  42   2.0000     -10.315093      -280.6880
  43   2.0000     -10.312739      -280.6239
  44   2.0000     -10.312521      -280.6180
  45   2.0000     -10.311869      -280.6002
  46   2.0000     -10.310911      -280.5741
  47   2.0000     -10.307111      -280.4708
  48   2.0000     -10.307047      -280.4690
  49   2.0000     -10.305117      -280.4165
  50   2.0000     -10.304589      -280.4021
  51   2.0000     -10.302714      -280.3511
  52   2.0000     -10.302113      -280.3347
  53   2.0000     -10.302057      -280.3332
  54   2.0000     -10.301631      -280.3216
  55   2.0000     -10.301241      -280.3110
  56   2.0000     -10.300174      -280.2820
  57   2.0000     -10.300170      -280.2819
  58   2.0000     -10.298979      -280.2495
  59   2.0000     -10.298661      -280.2408
  60   2.0000     -10.297860      -280.2190
  61   2.0000     -10.296630      -280.1855
  62   2.0000     -10.295361      -280.1510
  63   2.0000     -10.295349      -280.1507
  64   2.0000     -10.292460      -280.0721
  65   2.0000      -9.582700      -260.7585
  66   2.0000      -9.568132      -260.3621
  67   2.0000      -8.100916      -220.4371
  68   2.0000      -8.083669      -219.9678
  69   2.0000      -7.353352      -200.0949
  70   2.0000      -7.342737      -199.8060
  71   2.0000      -7.342182      -199.7909
  72   2.0000      -7.338724      -199.6968
  73   2.0000      -7.328204      -199.4106
  74   2.0000      -7.327664      -199.3959
  75   2.0000      -6.070271      -165.1805
  76   2.0000      -6.065639      -165.0544
  77   2.0000      -6.063260      -164.9897
  78   2.0000      -6.053047      -164.7118
  79   2.0000      -6.048462      -164.5870
  80   2.0000      -6.045890      -164.5170
  81   2.0000      -1.336414       -36.3657
  82   2.0000      -1.333002       -36.2728
  83   2.0000      -1.329329       -36.1729
  84   2.0000      -1.154483       -31.4151
  85   2.0000      -1.153179       -31.3796
  86   2.0000      -1.151031       -31.3212
  87   2.0000      -1.147854       -31.2347
  88   2.0000      -1.132684       -30.8219
  89   2.0000      -1.049922       -28.5698
  90   2.0000      -1.032647       -28.0998
  91   2.0000      -1.028686       -27.9920
  92   2.0000      -1.009834       -27.4790
  93   2.0000      -1.009005       -27.4564
  94   2.0000      -1.006952       -27.4005
  95   2.0000      -0.999512       -27.1981
  96   2.0000      -0.998531       -27.1714
  97   2.0000      -0.996102       -27.1053
  98   2.0000      -0.989122       -26.9154
  99   2.0000      -0.982143       -26.7255
 100   2.0000      -0.966935       -26.3116
 101   2.0000      -0.950811       -25.8729
 102   2.0000      -0.942462       -25.6457
 103   2.0000      -0.934861       -25.4389
 104   2.0000      -0.926989       -25.2247
 105   2.0000      -0.917985       -24.9796
 106   2.0000      -0.916633       -24.9429
 107   2.0000      -0.905572       -24.6419
 108   2.0000      -0.903208       -24.5775
 109   2.0000      -0.899105       -24.4659
 110   2.0000      -0.887558       -24.1517
 111   2.0000      -0.879512       -23.9327
 112   2.0000      -0.859204       -23.3801
 113   2.0000      -0.844520       -22.9805
 114   2.0000      -0.841987       -22.9116
 115   2.0000      -0.827611       -22.5204
 116   2.0000      -0.825445       -22.4615
 117   2.0000      -0.802651       -21.8412
 118   2.0000      -0.800517       -21.7832
 119   2.0000      -0.797640       -21.7049
 120   2.0000      -0.794314       -21.6144
 121   2.0000      -0.773764       -21.0552
 122   2.0000      -0.766588       -20.8599
 123   2.0000      -0.754956       -20.5434
 124   2.0000      -0.745947       -20.2983
 125   2.0000      -0.737228       -20.0610
 126   2.0000      -0.723619       -19.6907
 127   2.0000      -0.710326       -19.3290
 128   2.0000      -0.706562       -19.2265
 129   2.0000      -0.698361       -19.0034
 130   2.0000      -0.694666       -18.9028
 131   2.0000      -0.689364       -18.7586
 132   2.0000      -0.688536       -18.7360
 133   2.0000      -0.680807       -18.5257
 134   2.0000      -0.670310       -18.2400
 135   2.0000      -0.666433       -18.1346
 136   2.0000      -0.664616       -18.0851
 137   2.0000      -0.656258       -17.8577
 138   2.0000      -0.646232       -17.5849
 139   2.0000      -0.644871       -17.5478
 140   2.0000      -0.642267       -17.4770
 141   2.0000      -0.637569       -17.3491
 142   2.0000      -0.631570       -17.1859
 143   2.0000      -0.627473       -17.0744
 144   2.0000      -0.626344       -17.0437
 145   2.0000      -0.623092       -16.9552
 146   2.0000      -0.617681       -16.8080
 147   2.0000      -0.612144       -16.6573
 148   2.0000      -0.610837       -16.6217
 149   2.0000      -0.609083       -16.5740
 150   2.0000      -0.606652       -16.5078
 151   2.0000      -0.604154       -16.4399
 152   2.0000      -0.599796       -16.3213
 153   2.0000      -0.597515       -16.2592
 154   2.0000      -0.593465       -16.1490
 155   2.0000      -0.582944       -15.8627
 156   2.0000      -0.580140       -15.7864
 157   2.0000      -0.572591       -15.5810
 158   2.0000      -0.566585       -15.4176
 159   2.0000      -0.564090       -15.3497
 160   2.0000      -0.560495       -15.2518
 161   2.0000      -0.550870       -14.9899
 162   2.0000      -0.547757       -14.9052
 163   2.0000      -0.547000       -14.8846
 164   2.0000      -0.544469       -14.8158
 165   2.0000      -0.543509       -14.7896
 166   2.0000      -0.542709       -14.7679
 167   2.0000      -0.539604       -14.6834
 168   2.0000      -0.536465       -14.5980
 169   2.0000      -0.535010       -14.5584
 170   2.0000      -0.529315       -14.4034
 171   2.0000      -0.526843       -14.3361
 172   2.0000      -0.521831       -14.1997
 173   2.0000      -0.518364       -14.1054
 174   2.0000      -0.517163       -14.0727
 175   2.0000      -0.507611       -13.8128
 176   2.0000      -0.503609       -13.7039
 177   2.0000      -0.501201       -13.6384
 178   2.0000      -0.499919       -13.6035
 179   2.0000      -0.496470       -13.5096
 180   2.0000      -0.495103       -13.4724
 181   2.0000      -0.493720       -13.4348
 182   2.0000      -0.489814       -13.3285
 183   2.0000      -0.487540       -13.2666
 184   2.0000      -0.483310       -13.1515
 185   2.0000      -0.482040       -13.1170
 186   2.0000      -0.481023       -13.0893
 187   2.0000      -0.473238       -12.8775
 188   2.0000      -0.468737       -12.7550
 189   2.0000      -0.463535       -12.6134
 190   2.0000      -0.461873       -12.5682
 191   2.0000      -0.460983       -12.5440
 192   2.0000      -0.457127       -12.4391
 193   2.0000      -0.455508       -12.3950
 194   2.0000      -0.455142       -12.3851
 195   2.0000      -0.453008       -12.3270
 196   2.0000      -0.449036       -12.2189
 197   2.0000      -0.446905       -12.1609
 198   2.0000      -0.445075       -12.1111
 199   2.0000      -0.444012       -12.0822
 200   2.0000      -0.442436       -12.0393
 201   2.0000      -0.442267       -12.0347
 202   2.0000      -0.438698       -11.9376
 203   2.0000      -0.434431       -11.8215
 204   2.0000      -0.431808       -11.7501
 205   2.0000      -0.428226       -11.6526
 206   2.0000      -0.425855       -11.5881
 207   2.0000      -0.419616       -11.4183
 208   2.0000      -0.417037       -11.3482
 209   2.0000      -0.413956       -11.2643
 210   2.0000      -0.409245       -11.1361
 211   2.0000      -0.405079       -11.0228
 212   2.0000      -0.399170       -10.8620
 213   2.0000      -0.396598       -10.7920
 214   2.0000      -0.395411       -10.7597
 215   2.0000      -0.392843       -10.6898
 216   2.0000      -0.392250       -10.6737
 217   2.0000      -0.389186       -10.5903
 218   2.0000      -0.386963       -10.5298
 219   2.0000      -0.386078       -10.5057
 220   2.0000      -0.379598       -10.3294
 221   2.0000      -0.376799       -10.2532
 222   2.0000      -0.374810       -10.1991
 223   2.0000      -0.370807       -10.0902
 224   2.0000      -0.366289        -9.9672
 225   2.0000      -0.355418        -9.6714
 226   2.0000      -0.353639        -9.6230
 227   2.0000      -0.352317        -9.5870
 228   2.0000      -0.348321        -9.4783
 229   2.0000      -0.341553        -9.2941
 230   2.0000      -0.339880        -9.2486
 231   2.0000      -0.332478        -9.0472
 232   2.0000      -0.326853        -8.8941
 233   2.0000      -0.319955        -8.7064
 234   2.0000      -0.308300        -8.3893
 235   2.0000      -0.298742        -8.1292
 236   2.0000      -0.280715        -7.6386
 237   0.0000      -0.105717        -2.8767
 238   0.0000      -0.088984        -2.4214
 239   0.0000      -0.070369        -1.9148
 240   0.0000      -0.062325        -1.6959
 241   0.0000      -0.058493        -1.5917

MULLIKEN ATOMIC CHARGES
-----------------------
   0 C :    0.032847
   1 C :   -0.126537
   2 S :    0.195922
   3 C :   -0.166845
   4 Cl:    0.005193
   5 C :    0.071022
   6 C :    0.144916
   7 O :   -0.126012
   8 C :   -0.090188
   9 C :    0.281333
  10 C :   -0.314505
  11 C :   -0.190302
  12 N :    0.163682
  13 C :   -0.198977
  14 N :    0.170556
  15 C :   -0.032266
  16 C :    0.053155
  17 C :   -0.048492
  18 C :    0.134993
  19 N :    0.244563
  20 O :   -0.228286
  21 O :   -0.239271
  22 C :    0.070105
  23 C :   -0.054318
  24 C :    0.118115
  25 C :    0.013936
  26 C :   -0.003591
  27 C :    0.098964
  28 C :   -0.074846
  29 C :    0.151759
  30 N :    0.244973
  31 O :   -0.232507
  32 O :   -0.228103
  33 C :    0.034269
  34 C :   -0.032883
  35 C :    0.019492
  36 C :    0.035949
  37 C :   -0.009155
  38 C :    0.109174
  39 C :   -0.056791
  40 C :    0.154834
  41 N :    0.262523
  42 O :   -0.219169
  43 O :   -0.247621
  44 C :    0.054128
  45 C :   -0.031277
  46 C :    0.016564
  47 C :    0.022368
  48 C :   -0.005270
  49 C :    0.026426
  50 C :   -0.127048
  51 C :    0.128059
  52 O :   -0.130137
  53 C :    0.090759
  54 C :   -0.172030
  55 S :    0.181911
  56 C :   -0.127778
  57 C :    0.010324
  58 C :    0.260297
  59 C :   -0.296599
  60 C :   -0.182842
  61 N :    0.160058
  62 C :   -0.186434
  63 N :    0.170344
  64 Cl:   -0.003110
  65 H :    0.056370
  66 H :    0.043790
  67 H :    0.009645
  68 H :   -0.007046
  69 H :   -0.003804
  70 H :    0.015542
  71 H :    0.003751
  72 H :    0.002205
  73 H :   -0.006527
  74 H :    0.006584
  75 H :    0.020754
  76 H :   -0.010611
  77 H :    0.004614
  78 H :   -0.012274
  79 H :   -0.012883
  80 H :    0.030477
  81 H :    0.019829
  82 H :    0.033345
  83 H :    0.055914
Sum of atomic charges:    0.0000000

LOEWDIN ATOMIC CHARGES
----------------------
   0 C :   -0.060029
   1 C :   -0.147064
   2 S :    0.484902
   3 C :   -0.270731
   4 Cl:    0.196529
   5 C :   -0.118676
   6 C :    0.081423
   7 O :   -0.122684
   8 C :   -0.078909
   9 C :    0.072823
  10 C :   -0.127931
  11 C :   -0.015626
  12 N :   -0.043498
  13 C :   -0.026031
  14 N :   -0.037059
  15 C :    0.078534
  16 C :   -0.040264
  17 C :    0.025075
  18 C :   -0.033142
  19 N :    0.286003
  20 O :   -0.196135
  21 O :   -0.198719
  22 C :    0.013953
  23 C :   -0.009691
  24 C :    0.046036
  25 C :   -0.012693
  26 C :   -0.002399
  27 C :   -0.024162
  28 C :    0.009105
  29 C :   -0.027989
  30 N :    0.284882
  31 O :   -0.200374
  32 O :   -0.187831
  33 C :   -0.002685
  34 C :   -0.006917
  35 C :    0.015701
  36 C :    0.000070
  37 C :   -0.018844
  38 C :   -0.017553
  39 C :    0.018309
  40 C :   -0.020027
  41 N :    0.292814
  42 O :   -0.186633
  43 O :   -0.192091
  44 C :   -0.003079
  45 C :   -0.000852
  46 C :    0.010186
  47 C :    0.017771
  48 C :   -0.021300
  49 C :    0.062844
  50 C :   -0.077598
  51 C :    0.080929
  52 O :   -0.133918
  53 C :   -0.120430
  54 C :   -0.273407
  55 S :    0.472412
  56 C :   -0.152412
  57 C :   -0.055246
  58 C :    0.058019
  59 C :   -0.116462
  60 C :   -0.011955
  61 N :   -0.047759
  62 C :   -0.016587
  63 N :   -0.049481
  64 Cl:    0.189221
  65 H :    0.039024
  66 H :    0.049936
  67 H :    0.043638
  68 H :    0.036392
  69 H :    0.037288
  70 H :    0.029268
  71 H :    0.032044
  72 H :    0.040199
  73 H :    0.035716
  74 H :    0.039636
  75 H :    0.032402
  76 H :    0.029456
  77 H :    0.039602
  78 H :    0.034626
  79 H :    0.034325
  80 H :    0.032257
  81 H :    0.037171
  82 H :    0.047982
  83 H :    0.038367

  Mayer bond orders larger than 0.100000
B(  0-C ,  1-C ) :   1.5400 B(  0-C ,  5-C ) :   1.2202 B(  0-C ,  9-C ) :   1.0080
B(  1-C ,  2-S ) :   1.1667 B(  1-C , 65-H ) :   0.9543 B(  2-S ,  3-C ) :   1.1563
B(  3-C ,  4-Cl) :   1.1325 B(  3-C ,  5-C ) :   1.4721 B(  5-C ,  6-C ) :   0.9560
B(  6-C ,  7-O ) :   2.2405 B(  6-C ,  8-C ) :   0.9180 B(  8-C ,  9-C ) :   1.0359
B(  8-C , 15-C ) :   1.7227 B(  9-C , 10-C ) :   1.6843 B( 10-C , 11-C ) :   1.1382
B( 10-C , 13-C ) :   1.1318 B( 11-C , 12-N ) :   2.9962 B( 13-C , 14-N ) :   2.9922
B( 15-C , 16-C ) :   1.0355 B( 15-C , 66-H ) :   0.9499 B( 16-C , 17-C ) :   1.3019
B( 16-C , 24-C ) :   1.3312 B( 17-C , 18-C ) :   1.3705 B( 17-C , 67-H ) :   0.9976
B( 18-C , 19-N ) :   0.8812 B( 18-C , 22-C ) :   1.3437 B( 19-N , 20-O ) :   1.5637
B( 19-N , 21-O ) :   1.5163 B( 20-O , 21-O ) :   0.2629 B( 22-C , 23-C ) :   1.3424
B( 22-C , 25-C ) :   1.0601 B( 23-C , 24-C ) :   1.4137 B( 23-C , 68-H ) :   0.9902
B( 24-C , 69-H ) :   0.9826 B( 25-C , 26-C ) :   1.7837 B( 25-C , 70-H ) :   0.9403
B( 26-C , 27-C ) :   1.0435 B( 26-C , 71-H ) :   0.9767 B( 27-C , 28-C ) :   1.2996
B( 27-C , 35-C ) :   1.3359 B( 28-C , 29-C ) :   1.3652 B( 28-C , 72-H ) :   0.9994
B( 29-C , 30-N ) :   0.8830 B( 29-C , 33-C ) :   1.3554 B( 30-N , 31-O ) :   1.5574
B( 30-N , 32-O ) :   1.5292 B( 31-O , 32-O ) :   0.2656 B( 33-C , 34-C ) :   1.3540
B( 33-C , 36-C ) :   1.0403 B( 34-C , 35-C ) :   1.3945 B( 34-C , 73-H ) :   0.9913
B( 35-C , 74-H ) :   0.9911 B( 36-C , 37-C ) :   1.7821 B( 36-C , 75-H ) :   0.9350
B( 37-C , 38-C ) :   1.0587 B( 37-C , 76-H ) :   0.9786 B( 38-C , 39-C ) :   1.3122
B( 38-C , 46-C ) :   1.3234 B( 39-C , 40-C ) :   1.3789 B( 39-C , 77-H ) :   0.9849
B( 40-C , 41-N ) :   0.8852 B( 40-C , 44-C ) :   1.3478 B( 41-N , 42-O ) :   1.5701
B( 41-N , 43-O ) :   1.4850 B( 42-O , 43-O ) :   0.2582 B( 44-C , 45-C ) :   1.3540
B( 44-C , 47-C ) :   1.0724 B( 45-C , 46-C ) :   1.3903 B( 45-C , 78-H ) :   0.9906
B( 46-C , 79-H ) :   0.9979 B( 47-C , 48-C ) :   1.7673 B( 47-C , 80-H ) :   0.9458
B( 48-C , 49-C ) :   1.0745 B( 48-C , 81-H ) :   0.9472 B( 49-C , 50-C ) :   1.7655
B( 49-C , 82-H ) :   0.9248 B( 50-C , 51-C ) :   0.9331 B( 50-C , 58-C ) :   1.0093
B( 51-C , 52-O ) :   2.2796 B( 51-C , 53-C ) :   0.9263 B( 53-C , 54-C ) :   1.4779
B( 53-C , 57-C ) :   1.2202 B( 54-C , 55-S ) :   1.1553 B( 54-C , 64-Cl) :   1.1260
B( 55-S , 56-C ) :   1.1535 B( 56-C , 57-C ) :   1.5620 B( 56-C , 83-H ) :   0.9546
B( 57-C , 58-C ) :   1.0053 B( 58-C , 59-C ) :   1.7159 B( 59-C , 60-C ) :   1.1288
B( 59-C , 62-C ) :   1.1538 B( 60-C , 61-N ) :   3.0055 B( 62-C , 63-N ) :   2.9938

-----------------------------------------------------------------------------
         ABSORPTION SPECTRUM VIA TRANSITION ELECTRIC DIPOLE MOMENTS
-----------------------------------------------------------------------------
State   Energy  Wavelength   fosc         T2         TX        TY        TZ
        (cm-1)    (nm)                  (au**2)     (au)      (au)      (au)
-----------------------------------------------------------------------------
   0   24475.8    408.6   1.403066949  18.87197   1.74271  -3.96032   0.38833
   1   25158.3    397.5   0.088131707   1.15326  -0.13639   1.01211  -0.33211
   2   28167.7    355.0   0.286980239   3.35410   0.53467  -1.70330   0.40866
   3   28805.0    347.2   0.036628174   0.41862  -0.03629   0.42471  -0.48675
   4   29710.4    336.6   0.068409548   0.75803   0.01404   0.76852  -0.40892
   5   29963.7    333.7   0.020209214   0.22204   0.10761  -0.06148  -0.45462
   6   30037.7    332.9   0.097726053   1.07107  -0.80961  -0.62879  -0.14223
   7   30409.2    328.8   0.008664634   0.09380   0.07298  -0.18141   0.23573
   8   30933.9    323.3   0.091626852   0.97513   0.87373   0.16307  -0.43027
   9   32340.7    309.2   0.070337985   0.71600  -0.17325   0.82824  -0.00079
  10   33138.5    301.8   0.056055003   0.55687  -0.59499  -0.28138   0.35168
  11   33297.2    300.3   0.001143893   0.01131   0.03989  -0.03525  -0.09206
  12   33803.2    295.8   0.205353215   1.99995   0.04216  -1.41314   0.03461
  13   33950.8    294.5   0.104344082   1.01180  -0.19809   0.28724   0.94343
  14   35208.1    284.0   0.868352018   8.11950  -1.09079   2.48272  -0.87509
  15   35641.7    280.6   0.036838140   0.34026   0.20364   0.52689  -0.14553
  16   35826.4    279.1   0.043069998   0.39577   0.39125  -0.49007   0.05032
  17   36164.6    276.5   0.005099218   0.04642   0.20295  -0.06715  -0.02681
  18   36349.0    275.1   0.107568439   0.97424   0.14102   0.93596  -0.27988
  19   36811.0    271.7   0.063551963   0.56836  -0.40190   0.01307   0.63771
  20   36968.8    270.5   0.145559594   1.29623   0.11974  -1.03030   0.46943
  21   37157.6    269.1   0.126363145   1.11956  -0.26458   0.96116  -0.35458
  22   37556.2    266.3   0.057690039   0.50570   0.09041  -0.27523  -0.64944
  23   38012.9    263.1   0.520999496   4.51213  -0.18681   0.34063   2.08835
  24   38713.5    258.3   0.234038088   1.99021   0.41038   0.64063  -1.18802
  25   38897.7    257.1   0.300403022   2.54247  -0.74617   1.36837  -0.33655
  26   39050.8    256.1   0.221653500   1.86862  -0.08391  -0.52655   1.25870
  27   39263.1    254.7   0.081592254   0.68413  -0.73139  -0.01989   0.38576
  28   39807.6    251.2   0.087901696   0.72695  -0.02280  -0.26551  -0.80990
  29   40086.2    249.5   0.047132322   0.38708   0.09997   0.54347  -0.28588

FINAL SINGLE POINT ENERGY     -4461.803875090321

DIPOLE MOMENT
-------------
                                X             Y             Z
Electronic contribution:      9.43968      -4.13724      -7.26248
Nuclear contribution   :    -11.40412       5.18495       6.30994
                        -----------------------------------------
Total Dipole Moment    :     -1.96444       1.04772      -0.95254
                        -----------------------------------------
Magnitude (a.u.)       :      2.42159
Magnitude (Debye)      :      6.15518

Rotational constants in cm-1:     0.003632     0.000178     0.000175
Rotational constants in MHz :   108.882186     5.335104     5.246513

                             ****ORCA TERMINATED NORMALLY****
TOTAL RUN TIME: 0 days 0 hours 7 minutes 13 seconds 812 msec
