                         Program Version 4.2.0 -  RELEASE  -
|  1> # ORCA input file
|  2> # SCF done       -183.060232886665          0.000570856369
|  3> ! CAM-B3LYP def2-SVP def2/J RIJCOSX Grid4 TightSCF
|  4> %maxcore 5000
|  5> %tddft
|  6>     Mode sTDDFT
|  7>     Ethresh 5.0
|  8>     maxcore 5000
|  9> end
| 10>
| 11> %pal
| 12>   nprocs 6
| 13>   end
| 14> * xyz 0 1
| 15>    C        3.12698         2.80822        -4.08720
| 16>    C        2.18612         3.63643        -4.61968
| 17>    S        1.60465         4.75408        -3.44346
| 18>    C        2.65617         4.10514        -2.20710
| 19>   Cl        2.65426         4.71584        -0.63389
| 20>    C        3.39873         3.07899        -2.70617
| 21>    C        4.39542         2.13760        -2.19807
| 22>    O        5.02629         2.17773        -1.16930
| 23>    C        4.62789         1.18776        -3.34729
| 24>    C        3.93118         1.68781        -4.52527
| 25>    C        3.96659         1.18435        -5.79560
| 26>    C        3.19318         1.74821        -6.83303
| 27>    N        2.57720         2.20065        -7.68810
| 28>    C        4.76922         0.10482        -6.21551
| 29>    N        5.41890        -0.75414        -6.61207
| 30>    C        5.37793         0.06955        -3.24132
| 31>    C        5.70783        -0.46853        -1.95355
| 32>    S        7.25906        -1.06752        -1.50793
| 33>    C        6.69626        -1.48595         0.08825
| 34>    C        5.35356        -1.18614         0.24514
| 35>    C        4.81052        -0.62897        -0.92607
| 36>    S        3.05310        -0.51781        -1.26232
| 37>    O        2.83607        -1.16370        -2.52867
| 38>    O        2.54342         0.82136        -1.13320
| 39>    C        2.40181        -1.51991         0.10062
| 40>    C        3.08167        -0.97420         1.33891
| 41>    C        4.52950        -1.44675         1.47049
| 42>    C        7.64415        -2.10932         0.99323
| 43>    C        7.59953        -1.93628         2.37358
| 44>    C        8.52943        -2.55092         3.19646
| 45>    N        8.36121        -2.38456         4.62055
| 46>    O        7.65755        -1.47150         4.99399
| 47>    O        8.91251        -3.17894         5.35017
| 48>    C        9.55816        -3.35707         2.68713
| 49>    C        9.59039        -3.52356         1.29710
| 50>    C        8.66749        -2.91819         0.47578
| 51>    C       10.58732        -3.94822         3.51629
| 52>    C       11.06010        -5.19868         3.33980
| 53>    C       12.12022        -5.71554         4.14156
| 54>    N       12.82504        -4.94046         4.94844
| 55>    C       13.74063        -5.73938         5.52783
| 56>    C       13.62711        -7.12662         5.04103
| 57>    C       14.62463        -7.98582         5.70279
| 58>    O       14.84388        -9.16632         5.52445
| 59>    C       15.29736        -7.05396         6.61964
| 60>    C       14.73897        -5.68943         6.46818
| 61>    N       15.35020        -4.82846         7.31630
| 62>    C       16.21774        -5.55445         7.97700
| 63>    C       16.23197        -6.95524         7.59795
| 64>    C       12.57294        -7.13006         4.16099
| 65>    C       11.96993        -8.21133         3.45988
| 66>    C       12.42584        -9.48262         3.57020
| 67>    C       11.81684       -10.60185         2.94882
| 68>    C       12.06279       -11.89994         3.26885
| 69>    C       11.68168       -12.99919         2.32916
| 70>    O       10.93025       -12.91221         1.38794
| 71>    C       12.46928       -14.15056         2.78657
| 72>    C       12.70143       -15.43045         2.37906
| 73>    S       13.80989       -16.22963         3.46860
| 74>    C       13.93812       -14.82819         4.46918
| 75>    C       13.17933       -13.80951         3.98646
| 76>    C       12.82767       -12.45538         4.37327
| 77>    C       13.01803       -11.92229         5.61883
| 78>    C       13.77314       -12.60397         6.59705
| 79>    N       14.38855       -13.15146         7.39508
| 80>    C       12.40409       -10.74714         6.10142
| 81>    N       11.86026        -9.85102         6.56815
| 82>   Cl       12.06025       -16.23080         1.03077
| 83>    H        1.79030         3.66464        -5.61564
| 84>    H        5.70124        -0.48347        -4.11288
| 85>    H        2.64366        -2.55786        -0.11004
| 86>    H        1.32489        -1.37833         0.11681
| 87>    H        3.05932         0.11646         1.26990
| 88>    H        2.53569        -1.26739         2.23784
| 89>    H        4.55669        -2.51757         1.69733
| 90>    H        4.96467        -0.92130         2.32186
| 91>    H        6.86102        -1.30741         2.84137
| 92>    H       10.38049        -4.11858         0.86607
| 93>    H        8.72605        -3.06786        -0.59188
| 94>    H       11.01044        -3.36189         4.32090
| 95>    H       10.61663        -5.85713         2.60599
| 96>    H       16.84581        -5.10268         8.72520
| 97>    H       16.86175        -7.71082         8.02399
| 98>    H       11.08002        -8.00769         2.87928
| 99>    H       13.31266        -9.66438         4.16164
|100>    H       11.14502       -10.43119         2.11430
|101>    H       14.57010       -14.85337         5.33461
|102> *
|103>
|104>                          ****END OF INPUT****

CARTESIAN COORDINATES (ANGSTROEM)
---------------------------------
  C      3.126980    2.808220   -4.087200
  C      2.186120    3.636430   -4.619680
  S      1.604650    4.754080   -3.443460
  C      2.656170    4.105140   -2.207100
  Cl     2.654260    4.715840   -0.633890
  C      3.398730    3.078990   -2.706170
  C      4.395420    2.137600   -2.198070
  O      5.026290    2.177730   -1.169300
  C      4.627890    1.187760   -3.347290
  C      3.931180    1.687810   -4.525270
  C      3.966590    1.184350   -5.795600
  C      3.193180    1.748210   -6.833030
  N      2.577200    2.200650   -7.688100
  C      4.769220    0.104820   -6.215510
  N      5.418900   -0.754140   -6.612070
  C      5.377930    0.069550   -3.241320
  C      5.707830   -0.468530   -1.953550
  S      7.259060   -1.067520   -1.507930
  C      6.696260   -1.485950    0.088250
  C      5.353560   -1.186140    0.245140
  C      4.810520   -0.628970   -0.926070
  S      3.053100   -0.517810   -1.262320
  O      2.836070   -1.163700   -2.528670
  O      2.543420    0.821360   -1.133200
  C      2.401810   -1.519910    0.100620
  C      3.081670   -0.974200    1.338910
  C      4.529500   -1.446750    1.470490
  C      7.644150   -2.109320    0.993230
  C      7.599530   -1.936280    2.373580
  C      8.529430   -2.550920    3.196460
  N      8.361210   -2.384560    4.620550
  O      7.657550   -1.471500    4.993990
  O      8.912510   -3.178940    5.350170
  C      9.558160   -3.357070    2.687130
  C      9.590390   -3.523560    1.297100
  C      8.667490   -2.918190    0.475780
  C     10.587320   -3.948220    3.516290
  C     11.060100   -5.198680    3.339800
  C     12.120220   -5.715540    4.141560
  N     12.825040   -4.940460    4.948440
  C     13.740630   -5.739380    5.527830
  C     13.627110   -7.126620    5.041030
  C     14.624630   -7.985820    5.702790
  O     14.843880   -9.166320    5.524450
  C     15.297360   -7.053960    6.619640
  C     14.738970   -5.689430    6.468180
  N     15.350200   -4.828460    7.316300
  C     16.217740   -5.554450    7.977000
  C     16.231970   -6.955240    7.597950
  C     12.572940   -7.130060    4.160990
  C     11.969930   -8.211330    3.459880
  C     12.425840   -9.482620    3.570200
  C     11.816840  -10.601850    2.948820
  C     12.062790  -11.899940    3.268850
  C     11.681680  -12.999190    2.329160
  O     10.930250  -12.912210    1.387940
  C     12.469280  -14.150560    2.786570
  C     12.701430  -15.430450    2.379060
  S     13.809890  -16.229630    3.468600
  C     13.938120  -14.828190    4.469180
  C     13.179330  -13.809510    3.986460
  C     12.827670  -12.455380    4.373270
  C     13.018030  -11.922290    5.618830
  C     13.773140  -12.603970    6.597050
  N     14.388550  -13.151460    7.395080
  C     12.404090  -10.747140    6.101420
  N     11.860260   -9.851020    6.568150
  Cl    12.060250  -16.230800    1.030770
  H      1.790300    3.664640   -5.615640
  H      5.701240   -0.483470   -4.112880
  H      2.643660   -2.557860   -0.110040
  H      1.324890   -1.378330    0.116810
  H      3.059320    0.116460    1.269900
  H      2.535690   -1.267390    2.237840
  H      4.556690   -2.517570    1.697330
  H      4.964670   -0.921300    2.321860
  H      6.861020   -1.307410    2.841370
  H     10.380490   -4.118580    0.866070
  H      8.726050   -3.067860   -0.591880
  H     11.010440   -3.361890    4.320900
  H     10.616630   -5.857130    2.605990
  H     16.845810   -5.102680    8.725200
  H     16.861750   -7.710820    8.023990
  H     11.080020   -8.007690    2.879280
  H     13.312660   -9.664380    4.161640
  H     11.145020  -10.431190    2.114300
  H     14.570100  -14.853370    5.334610

 Total Charge           Charge          ....    0
 Multiplicity           Mult            ....    1
 Number of Electrons    NEL             ....  510
 Basis Dimension        Dim             .... 1071

ORBITAL ENERGIES
----------------

  NO   OCC          E(Eh)            E(eV)
   0   2.0000    -101.616076     -2765.1140
   1   2.0000    -101.611542     -2764.9906
   2   2.0000     -89.157311     -2426.0938
   3   2.0000     -88.992752     -2421.6159
   4   2.0000     -88.991286     -2421.5760
   5   2.0000     -88.989107     -2421.5167
   6   2.0000     -19.263033      -524.1738
   7   2.0000     -19.260348      -524.1007
   8   2.0000     -19.221343      -523.0393
   9   2.0000     -19.218626      -522.9654
  10   2.0000     -19.213407      -522.8234
  11   2.0000     -19.212054      -522.7866
  12   2.0000     -19.203091      -522.5427
  13   2.0000     -14.667283      -399.1171
  14   2.0000     -14.422327      -392.4515
  15   2.0000     -14.420346      -392.3976
  16   2.0000     -14.417634      -392.3238
  17   2.0000     -14.415451      -392.2644
  18   2.0000     -14.413727      -392.2175
  19   2.0000     -14.410874      -392.1398
  20   2.0000     -10.380842      -282.4771
  21   2.0000     -10.376098      -282.3480
  22   2.0000     -10.374915      -282.3158
  23   2.0000     -10.374591      -282.3070
  24   2.0000     -10.368528      -282.1420
  25   2.0000     -10.354840      -281.7695
  26   2.0000     -10.350433      -281.6496
  27   2.0000     -10.349499      -281.6242
  28   2.0000     -10.348441      -281.5954
  29   2.0000     -10.347446      -281.5683
  30   2.0000     -10.345506      -281.5155
  31   2.0000     -10.339250      -281.3453
  32   2.0000     -10.338971      -281.3377
  33   2.0000     -10.335797      -281.2513
  34   2.0000     -10.333079      -281.1774
  35   2.0000     -10.332447      -281.1602
  36   2.0000     -10.330551      -281.1086
  37   2.0000     -10.330400      -281.1045
  38   2.0000     -10.327956      -281.0380
  39   2.0000     -10.326653      -281.0025
  40   2.0000     -10.325704      -280.9767
  41   2.0000     -10.324175      -280.9351
  42   2.0000     -10.322022      -280.8765
  43   2.0000     -10.321334      -280.8578
  44   2.0000     -10.321062      -280.8504
  45   2.0000     -10.320984      -280.8483
  46   2.0000     -10.319373      -280.8044
  47   2.0000     -10.319179      -280.7991
  48   2.0000     -10.318775      -280.7881
  49   2.0000     -10.318392      -280.7777
  50   2.0000     -10.317246      -280.7465
  51   2.0000     -10.317125      -280.7432
  52   2.0000     -10.316970      -280.7390
  53   2.0000     -10.313210      -280.6367
  54   2.0000     -10.312636      -280.6211
  55   2.0000     -10.311167      -280.5811
  56   2.0000     -10.309763      -280.5429
  57   2.0000     -10.308966      -280.5212
  58   2.0000     -10.307609      -280.4843
  59   2.0000     -10.304629      -280.4032
  60   2.0000     -10.304447      -280.3983
  61   2.0000     -10.303263      -280.3660
  62   2.0000     -10.301927      -280.3297
  63   2.0000     -10.298851      -280.2460
  64   2.0000     -10.295105      -280.1440
  65   2.0000     -10.294874      -280.1378
  66   2.0000     -10.294320      -280.1227
  67   2.0000     -10.293856      -280.1101
  68   2.0000      -9.570896      -260.4373
  69   2.0000      -9.566460      -260.3166
  70   2.0000      -8.222443      -223.7441
  71   2.0000      -8.088076      -220.0877
  72   2.0000      -8.087009      -220.0587
  73   2.0000      -8.084884      -220.0009
  74   2.0000      -7.341526      -199.7731
  75   2.0000      -7.337064      -199.6517
  76   2.0000      -7.330925      -199.4846
  77   2.0000      -7.330398      -199.4703
  78   2.0000      -7.326479      -199.3636
  79   2.0000      -7.325981      -199.3501
  80   2.0000      -6.191440      -168.4777
  81   2.0000      -6.191329      -168.4746
  82   2.0000      -6.190377      -168.4487
  83   2.0000      -6.057263      -164.8265
  84   2.0000      -6.056390      -164.8027
  85   2.0000      -6.054218      -164.7437
  86   2.0000      -6.053109      -164.7135
  87   2.0000      -6.051805      -164.6780
  88   2.0000      -6.050414      -164.6401
  89   2.0000      -6.049649      -164.6193
  90   2.0000      -6.049245      -164.6083
  91   2.0000      -6.047184      -164.5523
  92   2.0000      -1.343695       -36.5638
  93   2.0000      -1.216791       -33.1106
  94   2.0000      -1.163010       -31.6471
  95   2.0000      -1.135290       -30.8928
  96   2.0000      -1.135076       -30.8870
  97   2.0000      -1.133504       -30.8442
  98   2.0000      -1.092874       -29.7386
  99   2.0000      -1.085005       -29.5245
 100   2.0000      -1.065343       -28.9895
 101   2.0000      -1.036164       -28.1954
 102   2.0000      -1.034490       -28.1499
 103   2.0000      -1.030521       -28.0419
 104   2.0000      -1.017312       -27.6825
 105   2.0000      -1.013741       -27.5853
 106   2.0000      -1.010752       -27.5040
 107   2.0000      -0.999739       -27.2043
 108   2.0000      -0.994355       -27.0578
 109   2.0000      -0.986320       -26.8391
 110   2.0000      -0.986195       -26.8357
 111   2.0000      -0.955141       -25.9907
 112   2.0000      -0.954639       -25.9771
 113   2.0000      -0.950812       -25.8729
 114   2.0000      -0.947649       -25.7868
 115   2.0000      -0.939274       -25.5589
 116   2.0000      -0.934134       -25.4191
 117   2.0000      -0.921723       -25.0814
 118   2.0000      -0.912521       -24.8310
 119   2.0000      -0.904746       -24.6194
 120   2.0000      -0.899817       -24.4853
 121   2.0000      -0.888824       -24.1861
 122   2.0000      -0.879377       -23.9291
 123   2.0000      -0.873857       -23.7789
 124   2.0000      -0.863200       -23.4889
 125   2.0000      -0.854624       -23.2555
 126   2.0000      -0.837676       -22.7943
 127   2.0000      -0.830189       -22.5906
 128   2.0000      -0.829305       -22.5665
 129   2.0000      -0.823374       -22.4052
 130   2.0000      -0.816581       -22.2203
 131   2.0000      -0.792936       -21.5769
 132   2.0000      -0.787851       -21.4385
 133   2.0000      -0.773155       -21.0386
 134   2.0000      -0.762320       -20.7438
 135   2.0000      -0.752569       -20.4784
 136   2.0000      -0.751634       -20.4530
 137   2.0000      -0.749745       -20.4016
 138   2.0000      -0.742243       -20.1974
 139   2.0000      -0.723414       -19.6851
 140   2.0000      -0.716432       -19.4951
 141   2.0000      -0.714918       -19.4539
 142   2.0000      -0.705917       -19.2090
 143   2.0000      -0.693421       -18.8689
 144   2.0000      -0.687351       -18.7038
 145   2.0000      -0.674093       -18.3430
 146   2.0000      -0.673630       -18.3304
 147   2.0000      -0.672572       -18.3016
 148   2.0000      -0.668562       -18.1925
 149   2.0000      -0.664506       -18.0821
 150   2.0000      -0.662567       -18.0294
 151   2.0000      -0.650350       -17.6969
 152   2.0000      -0.638093       -17.3634
 153   2.0000      -0.637603       -17.3501
 154   2.0000      -0.635588       -17.2952
 155   2.0000      -0.630542       -17.1579
 156   2.0000      -0.622212       -16.9312
 157   2.0000      -0.620108       -16.8740
 158   2.0000      -0.615106       -16.7379
 159   2.0000      -0.614280       -16.7154
 160   2.0000      -0.611013       -16.6265
 161   2.0000      -0.607919       -16.5423
 162   2.0000      -0.605597       -16.4791
 163   2.0000      -0.595696       -16.2097
 164   2.0000      -0.593625       -16.1534
 165   2.0000      -0.586053       -15.9473
 166   2.0000      -0.577973       -15.7274
 167   2.0000      -0.577137       -15.7047
 168   2.0000      -0.570833       -15.5331
 169   2.0000      -0.566359       -15.4114
 170   2.0000      -0.563537       -15.3346
 171   2.0000      -0.559432       -15.2229
 172   2.0000      -0.554321       -15.0838
 173   2.0000      -0.552749       -15.0411
 174   2.0000      -0.550421       -14.9777
 175   2.0000      -0.547554       -14.8997
 176   2.0000      -0.545064       -14.8319
 177   2.0000      -0.542171       -14.7532
 178   2.0000      -0.536527       -14.5997
 179   2.0000      -0.534796       -14.5525
 180   2.0000      -0.531702       -14.4684
 181   2.0000      -0.531125       -14.4526
 182   2.0000      -0.529420       -14.4062
 183   2.0000      -0.528981       -14.3943
 184   2.0000      -0.523554       -14.2466
 185   2.0000      -0.521986       -14.2040
 186   2.0000      -0.521493       -14.1905
 187   2.0000      -0.514750       -14.0071
 188   2.0000      -0.511544       -13.9198
 189   2.0000      -0.509813       -13.8727
 190   2.0000      -0.506960       -13.7951
 191   2.0000      -0.503194       -13.6926
 192   2.0000      -0.502056       -13.6616
 193   2.0000      -0.500900       -13.6302
 194   2.0000      -0.496892       -13.5211
 195   2.0000      -0.493523       -13.4294
 196   2.0000      -0.493018       -13.4157
 197   2.0000      -0.487938       -13.2775
 198   2.0000      -0.486115       -13.2279
 199   2.0000      -0.483941       -13.1687
 200   2.0000      -0.483423       -13.1546
 201   2.0000      -0.480422       -13.0729
 202   2.0000      -0.479823       -13.0566
 203   2.0000      -0.478615       -13.0238
 204   2.0000      -0.472558       -12.8590
 205   2.0000      -0.464918       -12.6511
 206   2.0000      -0.460165       -12.5217
 207   2.0000      -0.457047       -12.4369
 208   2.0000      -0.454426       -12.3656
 209   2.0000      -0.454290       -12.3619
 210   2.0000      -0.453914       -12.3516
 211   2.0000      -0.452237       -12.3060
 212   2.0000      -0.449038       -12.2189
 213   2.0000      -0.446810       -12.1583
 214   2.0000      -0.446153       -12.1404
 215   2.0000      -0.444081       -12.0841
 216   2.0000      -0.443142       -12.0585
 217   2.0000      -0.441609       -12.0168
 218   2.0000      -0.438896       -11.9430
 219   2.0000      -0.433671       -11.8008
 220   2.0000      -0.432748       -11.7757
 221   2.0000      -0.427366       -11.6292
 222   2.0000      -0.424671       -11.5559
 223   2.0000      -0.423176       -11.5152
 224   2.0000      -0.419311       -11.4100
 225   2.0000      -0.417409       -11.3583
 226   2.0000      -0.415738       -11.3128
 227   2.0000      -0.408428       -11.1139
 228   2.0000      -0.402511       -10.9529
 229   2.0000      -0.401606       -10.9283
 230   2.0000      -0.399220       -10.8633
 231   2.0000      -0.398261       -10.8372
 232   2.0000      -0.397477       -10.8159
 233   2.0000      -0.397021       -10.8035
 234   2.0000      -0.389444       -10.5973
 235   2.0000      -0.386589       -10.5196
 236   2.0000      -0.378964       -10.3121
 237   2.0000      -0.371853       -10.1186
 238   2.0000      -0.369833       -10.0637
 239   2.0000      -0.366195        -9.9647
 240   2.0000      -0.362586        -9.8665
 241   2.0000      -0.359340        -9.7781
 242   2.0000      -0.353373        -9.6158
 243   2.0000      -0.348576        -9.4852
 244   2.0000      -0.342926        -9.3315
 245   2.0000      -0.339931        -9.2500
 246   2.0000      -0.338316        -9.2061
 247   2.0000      -0.337917        -9.1952
 248   2.0000      -0.332235        -9.0406
 249   2.0000      -0.329049        -8.9539
 250   2.0000      -0.316538        -8.6134
 251   2.0000      -0.312169        -8.4946
 252   2.0000      -0.307644        -8.3714
 253   2.0000      -0.292493        -7.9592
 254   2.0000      -0.286000        -7.7825
 255   0.0000      -0.125011        -3.4017
 256   0.0000      -0.101529        -2.7627
 257   0.0000      -0.094494        -2.5713
 258   0.0000      -0.068951        -1.8762
 259   0.0000      -0.052561        -1.4303

MULLIKEN ATOMIC CHARGES
-----------------------
   0 C :    0.025554
   1 C :   -0.128824
   2 S :    0.182625
   3 C :   -0.168627
   4 Cl:   -0.006046
   5 C :    0.127356
   6 C :    0.133160
   7 O :   -0.131637
   8 C :   -0.110464
   9 C :    0.308503
  10 C :   -0.314322
  11 C :   -0.197053
  12 N :    0.161509
  13 C :   -0.184070
  14 N :    0.154908
  15 C :    0.015439
  16 C :   -0.113044
  17 S :    0.187542
  18 C :   -0.144231
  19 C :   -0.038592
  20 C :   -0.025766
  21 S :    0.721576
  22 O :   -0.449408
  23 O :   -0.441604
  24 C :   -0.004676
  25 C :   -0.039544
  26 C :    0.098612
  27 C :    0.106625
  28 C :   -0.079654
  29 C :    0.170480
  30 N :    0.245028
  31 O :   -0.225547
  32 O :   -0.216537
  33 C :    0.018836
  34 C :   -0.014801
  35 C :    0.006227
  36 C :    0.074598
  37 C :   -0.053143
  38 C :    0.034269
  39 N :   -0.037272
  40 C :    0.071639
  41 C :   -0.146323
  42 C :    0.240777
  43 O :   -0.151476
  44 C :   -0.006497
  45 C :   -0.026055
  46 N :   -0.049970
  47 C :    0.094460
  48 C :   -0.094441
  49 C :    0.056759
  50 C :   -0.023559
  51 C :    0.023533
  52 C :    0.028469
  53 C :   -0.114810
  54 C :    0.140111
  55 O :   -0.128790
  56 C :    0.079857
  57 C :   -0.171551
  58 S :    0.182867
  59 C :   -0.127953
  60 C :    0.022073
  61 C :    0.262148
  62 C :   -0.289810
  63 C :   -0.184889
  64 N :    0.151879
  65 C :   -0.203092
  66 N :    0.166983
  67 Cl:   -0.002082
  68 H :    0.052231
  69 H :    0.038536
  70 H :    0.059221
  71 H :    0.075375
  72 H :    0.057626
  73 H :    0.033696
  74 H :    0.030281
  75 H :    0.050735
  76 H :   -0.003737
  77 H :   -0.000740
  78 H :    0.005847
  79 H :    0.051453
  80 H :   -0.007847
  81 H :    0.014134
  82 H :    0.000397
  83 H :   -0.016084
  84 H :    0.041942
  85 H :    0.014764
  86 H :    0.053927
Sum of atomic charges:    0.0000000

LOEWDIN ATOMIC CHARGES
----------------------
   0 C :   -0.056612
   1 C :   -0.149837
   2 S :    0.477063
   3 C :   -0.272441
   4 Cl:    0.192509
   5 C :   -0.105382
   6 C :    0.070039
   7 O :   -0.136401
   8 C :   -0.062784
   9 C :    0.078637
  10 C :   -0.124629
  11 C :   -0.014624
  12 N :   -0.046875
  13 C :   -0.016922
  14 N :   -0.045263
  15 C :    0.039052
  16 C :   -0.165514
  17 S :    0.494720
  18 C :   -0.164564
  19 C :   -0.051495
  20 C :   -0.200445
  21 S :    1.176447
  22 O :   -0.506808
  23 O :   -0.483944
  24 C :   -0.128093
  25 C :   -0.048167
  26 C :   -0.026538
  27 C :   -0.031998
  28 C :    0.009190
  29 C :   -0.017210
  30 N :    0.284374
  31 O :   -0.195385
  32 O :   -0.174957
  33 C :   -0.011262
  34 C :    0.001679
  35 C :    0.001377
  36 C :    0.067342
  37 C :   -0.052602
  38 C :    0.075072
  39 N :   -0.098047
  40 C :    0.048026
  41 C :   -0.024027
  42 C :    0.077654
  43 O :   -0.141159
  44 C :   -0.036370
  45 C :    0.030152
  46 N :   -0.092227
  47 C :    0.080660
  48 C :   -0.029802
  49 C :   -0.031602
  50 C :    0.006948
  51 C :    0.000804
  52 C :    0.062267
  53 C :   -0.074808
  54 C :    0.079132
  55 O :   -0.134505
  56 C :   -0.118825
  57 C :   -0.273059
  58 S :    0.472404
  59 C :   -0.152259
  60 C :   -0.055354
  61 C :    0.066539
  62 C :   -0.118187
  63 C :   -0.011043
  64 N :   -0.049050
  65 C :   -0.018566
  66 N :   -0.049834
  67 Cl:    0.190231
  68 H :    0.037253
  69 H :    0.048205
  70 H :    0.035557
  71 H :    0.046190
  72 H :    0.035166
  73 H :    0.039658
  74 H :    0.038178
  75 H :    0.043700
  76 H :    0.039434
  77 H :    0.038870
  78 H :    0.030367
  79 H :    0.046684
  80 H :    0.028585
  81 H :    0.025584
  82 H :    0.036790
  83 H :    0.030141
  84 H :    0.034776
  85 H :    0.044131
  86 H :    0.037893

  Mayer bond orders larger than 0.100000
B(  0-C ,  1-C ) :   1.5282 B(  0-C ,  5-C ) :   1.2367 B(  0-C ,  9-C ) :   1.0144
B(  1-C ,  2-S ) :   1.1716 B(  1-C , 68-H ) :   0.9538 B(  2-S ,  3-C ) :   1.1434
B(  3-C ,  4-Cl) :   1.1265 B(  3-C ,  5-C ) :   1.4876 B(  5-C ,  6-C ) :   0.9248
B(  6-C ,  7-O ) :   2.2543 B(  6-C ,  8-C ) :   0.9085 B(  8-C ,  9-C ) :   1.0557
B(  8-C , 15-C ) :   1.7419 B(  9-C , 10-C ) :   1.6705 B( 10-C , 11-C ) :   1.1400
B( 10-C , 13-C ) :   1.1393 B( 11-C , 12-N ) :   2.9948 B( 13-C , 14-N ) :   2.9710
B( 15-C , 16-C ) :   1.0419 B( 15-C , 69-H ) :   0.9307 B( 16-C , 17-S ) :   1.1688
B( 16-C , 18-C ) :   0.1125 B( 16-C , 20-C ) :   1.5638 B( 17-S , 18-C ) :   1.1403
B( 18-C , 19-C ) :   1.5531 B( 18-C , 27-C ) :   1.0241 B( 19-C , 20-C ) :   1.3161
B( 19-C , 26-C ) :   1.0450 B( 20-C , 21-S ) :   0.8105 B( 21-S , 22-O ) :   1.7238
B( 21-S , 23-O ) :   1.6667 B( 21-S , 24-C ) :   0.8746 B( 24-C , 25-C ) :   1.0260
B( 24-C , 70-H ) :   0.9379 B( 24-C , 71-H ) :   0.9336 B( 25-C , 26-C ) :   1.0916
B( 25-C , 72-H ) :   0.9392 B( 25-C , 73-H ) :   0.9300 B( 26-C , 74-H ) :   0.9137
B( 26-C , 75-H ) :   0.9101 B( 27-C , 28-C ) :   1.3142 B( 27-C , 35-C ) :   1.3264
B( 28-C , 29-C ) :   1.3865 B( 28-C , 76-H ) :   0.9878 B( 29-C , 30-N ) :   0.8761
B( 29-C , 33-C ) :   1.3551 B( 30-N , 31-O ) :   1.5539 B( 30-N , 32-O ) :   1.5330
B( 31-O , 32-O ) :   0.2693 B( 33-C , 34-C ) :   1.3558 B( 33-C , 36-C ) :   1.0130
B( 34-C , 35-C ) :   1.4012 B( 34-C , 77-H ) :   0.9917 B( 35-C , 78-H ) :   0.9867
B( 36-C , 37-C ) :   1.7288 B( 36-C , 79-H ) :   0.9445 B( 37-C , 38-C ) :   1.1320
B( 37-C , 80-H ) :   0.9582 B( 38-C , 39-N ) :   1.6118 B( 38-C , 40-C ) :   0.1088
B( 38-C , 49-C ) :   0.9999 B( 39-N , 40-C ) :   1.3529 B( 40-C , 41-C ) :   1.0583
B( 40-C , 45-C ) :   1.4151 B( 41-C , 42-C ) :   0.8935 B( 41-C , 49-C ) :   1.5570
B( 42-C , 43-O ) :   2.1443 B( 42-C , 44-C ) :   0.9421 B( 43-O , 84-H ) :   0.1085
B( 44-C , 45-C ) :   1.0649 B( 44-C , 48-C ) :   1.6006 B( 45-C , 46-N ) :   1.3183
B( 46-N , 47-C ) :   1.6513 B( 47-C , 48-C ) :   1.0692 B( 47-C , 81-H ) :   0.9890
B( 48-C , 82-H ) :   1.0118 B( 49-C , 50-C ) :   1.1038 B( 50-C , 51-C ) :   1.6758
B( 50-C , 83-H ) :   0.9759 B( 51-C , 52-C ) :   1.0983 B( 51-C , 84-H ) :   0.9248
B( 52-C , 53-C ) :   1.6535 B( 52-C , 85-H ) :   0.9634 B( 53-C , 54-C ) :   0.9331
B( 53-C , 61-C ) :   1.0312 B( 54-C , 55-O ) :   2.2839 B( 54-C , 56-C ) :   0.9253
B( 56-C , 57-C ) :   1.4840 B( 56-C , 60-C ) :   1.2214 B( 57-C , 58-S ) :   1.1530
B( 57-C , 67-Cl) :   1.1267 B( 58-S , 59-C ) :   1.1551 B( 59-C , 60-C ) :   1.5579
B( 59-C , 86-H ) :   0.9551 B( 60-C , 61-C ) :   1.0107 B( 61-C , 62-C ) :   1.6770
B( 62-C , 63-C ) :   1.1405 B( 62-C , 65-C ) :   1.1538 B( 63-C , 64-N ) :   2.9983
B( 65-C , 66-N ) :   2.9934

-----------------------------------------------------------------------------
         ABSORPTION SPECTRUM VIA TRANSITION ELECTRIC DIPOLE MOMENTS
-----------------------------------------------------------------------------
State   Energy  Wavelength   fosc         T2         TX        TY        TZ
        (cm-1)    (nm)                  (au**2)     (au)      (au)      (au)
-----------------------------------------------------------------------------
   0   18250.1    547.9   0.103631362   1.86940   0.61932   1.12630   0.46614
   1   21740.0    460.0   0.258728563   3.91796  -1.39646   0.73620  -1.19410
   2   22236.0    449.7   0.978528444  14.48744   2.47928  -1.51935   2.45605
   3   23245.4    430.2   0.470608074   6.66495  -0.18023  -2.54635   0.38546
   4   23824.3    419.7   0.032570640   0.45007   0.42382  -0.35346  -0.38146
   5   25064.9    399.0   0.055018102   0.72263   0.66584  -0.37238   0.37499
   6   25577.9    391.0   0.099720916   1.28350  -0.13383  -1.03508  -0.44069
   7   25692.6    389.2   0.014435841   0.18497  -0.32803   0.24751  -0.12693
   8   27105.9    368.9   0.002947424   0.03580  -0.07719  -0.04927  -0.16556
   9   27193.7    367.7   0.045123846   0.54628  -0.06839   0.13937  -0.72262
  10   27842.1    359.2   0.067773163   0.80137  -0.36706   0.81031   0.10016
  11   28239.9    354.1   0.004564291   0.05321  -0.12758  -0.00972  -0.19193
  12   28392.4    352.2   0.335097424   3.88548   1.14016  -0.85470   1.36199
  13   29203.7    342.4   0.099623411   1.12305  -0.97542   0.38878   0.14303
  14   29925.5    334.2   0.018184731   0.20005  -0.34807   0.27424  -0.06074
  15   30090.5    332.3   0.019905080   0.21778   0.34259  -0.31198   0.05547
  16   31001.2    322.6   0.033027282   0.35073  -0.35284   0.31511  -0.35627
  17   31315.4    319.3   0.123033561   1.29342   0.56649  -0.90360  -0.39500
  18   31576.6    316.7   0.051350002   0.53537   0.58049  -0.07622   0.43884
  19   32231.6    310.3   0.006110147   0.06241  -0.13334   0.05211  -0.20473
  20   32925.5    303.7   0.307409710   3.07370   0.53178   1.10361   1.25418
  21   33116.0    302.0   0.030376657   0.30198  -0.27745  -0.36815  -0.29912
  22   33628.4    297.4   0.022057019   0.21593   0.32292  -0.31904  -0.09932
  23   33791.8    295.9   0.057869950   0.56379  -0.43368   0.61170   0.03918
  24   34007.0    294.1   0.057238874   0.55411   0.70865  -0.18607   0.13155
  25   34224.5    292.2   0.340178777   3.27225   0.30156   1.44188   1.04990
  26   34543.8    289.5   0.101784812   0.97004  -0.61694   0.54140  -0.54434
  27   35085.9    285.0   0.073602044   0.69061   0.31624  -0.76689   0.04985
  28   35680.0    280.3   0.039621236   0.36558  -0.29654   0.31093  -0.42540
  29   35861.4    278.9   0.009753611   0.08954   0.17873   0.15819   0.18047
  30   36397.5    274.7   0.003221070   0.02913  -0.16928   0.01555   0.01535
  31   36541.1    273.7   0.158030373   1.42375   0.82070  -0.65871   0.56241
  32   36685.1    272.6   0.148537983   1.33298   0.20820   0.69876   0.89519
  33   36984.2    270.4   0.013356117   0.11889   0.26998  -0.20828  -0.05119
  34   37090.7    269.6   0.111939789   0.99356  -0.60349   0.50182  -0.61445
  35   37157.9    269.1   0.013581955   0.12033  -0.17816   0.05303   0.29288
  36   37302.6    268.1   0.019429234   0.17147  -0.18744  -0.12642  -0.34692
  37   37407.5    267.3   0.190075048   1.67279  -0.49259   0.97456   0.69310
  38   37707.5    265.2   0.064755066   0.56536   0.16078  -0.59739  -0.42736
  39   37791.6    264.6   0.239029310   2.08224  -1.02239   1.00876  -0.13915
  40   38228.4    261.6   0.142090303   1.22364   0.47602   0.09796   0.99371
  41   38733.0    258.2   0.068970290   0.58621   0.02413  -0.76508  -0.01704
  42   38762.8    258.0   0.206092717   1.75034  -0.11013   1.21493   0.51201
  43   38922.9    256.9   0.403377043   3.41179  -0.00737   0.90375   1.61089
  44   38988.2    256.5   0.052761853   0.44552  -0.42389   0.34464  -0.38348
  45   39292.5    254.5   0.036302163   0.30416   0.32521  -0.42895   0.12000
  46   39669.6    252.1   0.081125666   0.67325  -0.31408   0.51312   0.55795
  47   39750.5    251.6   0.002116067   0.01753   0.06180  -0.11704  -0.00282
  48   39787.0    251.3   0.076529534   0.63323  -0.29711  -0.34264  -0.65388
  49   39924.0    250.5   0.014887297   0.12276   0.18930  -0.04514   0.29136
  50   40076.9    249.5   0.098144209   0.80621  -0.53992   0.67010  -0.25624
  51   40289.1    248.2   0.011305866   0.09238   0.03381   0.17721   0.24461

FINAL SINGLE POINT ENERGY     -5258.968551134278

DIPOLE MOMENT
-------------
                                X             Y             Z
Electronic contribution:      1.46804      -9.98575     -16.13365
Nuclear contribution   :     -1.46411       9.76879      16.44715
                        -----------------------------------------
Total Dipole Moment    :      0.00393      -0.21696       0.31350
                        -----------------------------------------
Magnitude (a.u.)       :      0.38128
Magnitude (Debye)      :      0.96913

Rotational constants in cm-1:     0.001636     0.000252     0.000229
Rotational constants in MHz :    49.042189     7.548653     6.866486

                             ****ORCA TERMINATED NORMALLY****
TOTAL RUN TIME: 0 days 0 hours 8 minutes 22 seconds 62 msec
