                         Program Version 4.2.0 -  RELEASE  -
|  1> # ORCA input file
|  2> # SCF done       -158.755147720612          0.000544041020
|  3> ! CAM-B3LYP def2-SVP def2/J RIJCOSX Grid4 TightSCF
|  4> %maxcore 5000
|  5> %tddft
|  6>     Mode sTDDFT
|  7>     Ethresh 5.0
|  8>     maxcore 5000
|  9> end
| 10>
| 11> %pal
| 12>   nprocs 6
| 13>   end
| 14> * xyz 0 1
| 15>    C        3.01710         2.70845         1.99610
| 16>    C        2.70185         3.87700         2.61802
| 17>    S        3.56108         4.04409         4.10506
| 18>    C        4.36503         2.50685         3.88817
| 19>   Cl        5.46650         1.91738         5.03188
| 20>    C        3.96842         1.92172         2.72296
| 21>    C        4.25671         0.68156         1.99431
| 22>    O        5.02488        -0.19911         2.30423
| 23>    C        3.43108         0.77650         0.74819
| 24>    C        2.65840         2.01224         0.77783
| 25>    C        1.73158         2.45054        -0.12902
| 26>    C        1.05144         3.67397         0.05018
| 27>    N        0.49309         4.66762         0.18000
| 28>    C        1.34097         1.76815        -1.29830
| 29>    N        0.97787         1.25861        -2.26108
| 30>    C        3.52252        -0.08583        -0.29405
| 31>    C        4.26235        -1.31830        -0.28930
| 32>    C        4.18528        -2.27883         0.73375
| 33>    N        4.89621        -3.37588         0.72201
| 34>    C        5.70523        -3.60358        -0.31535
| 35>    N        5.78940        -2.79277        -1.37367
| 36>    C        5.09569        -1.68234        -1.35837
| 37>    C        6.52072        -4.80753        -0.30237
| 38>    C        6.40225        -5.71648         0.75646
| 39>    C        7.18075        -6.84763         0.74967
| 40>    C        8.08546        -7.08564        -0.30032
| 41>    C        8.20749        -6.18431        -1.34983
| 42>    C        7.42176        -5.05012        -1.34441
| 43>    C        8.75683        -8.34403        -0.05148
| 44>    C        8.25853        -8.89050         1.14437
| 45>    C        7.22921        -7.97029         1.76204
| 46>    C        5.86733        -8.65823         1.89244
| 47>    C        7.70256        -7.45544         3.12563
| 48>    C        8.71262       -10.10222         1.60387
| 49>    C        9.69282       -10.79376         0.87645
| 50>    C       10.20098       -10.21966        -0.29737
| 51>    C        9.73743        -9.01039        -0.77255
| 52>    C       10.20679       -12.08023         1.28968
| 53>    C        9.63684       -12.91566         2.17642
| 54>    C       10.16104       -14.20392         2.54643
| 55>    C       11.47082       -14.64471         2.28991
| 56>    N       11.89767       -15.83803         2.62467
| 57>    C       11.05628       -16.64435         3.27663
| 58>    N        9.79737       -16.32310         3.58967
| 59>    C        9.36321       -15.14058         3.22372
| 60>    C       11.55643       -17.96113         3.58435
| 61>    C       11.00673       -18.92060         4.35974
| 62>    C       11.49231       -20.33592         4.21167
| 63>    O       12.51073       -20.69363         3.67506
| 64>    C       10.42478       -21.14656         4.80787
| 65>    C       10.13296       -22.47123         4.94547
| 66>    S        8.62134       -22.67989         5.79652
| 67>    C        8.40747       -20.97498         5.96747
| 68>    C        9.43430       -20.29139         5.39617
| 69>    C        9.85581       -18.91031         5.25247
| 70>    C        9.37522       -17.86949         5.99312
| 71>    C        8.26100       -18.02783         6.84404
| 72>    N        7.34221       -18.14048         7.52184
| 73>    C        9.97327       -16.59461         6.08155
| 74>    N       10.45900       -15.57666         6.29518
| 75>   Cl       11.03439       -23.80069         4.40831
| 76>    H        2.03034         4.65307         2.30863
| 77>    H        3.03717         0.16418        -1.22995
| 78>    H        3.49065        -2.16497         1.55493
| 79>    H        5.22284        -1.02826        -2.21227
| 80>    H        5.70033        -5.50521         1.54757
| 81>    H        8.90267        -6.36777        -2.15513
| 82>    H        7.48750        -4.32735        -2.14226
| 83>    H        5.53729        -9.02871         0.92420
| 84>    H        5.12696        -7.95578         2.26645
| 85>    H        5.93157        -9.49611         2.58243
| 86>    H        8.67132        -6.96987         3.02951
| 87>    H        7.79519        -8.27888         3.82967
| 88>    H        6.99129        -6.73512         3.52155
| 89>    H        8.33518       -10.51346         2.52739
| 90>    H       10.96430       -10.75069        -0.84808
| 91>    H       10.13290        -8.59089        -1.68518
| 92>    H       11.11274       -12.39062         0.78516
| 93>    H        8.69314       -12.65817         2.63856
| 94>    H       12.19941       -14.00891         1.80404
| 95>    H        8.33431       -14.91556         3.47922
| 96>    H       12.45937       -18.22965         3.04765
| 97>    H        7.53683       -20.60112         6.46857
| 98> *
| 99>
|100>                          ****END OF INPUT****

CARTESIAN COORDINATES (ANGSTROEM)
---------------------------------
  C      3.017100    2.708450    1.996100
  C      2.701850    3.877000    2.618020
  S      3.561080    4.044090    4.105060
  C      4.365030    2.506850    3.888170
  Cl     5.466500    1.917380    5.031880
  C      3.968420    1.921720    2.722960
  C      4.256710    0.681560    1.994310
  O      5.024880   -0.199110    2.304230
  C      3.431080    0.776500    0.748190
  C      2.658400    2.012240    0.777830
  C      1.731580    2.450540   -0.129020
  C      1.051440    3.673970    0.050180
  N      0.493090    4.667620    0.180000
  C      1.340970    1.768150   -1.298300
  N      0.977870    1.258610   -2.261080
  C      3.522520   -0.085830   -0.294050
  C      4.262350   -1.318300   -0.289300
  C      4.185280   -2.278830    0.733750
  N      4.896210   -3.375880    0.722010
  C      5.705230   -3.603580   -0.315350
  N      5.789400   -2.792770   -1.373670
  C      5.095690   -1.682340   -1.358370
  C      6.520720   -4.807530   -0.302370
  C      6.402250   -5.716480    0.756460
  C      7.180750   -6.847630    0.749670
  C      8.085460   -7.085640   -0.300320
  C      8.207490   -6.184310   -1.349830
  C      7.421760   -5.050120   -1.344410
  C      8.756830   -8.344030   -0.051480
  C      8.258530   -8.890500    1.144370
  C      7.229210   -7.970290    1.762040
  C      5.867330   -8.658230    1.892440
  C      7.702560   -7.455440    3.125630
  C      8.712620  -10.102220    1.603870
  C      9.692820  -10.793760    0.876450
  C     10.200980  -10.219660   -0.297370
  C      9.737430   -9.010390   -0.772550
  C     10.206790  -12.080230    1.289680
  C      9.636840  -12.915660    2.176420
  C     10.161040  -14.203920    2.546430
  C     11.470820  -14.644710    2.289910
  N     11.897670  -15.838030    2.624670
  C     11.056280  -16.644350    3.276630
  N      9.797370  -16.323100    3.589670
  C      9.363210  -15.140580    3.223720
  C     11.556430  -17.961130    3.584350
  C     11.006730  -18.920600    4.359740
  C     11.492310  -20.335920    4.211670
  O     12.510730  -20.693630    3.675060
  C     10.424780  -21.146560    4.807870
  C     10.132960  -22.471230    4.945470
  S      8.621340  -22.679890    5.796520
  C      8.407470  -20.974980    5.967470
  C      9.434300  -20.291390    5.396170
  C      9.855810  -18.910310    5.252470
  C      9.375220  -17.869490    5.993120
  C      8.261000  -18.027830    6.844040
  N      7.342210  -18.140480    7.521840
  C      9.973270  -16.594610    6.081550
  N     10.459000  -15.576660    6.295180
  Cl    11.034390  -23.800690    4.408310
  H      2.030340    4.653070    2.308630
  H      3.037170    0.164180   -1.229950
  H      3.490650   -2.164970    1.554930
  H      5.222840   -1.028260   -2.212270
  H      5.700330   -5.505210    1.547570
  H      8.902670   -6.367770   -2.155130
  H      7.487500   -4.327350   -2.142260
  H      5.537290   -9.028710    0.924200
  H      5.126960   -7.955780    2.266450
  H      5.931570   -9.496110    2.582430
  H      8.671320   -6.969870    3.029510
  H      7.795190   -8.278880    3.829670
  H      6.991290   -6.735120    3.521550
  H      8.335180  -10.513460    2.527390
  H     10.964300  -10.750690   -0.848080
  H     10.132900   -8.590890   -1.685180
  H     11.112740  -12.390620    0.785160
  H      8.693140  -12.658170    2.638560
  H     12.199410  -14.008910    1.804040
  H      8.334310  -14.915560    3.479220
  H     12.459370  -18.229650    3.047650
  H      7.536830  -20.601120    6.468570

 Total Charge           Charge          ....    0
 Multiplicity           Mult            ....    1
 Number of Electrons    NEL             ....  442
 Basis Dimension        Dim             ....  980

ORBITAL ENERGIES
----------------

  NO   OCC          E(Eh)            E(eV)
   0   2.0000    -101.623570     -2765.3179
   1   2.0000    -101.614396     -2765.0683
   2   2.0000     -89.000940     -2421.8387
   3   2.0000     -88.989774     -2421.5349
   4   2.0000     -19.229719      -523.2673
   5   2.0000     -19.217157      -522.9254
   6   2.0000     -14.428892      -392.6301
   7   2.0000     -14.427384      -392.5891
   8   2.0000     -14.424578      -392.5127
   9   2.0000     -14.421376      -392.4256
  10   2.0000     -14.417879      -392.3304
  11   2.0000     -14.415655      -392.2699
  12   2.0000     -14.414923      -392.2500
  13   2.0000     -14.410338      -392.1252
  14   2.0000     -10.386975      -282.6440
  15   2.0000     -10.383355      -282.5454
  16   2.0000     -10.373208      -282.2693
  17   2.0000     -10.372943      -282.2621
  18   2.0000     -10.357198      -281.8337
  19   2.0000     -10.356570      -281.8166
  20   2.0000     -10.352163      -281.6967
  21   2.0000     -10.351474      -281.6779
  22   2.0000     -10.344177      -281.4794
  23   2.0000     -10.341644      -281.4104
  24   2.0000     -10.336870      -281.2805
  25   2.0000     -10.334179      -281.2073
  26   2.0000     -10.333824      -281.1976
  27   2.0000     -10.332378      -281.1583
  28   2.0000     -10.330685      -281.1122
  29   2.0000     -10.329125      -281.0698
  30   2.0000     -10.327994      -281.0390
  31   2.0000     -10.327579      -281.0277
  32   2.0000     -10.324669      -280.9485
  33   2.0000     -10.320204      -280.8270
  34   2.0000     -10.319318      -280.8029
  35   2.0000     -10.317302      -280.7481
  36   2.0000     -10.315002      -280.6855
  37   2.0000     -10.309414      -280.5334
  38   2.0000     -10.308658      -280.5129
  39   2.0000     -10.307236      -280.4741
  40   2.0000     -10.304859      -280.4095
  41   2.0000     -10.303974      -280.3854
  42   2.0000     -10.302951      -280.3575
  43   2.0000     -10.297041      -280.1967
  44   2.0000     -10.291063      -280.0341
  45   2.0000     -10.287636      -279.9408
  46   2.0000     -10.285674      -279.8874
  47   2.0000     -10.285495      -279.8826
  48   2.0000     -10.277612      -279.6680
  49   2.0000     -10.277345      -279.6608
  50   2.0000     -10.277038      -279.6524
  51   2.0000     -10.276936      -279.6496
  52   2.0000     -10.276876      -279.6480
  53   2.0000     -10.275494      -279.6104
  54   2.0000     -10.274508      -279.5836
  55   2.0000     -10.272294      -279.5233
  56   2.0000     -10.270542      -279.4756
  57   2.0000     -10.270356      -279.4706
  58   2.0000     -10.269785      -279.4551
  59   2.0000     -10.261756      -279.2366
  60   2.0000     -10.260750      -279.2092
  61   2.0000      -9.578309      -260.6390
  62   2.0000      -9.569193      -260.3910
  63   2.0000      -8.096659      -220.3213
  64   2.0000      -8.085502      -220.0177
  65   2.0000      -7.348974      -199.9758
  66   2.0000      -7.339834      -199.7270
  67   2.0000      -7.338347      -199.6866
  68   2.0000      -7.337778      -199.6711
  69   2.0000      -7.329229      -199.4385
  70   2.0000      -7.328684      -199.4236
  71   2.0000      -6.066009      -165.0645
  72   2.0000      -6.061407      -164.9393
  73   2.0000      -6.058950      -164.8724
  74   2.0000      -6.054868      -164.7613
  75   2.0000      -6.050302      -164.6371
  76   2.0000      -6.047748      -164.5676
  77   2.0000      -1.147036       -31.2124
  78   2.0000      -1.134353       -30.8673
  79   2.0000      -1.094596       -29.7855
  80   2.0000      -1.092359       -29.7246
  81   2.0000      -1.045556       -28.4510
  82   2.0000      -1.034254       -28.1435
  83   2.0000      -1.025112       -27.8947
  84   2.0000      -1.012551       -27.5529
  85   2.0000      -1.006440       -27.3866
  86   2.0000      -0.995880       -27.0993
  87   2.0000      -0.994885       -27.0722
  88   2.0000      -0.990623       -26.9562
  89   2.0000      -0.986199       -26.8358
  90   2.0000      -0.986117       -26.8336
  91   2.0000      -0.983869       -26.7724
  92   2.0000      -0.963470       -26.2173
  93   2.0000      -0.953112       -25.9355
  94   2.0000      -0.950423       -25.8623
  95   2.0000      -0.937066       -25.4989
  96   2.0000      -0.928492       -25.2656
  97   2.0000      -0.915674       -24.9168
  98   2.0000      -0.909437       -24.7470
  99   2.0000      -0.902713       -24.5641
 100   2.0000      -0.889288       -24.1987
 101   2.0000      -0.877585       -23.8803
 102   2.0000      -0.863515       -23.4974
 103   2.0000      -0.843616       -22.9560
 104   2.0000      -0.840035       -22.8585
 105   2.0000      -0.835270       -22.7289
 106   2.0000      -0.828506       -22.5448
 107   2.0000      -0.823740       -22.4151
 108   2.0000      -0.816382       -22.2149
 109   2.0000      -0.797048       -21.6888
 110   2.0000      -0.780973       -21.2514
 111   2.0000      -0.773480       -21.0475
 112   2.0000      -0.763433       -20.7741
 113   2.0000      -0.760806       -20.7026
 114   2.0000      -0.757602       -20.6154
 115   2.0000      -0.754943       -20.5430
 116   2.0000      -0.748470       -20.3669
 117   2.0000      -0.732743       -19.9390
 118   2.0000      -0.730987       -19.8912
 119   2.0000      -0.707595       -19.2546
 120   2.0000      -0.695832       -18.9346
 121   2.0000      -0.689042       -18.7498
 122   2.0000      -0.684346       -18.6220
 123   2.0000      -0.677601       -18.4384
 124   2.0000      -0.674558       -18.3556
 125   2.0000      -0.671486       -18.2721
 126   2.0000      -0.666361       -18.1326
 127   2.0000      -0.661656       -18.0046
 128   2.0000      -0.657276       -17.8854
 129   2.0000      -0.647507       -17.6196
 130   2.0000      -0.629649       -17.1336
 131   2.0000      -0.626720       -17.0539
 132   2.0000      -0.620727       -16.8908
 133   2.0000      -0.617083       -16.7917
 134   2.0000      -0.614209       -16.7135
 135   2.0000      -0.607523       -16.5315
 136   2.0000      -0.601133       -16.3576
 137   2.0000      -0.595959       -16.2169
 138   2.0000      -0.591026       -16.0826
 139   2.0000      -0.578284       -15.7359
 140   2.0000      -0.570707       -15.5297
 141   2.0000      -0.561631       -15.2828
 142   2.0000      -0.558424       -15.1955
 143   2.0000      -0.552468       -15.0334
 144   2.0000      -0.550761       -14.9870
 145   2.0000      -0.545904       -14.8548
 146   2.0000      -0.543129       -14.7793
 147   2.0000      -0.541933       -14.7467
 148   2.0000      -0.537081       -14.6147
 149   2.0000      -0.534163       -14.5353
 150   2.0000      -0.530553       -14.4371
 151   2.0000      -0.528327       -14.3765
 152   2.0000      -0.527783       -14.3617
 153   2.0000      -0.526597       -14.3294
 154   2.0000      -0.521699       -14.1961
 155   2.0000      -0.520700       -14.1690
 156   2.0000      -0.518415       -14.1068
 157   2.0000      -0.517898       -14.0927
 158   2.0000      -0.517429       -14.0800
 159   2.0000      -0.513278       -13.9670
 160   2.0000      -0.512641       -13.9497
 161   2.0000      -0.511528       -13.9194
 162   2.0000      -0.508876       -13.8472
 163   2.0000      -0.504139       -13.7183
 164   2.0000      -0.501528       -13.6473
 165   2.0000      -0.497747       -13.5444
 166   2.0000      -0.494323       -13.4512
 167   2.0000      -0.493368       -13.4252
 168   2.0000      -0.492122       -13.3913
 169   2.0000      -0.482729       -13.1357
 170   2.0000      -0.477298       -12.9879
 171   2.0000      -0.474675       -12.9166
 172   2.0000      -0.473245       -12.8776
 173   2.0000      -0.464144       -12.6300
 174   2.0000      -0.463148       -12.6029
 175   2.0000      -0.460734       -12.5372
 176   2.0000      -0.460317       -12.5258
 177   2.0000      -0.456524       -12.4227
 178   2.0000      -0.454701       -12.3730
 179   2.0000      -0.453142       -12.3306
 180   2.0000      -0.451913       -12.2972
 181   2.0000      -0.449334       -12.2270
 182   2.0000      -0.447868       -12.1871
 183   2.0000      -0.442271       -12.0348
 184   2.0000      -0.441255       -12.0072
 185   2.0000      -0.440229       -11.9792
 186   2.0000      -0.439296       -11.9539
 187   2.0000      -0.433471       -11.7953
 188   2.0000      -0.432299       -11.7634
 189   2.0000      -0.430044       -11.7021
 190   2.0000      -0.428414       -11.6577
 191   2.0000      -0.427172       -11.6239
 192   2.0000      -0.425307       -11.5732
 193   2.0000      -0.422713       -11.5026
 194   2.0000      -0.419803       -11.4234
 195   2.0000      -0.412497       -11.2246
 196   2.0000      -0.409849       -11.1526
 197   2.0000      -0.404265       -11.0006
 198   2.0000      -0.401492       -10.9252
 199   2.0000      -0.400398       -10.8954
 200   2.0000      -0.396418       -10.7871
 201   2.0000      -0.396093       -10.7782
 202   2.0000      -0.395620       -10.7654
 203   2.0000      -0.391002       -10.6397
 204   2.0000      -0.385073       -10.4784
 205   2.0000      -0.384073       -10.4512
 206   2.0000      -0.373554       -10.1649
 207   2.0000      -0.358270        -9.7490
 208   2.0000      -0.348959        -9.4957
 209   2.0000      -0.343589        -9.3495
 210   2.0000      -0.341307        -9.2874
 211   2.0000      -0.333813        -9.0835
 212   2.0000      -0.329689        -8.9713
 213   2.0000      -0.327665        -8.9162
 214   2.0000      -0.325179        -8.8486
 215   2.0000      -0.324234        -8.8229
 216   2.0000      -0.317409        -8.6371
 217   2.0000      -0.315770        -8.5925
 218   2.0000      -0.307276        -8.3614
 219   2.0000      -0.296423        -8.0661
 220   2.0000      -0.261947        -7.1279
 221   0.0000      -0.101899        -2.7728
 222   0.0000      -0.094698        -2.5769
 223   0.0000      -0.060466        -1.6454
 224   0.0000      -0.051052        -1.3892
 225   0.0000      -0.040084        -1.0908

MULLIKEN ATOMIC CHARGES
-----------------------
   0 C :    0.031807
   1 C :   -0.130289
   2 S :    0.193723
   3 C :   -0.169941
   4 Cl:    0.003960
   5 C :    0.074287
   6 C :    0.142652
   7 O :   -0.121914
   8 C :   -0.099522
   9 C :    0.292222
  10 C :   -0.322798
  11 C :   -0.194363
  12 N :    0.160895
  13 C :   -0.192752
  14 N :    0.167916
  15 C :   -0.014943
  16 C :   -0.035432
  17 C :    0.112910
  18 N :   -0.054157
  19 C :   -0.078791
  20 N :   -0.047269
  21 C :    0.058592
  22 C :    0.098935
  23 C :   -0.094688
  24 C :    0.043515
  25 C :    0.106452
  26 C :   -0.043424
  27 C :   -0.003128
  28 C :    0.088619
  29 C :    0.034821
  30 C :   -0.154410
  31 C :    0.106850
  32 C :    0.109776
  33 C :   -0.087769
  34 C :    0.113248
  35 C :   -0.020671
  36 C :   -0.040748
  37 C :    0.012284
  38 C :    0.011683
  39 C :    0.045641
  40 C :    0.031560
  41 N :   -0.041081
  42 C :   -0.074841
  43 N :   -0.082995
  44 C :    0.047574
  45 C :    0.080000
  46 C :   -0.097140
  47 C :    0.132417
  48 O :   -0.122259
  49 C :    0.082940
  50 C :   -0.168846
  51 S :    0.181757
  52 C :   -0.131594
  53 C :    0.022341
  54 C :    0.280717
  55 C :   -0.273686
  56 C :   -0.201412
  57 N :    0.152004
  58 C :   -0.183671
  59 N :    0.158865
  60 Cl:   -0.001586
  61 H :    0.056022
  62 H :    0.040848
  63 H :    0.007078
  64 H :    0.007634
  65 H :   -0.018930
  66 H :   -0.033320
  67 H :   -0.007554
  68 H :    0.018221
  69 H :    0.012393
  70 H :    0.005975
  71 H :    0.018343
  72 H :    0.009042
  73 H :    0.013971
  74 H :   -0.038287
  75 H :   -0.025180
  76 H :   -0.031178
  77 H :   -0.013772
  78 H :   -0.009649
  79 H :    0.009757
  80 H :    0.005045
  81 H :    0.026985
  82 H :    0.051715
Sum of atomic charges:    0.0000000

LOEWDIN ATOMIC CHARGES
----------------------
   0 C :   -0.059996
   1 C :   -0.147595
   2 S :    0.481575
   3 C :   -0.270790
   4 Cl:    0.195401
   5 C :   -0.117988
   6 C :    0.081051
   7 O :   -0.122110
   8 C :   -0.081494
   9 C :    0.073761
  10 C :   -0.131228
  11 C :   -0.015488
  12 N :   -0.046381
  13 C :   -0.024157
  14 N :   -0.040727
  15 C :    0.077559
  16 C :   -0.094466
  17 C :    0.086620
  18 N :   -0.077953
  19 C :    0.058147
  20 N :   -0.081026
  21 C :    0.065705
  22 C :   -0.048287
  23 C :    0.005604
  24 C :   -0.001752
  25 C :   -0.005814
  26 C :   -0.022995
  27 C :    0.008094
  28 C :   -0.012782
  29 C :    0.007253
  30 C :   -0.038609
  31 C :   -0.026272
  32 C :   -0.025156
  33 C :   -0.012158
  34 C :   -0.028334
  35 C :   -0.014521
  36 C :   -0.016485
  37 C :    0.008492
  38 C :   -0.031836
  39 C :   -0.048030
  40 C :    0.053300
  41 N :   -0.060935
  42 C :    0.008556
  43 N :   -0.056071
  44 C :    0.055884
  45 C :    0.060108
  46 C :   -0.059715
  47 C :    0.081909
  48 O :   -0.125998
  49 C :   -0.119416
  50 C :   -0.272715
  51 S :    0.472289
  52 C :   -0.155299
  53 C :   -0.054369
  54 C :    0.068332
  55 C :   -0.112819
  56 C :   -0.014739
  57 N :   -0.051660
  58 C :   -0.018256
  59 N :   -0.054937
  60 Cl:    0.190971
  61 H :    0.038608
  62 H :    0.048962
  63 H :    0.026887
  64 H :    0.027690
  65 H :    0.028963
  66 H :    0.026961
  67 H :    0.031164
  68 H :    0.028552
  69 H :    0.024830
  70 H :    0.021437
  71 H :    0.029149
  72 H :    0.022414
  73 H :    0.025192
  74 H :    0.024160
  75 H :    0.026989
  76 H :    0.028528
  77 H :    0.028608
  78 H :    0.029512
  79 H :    0.025743
  80 H :    0.026614
  81 H :    0.052803
  82 H :    0.036983

  Mayer bond orders larger than 0.100000
B(  0-C ,  1-C ) :   1.5383 B(  0-C ,  5-C ) :   1.2211 B(  0-C ,  9-C ) :   1.0067
B(  1-C ,  2-S ) :   1.1668 B(  1-C , 61-H ) :   0.9547 B(  2-S ,  3-C ) :   1.1543
B(  3-C ,  4-Cl) :   1.1321 B(  3-C ,  5-C ) :   1.4744 B(  5-C ,  6-C ) :   0.9502
B(  6-C ,  7-O ) :   2.2467 B(  6-C ,  8-C ) :   0.9223 B(  8-C ,  9-C ) :   1.0426
B(  8-C , 15-C ) :   1.7265 B(  9-C , 10-C ) :   1.6713 B( 10-C , 11-C ) :   1.1442
B( 10-C , 13-C ) :   1.1374 B( 11-C , 12-N ) :   2.9921 B( 13-C , 14-N ) :   2.9801
B( 15-C , 16-C ) :   1.0351 B( 15-C , 62-H ) :   0.9431 B( 16-C , 17-C ) :   1.3006
B( 16-C , 21-C ) :   1.3151 B( 17-C , 18-N ) :   1.5922 B( 17-C , 63-H ) :   0.9840
B( 18-N , 19-C ) :   1.5504 B( 19-C , 20-N ) :   1.5578 B( 19-C , 22-C ) :   0.9613
B( 20-N , 21-C ) :   1.5756 B( 21-C , 64-H ) :   0.9907 B( 22-C , 23-C ) :   1.3254
B( 22-C , 27-C ) :   1.3717 B( 23-C , 24-C ) :   1.3577 B( 23-C , 65-H ) :   1.0055
B( 24-C , 25-C ) :   1.3827 B( 24-C , 30-C ) :   0.9341 B( 25-C , 26-C ) :   1.3321
B( 25-C , 28-C ) :   0.9943 B( 26-C , 27-C ) :   1.3643 B( 26-C , 66-H ) :   0.9952
B( 27-C , 67-H ) :   0.9843 B( 28-C , 29-C ) :   1.3760 B( 28-C , 36-C ) :   1.3425
B( 29-C , 30-C ) :   0.9347 B( 29-C , 33-C ) :   1.4075 B( 30-C , 31-C ) :   1.0332
B( 30-C , 32-C ) :   1.0303 B( 31-C , 68-H ) :   0.9647 B( 31-C , 69-H ) :   0.9634
B( 31-C , 70-H ) :   0.9627 B( 32-C , 71-H ) :   0.9635 B( 32-C , 72-H ) :   0.9632
B( 32-C , 73-H ) :   0.9633 B( 33-C , 34-C ) :   1.3074 B( 33-C , 74-H ) :   0.9974
B( 34-C , 35-C ) :   1.3359 B( 34-C , 37-C ) :   1.0652 B( 35-C , 36-C ) :   1.3788
B( 35-C , 75-H ) :   0.9935 B( 36-C , 76-H ) :   0.9927 B( 37-C , 38-C ) :   1.7142
B( 37-C , 77-H ) :   0.9756 B( 38-C , 39-C ) :   1.0711 B( 38-C , 78-H ) :   0.9742
B( 39-C , 40-C ) :   1.3054 B( 39-C , 44-C ) :   1.3002 B( 40-C , 41-N ) :   1.5825
B( 40-C , 79-H ) :   0.9822 B( 41-N , 42-C ) :   1.5114 B( 42-C , 43-N ) :   1.4634
B( 42-C , 45-C ) :   1.0293 B( 43-N , 44-C ) :   1.5508 B( 44-C , 80-H ) :   0.9875
B( 45-C , 46-C ) :   1.6861 B( 45-C , 81-H ) :   0.9504 B( 46-C , 47-C ) :   0.9263
B( 46-C , 54-C ) :   1.0127 B( 47-C , 48-O ) :   2.2882 B( 47-C , 49-C ) :   0.9243
B( 49-C , 50-C ) :   1.4819 B( 49-C , 53-C ) :   1.2210 B( 50-C , 51-S ) :   1.1545
B( 50-C , 60-Cl) :   1.1275 B( 51-S , 52-C ) :   1.1545 B( 52-C , 53-C ) :   1.5528
B( 52-C , 82-H ) :   0.9561 B( 53-C , 54-C ) :   1.0100 B( 54-C , 55-C ) :   1.7079
B( 55-C , 56-C ) :   1.1394 B( 55-C , 58-C ) :   1.1456 B( 56-C , 57-N ) :   2.9979
B( 58-C , 59-N ) :   2.9810

-----------------------------------------------------------------------------
         ABSORPTION SPECTRUM VIA TRANSITION ELECTRIC DIPOLE MOMENTS
-----------------------------------------------------------------------------
State   Energy  Wavelength   fosc         T2         TX        TY        TZ
        (cm-1)    (nm)                  (au**2)     (au)      (au)      (au)
-----------------------------------------------------------------------------
   0   21720.0    460.4   1.627014382  24.66077  -1.57563   4.60335  -0.99366
   1   23061.6    433.6   0.181120159   2.58555   0.91510   0.06210  -1.32071
   2   26146.0    382.5   0.102258856   1.28757   0.14676  -1.08443   0.30007
   3   27144.8    368.4   0.048773131   0.59152  -0.39931   0.64621   0.12036
   4   27692.8    361.1   0.016111241   0.19153  -0.16322   0.40606   0.00245
   5   28190.2    354.7   0.036460769   0.42580  -0.15913   0.43843   0.45635
   6   29560.1    338.3   0.006356864   0.07080   0.12527   0.18620   0.14294
   7   30063.3    332.6   0.029091827   0.31857  -0.34629  -0.01980  -0.44527
   8   30817.8    324.5   0.246081960   2.62878   0.58933  -1.49670  -0.20337
   9   31278.6    319.7   0.293121392   3.08515  -1.17667   1.30115   0.08724
  10   32471.3    308.0   0.290182284   2.94203  -0.39741   1.39165  -0.92055
  11   32669.0    306.1   0.071268760   0.71819  -0.39718   0.69815   0.27024
  12   33376.5    299.6   0.045611335   0.44989  -0.07556  -0.49776   0.44319
  13   33566.3    297.9   0.669919553   6.57044   0.44570  -2.46016   0.56518
  14   33824.8    295.6   0.109578790   1.06651  -0.25536  -0.30006  -0.95460
  15   35212.3    284.0   0.055877913   0.52242   0.27795   0.65113   0.14559
  16   35600.9    280.9   0.014561214   0.13465  -0.22184   0.04906  -0.28815
  17   36049.5    277.4   0.097228668   0.88791  -0.36548   0.83911   0.22411
  18   36137.5    276.7   0.042929664   0.39109  -0.51918   0.27359   0.21608
  19   36960.4    270.6   0.118249414   1.05327  -0.67396   0.21486  -0.74356
  20   38037.1    262.9   0.228397985   1.97679  -0.07879  -1.39157  -0.18472
  21   38115.9    262.4   0.619577035   5.35136   0.83905   1.04637   1.88480
  22   38241.4    261.5   0.137065542   1.17997   0.61156  -0.50574   0.74174
  23   38340.5    260.8   0.037450760   0.32157  -0.16058   0.51151  -0.18479
  24   38512.7    259.7   0.028834261   0.24648  -0.25774  -0.19099  -0.37891
  25   39027.3    256.2   0.124470131   1.04996  -0.50955  -0.48055   0.74792
  26   39284.0    254.6   0.007471089   0.06261  -0.14679  -0.20205  -0.01536
  27   39395.3    253.8   0.038785890   0.32412   0.09495  -0.25237  -0.50141
  28   39764.9    251.5   0.255373192   2.11422  -0.36706   1.31107   0.51048
  29   40111.9    249.3   0.027748770   0.22774   0.31052  -0.06836  -0.35588
  30   40206.5    248.7   0.070714543   0.57901   0.52841   0.35032   0.42080

FINAL SINGLE POINT ENERGY     -4105.840050496310

DIPOLE MOMENT
-------------
                                X             Y             Z
Electronic contribution:     -3.47643     -13.16313      26.48242
Nuclear contribution   :      3.39708      14.01387     -26.76774
                        -----------------------------------------
Total Dipole Moment    :     -0.07935       0.85075      -0.28532
                        -----------------------------------------
Magnitude (a.u.)       :      0.90082
Magnitude (Debye)      :      2.28970

Rotational constants in cm-1:     0.003167     0.000205     0.000200
Rotational constants in MHz :    94.956464     6.132152     5.985844

                             ****ORCA TERMINATED NORMALLY****
TOTAL RUN TIME: 0 days 0 hours 6 minutes 49 seconds 894 msec
