                         Program Version 4.2.0 -  RELEASE  -
|  1> # ORCA input file
|  2> # SCF done       -192.220839755704          0.000449651605
|  3> ! CAM-B3LYP def2-SVP def2/J RIJCOSX Grid4 TightSCF
|  4> %maxcore 5000
|  5> %tddft
|  6>     Mode sTDDFT
|  7>     Ethresh 5.0
|  8>     maxcore 5000
|  9> end
| 10>
| 11> %pal
| 12>   nprocs 6
| 13>   end
| 14> * xyz 0 1
| 15>    C       -3.64303        -5.11685         4.68610
| 16>    C       -4.90232        -5.04799         5.19646
| 17>    S       -5.34164        -6.52431         5.97461
| 18>    C       -3.79710        -7.25533         5.60465
| 19>   Cl       -3.43111        -8.83822         6.08327
| 20>    C       -3.00827        -6.37937         4.92036
| 21>    C       -1.66601        -6.38305         4.32979
| 22>    O       -0.88226        -7.30211         4.27642
| 23>    C       -1.51516        -5.02335         3.72330
| 24>    C       -2.73085        -4.25798         3.95835
| 25>    C       -2.98523        -2.95509         3.62275
| 26>    C       -4.22081        -2.34748         3.93205
| 27>    N       -5.22166        -1.84143         4.17304
| 28>    C       -2.08754        -2.08098         2.97732
| 29>    N       -1.39875        -1.31459         2.47153
| 30>    C       -0.46926        -4.63959         2.94052
| 31>    C        0.76950        -5.31817         2.77282
| 32>    C        1.53108        -5.27607         1.62469
| 33>    C        2.67470        -6.11482         1.79196
| 34>    C        2.61100        -6.61199         3.17366
| 35>    C        1.47659        -6.13359         3.75068
| 36>    C        3.59936        -7.36686         3.81305
| 37>    N        4.43317        -7.95792         4.33822
| 38>    C        3.62934        -6.43026         0.85218
| 39>    C        4.67896        -7.38080         0.97768
| 40>    C        5.39845        -7.42867        -0.19758
| 41>    C        4.80412        -6.45450        -1.11110
| 42>    C        3.74624        -5.86401        -0.50521
| 43>    C        2.93572        -4.87790        -1.08019
| 44>    N        2.28981        -4.07299        -1.58352
| 45>    C        6.48789        -8.24604        -0.58804
| 46>    S        7.13333        -8.02900        -2.19219
| 47>    C        8.26566        -9.32302        -1.98045
| 48>    C        8.13916        -9.89126        -0.71357
| 49>    C        7.16196        -9.27335         0.07423
| 50>    C        6.83853        -9.76051         1.45895
| 51>    C        5.52468       -10.50734         1.41137
| 52>    O        4.83054       -10.64689         0.44702
| 53>    C        5.07273       -11.16282         2.75390
| 54>    F        5.58748       -10.58547         3.84019
| 55>    F        3.74718       -11.14324         2.86939
| 56>    F        5.46208       -12.45175         2.77812
| 57>    C        7.97873       -10.63710         2.00570
| 58>    C        8.35403       -11.70344         0.98502
| 59>    C        8.97153       -11.04235        -0.24334
| 60>    C        9.15615        -9.71114        -3.01012
| 61>    C        9.21735        -9.11313        -4.22619
| 62>    C       10.07624        -9.50821        -5.28365
| 63>    S       10.05540        -8.63106        -6.78632
| 64>    C       11.25387        -9.66723        -7.49378
| 65>    C       11.64098       -10.65097        -6.57494
| 66>    C       10.97942       -10.55269        -5.34400
| 67>    C       12.57734       -11.67223        -6.81525
| 68>    N       13.31487       -12.53934        -6.96000
| 69>    C       11.69765        -9.41884        -8.81369
| 70>    C       12.66591       -10.12577        -9.45257
| 71>    C       13.11011        -9.82860       -10.76093
| 72>    C       14.22278       -10.34137       -11.35628
| 73>    C       14.37208       -10.27997       -12.84316
| 74>    O       13.72039        -9.60553       -13.60342
| 75>    C       15.42934       -11.25465       -13.13908
| 76>    C       16.01942       -11.78736       -14.24600
| 77>    S       17.24494       -12.94722       -13.78897
| 78>    C       16.95102       -12.69176       -12.10691
| 79>    C       15.96655       -11.77491       -11.91448
| 80>    C       15.31359       -11.11753       -10.79671
| 81>    C       15.79703       -11.09727        -9.51469
| 82>    C       16.90762       -11.88450        -9.14210
| 83>    N       17.80718       -12.52422        -8.83080
| 84>    C       15.35030       -10.23718        -8.49148
| 85>    N       15.06288        -9.51806        -7.64413
| 86>   Cl       15.69278       -11.44488       -15.87229
| 87>    H       -5.60528        -4.23926         5.16793
| 88>    H       -0.58121        -3.74526         2.33834
| 89>    H        1.27432        -4.76017         0.71961
| 90>    H        1.17653        -6.28268         4.76908
| 91>    H        4.82478        -7.96852         1.85884
| 92>    H        5.16093        -6.25725        -2.10530
| 93>    H        6.69926        -8.91848         2.14790
| 94>    H        7.69522       -11.09353         2.95195
| 95>    H        8.84102        -9.99486         2.19558
| 96>    H        9.06705       -12.40321         1.42142
| 97>    H        7.46471       -12.26760         0.69616
| 98>    H        9.07908       -11.77566        -1.04448
| 99>    H        9.97301       -10.67428         0.00407
|100>    H        9.81286       -10.53912        -2.78720
|101>    H        8.56558        -8.27328        -4.42954
|102>    H       11.16345       -11.23333        -4.53245
|103>    H       11.24868        -8.56903        -9.31222
|104>    H       13.11822       -10.96768        -8.95170
|105>    H       12.48985        -9.18945       -11.37974
|106>    H       17.51831       -13.24231       -11.38298
|107> *
|108>
|109>                          ****END OF INPUT****

CARTESIAN COORDINATES (ANGSTROEM)
---------------------------------
  C     -3.643030   -5.116850    4.686100
  C     -4.902320   -5.047990    5.196460
  S     -5.341640   -6.524310    5.974610
  C     -3.797100   -7.255330    5.604650
  Cl    -3.431110   -8.838220    6.083270
  C     -3.008270   -6.379370    4.920360
  C     -1.666010   -6.383050    4.329790
  O     -0.882260   -7.302110    4.276420
  C     -1.515160   -5.023350    3.723300
  C     -2.730850   -4.257980    3.958350
  C     -2.985230   -2.955090    3.622750
  C     -4.220810   -2.347480    3.932050
  N     -5.221660   -1.841430    4.173040
  C     -2.087540   -2.080980    2.977320
  N     -1.398750   -1.314590    2.471530
  C     -0.469260   -4.639590    2.940520
  C      0.769500   -5.318170    2.772820
  C      1.531080   -5.276070    1.624690
  C      2.674700   -6.114820    1.791960
  C      2.611000   -6.611990    3.173660
  C      1.476590   -6.133590    3.750680
  C      3.599360   -7.366860    3.813050
  N      4.433170   -7.957920    4.338220
  C      3.629340   -6.430260    0.852180
  C      4.678960   -7.380800    0.977680
  C      5.398450   -7.428670   -0.197580
  C      4.804120   -6.454500   -1.111100
  C      3.746240   -5.864010   -0.505210
  C      2.935720   -4.877900   -1.080190
  N      2.289810   -4.072990   -1.583520
  C      6.487890   -8.246040   -0.588040
  S      7.133330   -8.029000   -2.192190
  C      8.265660   -9.323020   -1.980450
  C      8.139160   -9.891260   -0.713570
  C      7.161960   -9.273350    0.074230
  C      6.838530   -9.760510    1.458950
  C      5.524680  -10.507340    1.411370
  O      4.830540  -10.646890    0.447020
  C      5.072730  -11.162820    2.753900
  F      5.587480  -10.585470    3.840190
  F      3.747180  -11.143240    2.869390
  F      5.462080  -12.451750    2.778120
  C      7.978730  -10.637100    2.005700
  C      8.354030  -11.703440    0.985020
  C      8.971530  -11.042350   -0.243340
  C      9.156150   -9.711140   -3.010120
  C      9.217350   -9.113130   -4.226190
  C     10.076240   -9.508210   -5.283650
  S     10.055400   -8.631060   -6.786320
  C     11.253870   -9.667230   -7.493780
  C     11.640980  -10.650970   -6.574940
  C     10.979420  -10.552690   -5.344000
  C     12.577340  -11.672230   -6.815250
  N     13.314870  -12.539340   -6.960000
  C     11.697650   -9.418840   -8.813690
  C     12.665910  -10.125770   -9.452570
  C     13.110110   -9.828600  -10.760930
  C     14.222780  -10.341370  -11.356280
  C     14.372080  -10.279970  -12.843160
  O     13.720390   -9.605530  -13.603420
  C     15.429340  -11.254650  -13.139080
  C     16.019420  -11.787360  -14.246000
  S     17.244940  -12.947220  -13.788970
  C     16.951020  -12.691760  -12.106910
  C     15.966550  -11.774910  -11.914480
  C     15.313590  -11.117530  -10.796710
  C     15.797030  -11.097270   -9.514690
  C     16.907620  -11.884500   -9.142100
  N     17.807180  -12.524220   -8.830800
  C     15.350300  -10.237180   -8.491480
  N     15.062880   -9.518060   -7.644130
  Cl    15.692780  -11.444880  -15.872290
  H     -5.605280   -4.239260    5.167930
  H     -0.581210   -3.745260    2.338340
  H      1.274320   -4.760170    0.719610
  H      1.176530   -6.282680    4.769080
  H      4.824780   -7.968520    1.858840
  H      5.160930   -6.257250   -2.105300
  H      6.699260   -8.918480    2.147900
  H      7.695220  -11.093530    2.951950
  H      8.841020   -9.994860    2.195580
  H      9.067050  -12.403210    1.421420
  H      7.464710  -12.267600    0.696160
  H      9.079080  -11.775660   -1.044480
  H      9.973010  -10.674280    0.004070
  H      9.812860  -10.539120   -2.787200
  H      8.565580   -8.273280   -4.429540
  H     11.163450  -11.233330   -4.532450
  H     11.248680   -8.569030   -9.312220
  H     13.118220  -10.967680   -8.951700
  H     12.489850   -9.189450  -11.379740
  H     17.518310  -13.242310  -11.382980

 Total Charge           Charge          ....    0
 Multiplicity           Mult            ....    1
 Number of Electrons    NEL             ....  536
 Basis Dimension        Dim             .... 1132

ORBITAL ENERGIES
----------------

  NO   OCC          E(Eh)            E(eV)
   0   2.0000    -101.621983     -2765.2747
   1   2.0000    -101.616249     -2765.1187
   2   2.0000     -88.998695     -2421.7776
   3   2.0000     -88.991580     -2421.5840
   4   2.0000     -88.991197     -2421.5736
   5   2.0000     -88.980193     -2421.2741
   6   2.0000     -24.813346      -675.2055
   7   2.0000     -24.811723      -675.1613
   8   2.0000     -24.807613      -675.0495
   9   2.0000     -19.254857      -523.9513
  10   2.0000     -19.230477      -523.2879
  11   2.0000     -19.218736      -522.9684
  12   2.0000     -14.425211      -392.5299
  13   2.0000     -14.424727      -392.5168
  14   2.0000     -14.421755      -392.4359
  15   2.0000     -14.418705      -392.3529
  16   2.0000     -14.418192      -392.3390
  17   2.0000     -14.417496      -392.3200
  18   2.0000     -14.411802      -392.1651
  19   2.0000     -10.523540      -286.3601
  20   2.0000     -10.398735      -282.9640
  21   2.0000     -10.386443      -282.6295
  22   2.0000     -10.381669      -282.4996
  23   2.0000     -10.375116      -282.3213
  24   2.0000     -10.374834      -282.3136
  25   2.0000     -10.354287      -281.7545
  26   2.0000     -10.353697      -281.7384
  27   2.0000     -10.349022      -281.6112
  28   2.0000     -10.347799      -281.5779
  29   2.0000     -10.342922      -281.4452
  30   2.0000     -10.337409      -281.2952
  31   2.0000     -10.334700      -281.2215
  32   2.0000     -10.334625      -281.2194
  33   2.0000     -10.334340      -281.2117
  34   2.0000     -10.330645      -281.1112
  35   2.0000     -10.330639      -281.1110
  36   2.0000     -10.328912      -281.0640
  37   2.0000     -10.327804      -281.0338
  38   2.0000     -10.327789      -281.0334
  39   2.0000     -10.327348      -281.0214
  40   2.0000     -10.326786      -281.0061
  41   2.0000     -10.326442      -280.9968
  42   2.0000     -10.323756      -280.9237
  43   2.0000     -10.322211      -280.8816
  44   2.0000     -10.321951      -280.8746
  45   2.0000     -10.321130      -280.8522
  46   2.0000     -10.320258      -280.8285
  47   2.0000     -10.320088      -280.8239
  48   2.0000     -10.320035      -280.8224
  49   2.0000     -10.319836      -280.8170
  50   2.0000     -10.317992      -280.7668
  51   2.0000     -10.315981      -280.7121
  52   2.0000     -10.315815      -280.7076
  53   2.0000     -10.315087      -280.6878
  54   2.0000     -10.314484      -280.6714
  55   2.0000     -10.314014      -280.6586
  56   2.0000     -10.313793      -280.6526
  57   2.0000     -10.312205      -280.6094
  58   2.0000     -10.311832      -280.5992
  59   2.0000     -10.311647      -280.5942
  60   2.0000     -10.311316      -280.5852
  61   2.0000     -10.310111      -280.5524
  62   2.0000     -10.305532      -280.4278
  63   2.0000     -10.305514      -280.4273
  64   2.0000     -10.305447      -280.4255
  65   2.0000     -10.305280      -280.4209
  66   2.0000     -10.303112      -280.3619
  67   2.0000     -10.299110      -280.2530
  68   2.0000     -10.294586      -280.1299
  69   2.0000     -10.293326      -280.0956
  70   2.0000     -10.292309      -280.0680
  71   2.0000     -10.286125      -279.8997
  72   2.0000      -9.576728      -260.5960
  73   2.0000      -9.571046      -260.4414
  74   2.0000      -8.094387      -220.2595
  75   2.0000      -8.087317      -220.0671
  76   2.0000      -8.086992      -220.0582
  77   2.0000      -8.075533      -219.7464
  78   2.0000      -7.347357      -199.9318
  79   2.0000      -7.341673      -199.7771
  80   2.0000      -7.336784      -199.6440
  81   2.0000      -7.336224      -199.6288
  82   2.0000      -7.331091      -199.4891
  83   2.0000      -7.330542      -199.4742
  84   2.0000      -6.063747      -165.0029
  85   2.0000      -6.059152      -164.8779
  86   2.0000      -6.056687      -164.8108
  87   2.0000      -6.056666      -164.8103
  88   2.0000      -6.056076      -164.7942
  89   2.0000      -6.052113      -164.6864
  90   2.0000      -6.052050      -164.6846
  91   2.0000      -6.049549      -164.6166
  92   2.0000      -6.049326      -164.6105
  93   2.0000      -6.044647      -164.4832
  94   2.0000      -6.040759      -164.3774
  95   2.0000      -6.037775      -164.2962
  96   2.0000      -1.401317       -38.1318
  97   2.0000      -1.305239       -35.5173
  98   2.0000      -1.302261       -35.4363
  99   2.0000      -1.172890       -31.9160
 100   2.0000      -1.147843       -31.2344
 101   2.0000      -1.135487       -30.8982
 102   2.0000      -1.043535       -28.3960
 103   2.0000      -1.036743       -28.2112
 104   2.0000      -1.029146       -28.0045
 105   2.0000      -1.027719       -27.9657
 106   2.0000      -1.022291       -27.8179
 107   2.0000      -1.016800       -27.6685
 108   2.0000      -1.015327       -27.6284
 109   2.0000      -1.007171       -27.4065
 110   2.0000      -1.003307       -27.3014
 111   2.0000      -1.001016       -27.2390
 112   2.0000      -0.996166       -27.1071
 113   2.0000      -0.994214       -27.0539
 114   2.0000      -0.992969       -27.0201
 115   2.0000      -0.987670       -26.8759
 116   2.0000      -0.987194       -26.8629
 117   2.0000      -0.959562       -26.1110
 118   2.0000      -0.956005       -26.0142
 119   2.0000      -0.952431       -25.9170
 120   2.0000      -0.939884       -25.5755
 121   2.0000      -0.925396       -25.1813
 122   2.0000      -0.916565       -24.9410
 123   2.0000      -0.906970       -24.6799
 124   2.0000      -0.903292       -24.5798
 125   2.0000      -0.899294       -24.4710
 126   2.0000      -0.883435       -24.0395
 127   2.0000      -0.877809       -23.8864
 128   2.0000      -0.873275       -23.7630
 129   2.0000      -0.863153       -23.4876
 130   2.0000      -0.851422       -23.1684
 131   2.0000      -0.850311       -23.1381
 132   2.0000      -0.841087       -22.8871
 133   2.0000      -0.837816       -22.7981
 134   2.0000      -0.831208       -22.6183
 135   2.0000      -0.824069       -22.4241
 136   2.0000      -0.812452       -22.1080
 137   2.0000      -0.797990       -21.7144
 138   2.0000      -0.783095       -21.3091
 139   2.0000      -0.774203       -21.0671
 140   2.0000      -0.760503       -20.6944
 141   2.0000      -0.758806       -20.6482
 142   2.0000      -0.756075       -20.5739
 143   2.0000      -0.755633       -20.5618
 144   2.0000      -0.731806       -19.9135
 145   2.0000      -0.727979       -19.8093
 146   2.0000      -0.724345       -19.7104
 147   2.0000      -0.714475       -19.4418
 148   2.0000      -0.713748       -19.4221
 149   2.0000      -0.697487       -18.9796
 150   2.0000      -0.692950       -18.8561
 151   2.0000      -0.690417       -18.7872
 152   2.0000      -0.686016       -18.6674
 153   2.0000      -0.683805       -18.6073
 154   2.0000      -0.682274       -18.5656
 155   2.0000      -0.680053       -18.5052
 156   2.0000      -0.677792       -18.4437
 157   2.0000      -0.674531       -18.3549
 158   2.0000      -0.661509       -18.0006
 159   2.0000      -0.653655       -17.7869
 160   2.0000      -0.646204       -17.5841
 161   2.0000      -0.645261       -17.5584
 162   2.0000      -0.640581       -17.4311
 163   2.0000      -0.633438       -17.2367
 164   2.0000      -0.626069       -17.0362
 165   2.0000      -0.620354       -16.8807
 166   2.0000      -0.615340       -16.7443
 167   2.0000      -0.610047       -16.6002
 168   2.0000      -0.608176       -16.5493
 169   2.0000      -0.598536       -16.2870
 170   2.0000      -0.597105       -16.2480
 171   2.0000      -0.580614       -15.7993
 172   2.0000      -0.574945       -15.6450
 173   2.0000      -0.571727       -15.5575
 174   2.0000      -0.564913       -15.3721
 175   2.0000      -0.563606       -15.3365
 176   2.0000      -0.560979       -15.2650
 177   2.0000      -0.558641       -15.2014
 178   2.0000      -0.557784       -15.1781
 179   2.0000      -0.556202       -15.1350
 180   2.0000      -0.552195       -15.0260
 181   2.0000      -0.550659       -14.9842
 182   2.0000      -0.546719       -14.8770
 183   2.0000      -0.545378       -14.8405
 184   2.0000      -0.540964       -14.7204
 185   2.0000      -0.538978       -14.6663
 186   2.0000      -0.535625       -14.5751
 187   2.0000      -0.534906       -14.5555
 188   2.0000      -0.531153       -14.4534
 189   2.0000      -0.530372       -14.4322
 190   2.0000      -0.529234       -14.4012
 191   2.0000      -0.527531       -14.3548
 192   2.0000      -0.523767       -14.2524
 193   2.0000      -0.523292       -14.2395
 194   2.0000      -0.521279       -14.1847
 195   2.0000      -0.519812       -14.1448
 196   2.0000      -0.517509       -14.0821
 197   2.0000      -0.512672       -13.9505
 198   2.0000      -0.511008       -13.9052
 199   2.0000      -0.510257       -13.8848
 200   2.0000      -0.510123       -13.8811
 201   2.0000      -0.508155       -13.8276
 202   2.0000      -0.504974       -13.7410
 203   2.0000      -0.503797       -13.7090
 204   2.0000      -0.502541       -13.6748
 205   2.0000      -0.497210       -13.5298
 206   2.0000      -0.496453       -13.5092
 207   2.0000      -0.494038       -13.4435
 208   2.0000      -0.493255       -13.4222
 209   2.0000      -0.492304       -13.3963
 210   2.0000      -0.489690       -13.3251
 211   2.0000      -0.486663       -13.2428
 212   2.0000      -0.484002       -13.1704
 213   2.0000      -0.482461       -13.1284
 214   2.0000      -0.480446       -13.0736
 215   2.0000      -0.477584       -12.9957
 216   2.0000      -0.475274       -12.9329
 217   2.0000      -0.469002       -12.7622
 218   2.0000      -0.460252       -12.5241
 219   2.0000      -0.460025       -12.5179
 220   2.0000      -0.456830       -12.4310
 221   2.0000      -0.456537       -12.4230
 222   2.0000      -0.455545       -12.3960
 223   2.0000      -0.451930       -12.2976
 224   2.0000      -0.451566       -12.2877
 225   2.0000      -0.449510       -12.2318
 226   2.0000      -0.448470       -12.2035
 227   2.0000      -0.447828       -12.1860
 228   2.0000      -0.447531       -12.1779
 229   2.0000      -0.447205       -12.1691
 230   2.0000      -0.444747       -12.1022
 231   2.0000      -0.442275       -12.0349
 232   2.0000      -0.440799       -11.9947
 233   2.0000      -0.440596       -11.9892
 234   2.0000      -0.437556       -11.9065
 235   2.0000      -0.436157       -11.8684
 236   2.0000      -0.434974       -11.8363
 237   2.0000      -0.429747       -11.6940
 238   2.0000      -0.429464       -11.6863
 239   2.0000      -0.426482       -11.6052
 240   2.0000      -0.424653       -11.5554
 241   2.0000      -0.422847       -11.5062
 242   2.0000      -0.421953       -11.4819
 243   2.0000      -0.419593       -11.4177
 244   2.0000      -0.418114       -11.3775
 245   2.0000      -0.416656       -11.3378
 246   2.0000      -0.413394       -11.2490
 247   2.0000      -0.408545       -11.1171
 248   2.0000      -0.407896       -11.0994
 249   2.0000      -0.403969       -10.9926
 250   2.0000      -0.402412       -10.9502
 251   2.0000      -0.394285       -10.7290
 252   2.0000      -0.377716       -10.2782
 253   2.0000      -0.365352        -9.9417
 254   2.0000      -0.364119        -9.9082
 255   2.0000      -0.355658        -9.6779
 256   2.0000      -0.349974        -9.5233
 257   2.0000      -0.343387        -9.3440
 258   2.0000      -0.342802        -9.3281
 259   2.0000      -0.338440        -9.2094
 260   2.0000      -0.336106        -9.1459
 261   2.0000      -0.330344        -8.9891
 262   2.0000      -0.328083        -8.9276
 263   2.0000      -0.319524        -8.6947
 264   2.0000      -0.312646        -8.5075
 265   2.0000      -0.303547        -8.2599
 266   2.0000      -0.292660        -7.9637
 267   2.0000      -0.257702        -7.0124
 268   0.0000      -0.138248        -3.7619
 269   0.0000      -0.107871        -2.9353
 270   0.0000      -0.087153        -2.3716
 271   0.0000      -0.065269        -1.7761
 272   0.0000      -0.056736        -1.5439

MULLIKEN ATOMIC CHARGES
-----------------------
   0 C :    0.030581
   1 C :   -0.129811
   2 S :    0.191910
   3 C :   -0.169724
   4 Cl:    0.004422
   5 C :    0.076503
   6 C :    0.140176
   7 O :   -0.127759
   8 C :   -0.100003
   9 C :    0.293470
  10 C :   -0.326125
  11 C :   -0.191364
  12 N :    0.159024
  13 C :   -0.193094
  14 N :    0.173007
  15 C :   -0.029521
  16 C :    0.077657
  17 C :   -0.070119
  18 C :    0.085861
  19 C :   -0.120592
  20 C :    0.079533
  21 C :   -0.171850
  22 N :    0.117914
  23 C :    0.136758
  24 C :   -0.159525
  25 C :    0.135004
  26 C :   -0.025195
  27 C :   -0.077954
  28 C :   -0.185325
  29 N :    0.146368
  30 C :   -0.082595
  31 S :    0.105672
  32 C :   -0.065982
  33 C :   -0.086396
  34 C :    0.018560
  35 C :   -0.041833
  36 C :   -0.059241
  37 O :   -0.121626
  38 C :    0.533440
  39 F :   -0.139970
  40 F :   -0.137013
  41 F :   -0.169104
  42 C :    0.042778
  43 C :    0.024351
  44 C :    0.114943
  45 C :   -0.016058
  46 C :    0.067619
  47 C :   -0.067235
  48 S :    0.169737
  49 C :   -0.058246
  50 C :   -0.043177
  51 C :    0.010897
  52 C :   -0.160705
  53 N :    0.113347
  54 C :    0.056835
  55 C :    0.000279
  56 C :    0.025032
  57 C :   -0.118484
  58 C :    0.137810
  59 O :   -0.126065
  60 C :    0.082570
  61 C :   -0.172588
  62 S :    0.183080
  63 C :   -0.127366
  64 C :    0.020600
  65 C :    0.267312
  66 C :   -0.297883
  67 C :   -0.182277
  68 N :    0.152860
  69 C :   -0.201205
  70 N :    0.161467
  71 Cl:   -0.000898
  72 H :    0.056593
  73 H :    0.037272
  74 H :    0.014955
  75 H :    0.003373
  76 H :   -0.016301
  77 H :    0.015304
  78 H :    0.067840
  79 H :    0.036031
  80 H :    0.019516
  81 H :    0.015575
  82 H :    0.018266
  83 H :    0.024921
  84 H :    0.024414
  85 H :   -0.002958
  86 H :   -0.004214
  87 H :   -0.000698
  88 H :   -0.000869
  89 H :    0.033327
  90 H :    0.019517
  91 H :    0.054663
Sum of atomic charges:   -0.0000000

LOEWDIN ATOMIC CHARGES
----------------------
   0 C :   -0.059189
   1 C :   -0.147979
   2 S :    0.479885
   3 C :   -0.270786
   4 Cl:    0.195353
   5 C :   -0.118272
   6 C :    0.081700
   7 O :   -0.121797
   8 C :   -0.081432
   9 C :    0.071644
  10 C :   -0.130020
  11 C :   -0.015006
  12 N :   -0.047118
  13 C :   -0.026061
  14 N :   -0.037416
  15 C :    0.075587
  16 C :   -0.033658
  17 C :    0.024637
  18 C :    0.023547
  19 C :   -0.097255
  20 C :    0.077131
  21 C :   -0.023947
  22 N :   -0.076596
  23 C :    0.051709
  24 C :   -0.046181
  25 C :   -0.012968
  26 C :    0.047181
  27 C :   -0.071449
  28 C :   -0.032198
  29 N :   -0.052143
  30 C :   -0.154577
  31 S :    0.455052
  32 C :   -0.162255
  33 C :   -0.039944
  34 C :   -0.027570
  35 C :   -0.058226
  36 C :    0.044957
  37 O :   -0.074757
  38 C :    0.134752
  39 F :   -0.035221
  40 F :   -0.034550
  41 F :   -0.061171
  42 C :   -0.016459
  43 C :   -0.026930
  44 C :   -0.025878
  45 C :   -0.022754
  46 C :   -0.041268
  47 C :   -0.158527
  48 S :    0.478025
  49 C :   -0.147481
  50 C :   -0.083628
  51 C :   -0.020506
  52 C :   -0.021674
  53 N :   -0.049540
  54 C :   -0.000831
  55 C :   -0.014110
  56 C :    0.063183
  57 C :   -0.079493
  58 C :    0.078632
  59 O :   -0.133921
  60 C :   -0.118392
  61 C :   -0.273068
  62 S :    0.472897
  63 C :   -0.151037
  64 C :   -0.056388
  65 C :    0.067219
  66 C :   -0.126546
  67 C :   -0.012878
  68 N :   -0.046962
  69 C :   -0.019499
  70 N :   -0.048740
  71 Cl:    0.191000
  72 H :    0.038547
  73 H :    0.053107
  74 H :    0.039738
  75 H :    0.037546
  76 H :    0.024762
  77 H :    0.031677
  78 H :    0.058303
  79 H :    0.027896
  80 H :    0.032698
  81 H :    0.032269
  82 H :    0.024788
  83 H :    0.034400
  84 H :    0.037543
  85 H :    0.035225
  86 H :    0.024825
  87 H :    0.039456
  88 H :    0.036796
  89 H :    0.038436
  90 H :    0.045999
  91 H :    0.038145

  Mayer bond orders larger than 0.100000
B(  0-C ,  1-C ) :   1.5471 B(  0-C ,  5-C ) :   1.2210 B(  0-C ,  9-C ) :   0.9992
B(  1-C ,  2-S ) :   1.1635 B(  1-C , 72-H ) :   0.9532 B(  2-S ,  3-C ) :   1.1538
B(  3-C ,  4-Cl) :   1.1322 B(  3-C ,  5-C ) :   1.4723 B(  5-C ,  6-C ) :   0.9537
B(  6-C ,  7-O ) :   2.2285 B(  6-C ,  8-C ) :   0.9336 B(  8-C ,  9-C ) :   1.0520
B(  8-C , 15-C ) :   1.6332 B(  9-C , 10-C ) :   1.6683 B( 10-C , 11-C ) :   1.1448
B( 10-C , 13-C ) :   1.1358 B( 11-C , 12-N ) :   2.9911 B( 13-C , 14-N ) :   2.9840
B( 15-C , 16-C ) :   1.0964 B( 15-C , 73-H ) :   0.9492 B( 16-C , 17-C ) :   1.5109
B( 16-C , 20-C ) :   1.0649 B( 17-C , 18-C ) :   1.1107 B( 17-C , 74-H ) :   1.0063
B( 18-C , 19-C ) :   1.1232 B( 18-C , 23-C ) :   1.3974 B( 19-C , 20-C ) :   1.6527
B( 19-C , 21-C ) :   1.0955 B( 20-C , 75-H ) :   1.0064 B( 21-C , 22-N ) :   2.9554
B( 23-C , 24-C ) :   1.1597 B( 23-C , 27-C ) :   1.0930 B( 24-C , 25-C ) :   1.5220
B( 24-C , 76-H ) :   0.9855 B( 25-C , 26-C ) :   1.0219 B( 25-C , 30-C ) :   1.1403
B( 26-C , 27-C ) :   1.7065 B( 26-C , 77-H ) :   1.0052 B( 27-C , 28-C ) :   1.0797
B( 28-C , 29-N ) :   2.9737 B( 30-C , 31-S ) :   1.1205 B( 30-C , 32-C ) :   0.1038
B( 30-C , 34-C ) :   1.4696 B( 31-S , 32-C ) :   1.1162 B( 32-C , 33-C ) :   1.4411
B( 32-C , 45-C ) :   1.1800 B( 33-C , 34-C ) :   1.3725 B( 33-C , 44-C ) :   1.0484
B( 34-C , 35-C ) :   0.9838 B( 35-C , 36-C ) :   0.8883 B( 35-C , 42-C ) :   1.0561
B( 35-C , 78-H ) :   0.8626 B( 36-C , 37-O ) :   2.2370 B( 36-C , 38-C ) :   0.8752
B( 38-C , 39-F ) :   1.1409 B( 38-C , 40-F ) :   1.1883 B( 38-C , 41-F ) :   1.1256
B( 42-C , 43-C ) :   1.0602 B( 42-C , 79-H ) :   0.9261 B( 42-C , 80-H ) :   0.9410
B( 43-C , 44-C ) :   1.0866 B( 43-C , 81-H ) :   0.9324 B( 43-C , 82-H ) :   0.9456
B( 44-C , 83-H ) :   0.9138 B( 44-C , 84-H ) :   0.9101 B( 45-C , 46-C ) :   1.6576
B( 45-C , 85-H ) :   0.9689 B( 46-C , 47-C ) :   1.1221 B( 46-C , 86-H ) :   0.9590
B( 47-C , 48-S ) :   1.1329 B( 47-C , 51-C ) :   1.4567 B( 48-S , 49-C ) :   1.1294
B( 49-C , 50-C ) :   1.4281 B( 49-C , 54-C ) :   1.1457 B( 50-C , 51-C ) :   1.3289
B( 50-C , 52-C ) :   1.1126 B( 51-C , 87-H ) :   0.9977 B( 52-C , 53-N ) :   2.9464
B( 54-C , 55-C ) :   1.6611 B( 54-C , 88-H ) :   0.9588 B( 55-C , 56-C ) :   1.1359
B( 55-C , 89-H ) :   0.9410 B( 56-C , 57-C ) :   1.6270 B( 56-C , 90-H ) :   0.9625
B( 57-C , 58-C ) :   0.9356 B( 57-C , 65-C ) :   1.0417 B( 58-C , 59-O ) :   2.2850
B( 58-C , 60-C ) :   0.9273 B( 60-C , 61-C ) :   1.4832 B( 60-C , 64-C ) :   1.2213
B( 61-C , 62-S ) :   1.1512 B( 61-C , 71-Cl) :   1.1281 B( 62-S , 63-C ) :   1.1568
B( 63-C , 64-C ) :   1.5556 B( 63-C , 91-H ) :   0.9551 B( 64-C , 65-C ) :   1.0107
B( 65-C , 66-C ) :   1.6589 B( 66-C , 67-C ) :   1.1372 B( 66-C , 69-C ) :   1.1565
B( 67-C , 68-N ) :   2.9967 B( 69-C , 70-N ) :   2.9848

-----------------------------------------------------------------------------
         ABSORPTION SPECTRUM VIA TRANSITION ELECTRIC DIPOLE MOMENTS
-----------------------------------------------------------------------------
State   Energy  Wavelength   fosc         T2         TX        TY        TZ
        (cm-1)    (nm)                  (au**2)     (au)      (au)      (au)
-----------------------------------------------------------------------------
   0   12206.8    819.2   1.313770559  35.43179  -4.30667   1.66510   3.75657
   1   17942.2    557.3   0.002593525   0.04759   0.07282   0.02726   0.20382
   2   18612.9    537.3   0.908145053  16.06263  -2.58324   0.55995   3.01263
   3   20926.3    477.9   0.037379033   0.58805  -0.56679   0.44014   0.27031
   4   23230.0    430.5   0.316249179   4.48184   1.69213  -0.82171  -0.97125
   5   25138.5    397.8   0.067413237   0.88284  -0.82332   0.08890   0.44393
   6   25688.8    389.3   0.073337078   0.93984  -0.53383   0.11662  -0.80079
   7   26080.4    383.4   0.014569482   0.18391   0.01060   0.40682  -0.13527
   8   26799.3    373.1   0.179001887   2.19892  -0.79122   0.35937   1.20156
   9   26961.4    370.9   0.024082529   0.29406  -0.51132   0.04357   0.17524
  10   27419.1    364.7   0.093191049   1.11891  -0.03084  -0.12549   1.04986
  11   28217.9    354.4   0.000431866   0.00504   0.00130  -0.05885   0.03966
  12   28499.7    350.9   0.081115138   0.93700   0.70566  -0.44071  -0.49479
  13   28737.7    348.0   0.486919281   5.57803  -1.78612   0.66698   1.39389
  14   29560.9    338.3   0.040401153   0.44994   0.32798  -0.38752   0.43840
  15   30579.3    327.0   0.082951740   0.89305   0.90317  -0.16466  -0.22408
  16   31081.2    321.7   0.010258736   0.10866  -0.21700   0.24812   0.00272
  17   31425.8    318.2   0.009828643   0.10296   0.20120  -0.23852   0.07478
  18   31645.3    316.0   0.026583329   0.27655  -0.21253  -0.29345  -0.38114
  19   32208.5    310.5   0.251530523   2.57097   0.32642   0.32968  -1.53484
  20   32572.4    307.0   0.035037217   0.35412  -0.41717  -0.42191  -0.04566
  21   32898.7    304.0   0.002238974   0.02241   0.09740   0.06303  -0.09458
  22   33876.1    295.2   0.229483093   2.23014   1.28219   0.27768  -0.71345
  23   34007.4    294.1   0.045905550   0.44439   0.03315   0.63411  -0.20299
  24   34103.5    293.2   0.038375071   0.37045  -0.26639   0.49968  -0.22317
  25   34806.5    287.3   0.041478217   0.39232   0.47734   0.30413  -0.26826
  26   34952.4    286.1   0.089802196   0.84584   0.12166   0.75171  -0.51572
  27   35389.5    282.6   0.056498626   0.52558   0.48446  -0.13008   0.52342
  28   35521.7    281.5   0.032056325   0.29709   0.42366  -0.10935  -0.32504
  29   35787.6    279.4   0.060817729   0.55947   0.06256  -0.12040   0.73556
  30   35995.7    277.8   0.016219175   0.14834  -0.02291  -0.28632   0.25658
  31   36381.1    274.9   0.080758283   0.73078   0.11720  -0.76947   0.35350
  32   36521.7    273.8   0.029746799   0.26814   0.33355   0.04010  -0.39406
  33   36754.3    272.1   0.044029233   0.39437  -0.00898   0.62295   0.07894
  34   36796.2    271.8   0.003861810   0.03455   0.14144   0.05914   0.10511
  35   36960.7    270.6   0.026496713   0.23601  -0.34216   0.34430   0.01975
  36   37096.8    269.6   0.076814900   0.68169  -0.63826   0.50761   0.12903
  37   37201.0    268.8   0.044392295   0.39285   0.17613  -0.21290  -0.56259
  38   37385.6    267.5   0.022317563   0.19652  -0.42014  -0.09012   0.10904
  39   38221.6    261.6   0.501712656   4.32137  -0.43918   0.73097   1.89583
  40   38351.6    260.7   0.144504075   1.24043  -0.06974  -0.87162   0.68981
  41   38801.8    257.7   0.071837296   0.60950   0.16575   0.14842  -0.74833
  42   39013.6    256.3   0.336558314   2.84001  -0.54892  -1.50736   0.51629
  43   39520.8    253.0   0.005239896   0.04365   0.20408  -0.04471  -0.00006
  44   39781.7    251.4   0.135007460   1.11725  -0.51378   0.89624  -0.22368
  45   40306.3    248.1   0.018023389   0.14721   0.04952  -0.00807   0.38038

FINAL SINGLE POINT ENERGY     -5448.668459907971

DIPOLE MOMENT
-------------
                                X             Y             Z
Electronic contribution:    -22.77707      -4.42351      -5.55399
Nuclear contribution   :     22.66738       2.71825       5.62137
                        -----------------------------------------
Total Dipole Moment    :     -0.10970      -1.70526       0.06739
                        -----------------------------------------
Magnitude (a.u.)       :      1.71011
Magnitude (Debye)      :      4.34675

Rotational constants in cm-1:     0.002087     0.000169     0.000161
Rotational constants in MHz :    62.564382     5.072032     4.828108

                             ****ORCA TERMINATED NORMALLY****
TOTAL RUN TIME: 0 days 0 hours 9 minutes 49 seconds 301 msec
