                         Program Version 4.2.0 -  RELEASE  -
|  1> # ORCA input file
|  2> # SCF done       -158.690825657593          0.000841892886
|  3> ! CAM-B3LYP def2-SVP def2/J RIJCOSX Grid4 TightSCF
|  4> %maxcore 5000
|  5> %tddft
|  6>     Mode sTDDFT
|  7>     Ethresh 5.0
|  8>     maxcore 5000
|  9> end
| 10>
| 11> %pal
| 12>   nprocs 6
| 13>   end
| 14> * xyz 0 1
| 15>    C        5.76620         3.16192        -2.45642
| 16>    C        5.83989         4.43402        -2.93440
| 17>    S        7.22647         4.64323        -3.93927
| 18>    C        7.72099         2.98145        -3.71450
| 19>   Cl        9.11691         2.36840        -4.45173
| 20>    C        6.84178         2.32822        -2.90340
| 21>    C        6.69209         0.97516        -2.35559
| 22>    O        7.42509         0.02766        -2.51306
| 23>    C        5.45741         1.04625        -1.50979
| 24>    C        4.88895         2.38662        -1.60444
| 25>    C        3.73033         2.85513        -1.04655
| 26>    C        3.30612         4.18648        -1.24652
| 27>    N        2.94872         5.26627        -1.39528
| 28>    C        2.83903         2.11214        -0.24673
| 29>    N        2.07128         1.56134         0.40543
| 30>    C        5.03128         0.06928        -0.67182
| 31>    C        5.53941        -1.27059        -0.57519
| 32>    C        5.64635        -1.90202         0.67589
| 33>    N        6.08941        -3.12462         0.82359
| 34>    C        6.47061        -3.77787        -0.27727
| 35>    N        6.33921        -3.30173        -1.51746
| 36>    C        5.87513        -2.08771        -1.66933
| 37>    C        6.97354        -5.11565        -0.13868
| 38>    S        7.03977        -6.14080        -1.52139
| 39>    C        7.55264        -7.49687        -0.56157
| 40>    C        7.66315        -7.13932         0.77780
| 41>    C        7.37600        -5.78022         1.00525
| 42>    C        7.61337        -5.10284         2.32376
| 43>    F        8.30321        -3.92019         2.11667
| 44>    C        8.45624        -5.98782         3.23790
| 45>    C        7.87250        -7.38993         3.27122
| 46>    C        7.99973        -8.06967         1.90825
| 47>    F        7.12017        -9.14320         1.90704
| 48>    C        7.83686        -8.70603        -1.27171
| 49>    C        8.15247        -9.91669        -0.77939
| 50>    C        8.44352       -11.05100        -1.63288
| 51>    N        8.59592       -12.22153        -1.00594
| 52>    C        8.81958       -13.28378        -1.75349
| 53>    C        8.94555       -13.21135        -3.13205
| 54>    C        8.83019       -11.93688        -3.70040
| 55>    N        8.55709       -10.87392        -2.94629
| 56>    C        8.97724       -11.67804        -5.12119
| 57>    C        9.53970       -12.52314        -6.00340
| 58>    C        9.74640       -12.24613        -7.39034
| 59>    C        9.03204       -11.48665        -8.25636
| 60>    C        9.68542       -11.09916        -9.55219
| 61>    O       10.70756       -11.55866        -9.99940
| 62>    C        8.83296       -10.03565       -10.08962
| 63>    C        8.84724        -9.18012       -11.15082
| 64>    S        7.43317        -8.15340       -11.12670
| 65>    C        6.83555        -8.89981        -9.69003
| 66>    C        7.67836        -9.87439        -9.25472
| 67>    C        7.72424       -10.85305        -8.18300
| 68>    C        6.64332       -11.20833        -7.42260
| 69>    C        5.41467       -10.52177        -7.53020
| 70>    N        4.41113        -9.97097        -7.60011
| 71>    C        6.59782       -12.29911        -6.53399
| 72>    N        6.49208       -13.19376        -5.82298
| 73>   Cl       10.01367        -9.04866       -12.37147
| 74>    H        5.18266         5.26378        -2.76542
| 75>    H        4.24676         0.30639         0.03753
| 76>    H        5.37637        -1.38191         1.58654
| 77>    H        5.71388        -1.76320        -2.68726
| 78>    H        6.66337        -4.81202         2.79053
| 79>    H        8.48376        -5.55668         4.23871
| 80>    H        9.47695        -6.01170         2.84881
| 81>    H        6.81063        -7.34203         3.52406
| 82>    H        8.37178        -7.99936         4.02490
| 83>    H        8.99985        -8.50397         1.76379
| 84>    H        7.79513        -8.61088        -2.34981
| 85>    H        8.17336       -10.15327         0.26933
| 86>    H        8.90939       -14.22415        -1.22426
| 87>    H        9.10756       -14.09178        -3.72894
| 88>    H        8.65177       -10.69350        -5.42977
| 89>    H        9.96688       -13.45376        -5.65411
| 90>    H       10.65007       -12.67178        -7.81989
| 91>    H        5.91113        -8.56026        -9.26682
| 92> *
| 93>
| 94>                          ****END OF INPUT****

CARTESIAN COORDINATES (ANGSTROEM)
---------------------------------
  C      5.766200    3.161920   -2.456420
  C      5.839890    4.434020   -2.934400
  S      7.226470    4.643230   -3.939270
  C      7.720990    2.981450   -3.714500
  Cl     9.116910    2.368400   -4.451730
  C      6.841780    2.328220   -2.903400
  C      6.692090    0.975160   -2.355590
  O      7.425090    0.027660   -2.513060
  C      5.457410    1.046250   -1.509790
  C      4.888950    2.386620   -1.604440
  C      3.730330    2.855130   -1.046550
  C      3.306120    4.186480   -1.246520
  N      2.948720    5.266270   -1.395280
  C      2.839030    2.112140   -0.246730
  N      2.071280    1.561340    0.405430
  C      5.031280    0.069280   -0.671820
  C      5.539410   -1.270590   -0.575190
  C      5.646350   -1.902020    0.675890
  N      6.089410   -3.124620    0.823590
  C      6.470610   -3.777870   -0.277270
  N      6.339210   -3.301730   -1.517460
  C      5.875130   -2.087710   -1.669330
  C      6.973540   -5.115650   -0.138680
  S      7.039770   -6.140800   -1.521390
  C      7.552640   -7.496870   -0.561570
  C      7.663150   -7.139320    0.777800
  C      7.376000   -5.780220    1.005250
  C      7.613370   -5.102840    2.323760
  F      8.303210   -3.920190    2.116670
  C      8.456240   -5.987820    3.237900
  C      7.872500   -7.389930    3.271220
  C      7.999730   -8.069670    1.908250
  F      7.120170   -9.143200    1.907040
  C      7.836860   -8.706030   -1.271710
  C      8.152470   -9.916690   -0.779390
  C      8.443520  -11.051000   -1.632880
  N      8.595920  -12.221530   -1.005940
  C      8.819580  -13.283780   -1.753490
  C      8.945550  -13.211350   -3.132050
  C      8.830190  -11.936880   -3.700400
  N      8.557090  -10.873920   -2.946290
  C      8.977240  -11.678040   -5.121190
  C      9.539700  -12.523140   -6.003400
  C      9.746400  -12.246130   -7.390340
  C      9.032040  -11.486650   -8.256360
  C      9.685420  -11.099160   -9.552190
  O     10.707560  -11.558660   -9.999400
  C      8.832960  -10.035650  -10.089620
  C      8.847240   -9.180120  -11.150820
  S      7.433170   -8.153400  -11.126700
  C      6.835550   -8.899810   -9.690030
  C      7.678360   -9.874390   -9.254720
  C      7.724240  -10.853050   -8.183000
  C      6.643320  -11.208330   -7.422600
  C      5.414670  -10.521770   -7.530200
  N      4.411130   -9.970970   -7.600110
  C      6.597820  -12.299110   -6.533990
  N      6.492080  -13.193760   -5.822980
  Cl    10.013670   -9.048660  -12.371470
  H      5.182660    5.263780   -2.765420
  H      4.246760    0.306390    0.037530
  H      5.376370   -1.381910    1.586540
  H      5.713880   -1.763200   -2.687260
  H      6.663370   -4.812020    2.790530
  H      8.483760   -5.556680    4.238710
  H      9.476950   -6.011700    2.848810
  H      6.810630   -7.342030    3.524060
  H      8.371780   -7.999360    4.024900
  H      8.999850   -8.503970    1.763790
  H      7.795130   -8.610880   -2.349810
  H      8.173360  -10.153270    0.269330
  H      8.909390  -14.224150   -1.224260
  H      9.107560  -14.091780   -3.728940
  H      8.651770  -10.693500   -5.429770
  H      9.966880  -13.453760   -5.654110
  H     10.650070  -12.671780   -7.819890
  H      5.911130   -8.560260   -9.266820

 Total Charge           Charge          ....    0
 Multiplicity           Mult            ....    1
 Number of Electrons    NEL             ....  442
 Basis Dimension        Dim             ....  936

ORBITAL ENERGIES
----------------

  NO   OCC          E(Eh)            E(eV)
   0   2.0000    -101.621571     -2765.2635
   1   2.0000    -101.620103     -2765.2236
   2   2.0000     -88.998793     -2421.7803
   3   2.0000     -88.996451     -2421.7166
   4   2.0000     -88.960741     -2420.7448
   5   2.0000     -24.746734      -673.3929
   6   2.0000     -24.736757      -673.1214
   7   2.0000     -19.227717      -523.2128
   8   2.0000     -19.223374      -523.0946
   9   2.0000     -14.426405      -392.5624
  10   2.0000     -14.424860      -392.5204
  11   2.0000     -14.424769      -392.5179
  12   2.0000     -14.423929      -392.4951
  13   2.0000     -14.417398      -392.3174
  14   2.0000     -14.416977      -392.3059
  15   2.0000     -14.412567      -392.1859
  16   2.0000     -14.407244      -392.0410
  17   2.0000     -10.384768      -282.5839
  18   2.0000     -10.381189      -282.4865
  19   2.0000     -10.379354      -282.4366
  20   2.0000     -10.379129      -282.4305
  21   2.0000     -10.359040      -281.8838
  22   2.0000     -10.354551      -281.7617
  23   2.0000     -10.354364      -281.7566
  24   2.0000     -10.353759      -281.7401
  25   2.0000     -10.353216      -281.7253
  26   2.0000     -10.350348      -281.6473
  27   2.0000     -10.343168      -281.4519
  28   2.0000     -10.340917      -281.3907
  29   2.0000     -10.334753      -281.2229
  30   2.0000     -10.334059      -281.2040
  31   2.0000     -10.333752      -281.1957
  32   2.0000     -10.333747      -281.1955
  33   2.0000     -10.332277      -281.1556
  34   2.0000     -10.330216      -281.0995
  35   2.0000     -10.328336      -281.0483
  36   2.0000     -10.326746      -281.0050
  37   2.0000     -10.325724      -280.9772
  38   2.0000     -10.325681      -280.9761
  39   2.0000     -10.323862      -280.9266
  40   2.0000     -10.320562      -280.8368
  41   2.0000     -10.317901      -280.7643
  42   2.0000     -10.316521      -280.7268
  43   2.0000     -10.314462      -280.6708
  44   2.0000     -10.310576      -280.5650
  45   2.0000     -10.310046      -280.5506
  46   2.0000     -10.305055      -280.4148
  47   2.0000     -10.304858      -280.4095
  48   2.0000     -10.303342      -280.3682
  49   2.0000     -10.303117      -280.3621
  50   2.0000     -10.303061      -280.3606
  51   2.0000     -10.300595      -280.2934
  52   2.0000     -10.287738      -279.9436
  53   2.0000     -10.287561      -279.9388
  54   2.0000     -10.285121      -279.8724
  55   2.0000     -10.284173      -279.8466
  56   2.0000     -10.274285      -279.5775
  57   2.0000     -10.272050      -279.5167
  58   2.0000     -10.268869      -279.4301
  59   2.0000      -9.576376      -260.5864
  60   2.0000      -9.574875      -260.5456
  61   2.0000      -8.094499      -220.2625
  62   2.0000      -8.092147      -220.1985
  63   2.0000      -8.055926      -219.2129
  64   2.0000      -7.347011      -199.9223
  65   2.0000      -7.345485      -199.8808
  66   2.0000      -7.336411      -199.6339
  67   2.0000      -7.335864      -199.6190
  68   2.0000      -7.334934      -199.5937
  69   2.0000      -7.334386      -199.5788
  70   2.0000      -6.063872      -165.0063
  71   2.0000      -6.061516      -164.9422
  72   2.0000      -6.059250      -164.8806
  73   2.0000      -6.056923      -164.8172
  74   2.0000      -6.056774      -164.8132
  75   2.0000      -6.054415      -164.7490
  76   2.0000      -6.024954      -163.9473
  77   2.0000      -6.020886      -163.8366
  78   2.0000      -6.018465      -163.7707
  79   2.0000      -1.257808       -34.2267
  80   2.0000      -1.248568       -33.9753
  81   2.0000      -1.145140       -31.1608
  82   2.0000      -1.140553       -31.0360
  83   2.0000      -1.094950       -29.7951
  84   2.0000      -1.083446       -29.4821
  85   2.0000      -1.043366       -28.3914
  86   2.0000      -1.041419       -28.3385
  87   2.0000      -1.022850       -27.8332
  88   2.0000      -1.021360       -27.7926
  89   2.0000      -1.004109       -27.3232
  90   2.0000      -1.002824       -27.2882
  91   2.0000      -0.995147       -27.0793
  92   2.0000      -0.993259       -27.0279
  93   2.0000      -0.991630       -26.9836
  94   2.0000      -0.988480       -26.8979
  95   2.0000      -0.983046       -26.7500
  96   2.0000      -0.961066       -26.1519
  97   2.0000      -0.958606       -26.0850
  98   2.0000      -0.933456       -25.4006
  99   2.0000      -0.931187       -25.3389
 100   2.0000      -0.919287       -25.0151
 101   2.0000      -0.912633       -24.8340
 102   2.0000      -0.909769       -24.7561
 103   2.0000      -0.903076       -24.5740
 104   2.0000      -0.883755       -24.0482
 105   2.0000      -0.862510       -23.4701
 106   2.0000      -0.850453       -23.1420
 107   2.0000      -0.838072       -22.8051
 108   2.0000      -0.836164       -22.7532
 109   2.0000      -0.835890       -22.7457
 110   2.0000      -0.831834       -22.6354
 111   2.0000      -0.810777       -22.0624
 112   2.0000      -0.798529       -21.7291
 113   2.0000      -0.784776       -21.3548
 114   2.0000      -0.762998       -20.7622
 115   2.0000      -0.761653       -20.7256
 116   2.0000      -0.758983       -20.6530
 117   2.0000      -0.754787       -20.5388
 118   2.0000      -0.739694       -20.1281
 119   2.0000      -0.734941       -19.9988
 120   2.0000      -0.718392       -19.5484
 121   2.0000      -0.708332       -19.2747
 122   2.0000      -0.699667       -19.0389
 123   2.0000      -0.694279       -18.8923
 124   2.0000      -0.685584       -18.6557
 125   2.0000      -0.682103       -18.5610
 126   2.0000      -0.679629       -18.4937
 127   2.0000      -0.671571       -18.2744
 128   2.0000      -0.667241       -18.1565
 129   2.0000      -0.650068       -17.6893
 130   2.0000      -0.637539       -17.3483
 131   2.0000      -0.633809       -17.2468
 132   2.0000      -0.626936       -17.0598
 133   2.0000      -0.624127       -16.9834
 134   2.0000      -0.622026       -16.9262
 135   2.0000      -0.617020       -16.7900
 136   2.0000      -0.612044       -16.6546
 137   2.0000      -0.608847       -16.5676
 138   2.0000      -0.605568       -16.4783
 139   2.0000      -0.594809       -16.1856
 140   2.0000      -0.585542       -15.9334
 141   2.0000      -0.576672       -15.6920
 142   2.0000      -0.574813       -15.6415
 143   2.0000      -0.571404       -15.5487
 144   2.0000      -0.563551       -15.3350
 145   2.0000      -0.556683       -15.1481
 146   2.0000      -0.552456       -15.0331
 147   2.0000      -0.551019       -14.9940
 148   2.0000      -0.549230       -14.9453
 149   2.0000      -0.545063       -14.8319
 150   2.0000      -0.542292       -14.7565
 151   2.0000      -0.538082       -14.6420
 152   2.0000      -0.536065       -14.5871
 153   2.0000      -0.533976       -14.5302
 154   2.0000      -0.531424       -14.4608
 155   2.0000      -0.529341       -14.4041
 156   2.0000      -0.526836       -14.3359
 157   2.0000      -0.525903       -14.3105
 158   2.0000      -0.524671       -14.2770
 159   2.0000      -0.520368       -14.1599
 160   2.0000      -0.517369       -14.0783
 161   2.0000      -0.511609       -13.9216
 162   2.0000      -0.510045       -13.8790
 163   2.0000      -0.509459       -13.8631
 164   2.0000      -0.504530       -13.7290
 165   2.0000      -0.502760       -13.6808
 166   2.0000      -0.501198       -13.6383
 167   2.0000      -0.498451       -13.5635
 168   2.0000      -0.491310       -13.3692
 169   2.0000      -0.490332       -13.3426
 170   2.0000      -0.487402       -13.2629
 171   2.0000      -0.484608       -13.1868
 172   2.0000      -0.481536       -13.1033
 173   2.0000      -0.472341       -12.8530
 174   2.0000      -0.465802       -12.6751
 175   2.0000      -0.464592       -12.6422
 176   2.0000      -0.460919       -12.5422
 177   2.0000      -0.459208       -12.4957
 178   2.0000      -0.458000       -12.4628
 179   2.0000      -0.457737       -12.4557
 180   2.0000      -0.455994       -12.4082
 181   2.0000      -0.452299       -12.3077
 182   2.0000      -0.449778       -12.2391
 183   2.0000      -0.449472       -12.2307
 184   2.0000      -0.446100       -12.1390
 185   2.0000      -0.444211       -12.0876
 186   2.0000      -0.441941       -12.0258
 187   2.0000      -0.439008       -11.9460
 188   2.0000      -0.437152       -11.8955
 189   2.0000      -0.436661       -11.8822
 190   2.0000      -0.430338       -11.7101
 191   2.0000      -0.427809       -11.6413
 192   2.0000      -0.424898       -11.5620
 193   2.0000      -0.422672       -11.5015
 194   2.0000      -0.416645       -11.3375
 195   2.0000      -0.413790       -11.2598
 196   2.0000      -0.409843       -11.1524
 197   2.0000      -0.408423       -11.1138
 198   2.0000      -0.407530       -11.0894
 199   2.0000      -0.406210       -11.0535
 200   2.0000      -0.403994       -10.9932
 201   2.0000      -0.401241       -10.9183
 202   2.0000      -0.393165       -10.6986
 203   2.0000      -0.389295       -10.5933
 204   2.0000      -0.387911       -10.5556
 205   2.0000      -0.382400       -10.4056
 206   2.0000      -0.379237       -10.3196
 207   2.0000      -0.378193       -10.2912
 208   2.0000      -0.357959        -9.7406
 209   2.0000      -0.348386        -9.4801
 210   2.0000      -0.347719        -9.4619
 211   2.0000      -0.341877        -9.3030
 212   2.0000      -0.337857        -9.1936
 213   2.0000      -0.328819        -8.9476
 214   2.0000      -0.326260        -8.8780
 215   2.0000      -0.325492        -8.8571
 216   2.0000      -0.321536        -8.7494
 217   2.0000      -0.320319        -8.7163
 218   2.0000      -0.310483        -8.4487
 219   2.0000      -0.304387        -8.2828
 220   2.0000      -0.266348        -7.2477
 221   0.0000      -0.101366        -2.7583
 222   0.0000      -0.100047        -2.7224
 223   0.0000      -0.060821        -1.6550
 224   0.0000      -0.055666        -1.5148
 225   0.0000      -0.049449        -1.3456

MULLIKEN ATOMIC CHARGES
-----------------------
   0 C :    0.028258
   1 C :   -0.127166
   2 S :    0.191509
   3 C :   -0.170130
   4 Cl:    0.003409
   5 C :    0.072151
   6 C :    0.144259
   7 O :   -0.123805
   8 C :   -0.091900
   9 C :    0.293583
  10 C :   -0.325558
  11 C :   -0.193592
  12 N :    0.158922
  13 C :   -0.191696
  14 N :    0.164875
  15 C :   -0.025235
  16 C :   -0.022700
  17 C :    0.059532
  18 N :   -0.056383
  19 C :   -0.062127
  20 N :   -0.071837
  21 C :    0.114186
  22 C :   -0.082094
  23 S :    0.200602
  24 C :   -0.101689
  25 C :   -0.078948
  26 C :   -0.080053
  27 C :    0.329839
  28 F :   -0.257328
  29 C :    0.022762
  30 C :    0.021070
  31 C :    0.295747
  32 F :   -0.251555
  33 C :    0.073886
  34 C :    0.021369
  35 C :   -0.075054
  36 N :   -0.059320
  37 C :    0.079857
  38 C :   -0.032742
  39 C :    0.019358
  40 N :   -0.058926
  41 C :    0.065279
  42 C :    0.020799
  43 C :    0.034689
  44 C :   -0.126037
  45 C :    0.127592
  46 O :   -0.125165
  47 C :    0.094486
  48 C :   -0.172128
  49 S :    0.187615
  50 C :   -0.123804
  51 C :    0.008991
  52 C :    0.275072
  53 C :   -0.318967
  54 C :   -0.185197
  55 N :    0.158344
  56 C :   -0.192472
  57 N :    0.180385
  58 Cl:    0.002440
  59 H :    0.055983
  60 H :    0.037174
  61 H :    0.009429
  62 H :    0.010391
  63 H :    0.012436
  64 H :    0.014136
  65 H :    0.018201
  66 H :    0.021535
  67 H :    0.017276
  68 H :    0.010741
  69 H :   -0.000670
  70 H :    0.000810
  71 H :    0.008439
  72 H :    0.002645
  73 H :    0.010834
  74 H :    0.012744
  75 H :    0.036171
  76 H :    0.054468
Sum of atomic charges:    0.0000000

LOEWDIN ATOMIC CHARGES
----------------------
   0 C :   -0.060075
   1 C :   -0.148062
   2 S :    0.480157
   3 C :   -0.271514
   4 Cl:    0.194568
   5 C :   -0.117626
   6 C :    0.080775
   7 O :   -0.121941
   8 C :   -0.083672
   9 C :    0.074320
  10 C :   -0.133013
  11 C :   -0.015262
  12 N :   -0.048011
  13 C :   -0.024388
  14 N :   -0.042040
  15 C :    0.076500
  16 C :   -0.093925
  17 C :    0.069845
  18 N :   -0.071988
  19 C :    0.033102
  20 N :   -0.089643
  21 C :    0.089774
  22 C :   -0.191749
  23 S :    0.503054
  24 C :   -0.149308
  25 C :   -0.077897
  26 C :   -0.047803
  27 C :    0.112716
  28 F :   -0.129889
  29 C :   -0.038026
  30 C :   -0.037151
  31 C :    0.114021
  32 F :   -0.125820
  33 C :   -0.015406
  34 C :   -0.028897
  35 C :    0.030298
  36 N :   -0.083383
  37 C :    0.051790
  38 C :   -0.049868
  39 C :    0.029331
  40 N :   -0.084178
  41 C :    0.030441
  42 C :   -0.022557
  43 C :    0.068614
  44 C :   -0.080328
  45 C :    0.081321
  46 O :   -0.129773
  47 C :   -0.119128
  48 C :   -0.271948
  49 S :    0.477581
  50 C :   -0.150441
  51 C :   -0.057774
  52 C :    0.066110
  53 C :   -0.131003
  54 C :   -0.016222
  55 N :   -0.046108
  56 C :   -0.015185
  57 N :   -0.037732
  58 Cl:    0.193715
  59 H :    0.038412
  60 H :    0.048810
  61 H :    0.029093
  62 H :    0.028376
  63 H :    0.023095
  64 H :    0.031710
  65 H :    0.029108
  66 H :    0.031979
  67 H :    0.032629
  68 H :    0.020880
  69 H :    0.030474
  70 H :    0.030778
  71 H :    0.027801
  72 H :    0.034585
  73 H :    0.037854
  74 H :    0.037265
  75 H :    0.049945
  76 H :    0.037909

  Mayer bond orders larger than 0.100000
B(  0-C ,  1-C ) :   1.5438 B(  0-C ,  5-C ) :   1.2204 B(  0-C ,  9-C ) :   1.0034
B(  1-C ,  2-S ) :   1.1649 B(  1-C , 59-H ) :   0.9530 B(  2-S ,  3-C ) :   1.1529
B(  3-C ,  4-Cl) :   1.1312 B(  3-C ,  5-C ) :   1.4767 B(  5-C ,  6-C ) :   0.9486
B(  6-C ,  7-O ) :   2.2479 B(  6-C ,  8-C ) :   0.9224 B(  8-C ,  9-C ) :   1.0475
B(  8-C , 15-C ) :   1.6991 B(  9-C , 10-C ) :   1.6670 B( 10-C , 11-C ) :   1.1447
B( 10-C , 13-C ) :   1.1366 B( 11-C , 12-N ) :   2.9922 B( 13-C , 14-N ) :   2.9783
B( 15-C , 16-C ) :   1.0569 B( 15-C , 60-H ) :   0.9445 B( 16-C , 17-C ) :   1.2947
B( 16-C , 21-C ) :   1.3016 B( 17-C , 18-N ) :   1.5813 B( 17-C , 61-H ) :   0.9905
B( 18-N , 19-C ) :   1.5157 B( 19-C , 20-N ) :   1.5598 B( 19-C , 22-C ) :   1.0349
B( 20-N , 21-C ) :   1.5902 B( 21-C , 62-H ) :   0.9821 B( 22-C , 23-S ) :   1.1504
B( 22-C , 24-C ) :   0.1109 B( 22-C , 26-C ) :   1.5373 B( 23-S , 24-C ) :   1.1571
B( 24-C , 25-C ) :   1.4916 B( 24-C , 33-C ) :   1.0901 B( 25-C , 26-C ) :   1.3565
B( 25-C , 31-C ) :   0.9867 B( 26-C , 27-C ) :   0.9759 B( 27-C , 28-F ) :   1.0237
B( 27-C , 29-C ) :   1.0635 B( 27-C , 63-H ) :   0.9128 B( 29-C , 30-C ) :   1.0464
B( 29-C , 64-H ) :   0.9266 B( 29-C , 65-H ) :   0.9356 B( 30-C , 31-C ) :   1.0755
B( 30-C , 66-H ) :   0.9312 B( 30-C , 67-H ) :   0.9262 B( 31-C , 32-F ) :   1.0023
B( 31-C , 68-H ) :   0.9179 B( 33-C , 34-C ) :   1.7044 B( 33-C , 69-H ) :   0.9452
B( 34-C , 35-C ) :   1.0305 B( 34-C , 70-H ) :   0.9581 B( 35-C , 36-N ) :   1.5445
B( 35-C , 40-N ) :   1.5200 B( 36-N , 37-C ) :   1.5481 B( 37-C , 38-C ) :   1.3806
B( 37-C , 71-H ) :   0.9789 B( 38-C , 39-C ) :   1.3576 B( 38-C , 72-H ) :   0.9640
B( 39-C , 40-N ) :   1.5122 B( 39-C , 41-C ) :   1.0666 B( 41-C , 42-C ) :   1.7024
B( 41-C , 73-H ) :   0.9701 B( 42-C , 43-C ) :   1.1108 B( 42-C , 74-H ) :   0.9495
B( 43-C , 44-C ) :   1.7335 B( 43-C , 75-H ) :   0.9215 B( 44-C , 45-C ) :   0.9327
B( 44-C , 52-C ) :   1.0226 B( 45-C , 46-O ) :   2.2780 B( 45-C , 47-C ) :   0.9283
B( 47-C , 48-C ) :   1.4794 B( 47-C , 51-C ) :   1.2219 B( 48-C , 49-S ) :   1.1525
B( 48-C , 58-Cl) :   1.1313 B( 49-S , 50-C ) :   1.1606 B( 50-C , 51-C ) :   1.5522
B( 50-C , 76-H ) :   0.9550 B( 51-C , 52-C ) :   1.0093 B( 52-C , 53-C ) :   1.6736
B( 53-C , 54-C ) :   1.1279 B( 53-C , 56-C ) :   1.1659 B( 54-C , 55-N ) :   2.9991
B( 56-C , 57-N ) :   2.9977

-----------------------------------------------------------------------------
         ABSORPTION SPECTRUM VIA TRANSITION ELECTRIC DIPOLE MOMENTS
-----------------------------------------------------------------------------
State   Energy  Wavelength   fosc         T2         TX        TY        TZ
        (cm-1)    (nm)                  (au**2)     (au)      (au)      (au)
-----------------------------------------------------------------------------
   0   21599.7    463.0   1.108350260  16.89290  -1.04060   3.97469  -0.10905
   1   22792.1    438.7   0.037660228   0.54397   0.23209  -0.25655   0.65137
   2   26616.3    375.7   0.311582678   3.85391  -0.92648  -0.12792  -1.72603
   3   27265.7    366.8   0.026892089   0.32470   0.20508  -0.53164   0.00208
   4   27971.5    357.5   0.038912203   0.45798  -0.20906   0.63461  -0.10744
   5   28649.9    349.0   0.022696546   0.26080   0.19394   0.18277  -0.43564
   6   28721.3    348.2   0.032890205   0.37700  -0.11395  -0.19578   0.57069
   7   29681.6    336.9   0.018837499   0.20894  -0.08564  -0.05630   0.44546
   8   29835.4    335.2   0.027392812   0.30226   0.47762  -0.27207  -0.01101
   9   30537.9    327.5   0.183450537   1.97768   0.02441   1.40502   0.05484
  10   31970.7    312.8   0.754002551   7.76420   1.16539  -2.32366  -1.00333
  11   32760.4    305.2   0.016570445   0.16652   0.22959  -0.20605   0.26712
  12   33010.6    302.9   0.006487621   0.06470   0.18684  -0.11301   0.13046
  13   33427.4    299.2   0.112120721   1.10423  -0.23709  -0.63603   0.80217
  14   33919.7    294.8   0.025325632   0.24580  -0.43850  -0.23099   0.01269
  15   34891.9    286.6   0.107779308   1.01692   0.34113   0.56290  -0.76400
  16   35231.3    283.8   0.008044011   0.07517  -0.21642  -0.06208  -0.15645
  17   35343.5    282.9   0.004017961   0.03743  -0.18096   0.04626   0.05040
  18   35543.0    281.3   0.009856504   0.09129   0.15952  -0.24425  -0.07869
  19   36269.4    275.7   0.164838824   1.49622   0.08856   0.91006  -0.81251
  20   36492.1    274.0   0.005840138   0.05269  -0.07735  -0.09754   0.19285
  21   36698.9    272.5   0.587969602   5.27445  -0.63105  -1.08473   1.92343
  22   37097.1    269.6   0.325226284   2.88617   0.59856   0.52600  -1.50040
  23   37760.4    264.8   0.338547890   2.95161  -1.44428  -0.17933   0.91296
  24   38297.2    261.1   0.385037982   3.30988   1.38531   0.36766  -1.12055
  25   38404.9    260.4   0.391848741   3.35898  -0.58578  -1.04424   1.38759
  26   38898.6    257.1   0.006960077   0.05891   0.14585   0.04787   0.18799
  27   39138.1    255.5   0.015007574   0.12624  -0.17669   0.00403   0.30822
  28   39335.1    254.2   0.030444834   0.25481   0.18787  -0.03617   0.46712
  29   39642.7    252.3   0.024550259   0.20388  -0.24456  -0.29002   0.24485
  30   40025.2    249.8   0.009055771   0.07448   0.21721  -0.02380   0.16352
  31   40218.2    248.6   0.001708668   0.01399  -0.07217  -0.07568  -0.05523

FINAL SINGLE POINT ENERGY     -4510.670564592348

DIPOLE MOMENT
-------------
                                X             Y             Z
Electronic contribution:      1.98273      35.26951     -45.07355
Nuclear contribution   :      0.21448     -34.90454      44.15905
                        -----------------------------------------
Total Dipole Moment    :      2.19720       0.36497      -0.91450
                        -----------------------------------------
Magnitude (a.u.)       :      2.40774
Magnitude (Debye)      :      6.11999

Rotational constants in cm-1:     0.001206     0.000470     0.000366
Rotational constants in MHz :    36.155103    14.094791    10.958325

                             ****ORCA TERMINATED NORMALLY****
TOTAL RUN TIME: 0 days 0 hours 5 minutes 25 seconds 910 msec
