                         Program Version 4.2.0 -  RELEASE  -
|  1> # ORCA input file
|  2> # SCF done       -218.537187877844          0.000906810796
|  3> ! CAM-B3LYP def2-SVP def2/J RIJCOSX Grid4 TightSCF
|  4> %maxcore 5000
|  5> %tddft
|  6>     Mode sTDDFT
|  7>     Ethresh 5.0
|  8>     maxcore 5000
|  9> end
| 10>
| 11> %pal
| 12>   nprocs 6
| 13>   end
| 14> * xyz 0 1
| 15>    C       12.56004        -0.09572         0.78284
| 16>    C       13.67109         0.08318         0.01692
| 17>    S       13.42086         1.30945        -1.16945
| 18>    C       11.78684         1.59699        -0.62898
| 19>   Cl       10.79830         2.75364        -1.36671
| 20>    C       11.47793         0.77185         0.41495
| 21>    C       10.32444         0.52506         1.27037
| 22>    O        9.25506         1.09167         1.29219
| 23>    C       10.75894        -0.58926         2.18240
| 24>    C       12.14409        -0.94553         1.87771
| 25>    C       12.90663        -1.90991         2.46905
| 26>    C       14.23883        -2.14621         2.06093
| 27>    N       15.32095        -2.34593         1.73990
| 28>    C       12.47779        -2.76499         3.50664
| 29>    N       12.17550        -3.49801         4.33529
| 30>    C        9.96125        -1.11160         3.12869
| 31>    C        8.56541        -0.72887         3.28162
| 32>    C        8.05399        -0.20473         4.47188
| 33>    C        8.92508         0.03281         5.63885
| 34>    O       10.10991        -0.11627         5.68961
| 35>    S        7.92139         0.60853         6.99839
| 36>    C        6.40633         0.61093         6.01957
| 37>    O        5.35445         0.92434         6.48580
| 38>    C        6.71591         0.16157         4.64330
| 39>    C        5.77580         0.03117         3.60637
| 40>    C        6.29482        -0.51617         2.42284
| 41>    C        7.62233        -0.87962         2.26332
| 42>    C        7.78064        -1.38735         0.87330
| 43>    O        8.74468        -1.82154         0.32538
| 44>    O        6.55952        -1.27715         0.26784
| 45>    C        5.61731        -0.74510         1.12157
| 46>    O        4.49828        -0.51822         0.79189
| 47>    C        4.37316         0.37701         3.68128
| 48>    C        3.89645         1.53697         4.16380
| 49>    C        2.50748         1.85643         4.22391
| 50>    S        2.01679         3.46680         4.67457
| 51>    C        0.31523         3.10779         4.55061
| 52>    C        0.16260         1.78466         4.18497
| 53>    C        1.37994         1.09150         4.00000
| 54>    C        1.04469        -0.29644         3.65293
| 55>    O        1.74334        -1.23587         3.41945
| 56>    O       -0.32902        -0.37750         3.64510
| 57>    C       -0.92609         0.82413         3.95933
| 58>    O       -2.11066         0.95084         4.02588
| 59>    C       -0.63499         4.13267         4.83079
| 60>    C       -1.96284         3.98400         4.67915
| 61>    C       -2.93776         5.01818         4.94150
| 62>    C       -2.98274         5.85554         6.07140
| 63>    C       -2.11342         5.63769         7.25291
| 64>    O       -1.31661         4.76809         7.43528
| 65>    S       -2.46358         6.88982         8.47902
| 66>    C       -3.61419         7.72884         7.40449
| 67>    O       -3.94712         8.85899         7.61608
| 68>    C       -3.92846         6.87734         6.23262
| 69>    C       -5.01818         7.04702         5.34046
| 70>    C       -4.96991         6.18420         4.22488
| 71>    C       -3.97028         5.24593         4.02556
| 72>    C       -4.20948         4.59164         2.71603
| 73>    O       -3.55983         3.78351         2.13397
| 74>    O       -5.36956         5.13036         2.21313
| 75>    C       -5.88518         6.08182         3.05391
| 76>    O       -6.88784         6.67563         2.80399
| 77>    C       -6.20282         7.85025         5.49163
| 78>    C       -6.53288         8.72409         6.46698
| 79>    C       -7.83889         9.28415         6.57013
| 80>    C       -8.37335         9.80577         7.70132
| 81>    C       -9.61162        10.65203         7.62742
| 82>    O      -10.35698        10.74462         6.68519
| 83>    C       -9.64583        11.34860         8.91682
| 84>    C      -10.40164        12.31657         9.50999
| 85>    S       -9.81058        12.65060        11.12071
| 86>    C       -8.55739        11.47452        10.97722
| 87>    C       -8.58955        10.86656         9.76046
| 88>    C       -7.86814         9.81640         9.06670
| 89>    C       -7.02283         8.92572         9.67190
| 90>    C       -6.66896         9.07002        11.03278
| 91>    N       -6.36545         9.18389        12.13233
| 92>    C       -6.47906         7.75902         9.09838
| 93>    N       -6.01796         6.77750         8.71995
| 94>   Cl      -11.73639        13.13751         8.87050
| 95>    H       14.61714        -0.41907         0.06452
| 96>    H       10.33424        -1.84341         3.83363
| 97>    H        3.69449        -0.34931         3.25139
| 98>    H        4.56681         2.31148         4.51052
| 99>    H       -0.21609         5.07359         5.16135
|100>    H       -2.35873         3.06555         4.26393
|101>    H       -6.96226         7.63364         4.75070
|102>    H       -5.81810         9.04113         7.20884
|103>    H       -8.45427         9.33223         5.67805
|104>    H       -7.88116        11.32297        11.79515
|105> *
|106>
|107>                          ****END OF INPUT****

CARTESIAN COORDINATES (ANGSTROEM)
---------------------------------
  C     12.560040   -0.095720    0.782840
  C     13.671090    0.083180    0.016920
  S     13.420860    1.309450   -1.169450
  C     11.786840    1.596990   -0.628980
  Cl    10.798300    2.753640   -1.366710
  C     11.477930    0.771850    0.414950
  C     10.324440    0.525060    1.270370
  O      9.255060    1.091670    1.292190
  C     10.758940   -0.589260    2.182400
  C     12.144090   -0.945530    1.877710
  C     12.906630   -1.909910    2.469050
  C     14.238830   -2.146210    2.060930
  N     15.320950   -2.345930    1.739900
  C     12.477790   -2.764990    3.506640
  N     12.175500   -3.498010    4.335290
  C      9.961250   -1.111600    3.128690
  C      8.565410   -0.728870    3.281620
  C      8.053990   -0.204730    4.471880
  C      8.925080    0.032810    5.638850
  O     10.109910   -0.116270    5.689610
  S      7.921390    0.608530    6.998390
  C      6.406330    0.610930    6.019570
  O      5.354450    0.924340    6.485800
  C      6.715910    0.161570    4.643300
  C      5.775800    0.031170    3.606370
  C      6.294820   -0.516170    2.422840
  C      7.622330   -0.879620    2.263320
  C      7.780640   -1.387350    0.873300
  O      8.744680   -1.821540    0.325380
  O      6.559520   -1.277150    0.267840
  C      5.617310   -0.745100    1.121570
  O      4.498280   -0.518220    0.791890
  C      4.373160    0.377010    3.681280
  C      3.896450    1.536970    4.163800
  C      2.507480    1.856430    4.223910
  S      2.016790    3.466800    4.674570
  C      0.315230    3.107790    4.550610
  C      0.162600    1.784660    4.184970
  C      1.379940    1.091500    4.000000
  C      1.044690   -0.296440    3.652930
  O      1.743340   -1.235870    3.419450
  O     -0.329020   -0.377500    3.645100
  C     -0.926090    0.824130    3.959330
  O     -2.110660    0.950840    4.025880
  C     -0.634990    4.132670    4.830790
  C     -1.962840    3.984000    4.679150
  C     -2.937760    5.018180    4.941500
  C     -2.982740    5.855540    6.071400
  C     -2.113420    5.637690    7.252910
  O     -1.316610    4.768090    7.435280
  S     -2.463580    6.889820    8.479020
  C     -3.614190    7.728840    7.404490
  O     -3.947120    8.858990    7.616080
  C     -3.928460    6.877340    6.232620
  C     -5.018180    7.047020    5.340460
  C     -4.969910    6.184200    4.224880
  C     -3.970280    5.245930    4.025560
  C     -4.209480    4.591640    2.716030
  O     -3.559830    3.783510    2.133970
  O     -5.369560    5.130360    2.213130
  C     -5.885180    6.081820    3.053910
  O     -6.887840    6.675630    2.803990
  C     -6.202820    7.850250    5.491630
  C     -6.532880    8.724090    6.466980
  C     -7.838890    9.284150    6.570130
  C     -8.373350    9.805770    7.701320
  C     -9.611620   10.652030    7.627420
  O    -10.356980   10.744620    6.685190
  C     -9.645830   11.348600    8.916820
  C    -10.401640   12.316570    9.509990
  S     -9.810580   12.650600   11.120710
  C     -8.557390   11.474520   10.977220
  C     -8.589550   10.866560    9.760460
  C     -7.868140    9.816400    9.066700
  C     -7.022830    8.925720    9.671900
  C     -6.668960    9.070020   11.032780
  N     -6.365450    9.183890   12.132330
  C     -6.479060    7.759020    9.098380
  N     -6.017960    6.777500    8.719950
  Cl   -11.736390   13.137510    8.870500
  H     14.617140   -0.419070    0.064520
  H     10.334240   -1.843410    3.833630
  H      3.694490   -0.349310    3.251390
  H      4.566810    2.311480    4.510520
  H     -0.216090    5.073590    5.161350
  H     -2.358730    3.065550    4.263930
  H     -6.962260    7.633640    4.750700
  H     -5.818100    9.041130    7.208840
  H     -8.454270    9.332230    5.678050
  H     -7.881160   11.322970   11.795150

 Total Charge           Charge          ....    0
 Multiplicity           Mult            ....    1
 Number of Electrons    NEL             ....  596
 Basis Dimension        Dim             .... 1198

ORBITAL ENERGIES
----------------

  NO   OCC          E(Eh)            E(eV)
   0   2.0000    -101.628648     -2765.4561
   1   2.0000    -101.623457     -2765.3149
   2   2.0000     -89.005891     -2421.9734
   3   2.0000     -89.001077     -2421.8424
   4   2.0000     -88.999767     -2421.8068
   5   2.0000     -88.967588     -2420.9311
   6   2.0000     -88.963815     -2420.8285
   7   2.0000     -19.304904      -525.3131
   8   2.0000     -19.304317      -525.2972
   9   2.0000     -19.291458      -524.9473
  10   2.0000     -19.261092      -524.1210
  11   2.0000     -19.258827      -524.0593
  12   2.0000     -19.257698      -524.0286
  13   2.0000     -19.254287      -523.9358
  14   2.0000     -19.253554      -523.9158
  15   2.0000     -19.252003      -523.8736
  16   2.0000     -19.251562      -523.8616
  17   2.0000     -19.251268      -523.8536
  18   2.0000     -19.238907      -523.5173
  19   2.0000     -19.238883      -523.5166
  20   2.0000     -19.238682      -523.5112
  21   2.0000     -19.227788      -523.2147
  22   2.0000     -14.433430      -392.7536
  23   2.0000     -14.431535      -392.7020
  24   2.0000     -14.431114      -392.6906
  25   2.0000     -14.429761      -392.6537
  26   2.0000     -10.448624      -284.3215
  27   2.0000     -10.446522      -284.2643
  28   2.0000     -10.444739      -284.2158
  29   2.0000     -10.444246      -284.2024
  30   2.0000     -10.435269      -283.9581
  31   2.0000     -10.435080      -283.9530
  32   2.0000     -10.423384      -283.6347
  33   2.0000     -10.422262      -283.6042
  34   2.0000     -10.421347      -283.5793
  35   2.0000     -10.418641      -283.5056
  36   2.0000     -10.394754      -282.8556
  37   2.0000     -10.388989      -282.6988
  38   2.0000     -10.383800      -282.5576
  39   2.0000     -10.383336      -282.5449
  40   2.0000     -10.362573      -281.9799
  41   2.0000     -10.361454      -281.9495
  42   2.0000     -10.360797      -281.9316
  43   2.0000     -10.360298      -281.9180
  44   2.0000     -10.353298      -281.7275
  45   2.0000     -10.353250      -281.7263
  46   2.0000     -10.353069      -281.7213
  47   2.0000     -10.352295      -281.7003
  48   2.0000     -10.352205      -281.6978
  49   2.0000     -10.349503      -281.6243
  50   2.0000     -10.348654      -281.6012
  51   2.0000     -10.344948      -281.5003
  52   2.0000     -10.344723      -281.4942
  53   2.0000     -10.344535      -281.4891
  54   2.0000     -10.344409      -281.4857
  55   2.0000     -10.342348      -281.4296
  56   2.0000     -10.340531      -281.3802
  57   2.0000     -10.339460      -281.3510
  58   2.0000     -10.338863      -281.3348
  59   2.0000     -10.338584      -281.3272
  60   2.0000     -10.337994      -281.3111
  61   2.0000     -10.337379      -281.2944
  62   2.0000     -10.332618      -281.1648
  63   2.0000     -10.332236      -281.1544
  64   2.0000     -10.331365      -281.1307
  65   2.0000     -10.327203      -281.0175
  66   2.0000     -10.324932      -280.9557
  67   2.0000     -10.324906      -280.9550
  68   2.0000     -10.321645      -280.8662
  69   2.0000     -10.319325      -280.8031
  70   2.0000     -10.318835      -280.7898
  71   2.0000     -10.317548      -280.7547
  72   2.0000     -10.317271      -280.7472
  73   2.0000     -10.315920      -280.7105
  74   2.0000     -10.314043      -280.6594
  75   2.0000     -10.312534      -280.6183
  76   2.0000     -10.308024      -280.4956
  77   2.0000     -10.308007      -280.4951
  78   2.0000     -10.307251      -280.4746
  79   2.0000     -10.307133      -280.4713
  80   2.0000      -9.583431      -260.7784
  81   2.0000      -9.578283      -260.6383
  82   2.0000      -8.101537      -220.4540
  83   2.0000      -8.096690      -220.3221
  84   2.0000      -8.095324      -220.2850
  85   2.0000      -8.066813      -219.5091
  86   2.0000      -8.063241      -219.4119
  87   2.0000      -7.354067      -200.1143
  88   2.0000      -7.348936      -199.9747
  89   2.0000      -7.343481      -199.8263
  90   2.0000      -7.342903      -199.8106
  91   2.0000      -7.338299      -199.6853
  92   2.0000      -7.337760      -199.6706
  93   2.0000      -6.070861      -165.1965
  94   2.0000      -6.066244      -165.0709
  95   2.0000      -6.066056      -165.0658
  96   2.0000      -6.064444      -165.0219
  97   2.0000      -6.063915      -165.0075
  98   2.0000      -6.061439      -164.9401
  99   2.0000      -6.060229      -164.9072
 100   2.0000      -6.059013      -164.8741
 101   2.0000      -6.057764      -164.8401
 102   2.0000      -6.035662      -164.2387
 103   2.0000      -6.032373      -164.1492
 104   2.0000      -6.032064      -164.1408
 105   2.0000      -6.028864      -164.0537
 106   2.0000      -6.027875      -164.0268
 107   2.0000      -6.024225      -163.9275
 108   2.0000      -1.255373       -34.1604
 109   2.0000      -1.253866       -34.1194
 110   2.0000      -1.239462       -33.7275
 111   2.0000      -1.185717       -32.2650
 112   2.0000      -1.183637       -32.2084
 113   2.0000      -1.181715       -32.1561
 114   2.0000      -1.181346       -32.1461
 115   2.0000      -1.180237       -32.1159
 116   2.0000      -1.178138       -32.0588
 117   2.0000      -1.166596       -31.7447
 118   2.0000      -1.156254       -31.4633
 119   2.0000      -1.145186       -31.1621
 120   2.0000      -1.143584       -31.1185
 121   2.0000      -1.142540       -31.0901
 122   2.0000      -1.128645       -30.7120
 123   2.0000      -1.050413       -28.5832
 124   2.0000      -1.046303       -28.4714
 125   2.0000      -1.035390       -28.1744
 126   2.0000      -1.032118       -28.0854
 127   2.0000      -1.029075       -28.0025
 128   2.0000      -1.028591       -27.9894
 129   2.0000      -1.028212       -27.9791
 130   2.0000      -1.010601       -27.4999
 131   2.0000      -1.009643       -27.4738
 132   2.0000      -1.000491       -27.2247
 133   2.0000      -0.997171       -27.1344
 134   2.0000      -0.970601       -26.4114
 135   2.0000      -0.968286       -26.3484
 136   2.0000      -0.967368       -26.3234
 137   2.0000      -0.964500       -26.2454
 138   2.0000      -0.956935       -26.0395
 139   2.0000      -0.952601       -25.9216
 140   2.0000      -0.934378       -25.4257
 141   2.0000      -0.924352       -25.1529
 142   2.0000      -0.917845       -24.9758
 143   2.0000      -0.914067       -24.8730
 144   2.0000      -0.905476       -24.6393
 145   2.0000      -0.900130       -24.4938
 146   2.0000      -0.894981       -24.3537
 147   2.0000      -0.884386       -24.0654
 148   2.0000      -0.873464       -23.7682
 149   2.0000      -0.857451       -23.3324
 150   2.0000      -0.844869       -22.9900
 151   2.0000      -0.841180       -22.8897
 152   2.0000      -0.835233       -22.7278
 153   2.0000      -0.815081       -22.1795
 154   2.0000      -0.812101       -22.0984
 155   2.0000      -0.810621       -22.0581
 156   2.0000      -0.804820       -21.9003
 157   2.0000      -0.789603       -21.4862
 158   2.0000      -0.787068       -21.4172
 159   2.0000      -0.779840       -21.2205
 160   2.0000      -0.776533       -21.1305
 161   2.0000      -0.772976       -21.0338
 162   2.0000      -0.767128       -20.8746
 163   2.0000      -0.762675       -20.7534
 164   2.0000      -0.748276       -20.3616
 165   2.0000      -0.739542       -20.1240
 166   2.0000      -0.737363       -20.0647
 167   2.0000      -0.718058       -19.5394
 168   2.0000      -0.715345       -19.4655
 169   2.0000      -0.708509       -19.2795
 170   2.0000      -0.703738       -19.1497
 171   2.0000      -0.701454       -19.0875
 172   2.0000      -0.689662       -18.7667
 173   2.0000      -0.688408       -18.7325
 174   2.0000      -0.685764       -18.6606
 175   2.0000      -0.672258       -18.2931
 176   2.0000      -0.659750       -17.9527
 177   2.0000      -0.654689       -17.8150
 178   2.0000      -0.651449       -17.7268
 179   2.0000      -0.650157       -17.6917
 180   2.0000      -0.648414       -17.6442
 181   2.0000      -0.645219       -17.5573
 182   2.0000      -0.639675       -17.4064
 183   2.0000      -0.633406       -17.2359
 184   2.0000      -0.630446       -17.1553
 185   2.0000      -0.629701       -17.1350
 186   2.0000      -0.627147       -17.0655
 187   2.0000      -0.625175       -17.0119
 188   2.0000      -0.620787       -16.8925
 189   2.0000      -0.615498       -16.7486
 190   2.0000      -0.614781       -16.7290
 191   2.0000      -0.614111       -16.7108
 192   2.0000      -0.600054       -16.3283
 193   2.0000      -0.598698       -16.2914
 194   2.0000      -0.591078       -16.0841
 195   2.0000      -0.589033       -16.0284
 196   2.0000      -0.584881       -15.9154
 197   2.0000      -0.584155       -15.8957
 198   2.0000      -0.581388       -15.8204
 199   2.0000      -0.579694       -15.7743
 200   2.0000      -0.574263       -15.6265
 201   2.0000      -0.571231       -15.5440
 202   2.0000      -0.567113       -15.4319
 203   2.0000      -0.564837       -15.3700
 204   2.0000      -0.562058       -15.2944
 205   2.0000      -0.559788       -15.2326
 206   2.0000      -0.558048       -15.1853
 207   2.0000      -0.556331       -15.1385
 208   2.0000      -0.554737       -15.0952
 209   2.0000      -0.553989       -15.0748
 210   2.0000      -0.551840       -15.0163
 211   2.0000      -0.551081       -14.9957
 212   2.0000      -0.548829       -14.9344
 213   2.0000      -0.546131       -14.8610
 214   2.0000      -0.545436       -14.8421
 215   2.0000      -0.540653       -14.7119
 216   2.0000      -0.539937       -14.6924
 217   2.0000      -0.537693       -14.6314
 218   2.0000      -0.532803       -14.4983
 219   2.0000      -0.531586       -14.4652
 220   2.0000      -0.529330       -14.4038
 221   2.0000      -0.525503       -14.2997
 222   2.0000      -0.524389       -14.2693
 223   2.0000      -0.522299       -14.2125
 224   2.0000      -0.519475       -14.1356
 225   2.0000      -0.519066       -14.1245
 226   2.0000      -0.516825       -14.0635
 227   2.0000      -0.515905       -14.0385
 228   2.0000      -0.515501       -14.0275
 229   2.0000      -0.512907       -13.9569
 230   2.0000      -0.512014       -13.9326
 231   2.0000      -0.510444       -13.8899
 232   2.0000      -0.510277       -13.8853
 233   2.0000      -0.508456       -13.8358
 234   2.0000      -0.507243       -13.8028
 235   2.0000      -0.505391       -13.7524
 236   2.0000      -0.502996       -13.6872
 237   2.0000      -0.501837       -13.6557
 238   2.0000      -0.497387       -13.5346
 239   2.0000      -0.496642       -13.5143
 240   2.0000      -0.495485       -13.4828
 241   2.0000      -0.495018       -13.4701
 242   2.0000      -0.492374       -13.3982
 243   2.0000      -0.486468       -13.2375
 244   2.0000      -0.481727       -13.1085
 245   2.0000      -0.475186       -12.9305
 246   2.0000      -0.470374       -12.7995
 247   2.0000      -0.466829       -12.7031
 248   2.0000      -0.466787       -12.7019
 249   2.0000      -0.464372       -12.6362
 250   2.0000      -0.462775       -12.5927
 251   2.0000      -0.459183       -12.4950
 252   2.0000      -0.457506       -12.4494
 253   2.0000      -0.456103       -12.4112
 254   2.0000      -0.455083       -12.3834
 255   2.0000      -0.454278       -12.3615
 256   2.0000      -0.450707       -12.2643
 257   2.0000      -0.444464       -12.0945
 258   2.0000      -0.442864       -12.0510
 259   2.0000      -0.442154       -12.0316
 260   2.0000      -0.440779       -11.9942
 261   2.0000      -0.436675       -11.8825
 262   2.0000      -0.428549       -11.6614
 263   2.0000      -0.428364       -11.6564
 264   2.0000      -0.427423       -11.6308
 265   2.0000      -0.425401       -11.5757
 266   2.0000      -0.422454       -11.4956
 267   2.0000      -0.417423       -11.3587
 268   2.0000      -0.414634       -11.2828
 269   2.0000      -0.414476       -11.2785
 270   2.0000      -0.409727       -11.1493
 271   2.0000      -0.409185       -11.1345
 272   2.0000      -0.407359       -11.0848
 273   2.0000      -0.402494       -10.9524
 274   2.0000      -0.393015       -10.6945
 275   2.0000      -0.390782       -10.6337
 276   2.0000      -0.389117       -10.5884
 277   2.0000      -0.388822       -10.5804
 278   2.0000      -0.386729       -10.5234
 279   2.0000      -0.384442       -10.4612
 280   2.0000      -0.383575       -10.4376
 281   2.0000      -0.378638       -10.3033
 282   2.0000      -0.377131       -10.2622
 283   2.0000      -0.372919       -10.1476
 284   2.0000      -0.366876        -9.9832
 285   2.0000      -0.363975        -9.9043
 286   2.0000      -0.362618        -9.8673
 287   2.0000      -0.357345        -9.7238
 288   2.0000      -0.355801        -9.6818
 289   2.0000      -0.351740        -9.5713
 290   2.0000      -0.351550        -9.5662
 291   2.0000      -0.344659        -9.3786
 292   2.0000      -0.342516        -9.3203
 293   2.0000      -0.339002        -9.2247
 294   2.0000      -0.325143        -8.8476
 295   2.0000      -0.319580        -8.6962
 296   2.0000      -0.311571        -8.4783
 297   2.0000      -0.288657        -7.8547
 298   0.0000      -0.119797        -3.2598
 299   0.0000      -0.110308        -3.0016
 300   0.0000      -0.106781        -2.9057
 301   0.0000      -0.105241        -2.8637
 302   0.0000      -0.088620        -2.4115

MULLIKEN ATOMIC CHARGES
-----------------------
   0 C :    0.032957
   1 C :   -0.126022
   2 S :    0.200042
   3 C :   -0.161133
   4 Cl:    0.007588
   5 C :    0.078279
   6 C :    0.153421
   7 O :   -0.146283
   8 C :   -0.050005
   9 C :    0.299128
  10 C :   -0.306486
  11 C :   -0.196601
  12 N :    0.168741
  13 C :   -0.183969
  14 N :    0.167160
  15 C :   -0.062206
  16 C :    0.006036
  17 C :    0.043316
  18 C :    0.046029
  19 O :   -0.123740
  20 S :    0.034195
  21 C :    0.027244
  22 O :   -0.111370
  23 C :    0.033899
  24 C :    0.024148
  25 C :   -0.058240
  26 C :   -0.022511
  27 C :    0.240974
  28 O :   -0.105055
  29 O :   -0.225400
  30 C :    0.239972
  31 O :   -0.088084
  32 C :   -0.055106
  33 C :    0.125083
  34 C :   -0.164341
  35 S :    0.198742
  36 C :   -0.164785
  37 C :   -0.031952
  38 C :   -0.033533
  39 C :    0.262843
  40 O :   -0.117726
  41 O :   -0.236207
  42 C :    0.264057
  43 O :   -0.114918
  44 C :    0.128675
  45 C :   -0.046527
  46 C :    0.015104
  47 C :    0.004922
  48 C :    0.042098
  49 O :   -0.117448
  50 S :    0.058449
  51 C :    0.047547
  52 O :   -0.145919
  53 C :    0.058195
  54 C :    0.093930
  55 C :   -0.085036
  56 C :   -0.069348
  57 C :    0.241413
  58 O :   -0.088945
  59 O :   -0.225282
  60 C :    0.251763
  61 O :   -0.103005
  62 C :   -0.047189
  63 C :    0.020258
  64 C :    0.013574
  65 C :   -0.114418
  66 C :    0.139030
  67 O :   -0.117662
  68 C :    0.081123
  69 C :   -0.168054
  70 S :    0.192009
  71 C :   -0.124413
  72 C :    0.016264
  73 C :    0.283696
  74 C :   -0.316296
  75 C :   -0.194554
  76 N :    0.160845
  77 C :   -0.175098
  78 N :    0.143913
  79 Cl:    0.005551
  80 H :    0.057684
  81 H :    0.056016
  82 H :    0.055868
  83 H :   -0.008701
  84 H :   -0.012351
  85 H :    0.053552
  86 H :    0.024764
  87 H :    0.056496
  88 H :    0.032823
  89 H :    0.056504
Sum of atomic charges:   -0.0000000

LOEWDIN ATOMIC CHARGES
----------------------
   0 C :   -0.054701
   1 C :   -0.146290
   2 S :    0.490433
   3 C :   -0.268155
   4 Cl:    0.200350
   5 C :   -0.116267
   6 C :    0.089714
   7 O :   -0.138992
   8 C :   -0.053245
   9 C :    0.075118
  10 C :   -0.116460
  11 C :   -0.014848
  12 N :   -0.039525
  13 C :   -0.019170
  14 N :   -0.032584
  15 C :    0.070819
  16 C :    0.024868
  17 C :   -0.043281
  18 C :   -0.047482
  19 O :   -0.104370
  20 S :    0.317070
  21 C :   -0.041573
  22 O :   -0.102874
  23 C :   -0.056338
  24 C :    0.037356
  25 C :   -0.038304
  26 C :   -0.021261
  27 C :    0.108460
  28 O :   -0.100133
  29 O :   -0.048639
  30 C :    0.111963
  31 O :   -0.082350
  32 C :   -0.001094
  33 C :   -0.009352
  34 C :   -0.129897
  35 S :    0.496855
  36 C :   -0.128687
  37 C :   -0.098209
  38 C :   -0.097944
  39 C :    0.113439
  40 O :   -0.105362
  41 O :   -0.055901
  42 C :    0.114400
  43 O :   -0.102313
  44 C :   -0.009919
  45 C :    0.001309
  46 C :    0.030205
  47 C :   -0.049981
  48 C :   -0.046903
  49 O :   -0.107623
  50 S :    0.336737
  51 C :   -0.035150
  52 O :   -0.116598
  53 C :   -0.028813
  54 C :    0.025019
  55 C :   -0.038485
  56 C :   -0.043123
  57 C :    0.107684
  58 O :   -0.082734
  59 O :   -0.049795
  60 C :    0.110697
  61 O :   -0.095016
  62 C :    0.002104
  63 C :    0.004067
  64 C :    0.070960
  65 C :   -0.074294
  66 C :    0.079835
  67 O :   -0.123902
  68 C :   -0.118473
  69 C :   -0.271570
  70 S :    0.481602
  71 C :   -0.148712
  72 C :   -0.058215
  73 C :    0.074351
  74 C :   -0.129732
  75 C :   -0.015330
  76 N :   -0.043304
  77 C :   -0.007844
  78 N :   -0.059691
  79 Cl:    0.196692
  80 H :    0.039687
  81 H :    0.053405
  82 H :    0.043053
  83 H :    0.030930
  84 H :    0.029508
  85 H :    0.042194
  86 H :    0.040905
  87 H :    0.029038
  88 H :    0.051298
  89 H :    0.038680

  Mayer bond orders larger than 0.100000
B(  0-C ,  1-C ) :   1.5408 B(  0-C ,  5-C ) :   1.2254 B(  0-C ,  9-C ) :   1.0071
B(  1-C ,  2-S ) :   1.1659 B(  1-C , 80-H ) :   0.9530 B(  2-S ,  3-C ) :   1.1605
B(  3-C ,  4-Cl) :   1.1361 B(  3-C ,  5-C ) :   1.4574 B(  5-C ,  6-C ) :   0.9714
B(  6-C ,  7-O ) :   2.2106 B(  6-C ,  8-C ) :   0.9122 B(  8-C ,  9-C ) :   1.0305
B(  8-C , 15-C ) :   1.7920 B(  9-C , 10-C ) :   1.6984 B( 10-C , 11-C ) :   1.1382
B( 10-C , 13-C ) :   1.1357 B( 11-C , 12-N ) :   2.9961 B( 13-C , 14-N ) :   2.9721
B( 15-C , 16-C ) :   0.9983 B( 15-C , 81-H ) :   0.9127 B( 16-C , 17-C ) :   1.4417
B( 16-C , 26-C ) :   1.3531 B( 17-C , 18-C ) :   0.8451 B( 17-C , 23-C ) :   1.2882
B( 18-C , 19-O ) :   2.1575 B( 18-C , 20-S ) :   1.0397 B( 19-O , 20-S ) :   0.1090
B( 20-S , 21-C ) :   1.0240 B( 20-S , 22-O ) :   0.1066 B( 21-C , 22-O ) :   2.2000
B( 21-C , 23-C ) :   0.8353 B( 23-C , 24-C ) :   1.3877 B( 24-C , 25-C ) :   1.3296
B( 24-C , 32-C ) :   1.0758 B( 25-C , 26-C ) :   1.3817 B( 25-C , 30-C ) :   0.9039
B( 26-C , 27-C ) :   0.8884 B( 27-C , 28-O ) :   2.2528 B( 27-C , 29-O ) :   1.0729
B( 29-O , 30-C ) :   1.0442 B( 30-C , 31-O ) :   2.2551 B( 32-C , 33-C ) :   1.7506
B( 32-C , 82-H ) :   0.9134 B( 33-C , 34-C ) :   1.1406 B( 33-C , 83-H ) :   0.9480
B( 34-C , 35-S ) :   1.1479 B( 34-C , 38-C ) :   1.4881 B( 35-S , 36-C ) :   1.1477
B( 36-C , 37-C ) :   1.4826 B( 36-C , 44-C ) :   1.1495 B( 37-C , 38-C ) :   1.2718
B( 37-C , 42-C ) :   0.9196 B( 38-C , 39-C ) :   0.9183 B( 39-C , 40-O ) :   2.1831
B( 39-C , 41-O ) :   1.0581 B( 41-O , 42-C ) :   1.0522 B( 42-C , 43-O ) :   2.1826
B( 44-C , 45-C ) :   1.7402 B( 44-C , 84-H ) :   0.9466 B( 45-C , 46-C ) :   1.0864
B( 45-C , 85-H ) :   0.9110 B( 46-C , 47-C ) :   1.3626 B( 46-C , 56-C ) :   1.3520
B( 47-C , 48-C ) :   0.8470 B( 47-C , 53-C ) :   1.3542 B( 48-C , 49-O ) :   2.1887
B( 48-C , 50-S ) :   1.0334 B( 49-O , 50-S ) :   0.1077 B( 50-S , 51-C ) :   1.0408
B( 51-C , 52-O ) :   2.1053 B( 51-C , 53-C ) :   0.8327 B( 53-C , 54-C ) :   1.3123
B( 54-C , 55-C ) :   1.3176 B( 54-C , 62-C ) :   1.1204 B( 55-C , 56-C ) :   1.3638
B( 55-C , 60-C ) :   0.9091 B( 56-C , 57-C ) :   0.9033 B( 57-C , 58-O ) :   2.2541
B( 57-C , 59-O ) :   1.0480 B( 59-O , 60-C ) :   1.0680 B( 60-C , 61-O ) :   2.2078
B( 62-C , 63-C ) :   1.6820 B( 62-C , 86-H ) :   0.9636 B( 63-C , 64-C ) :   1.0859
B( 63-C , 87-H ) :   0.9155 B( 64-C , 65-C ) :   1.6692 B( 64-C , 88-H ) :   0.9636
B( 65-C , 66-C ) :   0.9257 B( 65-C , 73-C ) :   1.0275 B( 66-C , 67-O ) :   2.2925
B( 66-C , 68-C ) :   0.9262 B( 68-C , 69-C ) :   1.4825 B( 68-C , 72-C ) :   1.2212
B( 69-C , 70-S ) :   1.1525 B( 69-C , 79-Cl) :   1.1334 B( 70-S , 71-C ) :   1.1646
B( 71-C , 72-C ) :   1.5471 B( 71-C , 89-H ) :   0.9545 B( 72-C , 73-C ) :   1.0160
B( 73-C , 74-C ) :   1.6591 B( 74-C , 75-C ) :   1.1349 B( 74-C , 77-C ) :   1.1634
B( 75-C , 76-N ) :   3.0014 B( 77-C , 78-N ) :   2.9533

-----------------------------------------------------------------------------
         ABSORPTION SPECTRUM VIA TRANSITION ELECTRIC DIPOLE MOMENTS
-----------------------------------------------------------------------------
State   Energy  Wavelength   fosc         T2         TX        TY        TZ
        (cm-1)    (nm)                  (au**2)     (au)      (au)      (au)
-----------------------------------------------------------------------------
   0   21429.6    466.6   0.638332098   9.80637   2.59368  -1.51390  -0.88729
   1   22167.9    451.1   0.770802140  11.44708  -2.52831   1.86026   1.26260
   2   22906.7    436.6   0.161542123   2.32166   0.35043  -0.85295  -1.21298
   3   24984.1    400.3   0.356740240   4.70072   2.02770  -0.71880   0.26922
   4   25858.2    386.7   0.043655191   0.55579  -0.52783  -0.47153   0.23419
   5   27038.6    369.8   0.035317326   0.43001   0.38875  -0.24159   0.46959
   6   27393.3    365.1   0.023915455   0.28742   0.50113  -0.16920  -0.08748
   7   27786.8    359.9   0.082258989   0.97459   0.10055   0.17330   0.96667
   8   28045.0    356.6   0.082098941   0.96373   0.62028  -0.34414  -0.67864
   9   28232.4    354.2   0.011586730   0.13511   0.00817   0.10115   0.35329
  10   28539.3    350.4   0.080656278   0.93040  -0.78796   0.54391   0.11698
  11   29213.0    342.3   0.050945415   0.57412   0.42955  -0.53270  -0.32532
  12   29947.1    333.9   0.246585693   2.71075   1.26550  -1.01210  -0.29139
  13   30508.6    327.8   0.013707840   0.14792  -0.05623  -0.33883  -0.17306
  14   30961.6    323.0   0.040964662   0.43557   0.62157   0.14701  -0.16618
  15   31362.2    318.9   0.012203594   0.12810  -0.16039  -0.29413  -0.12596
  16   31473.1    317.7   0.152497128   1.59513   1.07941  -0.61510  -0.22729
  17   31695.9    315.5   0.080578319   0.83693   0.42039  -0.78660  -0.20364
  18   32017.2    312.3   0.078971688   0.81201   0.68679  -0.07706  -0.57827
  19   32683.8    306.0   0.012649781   0.12742   0.19887  -0.10320   0.27788
  20   33274.5    300.5   0.005751391   0.05690  -0.17672  -0.01044   0.15989
  21   33508.2    298.4   0.040114112   0.39411   0.36772  -0.49674  -0.11022
  22   33708.3    296.7   0.083482987   0.81534   0.84408  -0.22313  -0.23039
  23   33917.5    294.8   0.057976647   0.56274   0.11376   0.51887  -0.52969
  24   34027.4    293.9   0.051755330   0.50073   0.57488  -0.40315   0.08782
  25   34384.4    290.8   0.062294423   0.59644   0.54063  -0.54948  -0.04720
  26   34809.3    287.3   0.165198981   1.56238   1.05728  -0.59260   0.30556
  27   34945.6    286.2   0.035766027   0.33694  -0.40835  -0.08362  -0.40398
  28   35114.2    284.8   0.024355471   0.22834   0.13336   0.38843  -0.24430
  29   35396.5    282.5   0.035386639   0.32912  -0.49742   0.17052   0.22939
  30   35422.0    282.3   0.161190768   1.49810  -0.98182   0.12297   0.72043
  31   35516.5    281.6   0.180876403   1.67659   0.87758  -0.67385  -0.67259
  32   35975.0    278.0   0.015462579   0.14150   0.12349  -0.35077   0.05665
  33   36235.5    276.0   0.018604827   0.16903   0.02121  -0.17375  -0.37201
  34   36276.6    275.7   0.066739671   0.60567  -0.17657  -0.50156   0.56827
  35   36483.6    274.1   0.138606342   1.25072   0.27666  -0.59527   0.90545
  36   36727.7    272.3   0.103520774   0.92792   0.08406  -0.93756   0.20451
  37   37037.5    270.0   0.021358798   0.18985   0.36392   0.06952  -0.22930
  38   37272.6    268.3   0.044755025   0.39530  -0.00627   0.50229  -0.37811
  39   37432.4    267.1   0.183052137   1.60991   0.08503  -1.11670   0.59638
  40   37588.9    266.0   0.303878823   2.66144  -0.05866  -0.60486   1.51398
  41   37965.3    263.4   0.390064531   3.38241   1.21424  -1.33009  -0.37267
  42   38088.9    262.5   0.146796783   1.26880   0.42151  -1.03436   0.14567
  43   38220.3    261.6   0.004780103   0.04117   0.15108  -0.06881  -0.11668
  44   38310.1    261.0   0.036626382   0.31474  -0.53263  -0.00993  -0.17593
  45   38494.9    259.8   0.016836226   0.14398  -0.15712  -0.32078   0.12805
  46   38554.5    259.4   0.089476145   0.76403  -0.12445   0.28690  -0.81623
  47   38635.5    258.8   0.027098829   0.23091  -0.30818   0.35507   0.09929
  48   38891.6    257.1   0.005651389   0.04784   0.02078  -0.20263  -0.07967
  49   39136.5    255.5   0.020537339   0.17276   0.34464  -0.16558  -0.16298
  50   39197.0    255.1   0.007524954   0.06320   0.01665   0.08649   0.23547
  51   39530.2    253.0   0.007610700   0.06338  -0.22125  -0.07529  -0.09360
  52   39643.3    252.2   0.008378609   0.06958  -0.20879  -0.13607  -0.08643
  53   39719.9    251.8   0.080940143   0.67086  -0.80765  -0.06398  -0.12027
  54   39800.8    251.3   0.011900006   0.09843  -0.26578   0.10149  -0.13226
  55   40024.9    249.8   0.006067446   0.04991  -0.10257   0.17820  -0.08735

FINAL SINGLE POINT ENERGY     -6317.424922415249

DIPOLE MOMENT
-------------
                                X             Y             Z
Electronic contribution:      6.96169       8.85644      -5.01026
Nuclear contribution   :     -6.44486      -4.90650       5.21724
                        -----------------------------------------
Total Dipole Moment    :      0.51683       3.94994       0.20698
                        -----------------------------------------
Magnitude (a.u.)       :      3.98898
Magnitude (Debye)      :     10.13918

Rotational constants in cm-1:     0.001837     0.000160     0.000158
Rotational constants in MHz :    55.064203     4.804315     4.727683

                             ****ORCA TERMINATED NORMALLY****
TOTAL RUN TIME: 0 days 0 hours 9 minutes 34 seconds 594 msec
