                         Program Version 4.2.0 -  RELEASE  -
|  1> # ORCA input file
|  2> # SCF done       -175.931755461983          0.000760910529
|  3> ! CAM-B3LYP def2-SVP def2/J RIJCOSX Grid4 TightSCF
|  4> %maxcore 5000
|  5> %tddft
|  6>     Mode sTDDFT
|  7>     Ethresh 5.0
|  8>     maxcore 5000
|  9> end
| 10>
| 11> %pal
| 12>   nprocs 6
| 13>   end
| 14> * xyz 0 1
| 15>    C        0.82070        -4.17345        -4.93854
| 16>    C       -0.02684        -4.38290        -5.98146
| 17>    S        0.35626        -5.84626        -6.81357
| 18>    C        1.68969        -6.18718        -5.73557
| 19>   Cl        2.64300        -7.57453        -5.91900
| 20>    C        1.80387        -5.20582        -4.79666
| 21>    C        2.66991        -4.90432        -3.65647
| 22>    O        3.61455        -5.55132        -3.24946
| 23>    C        2.15029        -3.63778        -3.09618
| 24>    C        1.02502        -3.18271        -3.89890
| 25>    C        0.27333        -2.04633        -3.75552
| 26>    C       -0.79215        -1.75924        -4.63525
| 27>    N       -1.66236        -1.51003        -5.33997
| 28>    C        0.44678        -1.05293        -2.77213
| 29>    N        0.53547        -0.20786        -1.99969
| 30>    C        2.62962        -3.00878        -1.98049
| 31>    C        3.69149        -3.35716        -1.12226
| 32>    S        4.78052        -4.71198        -1.26261
| 33>    C        5.61870        -4.25371         0.18117
| 34>    C        5.06463        -3.08930         0.74689
| 35>    C        3.99486        -2.59699         0.00532
| 36>    C        5.51019        -2.45292         1.91831
| 37>    N        5.84452        -1.90846         2.87203
| 38>    C        6.70092        -5.05122         0.62038
| 39>    C        7.38848        -4.87021         1.78148
| 40>    C        8.46429        -5.70187         2.16900
| 41>    N        9.13079        -5.57155         3.36623
| 42>    C        8.81577        -4.64701         4.42988
| 43>    C        7.60327        -5.10150         5.23790
| 44>    C       10.16037        -6.51991         3.50362
| 45>    O       10.88497        -6.60608         4.47357
| 46>    C       10.10925        -7.26980         2.26772
| 47>    C        9.06411        -6.75327         1.47168
| 48>    C        9.03665        -7.52069         0.24693
| 49>    O        8.32302        -7.46268        -0.73395
| 50>    N       10.07811        -8.46332         0.38995
| 51>    C       10.36884        -9.38023        -0.68497
| 52>    C       11.58425        -8.93762        -1.49640
| 53>    C       10.72739        -8.32019         1.59354
| 54>    C       11.79296        -9.05148         2.17590
| 55>    C       12.50620       -10.10750         1.71484
| 56>    C       13.50127       -10.75078         2.50605
| 57>    S       14.26393       -12.20093         1.93182
| 58>    C       15.18020       -12.36903         3.38922
| 59>    C       16.09741       -13.48819         3.64274
| 60>    O       16.70270       -13.59455         4.67659
| 61>    O       16.24217       -14.38742         2.65807
| 62>    C       14.88692       -11.35065         4.28773
| 63>    C       13.95042       -10.43674         3.76886
| 64>    C       15.47565       -11.21615         5.59835
| 65>    C       14.83449       -10.79136         6.70639
| 66>    C       15.62763       -10.32975         7.89779
| 67>    O       16.80270       -10.50650         8.08997
| 68>    C       14.66003        -9.57106         8.69998
| 69>    C       14.67860        -8.80648         9.82855
| 70>    S       13.08164        -8.18183        10.17067
| 71>    C       12.40583        -8.96914         8.79367
| 72>    C       13.35531        -9.66482         8.11129
| 73>    C       13.41885       -10.53281         6.95351
| 74>    C       12.33402       -11.11863         6.36250
| 75>    C       11.01595       -10.77641         6.73579
| 76>    N        9.93660       -10.50071         7.00821
| 77>    C       12.38121       -12.14232         5.39523
| 78>    N       12.33758       -13.00905         4.64382
| 79>   Cl       15.99797        -8.45128        10.82837
| 80>    H       -0.84921        -3.78566        -6.32204
| 81>    H        2.12310        -2.09967        -1.67779
| 82>    H        3.44478        -1.71143         0.27426
| 83>    H        6.97450        -5.87035        -0.03320
| 84>    H        7.11400        -4.06845         2.44931
| 85>    H        8.65123        -3.64920         4.01440
| 86>    H        9.69832        -4.62036         5.07498
| 87>    H        6.71698        -5.16218         4.61047
| 88>    H        7.41276        -4.39309         6.03877
| 89>    H        7.78999        -6.08042         5.67297
| 90>    H        9.48333        -9.37492        -1.32780
| 91>    H       10.49891       -10.38760        -0.28174
| 92>    H       11.38525        -7.97512        -1.96104
| 93>    H       11.79019        -9.66352        -2.27812
| 94>    H       12.46485        -8.83859        -0.86558
| 95>    H       12.02488        -8.67440         3.16356
| 96>    H       12.33418       -10.53689         0.74070
| 97>    H       15.67572       -14.21943         1.89301
| 98>    H       13.63889        -9.55726         4.30302
| 99>    H       16.53412       -11.42934         5.69192
|100>    H       11.36286        -8.85159         8.57568
|101> *
|102>
|103>                          ****END OF INPUT****

CARTESIAN COORDINATES (ANGSTROEM)
---------------------------------
  C      0.820700   -4.173450   -4.938540
  C     -0.026840   -4.382900   -5.981460
  S      0.356260   -5.846260   -6.813570
  C      1.689690   -6.187180   -5.735570
  Cl     2.643000   -7.574530   -5.919000
  C      1.803870   -5.205820   -4.796660
  C      2.669910   -4.904320   -3.656470
  O      3.614550   -5.551320   -3.249460
  C      2.150290   -3.637780   -3.096180
  C      1.025020   -3.182710   -3.898900
  C      0.273330   -2.046330   -3.755520
  C     -0.792150   -1.759240   -4.635250
  N     -1.662360   -1.510030   -5.339970
  C      0.446780   -1.052930   -2.772130
  N      0.535470   -0.207860   -1.999690
  C      2.629620   -3.008780   -1.980490
  C      3.691490   -3.357160   -1.122260
  S      4.780520   -4.711980   -1.262610
  C      5.618700   -4.253710    0.181170
  C      5.064630   -3.089300    0.746890
  C      3.994860   -2.596990    0.005320
  C      5.510190   -2.452920    1.918310
  N      5.844520   -1.908460    2.872030
  C      6.700920   -5.051220    0.620380
  C      7.388480   -4.870210    1.781480
  C      8.464290   -5.701870    2.169000
  N      9.130790   -5.571550    3.366230
  C      8.815770   -4.647010    4.429880
  C      7.603270   -5.101500    5.237900
  C     10.160370   -6.519910    3.503620
  O     10.884970   -6.606080    4.473570
  C     10.109250   -7.269800    2.267720
  C      9.064110   -6.753270    1.471680
  C      9.036650   -7.520690    0.246930
  O      8.323020   -7.462680   -0.733950
  N     10.078110   -8.463320    0.389950
  C     10.368840   -9.380230   -0.684970
  C     11.584250   -8.937620   -1.496400
  C     10.727390   -8.320190    1.593540
  C     11.792960   -9.051480    2.175900
  C     12.506200  -10.107500    1.714840
  C     13.501270  -10.750780    2.506050
  S     14.263930  -12.200930    1.931820
  C     15.180200  -12.369030    3.389220
  C     16.097410  -13.488190    3.642740
  O     16.702700  -13.594550    4.676590
  O     16.242170  -14.387420    2.658070
  C     14.886920  -11.350650    4.287730
  C     13.950420  -10.436740    3.768860
  C     15.475650  -11.216150    5.598350
  C     14.834490  -10.791360    6.706390
  C     15.627630  -10.329750    7.897790
  O     16.802700  -10.506500    8.089970
  C     14.660030   -9.571060    8.699980
  C     14.678600   -8.806480    9.828550
  S     13.081640   -8.181830   10.170670
  C     12.405830   -8.969140    8.793670
  C     13.355310   -9.664820    8.111290
  C     13.418850  -10.532810    6.953510
  C     12.334020  -11.118630    6.362500
  C     11.015950  -10.776410    6.735790
  N      9.936600  -10.500710    7.008210
  C     12.381210  -12.142320    5.395230
  N     12.337580  -13.009050    4.643820
  Cl    15.997970   -8.451280   10.828370
  H     -0.849210   -3.785660   -6.322040
  H      2.123100   -2.099670   -1.677790
  H      3.444780   -1.711430    0.274260
  H      6.974500   -5.870350   -0.033200
  H      7.114000   -4.068450    2.449310
  H      8.651230   -3.649200    4.014400
  H      9.698320   -4.620360    5.074980
  H      6.716980   -5.162180    4.610470
  H      7.412760   -4.393090    6.038770
  H      7.789990   -6.080420    5.672970
  H      9.483330   -9.374920   -1.327800
  H     10.498910  -10.387600   -0.281740
  H     11.385250   -7.975120   -1.961040
  H     11.790190   -9.663520   -2.278120
  H     12.464850   -8.838590   -0.865580
  H     12.024880   -8.674400    3.163560
  H     12.334180  -10.536890    0.740700
  H     15.675720  -14.219430    1.893010
  H     13.638890   -9.557260    4.303020
  H     16.534120  -11.429340    5.691920
  H     11.362860   -8.851590    8.575680

 Total Charge           Charge          ....    0
 Multiplicity           Mult            ....    1
 Number of Electrons    NEL             ....  492
 Basis Dimension        Dim             .... 1039

ORBITAL ENERGIES
----------------

  NO   OCC          E(Eh)            E(eV)
   0   2.0000    -101.623685     -2765.3211
   1   2.0000    -101.617098     -2765.1418
   2   2.0000     -88.999602     -2421.8023
   3   2.0000     -88.994315     -2421.6584
   4   2.0000     -88.990583     -2421.5569
   5   2.0000     -88.988447     -2421.4988
   6   2.0000     -19.269843      -524.3591
   7   2.0000     -19.235341      -523.4202
   8   2.0000     -19.219905      -523.0002
   9   2.0000     -19.207640      -522.6665
  10   2.0000     -19.204023      -522.5680
  11   2.0000     -19.199973      -522.4578
  12   2.0000     -14.465075      -393.6147
  13   2.0000     -14.462245      -393.5377
  14   2.0000     -14.428871      -392.6295
  15   2.0000     -14.424891      -392.5212
  16   2.0000     -14.424114      -392.5001
  17   2.0000     -14.422841      -392.4655
  18   2.0000     -14.421035      -392.4163
  19   2.0000     -10.417446      -283.4731
  20   2.0000     -10.388949      -282.6977
  21   2.0000     -10.386233      -282.6238
  22   2.0000     -10.383451      -282.5481
  23   2.0000     -10.383183      -282.5408
  24   2.0000     -10.376415      -282.3566
  25   2.0000     -10.376260      -282.3524
  26   2.0000     -10.356232      -281.8074
  27   2.0000     -10.353886      -281.7436
  28   2.0000     -10.352542      -281.7070
  29   2.0000     -10.352253      -281.6991
  30   2.0000     -10.351937      -281.6905
  31   2.0000     -10.349708      -281.6299
  32   2.0000     -10.340663      -281.3837
  33   2.0000     -10.339102      -281.3413
  34   2.0000     -10.336050      -281.2582
  35   2.0000     -10.335796      -281.2513
  36   2.0000     -10.335728      -281.2494
  37   2.0000     -10.331459      -281.1333
  38   2.0000     -10.331084      -281.1231
  39   2.0000     -10.330166      -281.0981
  40   2.0000     -10.327801      -281.0338
  41   2.0000     -10.327119      -281.0152
  42   2.0000     -10.325166      -280.9620
  43   2.0000     -10.324479      -280.9434
  44   2.0000     -10.323787      -280.9245
  45   2.0000     -10.321441      -280.8607
  46   2.0000     -10.321375      -280.8589
  47   2.0000     -10.319078      -280.7964
  48   2.0000     -10.317897      -280.7643
  49   2.0000     -10.317137      -280.7436
  50   2.0000     -10.316764      -280.7334
  51   2.0000     -10.315844      -280.7084
  52   2.0000     -10.314065      -280.6600
  53   2.0000     -10.311870      -280.6003
  54   2.0000     -10.310881      -280.5733
  55   2.0000     -10.308633      -280.5122
  56   2.0000     -10.308386      -280.5054
  57   2.0000     -10.308271      -280.5023
  58   2.0000     -10.306902      -280.4651
  59   2.0000     -10.302080      -280.3339
  60   2.0000     -10.300930      -280.3026
  61   2.0000     -10.274017      -279.5702
  62   2.0000     -10.273728      -279.5624
  63   2.0000     -10.273247      -279.5493
  64   2.0000     -10.264947      -279.3234
  65   2.0000      -9.578447      -260.6428
  66   2.0000      -9.571873      -260.4639
  67   2.0000      -8.095269      -220.2835
  68   2.0000      -8.090022      -220.1407
  69   2.0000      -8.086352      -220.0408
  70   2.0000      -8.081620      -219.9121
  71   2.0000      -7.349094      -199.9790
  72   2.0000      -7.342531      -199.8004
  73   2.0000      -7.338482      -199.6903
  74   2.0000      -7.337934      -199.6753
  75   2.0000      -7.331892      -199.5109
  76   2.0000      -7.331364      -199.4966
  77   2.0000      -6.064666      -165.0279
  78   2.0000      -6.060035      -164.9019
  79   2.0000      -6.059367      -164.8838
  80   2.0000      -6.057514      -164.8333
  81   2.0000      -6.055450      -164.7772
  82   2.0000      -6.054795      -164.7593
  83   2.0000      -6.052310      -164.6917
  84   2.0000      -6.051439      -164.6680
  85   2.0000      -6.050915      -164.6538
  86   2.0000      -6.048727      -164.5942
  87   2.0000      -6.046288      -164.5279
  88   2.0000      -6.044145      -164.4695
  89   2.0000      -1.193427       -32.4748
  90   2.0000      -1.152600       -31.3638
  91   2.0000      -1.144482       -31.1429
  92   2.0000      -1.137734       -30.9593
  93   2.0000      -1.136711       -30.9315
  94   2.0000      -1.107321       -30.1317
  95   2.0000      -1.074036       -29.2260
  96   2.0000      -1.065219       -28.9861
  97   2.0000      -1.045201       -28.4414
  98   2.0000      -1.039300       -28.2808
  99   2.0000      -1.027373       -27.9563
 100   2.0000      -1.024073       -27.8664
 101   2.0000      -1.022721       -27.8297
 102   2.0000      -1.013958       -27.5912
 103   2.0000      -1.005557       -27.3626
 104   2.0000      -1.002847       -27.2889
 105   2.0000      -0.999401       -27.1951
 106   2.0000      -0.995092       -27.0778
 107   2.0000      -0.989208       -26.9177
 108   2.0000      -0.962034       -26.1783
 109   2.0000      -0.956018       -26.0146
 110   2.0000      -0.940543       -25.5935
 111   2.0000      -0.934398       -25.4263
 112   2.0000      -0.929426       -25.2910
 113   2.0000      -0.915832       -24.9211
 114   2.0000      -0.911501       -24.8032
 115   2.0000      -0.903716       -24.5914
 116   2.0000      -0.899149       -24.4671
 117   2.0000      -0.883504       -24.0414
 118   2.0000      -0.878110       -23.8946
 119   2.0000      -0.861172       -23.4337
 120   2.0000      -0.853835       -23.2340
 121   2.0000      -0.847218       -23.0540
 122   2.0000      -0.839567       -22.8458
 123   2.0000      -0.833434       -22.6789
 124   2.0000      -0.828537       -22.5456
 125   2.0000      -0.815960       -22.2034
 126   2.0000      -0.803068       -21.8526
 127   2.0000      -0.784036       -21.3347
 128   2.0000      -0.778080       -21.1726
 129   2.0000      -0.768441       -20.9103
 130   2.0000      -0.763519       -20.7764
 131   2.0000      -0.755469       -20.5573
 132   2.0000      -0.739624       -20.1262
 133   2.0000      -0.729342       -19.8464
 134   2.0000      -0.723708       -19.6931
 135   2.0000      -0.716794       -19.5050
 136   2.0000      -0.712235       -19.3809
 137   2.0000      -0.705083       -19.1863
 138   2.0000      -0.697624       -18.9833
 139   2.0000      -0.695007       -18.9121
 140   2.0000      -0.687242       -18.7008
 141   2.0000      -0.684887       -18.6367
 142   2.0000      -0.681604       -18.5474
 143   2.0000      -0.677462       -18.4347
 144   2.0000      -0.661719       -18.0063
 145   2.0000      -0.661245       -17.9934
 146   2.0000      -0.655211       -17.8292
 147   2.0000      -0.651535       -17.7292
 148   2.0000      -0.626562       -17.0496
 149   2.0000      -0.625704       -17.0263
 150   2.0000      -0.620014       -16.8714
 151   2.0000      -0.616980       -16.7889
 152   2.0000      -0.613897       -16.7050
 153   2.0000      -0.609917       -16.5967
 154   2.0000      -0.597418       -16.2566
 155   2.0000      -0.594386       -16.1741
 156   2.0000      -0.586948       -15.9717
 157   2.0000      -0.579833       -15.7781
 158   2.0000      -0.577034       -15.7019
 159   2.0000      -0.575177       -15.6514
 160   2.0000      -0.569403       -15.4942
 161   2.0000      -0.560120       -15.2416
 162   2.0000      -0.558706       -15.2032
 163   2.0000      -0.556611       -15.1461
 164   2.0000      -0.550502       -14.9799
 165   2.0000      -0.549110       -14.9420
 166   2.0000      -0.547309       -14.8930
 167   2.0000      -0.542488       -14.7618
 168   2.0000      -0.540726       -14.7139
 169   2.0000      -0.539687       -14.6856
 170   2.0000      -0.536954       -14.6113
 171   2.0000      -0.536045       -14.5865
 172   2.0000      -0.531639       -14.4666
 173   2.0000      -0.531462       -14.4618
 174   2.0000      -0.526823       -14.3356
 175   2.0000      -0.525351       -14.2955
 176   2.0000      -0.524369       -14.2688
 177   2.0000      -0.522517       -14.2184
 178   2.0000      -0.521255       -14.1841
 179   2.0000      -0.518885       -14.1196
 180   2.0000      -0.515174       -14.0186
 181   2.0000      -0.513535       -13.9740
 182   2.0000      -0.512691       -13.9510
 183   2.0000      -0.506783       -13.7903
 184   2.0000      -0.502994       -13.6872
 185   2.0000      -0.498375       -13.5615
 186   2.0000      -0.498166       -13.5558
 187   2.0000      -0.494749       -13.4628
 188   2.0000      -0.493991       -13.4422
 189   2.0000      -0.490250       -13.3404
 190   2.0000      -0.485190       -13.2027
 191   2.0000      -0.484475       -13.1832
 192   2.0000      -0.478386       -13.0175
 193   2.0000      -0.474386       -12.9087
 194   2.0000      -0.472546       -12.8586
 195   2.0000      -0.468685       -12.7536
 196   2.0000      -0.465082       -12.6555
 197   2.0000      -0.464002       -12.6261
 198   2.0000      -0.461648       -12.5621
 199   2.0000      -0.459779       -12.5112
 200   2.0000      -0.457518       -12.4497
 201   2.0000      -0.456542       -12.4231
 202   2.0000      -0.456375       -12.4186
 203   2.0000      -0.455864       -12.4047
 204   2.0000      -0.454761       -12.3747
 205   2.0000      -0.452818       -12.3218
 206   2.0000      -0.451945       -12.2980
 207   2.0000      -0.451067       -12.2742
 208   2.0000      -0.449649       -12.2356
 209   2.0000      -0.448517       -12.2048
 210   2.0000      -0.447716       -12.1830
 211   2.0000      -0.447002       -12.1635
 212   2.0000      -0.443419       -12.0661
 213   2.0000      -0.438284       -11.9263
 214   2.0000      -0.436978       -11.8908
 215   2.0000      -0.433363       -11.7924
 216   2.0000      -0.431804       -11.7500
 217   2.0000      -0.431530       -11.7425
 218   2.0000      -0.430241       -11.7075
 219   2.0000      -0.423261       -11.5175
 220   2.0000      -0.422463       -11.4958
 221   2.0000      -0.421605       -11.4725
 222   2.0000      -0.416543       -11.3347
 223   2.0000      -0.410987       -11.1835
 224   2.0000      -0.408648       -11.1199
 225   2.0000      -0.404358       -11.0031
 226   2.0000      -0.402773       -10.9600
 227   2.0000      -0.401599       -10.9281
 228   2.0000      -0.388868       -10.5816
 229   2.0000      -0.375691       -10.2231
 230   2.0000      -0.362578        -9.8663
 231   2.0000      -0.359724        -9.7886
 232   2.0000      -0.358795        -9.7633
 233   2.0000      -0.351460        -9.5637
 234   2.0000      -0.348943        -9.4952
 235   2.0000      -0.344187        -9.3658
 236   2.0000      -0.342522        -9.3205
 237   2.0000      -0.341881        -9.3031
 238   2.0000      -0.337891        -9.1945
 239   2.0000      -0.328977        -8.9519
 240   2.0000      -0.326408        -8.8820
 241   2.0000      -0.322129        -8.7656
 242   2.0000      -0.315331        -8.5806
 243   2.0000      -0.306329        -8.3356
 244   2.0000      -0.298317        -8.1176
 245   2.0000      -0.246547        -6.7089
 246   0.0000      -0.120212        -3.2711
 247   0.0000      -0.094784        -2.5792
 248   0.0000      -0.089211        -2.4275
 249   0.0000      -0.061860        -1.6833
 250   0.0000      -0.055910        -1.5214

MULLIKEN ATOMIC CHARGES
-----------------------
   0 C :    0.027756
   1 C :   -0.129032
   2 S :    0.189565
   3 C :   -0.170726
   4 Cl:    0.003730
   5 C :    0.079572
   6 C :    0.170152
   7 O :   -0.161915
   8 C :   -0.105297
   9 C :    0.308374
  10 C :   -0.335014
  11 C :   -0.194742
  12 N :    0.156700
  13 C :   -0.183999
  14 N :    0.157012
  15 C :   -0.016516
  16 C :   -0.052138
  17 S :    0.243297
  18 C :   -0.054199
  19 C :   -0.053341
  20 C :    0.010699
  21 C :   -0.156849
  22 N :    0.123454
  23 C :    0.052815
  24 C :   -0.030921
  25 C :    0.142443
  26 N :   -0.261184
  27 C :    0.093071
  28 C :    0.004206
  29 C :    0.156430
  30 O :   -0.196903
  31 C :   -0.045031
  32 C :   -0.052054
  33 C :    0.159564
  34 O :   -0.202151
  35 N :   -0.263916
  36 C :    0.100463
  37 C :   -0.003514
  38 C :    0.118183
  39 C :   -0.031645
  40 C :    0.085787
  41 C :   -0.068894
  42 S :    0.135280
  43 C :   -0.172048
  44 C :    0.191341
  45 O :   -0.173212
  46 O :   -0.152586
  47 C :    0.036906
  48 C :   -0.018224
  49 C :    0.057491
  50 C :   -0.130934
  51 C :    0.134598
  52 O :   -0.112705
  53 C :    0.086831
  54 C :   -0.170852
  55 S :    0.188680
  56 C :   -0.119762
  57 C :    0.011846
  58 C :    0.270538
  59 C :   -0.350412
  60 C :   -0.192179
  61 N :    0.164548
  62 C :   -0.167532
  63 N :    0.174819
  64 Cl:    0.001848
  65 H :    0.055405
  66 H :    0.013811
  67 H :    0.018866
  68 H :    0.009796
  69 H :   -0.009926
  70 H :    0.039827
  71 H :    0.041122
  72 H :    0.016794
  73 H :    0.030929
  74 H :    0.029950
  75 H :    0.047387
  76 H :    0.027224
  77 H :    0.030352
  78 H :    0.024980
  79 H :    0.020377
  80 H :    0.003870
  81 H :   -0.021627
  82 H :    0.181322
  83 H :    0.022487
  84 H :    0.052649
  85 H :    0.056838
Sum of atomic charges:   -0.0000000

LOEWDIN ATOMIC CHARGES
----------------------
   0 C :   -0.058682
   1 C :   -0.146458
   2 S :    0.477925
   3 C :   -0.270771
   4 Cl:    0.195104
   5 C :   -0.117317
   6 C :    0.083406
   7 O :   -0.153958
   8 C :   -0.097814
   9 C :    0.075381
  10 C :   -0.137944
  11 C :   -0.015437
  12 N :   -0.049860
  13 C :   -0.023240
  14 N :   -0.046418
  15 C :    0.057891
  16 C :   -0.186072
  17 S :    0.554450
  18 C :   -0.135864
  19 C :   -0.110468
  20 C :    0.016383
  21 C :   -0.026556
  22 N :   -0.056582
  23 C :   -0.001547
  24 C :   -0.020341
  25 C :    0.079866
  26 N :    0.000625
  27 C :    0.036654
  28 C :   -0.059131
  29 C :    0.080396
  30 O :   -0.197920
  31 C :   -0.105695
  32 C :   -0.117670
  33 C :    0.083444
  34 O :   -0.193086
  35 N :   -0.001970
  36 C :    0.035611
  37 C :   -0.063224
  38 C :    0.068334
  39 C :   -0.015410
  40 C :   -0.025979
  41 C :   -0.147004
  42 S :    0.462701
  43 C :   -0.218709
  44 C :    0.069712
  45 O :   -0.148922
  46 O :   -0.025867
  47 C :   -0.037225
  48 C :   -0.034406
  49 C :    0.088933
  50 C :   -0.075764
  51 C :    0.081612
  52 O :   -0.119147
  53 C :   -0.118241
  54 C :   -0.272158
  55 S :    0.479221
  56 C :   -0.147949
  57 C :   -0.058479
  58 C :    0.068661
  59 C :   -0.130562
  60 C :   -0.015525
  61 N :   -0.046574
  62 C :   -0.017309
  63 N :   -0.048851
  64 Cl:    0.193948
  65 H :    0.038532
  66 H :    0.052679
  67 H :    0.047850
  68 H :    0.038654
  69 H :    0.037317
  70 H :    0.028801
  71 H :    0.037583
  72 H :    0.022882
  73 H :    0.034311
  74 H :    0.031999
  75 H :    0.039021
  76 H :    0.022130
  77 H :    0.033669
  78 H :    0.031435
  79 H :    0.021476
  80 H :    0.046162
  81 H :    0.029138
  82 H :    0.081228
  83 H :    0.037860
  84 H :    0.055952
  85 H :    0.039167

  Mayer bond orders larger than 0.100000
B(  0-C ,  1-C ) :   1.5459 B(  0-C ,  5-C ) :   1.2264 B(  0-C ,  9-C ) :   0.9954
B(  1-C ,  2-S ) :   1.1614 B(  1-C , 65-H ) :   0.9545 B(  2-S ,  3-C ) :   1.1510
B(  3-C ,  4-Cl) :   1.1325 B(  3-C ,  5-C ) :   1.4697 B(  5-C ,  6-C ) :   0.9701
B(  6-C ,  7-O ) :   2.1480 B(  6-C ,  8-C ) :   0.9647 B(  8-C ,  9-C ) :   1.0780
B(  8-C , 15-C ) :   1.5503 B(  9-C , 10-C ) :   1.6434 B( 10-C , 11-C ) :   1.1498
B( 10-C , 13-C ) :   1.1416 B( 11-C , 12-N ) :   2.9892 B( 13-C , 14-N ) :   2.9616
B( 15-C , 16-C ) :   1.2252 B( 15-C , 66-H ) :   0.9399 B( 16-C , 17-S ) :   1.1005
B( 16-C , 20-C ) :   1.3590 B( 17-S , 18-C ) :   1.1507 B( 18-C , 19-C ) :   1.3587
B( 18-C , 23-C ) :   1.1717 B( 19-C , 20-C ) :   1.3520 B( 19-C , 21-C ) :   1.1010
B( 20-C , 67-H ) :   1.0137 B( 21-C , 22-N ) :   2.9745 B( 23-C , 24-C ) :   1.5946
B( 23-C , 68-H ) :   0.9264 B( 24-C , 25-C ) :   1.1747 B( 24-C , 69-H ) :   0.9458
B( 25-C , 26-N ) :   1.1690 B( 25-C , 32-C ) :   1.3213 B( 26-N , 27-C ) :   0.9369
B( 26-N , 29-C ) :   1.0460 B( 27-C , 28-C ) :   1.1220 B( 27-C , 70-H ) :   0.9476
B( 27-C , 71-H ) :   0.9276 B( 28-C , 72-H ) :   0.9680 B( 28-C , 73-H ) :   0.9676
B( 28-C , 74-H ) :   0.9641 B( 29-C , 30-O ) :   2.1187 B( 29-C , 31-C ) :   0.9735
B( 31-C , 32-C ) :   1.2529 B( 31-C , 38-C ) :   1.3451 B( 32-C , 33-C ) :   0.9833
B( 33-C , 34-O ) :   2.0342 B( 33-C , 35-N ) :   1.0578 B( 34-O , 68-H ) :   0.1065
B( 35-N , 36-C ) :   0.9422 B( 35-N , 38-C ) :   1.1646 B( 36-C , 37-C ) :   1.1149
B( 36-C , 75-H ) :   0.9254 B( 36-C , 76-H ) :   0.9513 B( 37-C , 77-H ) :   0.9623
B( 37-C , 78-H ) :   0.9687 B( 37-C , 79-H ) :   0.9687 B( 38-C , 39-C ) :   1.1848
B( 39-C , 40-C ) :   1.6068 B( 39-C , 80-H ) :   0.9411 B( 40-C , 41-C ) :   1.1099
B( 40-C , 81-H ) :   0.9673 B( 41-C , 42-S ) :   1.1513 B( 41-C , 48-C ) :   1.4893
B( 42-S , 43-C ) :   1.1132 B( 43-C , 44-C ) :   0.9425 B( 43-C , 47-C ) :   1.5083
B( 44-C , 45-O ) :   2.1300 B( 44-C , 46-O ) :   1.2511 B( 46-O , 82-H ) :   0.9490
B( 47-C , 48-C ) :   1.2705 B( 47-C , 49-C ) :   1.0199 B( 48-C , 83-H ) :   0.9924
B( 49-C , 50-C ) :   1.7596 B( 49-C , 84-H ) :   0.9349 B( 50-C , 51-C ) :   0.9210
B( 50-C , 58-C ) :   1.0037 B( 51-C , 52-O ) :   2.3012 B( 51-C , 53-C ) :   0.9195
B( 53-C , 54-C ) :   1.4828 B( 53-C , 57-C ) :   1.2231 B( 54-C , 55-S ) :   1.1539
B( 54-C , 64-Cl) :   1.1298 B( 55-S , 56-C ) :   1.1637 B( 56-C , 57-C ) :   1.5474
B( 56-C , 85-H ) :   0.9548 B( 57-C , 58-C ) :   1.0195 B( 58-C , 59-C ) :   1.6831
B( 59-C , 60-C ) :   1.1375 B( 59-C , 62-C ) :   1.1594 B( 60-C , 61-N ) :   3.0037
B( 62-C , 63-N ) :   2.9949

-----------------------------------------------------------------------------
         ABSORPTION SPECTRUM VIA TRANSITION ELECTRIC DIPOLE MOMENTS
-----------------------------------------------------------------------------
State   Energy  Wavelength   fosc         T2         TX        TY        TZ
        (cm-1)    (nm)                  (au**2)     (au)      (au)      (au)
-----------------------------------------------------------------------------
   0   13140.8    761.0   0.987686247  24.74418   3.83992  -2.79098   1.48647
   1   18666.8    535.7   0.011789994   0.20793  -0.25386   0.26596   0.26972
   2   20805.6    480.6   0.154212223   2.44014  -0.00605  -1.16197  -1.04399
   3   23508.7    425.4   0.707457301   9.90712  -2.24859   0.54815  -2.13319
   4   25300.4    395.3   0.021297394   0.27712  -0.43857   0.21698  -0.19418
   5   26675.4    374.9   0.012129360   0.14969   0.17777   0.00711  -0.34357
   6   27295.2    366.4   0.149343182   1.80125  -0.46300   0.73789  -1.02098
   7   27502.7    363.6   0.031386728   0.37570  -0.47978   0.34324  -0.16642
   8   27562.1    362.8   0.053209201   0.63555   0.59961  -0.07898  -0.51941
   9   27744.8    360.4   0.002319374   0.02752  -0.03528  -0.16158   0.01296
  10   28113.5    355.7   0.086223449   1.00969  -0.96708   0.21398   0.16929
  11   28593.1    349.7   0.115154812   1.32585  -0.48791  -0.39969  -0.96335
  12   29149.2    343.1   0.073577093   0.83098  -0.29474   0.73528   0.45108
  13   29505.9    338.9   0.191808314   2.14010  -1.08339   0.71413  -0.67555
  14   30047.2    332.8   0.062987081   0.69012   0.26758  -0.58367  -0.52711
  15   30151.5    331.7   0.015520817   0.16947  -0.01580   0.27508   0.30585
  16   30827.4    324.4   0.017785980   0.18994   0.19867   0.15558   0.35533
  17   31172.9    320.8   0.000388129   0.00410   0.00810  -0.01082  -0.06258
  18   31414.7    318.3   0.063578290   0.66627   0.54151  -0.11397  -0.60004
  19   31813.5    314.3   0.010496260   0.10862  -0.13920   0.27723   0.11127
  20   33338.6    300.0   0.013419941   0.13252  -0.06419  -0.22580  -0.27823
  21   33799.5    295.9   0.066001447   0.64286   0.33510   0.35388   0.63666
  22   34119.9    293.1   0.035139952   0.33905  -0.10643  -0.16031  -0.54957
  23   34368.8    291.0   0.026750193   0.25623   0.13971  -0.15391  -0.46155
  24   34690.4    288.3   0.318896327   3.02632   1.23596  -0.81023   0.91775
  25   35042.8    285.4   0.274104363   2.57510   0.29671   0.93704   1.26847
  26   35390.5    282.6   0.063041735   0.58643  -0.59079  -0.21880  -0.43535
  27   35455.7    282.0   0.027317598   0.25365   0.02413   0.33142   0.37846
  28   35784.8    279.4   0.000521922   0.00480  -0.05813   0.03160  -0.02059
  29   36041.2    277.5   0.141943401   1.29656   0.25100  -0.87896  -0.67897
  30   36489.4    274.1   0.001844082   0.01664  -0.02862  -0.04722  -0.11657
  31   36777.3    271.9   0.002397477   0.02146   0.09380  -0.01327   0.11174
  32   36975.5    270.4   0.537754160   4.78790   0.65058  -1.91101  -0.84421
  33   37145.2    269.2   0.019223595   0.17038   0.13015   0.22380   0.32148
  34   37511.9    266.6   0.040344124   0.35407  -0.24646  -0.22173  -0.49413
  35   37815.3    264.4   0.426804573   3.71567   0.90080   0.52275   1.62203
  36   38376.1    260.6   0.381965216   3.27671  -0.80744  -0.78654  -1.41637
  37   38473.7    259.9   0.203062636   1.73757  -0.11206  -0.96937  -0.88620
  38   38618.8    258.9   0.000269627   0.00230  -0.02053  -0.01247  -0.04149
  39   38677.3    258.5   0.139740511   1.18944  -0.46393  -0.45765  -0.87451
  40   38944.8    256.8   0.041038291   0.34691   0.37128  -0.43325   0.14611
  41   39169.5    255.3   0.000432551   0.00364  -0.02790   0.00542  -0.05318
  42   39517.3    253.1   0.010653765   0.08875   0.21455  -0.20328  -0.03740
  43   39528.3    253.0   0.047388765   0.39468  -0.05098  -0.48897  -0.39114
  44   40186.1    248.8   0.063650837   0.52144  -0.55962   0.44656   0.09407
  45   40289.1    248.2   0.071860084   0.58719   0.15314   0.08558   0.74593
  46   40305.1    248.1   0.043309976   0.35376   0.12925   0.31472   0.48785

FINAL SINGLE POINT ENERGY     -5109.192038512578

DIPOLE MOMENT
-------------
                                X             Y             Z
Electronic contribution:    -10.96423      -5.55765      -0.79045
Nuclear contribution   :     10.69592       5.53068      -1.14540
                        -----------------------------------------
Total Dipole Moment    :     -0.26831      -0.02697      -1.93585
                        -----------------------------------------
Magnitude (a.u.)       :      1.95454
Magnitude (Debye)      :      4.96805

Rotational constants in cm-1:     0.001967     0.000300     0.000268
Rotational constants in MHz :    58.967201     8.997549     8.032202

                             ****ORCA TERMINATED NORMALLY****
TOTAL RUN TIME: 0 days 0 hours 8 minutes 9 seconds 629 msec
