                         Program Version 4.2.0 -  RELEASE  -
|  1> # ORCA input file
|  2> # SCF done       -177.752890179566          0.000459623419
|  3> ! CAM-B3LYP def2-SVP def2/J RIJCOSX Grid4 TightSCF
|  4> %maxcore 5000
|  5> %tddft
|  6>     Mode sTDDFT
|  7>     Ethresh 5.0
|  8>     maxcore 5000
|  9> end
| 10>
| 11> %pal
| 12>   nprocs 6
| 13>   end
| 14> * xyz 0 1
| 15>    C        3.42540         2.90488        -4.25068
| 16>    C        2.97239         4.18693        -4.19966
| 17>    S        3.43916         4.95463        -2.72665
| 18>    C        4.26201         3.51908        -2.16315
| 19>   Cl        5.04213         3.48188        -0.66016
| 20>    C        4.16252         2.51964        -3.08484
| 21>    C        4.61476         1.12922        -3.20736
| 22>    O        5.26548         0.49445        -2.41095
| 23>    C        4.15112         0.70227        -4.56788
| 24>    C        3.37277         1.78401        -5.16488
| 25>    C        2.66250         1.75955        -6.33333
| 26>    C        1.94237         2.88988        -6.77647
| 27>    N        1.35805         3.80312        -7.15089
| 28>    C        2.53435         0.64901        -7.19259
| 29>    N        2.37704        -0.22233        -7.92288
| 30>    C        4.56666        -0.40802        -5.22553
| 31>    C        5.30518        -1.52090        -4.68075
| 32>    C        6.28508        -2.12509        -5.46657
| 33>    C        7.07163        -3.15358        -4.97501
| 34>    N        8.08165        -3.64306        -5.88050
| 35>    O        7.84859        -3.54080        -7.06693
| 36>    O        9.10951        -4.10479        -5.42771
| 37>    C        6.85432        -3.69123        -3.68501
| 38>    C        5.80752        -3.11592        -2.94351
| 39>    C        5.06644        -2.05772        -3.40707
| 40>    C        7.63219        -4.77653        -3.15180
| 41>    C        7.23204        -5.61180        -2.16530
| 42>    C        8.04167        -6.65741        -1.64507
| 43>    S        7.36926        -7.79475        -0.50836
| 44>    C        8.87834        -8.63913        -0.38030
| 45>    C        9.83988        -8.04875        -1.18199
| 46>    C        9.37146        -6.94865        -1.89088
| 47>    C        9.03234        -9.78313         0.44884
| 48>    C       10.20722       -10.43112         0.77748
| 49>    C       10.01825       -11.53749         1.60112
| 50>    C        8.69314       -11.76874         1.91622
| 51>    S        7.66761       -10.57197         1.18258
| 52>    C        8.16115       -12.83040         2.69695
| 53>    S        6.45255       -13.09439         2.83745
| 54>    C        6.69678       -14.50570         3.82973
| 55>    C        8.04738       -14.72305         4.03379
| 56>    C        8.86385       -13.79147         3.40218
| 57>    C        5.57382       -15.25587         4.26793
| 58>    C        5.64576       -16.38930         5.00486
| 59>    C        4.52418       -17.16810         5.40405
| 60>    S        4.77353       -18.59605         6.35266
| 61>    C        3.07349       -18.93614         6.40748
| 62>    C        2.64954       -20.15477         7.03587
| 63>    O        1.50561       -20.53443         7.18428
| 64>    C        2.35092       -17.96868         5.69951
| 65>    C        3.18259       -16.99900         5.12267
| 66>    C        0.92254       -17.96919         5.48682
| 67>    C       -0.06079       -18.26574         6.35580
| 68>    C       -1.43779       -18.56644         5.83735
| 69>    O       -1.86755       -18.29119         4.74479
| 70>    C       -2.07441       -19.30303         6.93316
| 71>    C       -3.23550       -19.98785         7.13748
| 72>    S       -3.27739       -20.65334         8.75251
| 73>    C       -1.73155       -19.99196         9.13778
| 74>    C       -1.21524       -19.30820         8.08283
| 75>    C       -0.02169       -18.54557         7.78674
| 76>    C        0.83751       -18.02836         8.71374
| 77>    C        0.72005       -18.34518        10.08361
| 78>    N        0.64448       -18.59900        11.19951
| 79>    C        1.87033       -17.11598         8.42343
| 80>    N        2.69507       -16.33662         8.24851
| 81>   Cl       -4.51596       -20.22125         6.05395
| 82>    H        2.40369         4.73709        -4.92279
| 83>    H        4.37961        -0.46728        -6.29158
| 84>    H        6.47854        -1.76361        -6.46662
| 85>    H        5.60530        -3.49871        -1.95623
| 86>    H        4.27727        -1.65220        -2.79602
| 87>    H        8.59884        -4.94210        -3.59961
| 88>    H        6.23932        -5.53599        -1.74236
| 89>    H       10.84564        -8.41991        -1.25506
| 90>    H        9.98352        -6.37390        -2.56158
| 91>    H       11.17161       -10.10397         0.43480
| 92>    H       10.82079       -12.16054         1.95067
| 93>    H        8.42855       -15.53695         4.62283
| 94>    H        9.93705       -13.80862         3.45424
| 95>    H        4.60856       -14.87791         3.96235
| 96>    H        6.60882       -16.76146         5.32261
| 97>    H        3.49778       -20.76464         7.40128
| 98>    H        2.79896       -16.18036         4.54157
| 99>    H        0.60448       -17.73474         4.47522
|100>    H       -1.30637       -20.16831        10.10576
|101> *
|102>
|103>                          ****END OF INPUT****

CARTESIAN COORDINATES (ANGSTROEM)
---------------------------------
  C      3.425400    2.904880   -4.250680
  C      2.972390    4.186930   -4.199660
  S      3.439160    4.954630   -2.726650
  C      4.262010    3.519080   -2.163150
  Cl     5.042130    3.481880   -0.660160
  C      4.162520    2.519640   -3.084840
  C      4.614760    1.129220   -3.207360
  O      5.265480    0.494450   -2.410950
  C      4.151120    0.702270   -4.567880
  C      3.372770    1.784010   -5.164880
  C      2.662500    1.759550   -6.333330
  C      1.942370    2.889880   -6.776470
  N      1.358050    3.803120   -7.150890
  C      2.534350    0.649010   -7.192590
  N      2.377040   -0.222330   -7.922880
  C      4.566660   -0.408020   -5.225530
  C      5.305180   -1.520900   -4.680750
  C      6.285080   -2.125090   -5.466570
  C      7.071630   -3.153580   -4.975010
  N      8.081650   -3.643060   -5.880500
  O      7.848590   -3.540800   -7.066930
  O      9.109510   -4.104790   -5.427710
  C      6.854320   -3.691230   -3.685010
  C      5.807520   -3.115920   -2.943510
  C      5.066440   -2.057720   -3.407070
  C      7.632190   -4.776530   -3.151800
  C      7.232040   -5.611800   -2.165300
  C      8.041670   -6.657410   -1.645070
  S      7.369260   -7.794750   -0.508360
  C      8.878340   -8.639130   -0.380300
  C      9.839880   -8.048750   -1.181990
  C      9.371460   -6.948650   -1.890880
  C      9.032340   -9.783130    0.448840
  C     10.207220  -10.431120    0.777480
  C     10.018250  -11.537490    1.601120
  C      8.693140  -11.768740    1.916220
  S      7.667610  -10.571970    1.182580
  C      8.161150  -12.830400    2.696950
  S      6.452550  -13.094390    2.837450
  C      6.696780  -14.505700    3.829730
  C      8.047380  -14.723050    4.033790
  C      8.863850  -13.791470    3.402180
  C      5.573820  -15.255870    4.267930
  C      5.645760  -16.389300    5.004860
  C      4.524180  -17.168100    5.404050
  S      4.773530  -18.596050    6.352660
  C      3.073490  -18.936140    6.407480
  C      2.649540  -20.154770    7.035870
  O      1.505610  -20.534430    7.184280
  C      2.350920  -17.968680    5.699510
  C      3.182590  -16.999000    5.122670
  C      0.922540  -17.969190    5.486820
  C     -0.060790  -18.265740    6.355800
  C     -1.437790  -18.566440    5.837350
  O     -1.867550  -18.291190    4.744790
  C     -2.074410  -19.303030    6.933160
  C     -3.235500  -19.987850    7.137480
  S     -3.277390  -20.653340    8.752510
  C     -1.731550  -19.991960    9.137780
  C     -1.215240  -19.308200    8.082830
  C     -0.021690  -18.545570    7.786740
  C      0.837510  -18.028360    8.713740
  C      0.720050  -18.345180   10.083610
  N      0.644480  -18.599000   11.199510
  C      1.870330  -17.115980    8.423430
  N      2.695070  -16.336620    8.248510
  Cl    -4.515960  -20.221250    6.053950
  H      2.403690    4.737090   -4.922790
  H      4.379610   -0.467280   -6.291580
  H      6.478540   -1.763610   -6.466620
  H      5.605300   -3.498710   -1.956230
  H      4.277270   -1.652200   -2.796020
  H      8.598840   -4.942100   -3.599610
  H      6.239320   -5.535990   -1.742360
  H     10.845640   -8.419910   -1.255060
  H      9.983520   -6.373900   -2.561580
  H     11.171610  -10.103970    0.434800
  H     10.820790  -12.160540    1.950670
  H      8.428550  -15.536950    4.622830
  H      9.937050  -13.808620    3.454240
  H      4.608560  -14.877910    3.962350
  H      6.608820  -16.761460    5.322610
  H      3.497780  -20.764640    7.401280
  H      2.798960  -16.180360    4.541570
  H      0.604480  -17.734740    4.475220
  H     -1.306370  -20.168310   10.105760

 Total Charge           Charge          ....    0
 Multiplicity           Mult            ....    1
 Number of Electrons    NEL             ....  518
 Basis Dimension        Dim             .... 1065

ORBITAL ENERGIES
----------------

  NO   OCC          E(Eh)            E(eV)
   0   2.0000    -101.622175     -2765.2800
   1   2.0000    -101.612740     -2765.0232
   2   2.0000     -88.998853     -2421.7819
   3   2.0000     -88.987967     -2421.4857
   4   2.0000     -88.975164     -2421.1373
   5   2.0000     -88.968228     -2420.9486
   6   2.0000     -88.967853     -2420.9384
   7   2.0000     -88.966746     -2420.9082
   8   2.0000     -19.247321      -523.7462
   9   2.0000     -19.245710      -523.7024
  10   2.0000     -19.227772      -523.2143
  11   2.0000     -19.216633      -522.9112
  12   2.0000     -19.216466      -522.9066
  13   2.0000     -14.652329      -398.7101
  14   2.0000     -14.424556      -392.5121
  15   2.0000     -14.424429      -392.5087
  16   2.0000     -14.414815      -392.2471
  17   2.0000     -14.412734      -392.1904
  18   2.0000     -10.385533      -282.6047
  19   2.0000     -10.381319      -282.4901
  20   2.0000     -10.372630      -282.2536
  21   2.0000     -10.370685      -282.2007
  22   2.0000     -10.365995      -282.0731
  23   2.0000     -10.353778      -281.7406
  24   2.0000     -10.353164      -281.7239
  25   2.0000     -10.343792      -281.4689
  26   2.0000     -10.340870      -281.3894
  27   2.0000     -10.335716      -281.2491
  28   2.0000     -10.334669      -281.2206
  29   2.0000     -10.329121      -281.0697
  30   2.0000     -10.326677      -281.0032
  31   2.0000     -10.326428      -280.9964
  32   2.0000     -10.326257      -280.9917
  33   2.0000     -10.322513      -280.8899
  34   2.0000     -10.320874      -280.8453
  35   2.0000     -10.319547      -280.8091
  36   2.0000     -10.318660      -280.7850
  37   2.0000     -10.317755      -280.7604
  38   2.0000     -10.317247      -280.7466
  39   2.0000     -10.317126      -280.7433
  40   2.0000     -10.316753      -280.7331
  41   2.0000     -10.315517      -280.6995
  42   2.0000     -10.314767      -280.6791
  43   2.0000     -10.313983      -280.6577
  44   2.0000     -10.311839      -280.5994
  45   2.0000     -10.311422      -280.5881
  46   2.0000     -10.310346      -280.5588
  47   2.0000     -10.309400      -280.5330
  48   2.0000     -10.307918      -280.4927
  49   2.0000     -10.306471      -280.4533
  50   2.0000     -10.306119      -280.4437
  51   2.0000     -10.305254      -280.4202
  52   2.0000     -10.303214      -280.3647
  53   2.0000     -10.303030      -280.3597
  54   2.0000     -10.301514      -280.3184
  55   2.0000     -10.301137      -280.3082
  56   2.0000     -10.295777      -280.1623
  57   2.0000     -10.295219      -280.1471
  58   2.0000     -10.293387      -280.0973
  59   2.0000     -10.289649      -279.9956
  60   2.0000     -10.286711      -279.9156
  61   2.0000     -10.285604      -279.8855
  62   2.0000     -10.285524      -279.8833
  63   2.0000     -10.285169      -279.8737
  64   2.0000     -10.284315      -279.8504
  65   2.0000     -10.283832      -279.8373
  66   2.0000     -10.282427      -279.7991
  67   2.0000      -9.576935      -260.6016
  68   2.0000      -9.567518      -260.3454
  69   2.0000      -8.094532      -220.2634
  70   2.0000      -8.083689      -219.9684
  71   2.0000      -8.070937      -219.6214
  72   2.0000      -8.064067      -219.4344
  73   2.0000      -8.063726      -219.4251
  74   2.0000      -8.062675      -219.3965
  75   2.0000      -7.347590      -199.9381
  76   2.0000      -7.338132      -199.6807
  77   2.0000      -7.336969      -199.6491
  78   2.0000      -7.336418      -199.6341
  79   2.0000      -7.327563      -199.3931
  80   2.0000      -7.327040      -199.3789
  81   2.0000      -6.063917      -165.0076
  82   2.0000      -6.059275      -164.8813
  83   2.0000      -6.056818      -164.8144
  84   2.0000      -6.053071      -164.7124
  85   2.0000      -6.048450      -164.5867
  86   2.0000      -6.045968      -164.5191
  87   2.0000      -6.039929      -164.3548
  88   2.0000      -6.036002      -164.2480
  89   2.0000      -6.033386      -164.1768
  90   2.0000      -6.033382      -164.1767
  91   2.0000      -6.032916      -164.1640
  92   2.0000      -6.031844      -164.1348
  93   2.0000      -6.029273      -164.0649
  94   2.0000      -6.028901      -164.0547
  95   2.0000      -6.027850      -164.0261
  96   2.0000      -6.026058      -163.9774
  97   2.0000      -6.025894      -163.9729
  98   2.0000      -6.024851      -163.9445
  99   2.0000      -1.327286       -36.1173
 100   2.0000      -1.145385       -31.1675
 101   2.0000      -1.145069       -31.1589
 102   2.0000      -1.133656       -30.8484
 103   2.0000      -1.128522       -30.7087
 104   2.0000      -1.043428       -28.3931
 105   2.0000      -1.032521       -28.0963
 106   2.0000      -1.021976       -27.8094
 107   2.0000      -1.012698       -27.5569
 108   2.0000      -1.009617       -27.4731
 109   2.0000      -1.003806       -27.3150
 110   2.0000      -1.003014       -27.2934
 111   2.0000      -0.998305       -27.1653
 112   2.0000      -0.995899       -27.0998
 113   2.0000      -0.991660       -26.9844
 114   2.0000      -0.991469       -26.9792
 115   2.0000      -0.982545       -26.7364
 116   2.0000      -0.978732       -26.6327
 117   2.0000      -0.960208       -26.1286
 118   2.0000      -0.949265       -25.8308
 119   2.0000      -0.930432       -25.3183
 120   2.0000      -0.919924       -25.0324
 121   2.0000      -0.911746       -24.8099
 122   2.0000      -0.908711       -24.7273
 123   2.0000      -0.904134       -24.6027
 124   2.0000      -0.892669       -24.2908
 125   2.0000      -0.887712       -24.1559
 126   2.0000      -0.874343       -23.7921
 127   2.0000      -0.859437       -23.3865
 128   2.0000      -0.853308       -23.2197
 129   2.0000      -0.848857       -23.0986
 130   2.0000      -0.843037       -22.9402
 131   2.0000      -0.837929       -22.8012
 132   2.0000      -0.835756       -22.7421
 133   2.0000      -0.829764       -22.5790
 134   2.0000      -0.826759       -22.4973
 135   2.0000      -0.816784       -22.2258
 136   2.0000      -0.796117       -21.6634
 137   2.0000      -0.792939       -21.5770
 138   2.0000      -0.777990       -21.1702
 139   2.0000      -0.769714       -20.9450
 140   2.0000      -0.759747       -20.6738
 141   2.0000      -0.749271       -20.3887
 142   2.0000      -0.743184       -20.2231
 143   2.0000      -0.732657       -19.9366
 144   2.0000      -0.716317       -19.4920
 145   2.0000      -0.705559       -19.1992
 146   2.0000      -0.700720       -19.0676
 147   2.0000      -0.692559       -18.8455
 148   2.0000      -0.689658       -18.7666
 149   2.0000      -0.687779       -18.7154
 150   2.0000      -0.682270       -18.5655
 151   2.0000      -0.681558       -18.5461
 152   2.0000      -0.671012       -18.2592
 153   2.0000      -0.670036       -18.2326
 154   2.0000      -0.655123       -17.8268
 155   2.0000      -0.649134       -17.6638
 156   2.0000      -0.638636       -17.3782
 157   2.0000      -0.635065       -17.2810
 158   2.0000      -0.634503       -17.2657
 159   2.0000      -0.628563       -17.1041
 160   2.0000      -0.625436       -17.0190
 161   2.0000      -0.619923       -16.8690
 162   2.0000      -0.619073       -16.8458
 163   2.0000      -0.612555       -16.6685
 164   2.0000      -0.609645       -16.5893
 165   2.0000      -0.607250       -16.5241
 166   2.0000      -0.606859       -16.5135
 167   2.0000      -0.599919       -16.3246
 168   2.0000      -0.596177       -16.2228
 169   2.0000      -0.594587       -16.1795
 170   2.0000      -0.583645       -15.8818
 171   2.0000      -0.576931       -15.6991
 172   2.0000      -0.570662       -15.5285
 173   2.0000      -0.567315       -15.4374
 174   2.0000      -0.564838       -15.3700
 175   2.0000      -0.556721       -15.1491
 176   2.0000      -0.554717       -15.0946
 177   2.0000      -0.545250       -14.8370
 178   2.0000      -0.542796       -14.7702
 179   2.0000      -0.539872       -14.6907
 180   2.0000      -0.536926       -14.6105
 181   2.0000      -0.533967       -14.5300
 182   2.0000      -0.533792       -14.5252
 183   2.0000      -0.529035       -14.3958
 184   2.0000      -0.528098       -14.3703
 185   2.0000      -0.523969       -14.2579
 186   2.0000      -0.522205       -14.2099
 187   2.0000      -0.518526       -14.1098
 188   2.0000      -0.516382       -14.0515
 189   2.0000      -0.510890       -13.9020
 190   2.0000      -0.510752       -13.8983
 191   2.0000      -0.508601       -13.8397
 192   2.0000      -0.505405       -13.7528
 193   2.0000      -0.501523       -13.6471
 194   2.0000      -0.500832       -13.6283
 195   2.0000      -0.500155       -13.6099
 196   2.0000      -0.497277       -13.5316
 197   2.0000      -0.496181       -13.5018
 198   2.0000      -0.494251       -13.4492
 199   2.0000      -0.494025       -13.4431
 200   2.0000      -0.489692       -13.3252
 201   2.0000      -0.487997       -13.2791
 202   2.0000      -0.484382       -13.1807
 203   2.0000      -0.479905       -13.0589
 204   2.0000      -0.475634       -12.9427
 205   2.0000      -0.471471       -12.8294
 206   2.0000      -0.469229       -12.7684
 207   2.0000      -0.465726       -12.6730
 208   2.0000      -0.464128       -12.6296
 209   2.0000      -0.462857       -12.5950
 210   2.0000      -0.457462       -12.4482
 211   2.0000      -0.456454       -12.4207
 212   2.0000      -0.456074       -12.4104
 213   2.0000      -0.451116       -12.2755
 214   2.0000      -0.450780       -12.2664
 215   2.0000      -0.449983       -12.2446
 216   2.0000      -0.448620       -12.2076
 217   2.0000      -0.448152       -12.1948
 218   2.0000      -0.444510       -12.0957
 219   2.0000      -0.441986       -12.0270
 220   2.0000      -0.440677       -11.9914
 221   2.0000      -0.437379       -11.9017
 222   2.0000      -0.436972       -11.8906
 223   2.0000      -0.435454       -11.8493
 224   2.0000      -0.434881       -11.8337
 225   2.0000      -0.430357       -11.7106
 226   2.0000      -0.429344       -11.6831
 227   2.0000      -0.426692       -11.6109
 228   2.0000      -0.424009       -11.5379
 229   2.0000      -0.421432       -11.4678
 230   2.0000      -0.419265       -11.4088
 231   2.0000      -0.414652       -11.2832
 232   2.0000      -0.410937       -11.1822
 233   2.0000      -0.408196       -11.1076
 234   2.0000      -0.405949       -11.0464
 235   2.0000      -0.399388       -10.8679
 236   2.0000      -0.397157       -10.8072
 237   2.0000      -0.389177       -10.5901
 238   2.0000      -0.384423       -10.4607
 239   2.0000      -0.380647       -10.3579
 240   2.0000      -0.374655       -10.1949
 241   2.0000      -0.366173        -9.9641
 242   2.0000      -0.359002        -9.7689
 243   2.0000      -0.354189        -9.6380
 244   2.0000      -0.344331        -9.3697
 245   2.0000      -0.342536        -9.3209
 246   2.0000      -0.342232        -9.3126
 247   2.0000      -0.341021        -9.2796
 248   2.0000      -0.336249        -9.1498
 249   2.0000      -0.335828        -9.1383
 250   2.0000      -0.331295        -9.0150
 251   2.0000      -0.328958        -8.9514
 252   2.0000      -0.327420        -8.9095
 253   2.0000      -0.319235        -8.6868
 254   2.0000      -0.315170        -8.5762
 255   2.0000      -0.304418        -8.2836
 256   2.0000      -0.301201        -8.1961
 257   2.0000      -0.272647        -7.4191
 258   2.0000      -0.238369        -6.4863
 259   0.0000      -0.101301        -2.7566
 260   0.0000      -0.091733        -2.4962
 261   0.0000      -0.073422        -1.9979
 262   0.0000      -0.060612        -1.6493
 263   0.0000      -0.053644        -1.4597

MULLIKEN ATOMIC CHARGES
-----------------------
   0 C :    0.031925
   1 C :   -0.128960
   2 S :    0.190932
   3 C :   -0.168964
   4 Cl:    0.001061
   5 C :    0.074980
   6 C :    0.142274
   7 O :   -0.127874
   8 C :   -0.091651
   9 C :    0.280905
  10 C :   -0.320035
  11 C :   -0.192036
  12 N :    0.157231
  13 C :   -0.198994
  14 N :    0.169936
  15 C :   -0.028940
  16 C :    0.055498
  17 C :   -0.050546
  18 C :    0.132185
  19 N :    0.246967
  20 O :   -0.228980
  21 O :   -0.233784
  22 C :    0.097823
  23 C :   -0.066804
  24 C :    0.113341
  25 C :   -0.064970
  26 C :    0.094865
  27 C :   -0.092759
  28 S :    0.134685
  29 C :   -0.046001
  30 C :    0.001720
  31 C :    0.020868
  32 C :   -0.037636
  33 C :    0.004330
  34 C :    0.000851
  35 C :   -0.036271
  36 S :    0.133726
  37 C :   -0.043906
  38 S :    0.136301
  39 C :   -0.083984
  40 C :    0.020233
  41 C :   -0.001817
  42 C :    0.076276
  43 C :    0.057150
  44 C :   -0.042910
  45 S :    0.161442
  46 C :   -0.191035
  47 C :    0.201447
  48 O :   -0.206549
  49 C :    0.094608
  50 C :   -0.014542
  51 C :   -0.000952
  52 C :   -0.101262
  53 C :    0.129148
  54 O :   -0.126080
  55 C :    0.094878
  56 C :   -0.175851
  57 S :    0.183045
  58 C :   -0.120276
  59 C :    0.021658
  60 C :    0.308737
  61 C :   -0.324890
  62 C :   -0.189767
  63 N :    0.157441
  64 C :   -0.201478
  65 N :    0.173511
  66 Cl:   -0.003236
  67 H :    0.055660
  68 H :    0.040929
  69 H :    0.008418
  70 H :   -0.009939
  71 H :   -0.007027
  72 H :    0.021176
  73 H :   -0.013153
  74 H :   -0.016527
  75 H :   -0.000343
  76 H :   -0.016391
  77 H :   -0.017483
  78 H :   -0.013449
  79 H :   -0.015851
  80 H :   -0.010680
  81 H :   -0.017518
  82 H :   -0.013962
  83 H :   -0.012242
  84 H :    0.028829
  85 H :    0.051315
Sum of atomic charges:   -0.0000000

LOEWDIN ATOMIC CHARGES
----------------------
   0 C :   -0.059924
   1 C :   -0.148084
   2 S :    0.479546
   3 C :   -0.271620
   4 Cl:    0.193083
   5 C :   -0.117592
   6 C :    0.080519
   7 O :   -0.124884
   8 C :   -0.085729
   9 C :    0.073492
  10 C :   -0.132208
  11 C :   -0.015287
  12 N :   -0.047987
  13 C :   -0.026974
  14 N :   -0.039791
  15 C :    0.081065
  16 C :   -0.046709
  17 C :    0.027111
  18 C :   -0.034440
  19 N :    0.286878
  20 O :   -0.196772
  21 O :   -0.199027
  22 C :    0.015931
  23 C :   -0.013091
  24 C :    0.043080
  25 C :   -0.037412
  26 C :   -0.009148
  27 C :   -0.177781
  28 S :    0.435369
  29 C :   -0.180298
  30 C :   -0.051046
  31 C :   -0.035652
  32 C :   -0.184783
  33 C :   -0.048649
  34 C :   -0.048925
  35 C :   -0.185530
  36 S :    0.428706
  37 C :   -0.180299
  38 S :    0.437739
  39 C :   -0.176642
  40 C :   -0.041656
  41 C :   -0.052113
  42 C :   -0.011346
  43 C :   -0.048179
  44 C :   -0.132503
  45 S :    0.479391
  46 C :   -0.237591
  47 C :    0.081705
  48 O :   -0.150565
  49 C :   -0.027526
  50 C :   -0.041953
  51 C :    0.060797
  52 C :   -0.057523
  53 C :    0.084606
  54 O :   -0.130347
  55 C :   -0.115083
  56 C :   -0.273261
  57 S :    0.475308
  58 C :   -0.147435
  59 C :   -0.047500
  60 C :    0.082976
  61 C :   -0.132478
  62 C :   -0.015288
  63 N :   -0.052053
  64 C :   -0.021726
  65 N :   -0.050412
  66 Cl:    0.189684
  67 H :    0.038422
  68 H :    0.049553
  69 H :    0.042516
  70 H :    0.034251
  71 H :    0.036189
  72 H :    0.028948
  73 H :    0.026929
  74 H :    0.031102
  75 H :    0.036531
  76 H :    0.031322
  77 H :    0.030917
  78 H :    0.031113
  79 H :    0.030954
  80 H :    0.031063
  81 H :    0.028196
  82 H :   -0.002068
  83 H :    0.032204
  84 H :    0.049630
  85 H :    0.038062

  Mayer bond orders larger than 0.100000
B(  0-C ,  1-C ) :   1.5421 B(  0-C ,  5-C ) :   1.2205 B(  0-C ,  9-C ) :   1.0044
B(  1-C ,  2-S ) :   1.1645 B(  1-C , 67-H ) :   0.9545 B(  2-S ,  3-C ) :   1.1536
B(  3-C ,  4-Cl) :   1.1290 B(  3-C ,  5-C ) :   1.4748 B(  5-C ,  6-C ) :   0.9542
B(  6-C ,  7-O ) :   2.2408 B(  6-C ,  8-C ) :   0.9241 B(  8-C ,  9-C ) :   1.0447
B(  8-C , 15-C ) :   1.6817 B(  9-C , 10-C ) :   1.6745 B( 10-C , 11-C ) :   1.1412
B( 10-C , 13-C ) :   1.1328 B( 11-C , 12-N ) :   2.9941 B( 13-C , 14-N ) :   2.9933
B( 15-C , 16-C ) :   1.0632 B( 15-C , 68-H ) :   0.9517 B( 16-C , 17-C ) :   1.2943
B( 16-C , 24-C ) :   1.3082 B( 17-C , 18-C ) :   1.3768 B( 17-C , 69-H ) :   0.9981
B( 18-C , 19-N ) :   0.8798 B( 18-C , 22-C ) :   1.3309 B( 19-N , 20-O ) :   1.5623
B( 19-N , 21-O ) :   1.5191 B( 20-O , 21-O ) :   0.2629 B( 22-C , 23-C ) :   1.3144
B( 22-C , 25-C ) :   1.1042 B( 23-C , 24-C ) :   1.4391 B( 23-C , 70-H ) :   0.9887
B( 24-C , 71-H ) :   0.9813 B( 25-C , 26-C ) :   1.6787 B( 25-C , 72-H ) :   0.9644
B( 26-C , 27-C ) :   1.1261 B( 26-C , 73-H ) :   0.9583 B( 27-C , 28-S ) :   1.1073
B( 27-C , 29-C ) :   0.1051 B( 27-C , 31-C ) :   1.4837 B( 28-S , 29-C ) :   1.1381
B( 29-C , 30-C ) :   1.4934 B( 29-C , 32-C ) :   1.1117 B( 30-C , 31-C ) :   1.2940
B( 30-C , 74-H ) :   0.9962 B( 31-C , 75-H ) :   0.9929 B( 32-C , 33-C ) :   1.5129
B( 32-C , 35-C ) :   0.1138 B( 32-C , 36-S ) :   1.1205 B( 33-C , 34-C ) :   1.2742
B( 33-C , 76-H ) :   0.9965 B( 34-C , 35-C ) :   1.5128 B( 34-C , 77-H ) :   0.9953
B( 35-C , 36-S ) :   1.1188 B( 35-C , 37-C ) :   1.1158 B( 37-C , 38-S ) :   1.1368
B( 37-C , 39-C ) :   0.1052 B( 37-C , 41-C ) :   1.4958 B( 38-S , 39-C ) :   1.1115
B( 39-C , 40-C ) :   1.4813 B( 39-C , 42-C ) :   1.1286 B( 40-C , 41-C ) :   1.2958
B( 40-C , 78-H ) :   0.9917 B( 41-C , 79-H ) :   0.9959 B( 42-C , 43-C ) :   1.7131
B( 42-C , 80-H ) :   0.9604 B( 43-C , 44-C ) :   1.1198 B( 43-C , 81-H ) :   0.9592
B( 44-C , 45-S ) :   1.1642 B( 44-C , 50-C ) :   1.4483 B( 45-S , 46-C ) :   1.1024
B( 46-C , 47-C ) :   1.0555 B( 46-C , 49-C ) :   1.4149 B( 47-C , 48-O ) :   2.0717
B( 47-C , 82-H ) :   0.9551 B( 49-C , 50-C ) :   1.3103 B( 49-C , 51-C ) :   1.0117
B( 50-C , 83-H ) :   0.9987 B( 51-C , 52-C ) :   1.8047 B( 51-C , 84-H ) :   0.9416
B( 52-C , 53-C ) :   0.9287 B( 52-C , 60-C ) :   0.9866 B( 53-C , 54-O ) :   2.2863
B( 53-C , 55-C ) :   0.9251 B( 55-C , 56-C ) :   1.4774 B( 55-C , 59-C ) :   1.2243
B( 56-C , 57-S ) :   1.1559 B( 56-C , 66-Cl) :   1.1264 B( 57-S , 58-C ) :   1.1577
B( 58-C , 59-C ) :   1.5532 B( 58-C , 85-H ) :   0.9564 B( 59-C , 60-C ) :   1.0187
B( 60-C , 61-C ) :   1.6904 B( 61-C , 62-C ) :   1.1316 B( 61-C , 64-C ) :   1.1623
B( 62-C , 63-N ) :   3.0084 B( 64-C , 65-N ) :   3.0149

-----------------------------------------------------------------------------
         ABSORPTION SPECTRUM VIA TRANSITION ELECTRIC DIPOLE MOMENTS
-----------------------------------------------------------------------------
State   Energy  Wavelength   fosc         T2         TX        TY        TZ
        (cm-1)    (nm)                  (au**2)     (au)      (au)      (au)
-----------------------------------------------------------------------------
   0   17956.0    556.9   1.980820435  36.31706  -0.27078   5.20315  -3.02836
   1   19817.2    504.6   0.102309541   1.69961  -1.29429  -0.00730   0.15611
   2   22670.9    441.1   0.828407695  12.02957   2.28098   1.86052  -1.83444
   3   25349.4    394.5   0.110358593   1.43322  -1.03949  -0.58822   0.08180
   4   25971.2    385.0   0.221000350   2.80141  -1.29787   0.95411  -0.45456
   5   26236.5    381.1   0.018892997   0.23707   0.17786  -0.45275  -0.02116
   6   27394.6    365.0   0.091086715   1.09462   0.08595   0.93398   0.46360
   7   27828.3    359.3   0.032245533   0.38147   0.35050   0.31377  -0.40021
   8   28494.9    350.9   0.083239194   0.96169  -0.29884   0.85077  -0.38547
   9   29270.7    341.6   0.066984804   0.75339   0.71235  -0.18693  -0.45936
  10   29719.6    336.5   0.057092063   0.63242  -0.73642  -0.26501   0.14100
  11   30030.3    333.0   0.083205432   0.91215   0.78705  -0.51064  -0.17877
  12   30214.0    331.0   0.135468995   1.47607   1.08625  -0.13369   0.52751
  13   30531.0    327.5   0.108787135   1.17304   0.69487   0.67500  -0.48432
  14   31282.5    319.7   0.051794710   0.54508  -0.18155  -0.47702  -0.53346
  15   32282.3    309.8   0.041974366   0.42805   0.62528  -0.06346  -0.18178
  16   32847.0    304.4   0.066673651   0.66824   0.48508  -0.61231   0.24086
  17   33366.5    299.7   0.169480107   1.67218  -1.12385  -0.61864   0.16256
  18   33603.6    297.6   0.013842044   0.13561  -0.01628  -0.06393  -0.36229
  19   33872.8    295.2   0.019463593   0.18917  -0.16995  -0.33987  -0.21160
  20   34780.1    287.5   0.128635302   1.21760   0.46753  -0.99949   0.00562
  21   35007.0    285.7   0.118761572   1.11686  -0.30879  -0.07474   1.00793
  22   35540.9    281.4   0.057284154   0.53062   0.58700  -0.43132  -0.00395
  23   35712.3    280.0   0.159802484   1.47313   0.60041   1.04694  -0.12865
  24   35854.8    278.9   0.029374291   0.26971  -0.48807   0.06313   0.16588
  25   36151.2    276.6   0.003787498   0.03449   0.01579   0.07009   0.17126
  26   36894.2    271.0   0.125210702   1.11727   0.84361   0.19513   0.60623
  27   37110.8    269.5   0.156959976   1.39240  -0.06762   0.25749   1.14958
  28   37363.7    267.6   0.049664158   0.43759   0.07901  -0.56566  -0.33373
  29   37687.1    265.3   0.039754761   0.34727  -0.10934   0.10776   0.56895
  30   38063.5    262.7   0.137047992   1.18533   0.78265  -0.04876   0.75526
  31   38411.0    260.3   0.353523846   3.02997  -0.82695  -0.46043  -1.46086
  32   38588.3    259.1   0.248580128   2.12074   1.23655   0.69163   0.33666
  33   38686.6    258.5   0.311042619   2.64689  -1.12307  -1.01058  -0.60360
  34   38721.8    258.3   0.281424207   2.39266   0.96326  -0.92494  -0.78057
  35   38994.2    256.4   0.182947438   1.54455   0.48348   0.99438   0.56745
  36   39269.4    254.7   0.020816665   0.17451   0.01581   0.40979   0.07962
  37   39406.0    253.8   0.032558925   0.27201   0.19659  -0.19700   0.44108
  38   39452.9    253.5   0.065361364   0.54540   0.64553   0.19145  -0.30339
  39   39662.7    252.1   0.040417559   0.33548  -0.55026   0.18060  -0.00869

FINAL SINGLE POINT ENERGY     -5833.638878228303

DIPOLE MOMENT
-------------
                                X             Y             Z
Electronic contribution:    -44.69024       8.43410      14.31738
Nuclear contribution   :     46.41844      -8.31758     -13.07792
                        -----------------------------------------
Total Dipole Moment    :      1.72821       0.11652       1.23946
                        -----------------------------------------
Magnitude (a.u.)       :      2.12991
Magnitude (Debye)      :      5.41381

Rotational constants in cm-1:     0.001107     0.000157     0.000145
Rotational constants in MHz :    33.172783     4.716246     4.358057

                             ****ORCA TERMINATED NORMALLY****
TOTAL RUN TIME: 0 days 0 hours 7 minutes 35 seconds 801 msec
