                         Program Version 4.2.0 -  RELEASE  -
|  1> # ORCA input file
|  2> # SCF done       -146.428751446803          0.000481410539
|  3> ! CAM-B3LYP def2-SVP def2/J RIJCOSX Grid4 TightSCF
|  4> %maxcore 5000
|  5> %tddft
|  6>     Mode sTDDFT
|  7>     Ethresh 5.0
|  8>     maxcore 5000
|  9> end
| 10>
| 11> %pal
| 12>   nprocs 6
| 13>   end
| 14> * xyz 0 1
| 15>    C        3.46188         0.57209        -5.98904
| 16>    C        2.87903         1.39099        -6.90652
| 17>    S        2.64725         2.97742        -6.26896
| 18>    C        3.34928         2.53266        -4.73097
| 19>   Cl        3.48698         3.65045        -3.46651
| 20>    C        3.73124         1.22431        -4.74449
| 21>    C        4.35426         0.28458        -3.80836
| 22>    O        4.69136         0.51471        -2.66839
| 23>    C        4.48155        -0.99112        -4.57265
| 24>    C        3.89699        -0.80692        -5.89853
| 25>    C        3.73335        -1.72606        -6.90109
| 26>    C        3.13667        -1.36658        -8.12938
| 27>    N        2.65684        -1.09810        -9.13608
| 28>    C        4.09126        -3.08886        -6.87106
| 29>    N        4.34590        -4.20776        -6.92275
| 30>    C        5.07689        -2.15690        -4.18423
| 31>    C        5.68063        -2.55374        -2.96875
| 32>    S        6.39269        -4.15668        -2.94276
| 33>    C        6.87458        -3.99601        -1.29386
| 34>    C        6.48948        -2.74490        -0.79535
| 35>    C        5.82510        -1.94693        -1.73654
| 36>    C        6.71793        -2.28554         0.51452
| 37>    N        6.88086        -1.87468         1.57334
| 38>    C        7.55791        -5.07854        -0.66647
| 39>    C        7.95828        -5.10120         0.62040
| 40>    C        8.64105        -6.19219         1.27629
| 41>    C        8.83783        -6.13182         2.65801
| 42>    C        9.48265        -7.17472         3.32055
| 43>    C        9.91229        -8.25253         2.53327
| 44>    N        9.74711        -8.31531         1.22861
| 45>    C        9.13571        -7.32451         0.61247
| 46>    C        9.69723        -7.16351         4.75071
| 47>    S       10.48862        -8.48631         5.54809
| 48>    C       10.32658        -7.74887         7.11318
| 49>    C        9.68128        -6.51006         7.00462
| 50>    C        9.34862        -6.20570         5.66484
| 51>    C        9.32313        -5.54878         8.03906
| 52>    O        9.35021        -5.68514         9.23825
| 53>    C       10.90828        -8.47521         8.18630
| 54>    C       10.95911        -8.10195         9.48804
| 55>    C       11.61283        -8.87092        10.48125
| 56>    C       11.93302        -8.43815        11.73093
| 57>    C       12.25538        -9.42264        12.80877
| 58>    O       12.51053       -10.59357        12.66126
| 59>    C       12.13185        -8.64942        14.05124
| 60>    C       12.19112        -8.89065        15.39101
| 61>    S       11.91963        -7.41747        16.29209
| 62>    C       11.74089        -6.49058        14.84622
| 63>    C       11.87436        -7.27197        13.74234
| 64>    C       11.87726        -7.10366        12.30015
| 65>    C       12.00508        -5.90251        11.65549
| 66>    C       11.96162        -4.68544        12.36874
| 67>    N       11.92294        -3.69086        12.93889
| 68>    C       12.30809        -5.73575        10.28844
| 69>    N       12.62434        -5.53443         9.20358
| 70>   Cl       12.47896       -10.36369        16.17661
| 71>    H        2.57001         1.17979        -7.91083
| 72>    H        5.10820        -2.93859        -4.93467
| 73>    H        5.46332        -0.95714        -1.52292
| 74>    H        7.73640        -5.93055        -1.30801
| 75>    H        7.75206        -4.24722         1.25054
| 76>    H        8.47796        -5.27180         3.20272
| 77>    H       10.41453        -9.09827         2.98544
| 78>    H        9.04624        -7.43649        -0.45854
| 79>    H        8.85092        -5.29013         5.39879
| 80>    H        8.96537        -4.59775         7.60269
| 81>    H       11.39922        -9.39589         7.89039
| 82>    H       10.46938        -7.19085         9.79587
| 83>    H       11.82568        -9.91355        10.26910
| 84>    H       11.54049        -5.43988        14.91557
| 85> *
| 86>
| 87>                          ****END OF INPUT****

CARTESIAN COORDINATES (ANGSTROEM)
---------------------------------
  C      3.461880    0.572090   -5.989040
  C      2.879030    1.390990   -6.906520
  S      2.647250    2.977420   -6.268960
  C      3.349280    2.532660   -4.730970
  Cl     3.486980    3.650450   -3.466510
  C      3.731240    1.224310   -4.744490
  C      4.354260    0.284580   -3.808360
  O      4.691360    0.514710   -2.668390
  C      4.481550   -0.991120   -4.572650
  C      3.896990   -0.806920   -5.898530
  C      3.733350   -1.726060   -6.901090
  C      3.136670   -1.366580   -8.129380
  N      2.656840   -1.098100   -9.136080
  C      4.091260   -3.088860   -6.871060
  N      4.345900   -4.207760   -6.922750
  C      5.076890   -2.156900   -4.184230
  C      5.680630   -2.553740   -2.968750
  S      6.392690   -4.156680   -2.942760
  C      6.874580   -3.996010   -1.293860
  C      6.489480   -2.744900   -0.795350
  C      5.825100   -1.946930   -1.736540
  C      6.717930   -2.285540    0.514520
  N      6.880860   -1.874680    1.573340
  C      7.557910   -5.078540   -0.666470
  C      7.958280   -5.101200    0.620400
  C      8.641050   -6.192190    1.276290
  C      8.837830   -6.131820    2.658010
  C      9.482650   -7.174720    3.320550
  C      9.912290   -8.252530    2.533270
  N      9.747110   -8.315310    1.228610
  C      9.135710   -7.324510    0.612470
  C      9.697230   -7.163510    4.750710
  S     10.488620   -8.486310    5.548090
  C     10.326580   -7.748870    7.113180
  C      9.681280   -6.510060    7.004620
  C      9.348620   -6.205700    5.664840
  C      9.323130   -5.548780    8.039060
  O      9.350210   -5.685140    9.238250
  C     10.908280   -8.475210    8.186300
  C     10.959110   -8.101950    9.488040
  C     11.612830   -8.870920   10.481250
  C     11.933020   -8.438150   11.730930
  C     12.255380   -9.422640   12.808770
  O     12.510530  -10.593570   12.661260
  C     12.131850   -8.649420   14.051240
  C     12.191120   -8.890650   15.391010
  S     11.919630   -7.417470   16.292090
  C     11.740890   -6.490580   14.846220
  C     11.874360   -7.271970   13.742340
  C     11.877260   -7.103660   12.300150
  C     12.005080   -5.902510   11.655490
  C     11.961620   -4.685440   12.368740
  N     11.922940   -3.690860   12.938890
  C     12.308090   -5.735750   10.288440
  N     12.624340   -5.534430    9.203580
  Cl    12.478960  -10.363690   16.176610
  H      2.570010    1.179790   -7.910830
  H      5.108200   -2.938590   -4.934670
  H      5.463320   -0.957140   -1.522920
  H      7.736400   -5.930550   -1.308010
  H      7.752060   -4.247220    1.250540
  H      8.477960   -5.271800    3.202720
  H     10.414530   -9.098270    2.985440
  H      9.046240   -7.436490   -0.458540
  H      8.850920   -5.290130    5.398790
  H      8.965370   -4.597750    7.602690
  H     11.399220   -9.395890    7.890390
  H     10.469380   -7.190850    9.795870
  H     11.825680   -9.913550   10.269100
  H     11.540490   -5.439880   14.915570

 Total Charge           Charge          ....    0
 Multiplicity           Mult            ....    1
 Number of Electrons    NEL             ....  424
 Basis Dimension        Dim             ....  878

ORBITAL ENERGIES
----------------

  NO   OCC          E(Eh)            E(eV)
   0   2.0000    -101.621744     -2765.2682
   1   2.0000    -101.614289     -2765.0654
   2   2.0000     -88.998109     -2421.7617
   3   2.0000     -88.992990     -2421.6224
   4   2.0000     -88.989508     -2421.5276
   5   2.0000     -88.983903     -2421.3751
   6   2.0000     -19.231351      -523.3117
   7   2.0000     -19.226136      -523.1698
   8   2.0000     -19.216045      -522.8952
   9   2.0000     -14.428503      -392.6195
  10   2.0000     -14.424019      -392.4975
  11   2.0000     -14.422368      -392.4526
  12   2.0000     -14.421734      -392.4353
  13   2.0000     -14.416559      -392.2945
  14   2.0000     -14.413730      -392.2175
  15   2.0000     -10.387736      -282.6647
  16   2.0000     -10.381122      -282.4847
  17   2.0000     -10.372623      -282.2534
  18   2.0000     -10.372348      -282.2459
  19   2.0000     -10.371403      -282.2202
  20   2.0000     -10.355503      -281.7876
  21   2.0000     -10.354637      -281.7640
  22   2.0000     -10.353096      -281.7221
  23   2.0000     -10.345866      -281.5253
  24   2.0000     -10.344633      -281.4918
  25   2.0000     -10.339173      -281.3432
  26   2.0000     -10.337149      -281.2881
  27   2.0000     -10.335916      -281.2546
  28   2.0000     -10.334429      -281.2141
  29   2.0000     -10.331749      -281.1412
  30   2.0000     -10.330829      -281.1162
  31   2.0000     -10.329134      -281.0700
  32   2.0000     -10.326370      -280.9948
  33   2.0000     -10.325465      -280.9702
  34   2.0000     -10.325205      -280.9631
  35   2.0000     -10.324637      -280.9476
  36   2.0000     -10.323514      -280.9171
  37   2.0000     -10.318338      -280.7763
  38   2.0000     -10.317423      -280.7514
  39   2.0000     -10.317250      -280.7467
  40   2.0000     -10.316777      -280.7338
  41   2.0000     -10.315484      -280.6986
  42   2.0000     -10.314835      -280.6809
  43   2.0000     -10.314069      -280.6601
  44   2.0000     -10.313147      -280.6350
  45   2.0000     -10.312814      -280.6259
  46   2.0000     -10.311939      -280.6021
  47   2.0000     -10.311857      -280.5999
  48   2.0000     -10.309942      -280.5478
  49   2.0000     -10.309445      -280.5343
  50   2.0000     -10.304740      -280.4062
  51   2.0000     -10.302939      -280.3572
  52   2.0000     -10.302617      -280.3485
  53   2.0000     -10.301409      -280.3156
  54   2.0000     -10.296845      -280.1914
  55   2.0000     -10.290428      -280.0168
  56   2.0000      -9.576479      -260.5892
  57   2.0000      -9.569074      -260.3877
  58   2.0000      -8.093856      -220.2450
  59   2.0000      -8.088797      -220.1074
  60   2.0000      -8.085229      -220.0103
  61   2.0000      -8.079590      -219.8568
  62   2.0000      -7.347092      -199.9245
  63   2.0000      -7.339710      -199.7237
  64   2.0000      -7.336538      -199.6374
  65   2.0000      -7.335989      -199.6224
  66   2.0000      -7.329109      -199.4352
  67   2.0000      -7.328579      -199.4208
  68   2.0000      -6.063222      -164.9887
  69   2.0000      -6.058620      -164.8634
  70   2.0000      -6.057814      -164.8415
  71   2.0000      -6.056123      -164.7955
  72   2.0000      -6.054632      -164.7549
  73   2.0000      -6.053806      -164.7324
  74   2.0000      -6.051184      -164.6611
  75   2.0000      -6.050022      -164.6295
  76   2.0000      -6.048672      -164.5927
  77   2.0000      -6.047441      -164.5592
  78   2.0000      -6.044496      -164.4791
  79   2.0000      -6.042077      -164.4133
  80   2.0000      -1.148127       -31.2421
  81   2.0000      -1.138796       -30.9882
  82   2.0000      -1.132648       -30.8209
  83   2.0000      -1.058674       -28.8080
  84   2.0000      -1.043622       -28.3984
  85   2.0000      -1.034410       -28.1477
  86   2.0000      -1.030245       -28.0344
  87   2.0000      -1.023746       -27.8576
  88   2.0000      -1.013244       -27.5718
  89   2.0000      -1.012304       -27.5462
  90   2.0000      -1.004915       -27.3451
  91   2.0000      -1.002605       -27.2823
  92   2.0000      -0.993649       -27.0386
  93   2.0000      -0.993549       -27.0359
  94   2.0000      -0.984565       -26.7914
  95   2.0000      -0.960942       -26.1486
  96   2.0000      -0.952459       -25.9177
  97   2.0000      -0.947142       -25.7730
  98   2.0000      -0.933627       -25.4053
  99   2.0000      -0.921640       -25.0791
 100   2.0000      -0.913622       -24.8609
 101   2.0000      -0.906984       -24.6803
 102   2.0000      -0.900729       -24.5101
 103   2.0000      -0.887373       -24.1467
 104   2.0000      -0.877720       -23.8840
 105   2.0000      -0.874726       -23.8025
 106   2.0000      -0.860134       -23.4054
 107   2.0000      -0.838046       -22.8044
 108   2.0000      -0.831432       -22.6244
 109   2.0000      -0.829073       -22.5602
 110   2.0000      -0.823182       -22.3999
 111   2.0000      -0.792550       -21.5664
 112   2.0000      -0.783296       -21.3146
 113   2.0000      -0.763513       -20.7762
 114   2.0000      -0.761884       -20.7319
 115   2.0000      -0.754767       -20.5383
 116   2.0000      -0.750638       -20.4259
 117   2.0000      -0.731121       -19.8948
 118   2.0000      -0.724967       -19.7274
 119   2.0000      -0.713788       -19.4232
 120   2.0000      -0.703607       -19.1461
 121   2.0000      -0.695689       -18.9306
 122   2.0000      -0.691100       -18.8058
 123   2.0000      -0.686911       -18.6918
 124   2.0000      -0.683017       -18.5858
 125   2.0000      -0.672173       -18.2908
 126   2.0000      -0.662392       -18.0246
 127   2.0000      -0.645939       -17.5769
 128   2.0000      -0.637681       -17.3522
 129   2.0000      -0.633799       -17.2465
 130   2.0000      -0.629695       -17.1349
 131   2.0000      -0.622690       -16.9443
 132   2.0000      -0.620025       -16.8717
 133   2.0000      -0.612264       -16.6605
 134   2.0000      -0.610961       -16.6251
 135   2.0000      -0.604844       -16.4586
 136   2.0000      -0.594520       -16.1777
 137   2.0000      -0.588111       -16.0033
 138   2.0000      -0.579501       -15.7690
 139   2.0000      -0.572995       -15.5920
 140   2.0000      -0.566929       -15.4269
 141   2.0000      -0.557399       -15.1676
 142   2.0000      -0.556451       -15.1418
 143   2.0000      -0.553991       -15.0749
 144   2.0000      -0.547195       -14.8899
 145   2.0000      -0.546747       -14.8778
 146   2.0000      -0.542002       -14.7486
 147   2.0000      -0.535061       -14.5598
 148   2.0000      -0.530803       -14.4439
 149   2.0000      -0.530674       -14.4404
 150   2.0000      -0.528064       -14.3694
 151   2.0000      -0.526778       -14.3344
 152   2.0000      -0.522732       -14.2243
 153   2.0000      -0.520258       -14.1569
 154   2.0000      -0.517120       -14.0716
 155   2.0000      -0.511880       -13.9289
 156   2.0000      -0.511611       -13.9216
 157   2.0000      -0.511137       -13.9088
 158   2.0000      -0.506763       -13.7897
 159   2.0000      -0.504796       -13.7362
 160   2.0000      -0.499975       -13.6050
 161   2.0000      -0.496487       -13.5101
 162   2.0000      -0.495853       -13.4928
 163   2.0000      -0.495436       -13.4815
 164   2.0000      -0.491105       -13.3637
 165   2.0000      -0.490726       -13.3533
 166   2.0000      -0.484128       -13.1738
 167   2.0000      -0.480948       -13.0873
 168   2.0000      -0.474772       -12.9192
 169   2.0000      -0.468988       -12.7618
 170   2.0000      -0.461271       -12.5518
 171   2.0000      -0.458953       -12.4887
 172   2.0000      -0.458286       -12.4706
 173   2.0000      -0.456563       -12.4237
 174   2.0000      -0.454666       -12.3721
 175   2.0000      -0.452663       -12.3176
 176   2.0000      -0.451653       -12.2901
 177   2.0000      -0.449897       -12.2423
 178   2.0000      -0.448688       -12.2094
 179   2.0000      -0.447676       -12.1819
 180   2.0000      -0.445727       -12.1288
 181   2.0000      -0.442449       -12.0397
 182   2.0000      -0.441465       -12.0129
 183   2.0000      -0.440754       -11.9935
 184   2.0000      -0.437685       -11.9100
 185   2.0000      -0.437254       -11.8983
 186   2.0000      -0.436436       -11.8760
 187   2.0000      -0.426835       -11.6148
 188   2.0000      -0.423049       -11.5117
 189   2.0000      -0.422228       -11.4894
 190   2.0000      -0.418946       -11.4001
 191   2.0000      -0.416987       -11.3468
 192   2.0000      -0.409397       -11.1403
 193   2.0000      -0.407545       -11.0899
 194   2.0000      -0.405284       -11.0283
 195   2.0000      -0.400280       -10.8922
 196   2.0000      -0.391115       -10.6428
 197   2.0000      -0.379085       -10.3154
 198   2.0000      -0.354503        -9.6465
 199   2.0000      -0.351747        -9.5715
 200   2.0000      -0.350610        -9.5406
 201   2.0000      -0.349963        -9.5230
 202   2.0000      -0.344311        -9.3692
 203   2.0000      -0.342910        -9.3311
 204   2.0000      -0.341630        -9.2962
 205   2.0000      -0.340321        -9.2606
 206   2.0000      -0.336182        -9.1480
 207   2.0000      -0.328525        -8.9396
 208   2.0000      -0.317436        -8.6379
 209   2.0000      -0.308978        -8.4077
 210   2.0000      -0.286938        -7.8080
 211   2.0000      -0.276023        -7.5110
 212   0.0000      -0.109636        -2.9833
 213   0.0000      -0.103525        -2.8171
 214   0.0000      -0.067862        -1.8466
 215   0.0000      -0.055802        -1.5184
 216   0.0000      -0.052633        -1.4322

MULLIKEN ATOMIC CHARGES
-----------------------
   0 C :    0.029311
   1 C :   -0.128240
   2 S :    0.190771
   3 C :   -0.173359
   4 Cl:    0.003458
   5 C :    0.081826
   6 C :    0.161829
   7 O :   -0.139927
   8 C :   -0.100858
   9 C :    0.301416
  10 C :   -0.345900
  11 C :   -0.191940
  12 N :    0.157527
  13 C :   -0.176108
  14 N :    0.153747
  15 C :    0.053032
  16 C :   -0.103726
  17 S :    0.177659
  18 C :   -0.049674
  19 C :   -0.090579
  20 C :    0.033463
  21 C :   -0.157814
  22 N :    0.117325
  23 C :    0.069296
  24 C :   -0.005973
  25 C :    0.076159
  26 C :   -0.048385
  27 C :    0.134193
  28 C :   -0.039147
  29 N :   -0.041494
  30 C :   -0.012686
  31 C :   -0.054053
  32 S :    0.147945
  33 C :   -0.092609
  34 C :    0.041309
  35 C :   -0.036326
  36 C :    0.167794
  37 O :   -0.179641
  38 C :    0.059844
  39 C :    0.002201
  40 C :    0.020624
  41 C :   -0.115221
  42 C :    0.139494
  43 O :   -0.127030
  44 C :    0.080968
  45 C :   -0.172363
  46 S :    0.181559
  47 C :   -0.127918
  48 C :    0.020587
  49 C :    0.268122
  50 C :   -0.296589
  51 C :   -0.191549
  52 N :    0.152405
  53 C :   -0.205434
  54 N :    0.166366
  55 Cl:   -0.002603
  56 H :    0.055758
  57 H :    0.004425
  58 H :    0.029917
  59 H :   -0.008292
  60 H :    0.006572
  61 H :   -0.000343
  62 H :    0.013457
  63 H :    0.005626
  64 H :   -0.006513
  65 H :   -0.003600
  66 H :   -0.003089
  67 H :    0.052057
  68 H :    0.017214
  69 H :    0.053723
Sum of atomic charges:   -0.0000000

LOEWDIN ATOMIC CHARGES
----------------------
   0 C :   -0.060425
   1 C :   -0.147294
   2 S :    0.478739
   3 C :   -0.271723
   4 Cl:    0.194643
   5 C :   -0.116981
   6 C :    0.086191
   7 O :   -0.132147
   8 C :   -0.088144
   9 C :    0.076252
  10 C :   -0.139251
  11 C :   -0.014794
  12 N :   -0.050528
  13 C :   -0.025198
  14 N :   -0.046645
  15 C :    0.047225
  16 C :   -0.182563
  17 S :    0.488062
  18 C :   -0.117322
  19 C :   -0.113946
  20 C :    0.024889
  21 C :   -0.024772
  22 N :   -0.055098
  23 C :   -0.048664
  24 C :    0.021989
  25 C :   -0.047017
  26 C :    0.026574
  27 C :   -0.054780
  28 C :    0.020436
  29 N :   -0.054512
  30 C :    0.033714
  31 C :   -0.163383
  32 S :    0.481701
  33 C :   -0.126686
  34 C :   -0.102344
  35 C :   -0.031964
  36 C :    0.121878
  37 O :   -0.126799
  38 C :   -0.010583
  39 C :   -0.007785
  40 C :    0.065308
  41 C :   -0.079038
  42 C :    0.078861
  43 O :   -0.134188
  44 C :   -0.118124
  45 C :   -0.273136
  46 S :    0.471374
  47 C :   -0.151989
  48 C :   -0.055946
  49 C :    0.068887
  50 C :   -0.125004
  51 C :   -0.013177
  52 N :   -0.049984
  53 C :   -0.018528
  54 N :   -0.051036
  55 Cl:    0.189815
  56 H :    0.038149
  57 H :    0.043750
  58 H :    0.043682
  59 H :    0.031574
  60 H :    0.039796
  61 H :    0.034988
  62 H :    0.016950
  63 H :    0.022180
  64 H :    0.033045
  65 H :    0.005595
  66 H :    0.032222
  67 H :    0.030881
  68 H :    0.044455
  69 H :    0.037693

  Mayer bond orders larger than 0.100000
B(  0-C ,  1-C ) :   1.5455 B(  0-C ,  5-C ) :   1.2226 B(  0-C ,  9-C ) :   0.9927
B(  1-C ,  2-S ) :   1.1642 B(  1-C , 56-H ) :   0.9527 B(  2-S ,  3-C ) :   1.1513
B(  3-C ,  4-Cl) :   1.1309 B(  3-C ,  5-C ) :   1.4734 B(  5-C ,  6-C ) :   0.9654
B(  6-C ,  7-O ) :   2.1790 B(  6-C ,  8-C ) :   0.9292 B(  8-C ,  9-C ) :   1.0823
B(  8-C , 15-C ) :   1.6353 B(  9-C , 10-C ) :   1.6373 B( 10-C , 11-C ) :   1.1542
B( 10-C , 13-C ) :   1.1348 B( 11-C , 12-N ) :   2.9879 B( 13-C , 14-N ) :   2.9615
B( 15-C , 16-C ) :   1.1890 B( 15-C , 57-H ) :   0.9065 B( 16-C , 17-S ) :   1.1004
B( 16-C , 20-C ) :   1.4412 B( 17-S , 18-C ) :   1.1873 B( 18-C , 19-C ) :   1.4089
B( 18-C , 23-C ) :   1.1369 B( 19-C , 20-C ) :   1.3002 B( 19-C , 21-C ) :   1.1172
B( 20-C , 58-H ) :   0.9808 B( 21-C , 22-N ) :   2.9653 B( 23-C , 24-C ) :   1.6924
B( 23-C , 59-H ) :   0.9433 B( 24-C , 25-C ) :   1.0653 B( 24-C , 60-H ) :   0.9694
B( 25-C , 26-C ) :   1.3638 B( 25-C , 30-C ) :   1.3127 B( 26-C , 27-C ) :   1.3696
B( 26-C , 61-H ) :   0.9954 B( 27-C , 28-C ) :   1.3182 B( 27-C , 31-C ) :   1.0469
B( 28-C , 29-N ) :   1.5691 B( 28-C , 62-H ) :   0.9811 B( 29-N , 30-C ) :   1.5774
B( 30-C , 63-H ) :   0.9842 B( 31-C , 32-S ) :   1.1286 B( 31-C , 35-C ) :   1.5401
B( 32-S , 33-C ) :   1.1647 B( 33-C , 34-C ) :   1.4136 B( 33-C , 38-C ) :   1.1358
B( 34-C , 35-C ) :   1.2208 B( 34-C , 36-C ) :   0.9981 B( 35-C , 64-H ) :   0.9892
B( 36-C , 37-O ) :   2.0807 B( 36-C , 65-H ) :   0.9605 B( 37-O , 67-H ) :   0.1213
B( 38-C , 39-C ) :   1.6863 B( 38-C , 66-H ) :   0.9569 B( 39-C , 40-C ) :   1.1153
B( 39-C , 67-H ) :   0.9148 B( 40-C , 41-C ) :   1.6380 B( 40-C , 68-H ) :   0.9609
B( 41-C , 42-C ) :   0.9354 B( 41-C , 49-C ) :   1.0391 B( 42-C , 43-O ) :   2.2844
B( 42-C , 44-C ) :   0.9262 B( 44-C , 45-C ) :   1.4858 B( 44-C , 48-C ) :   1.2197
B( 45-C , 46-S ) :   1.1509 B( 45-C , 55-Cl) :   1.1268 B( 46-S , 47-C ) :   1.1555
B( 47-C , 48-C ) :   1.5564 B( 47-C , 69-H ) :   0.9551 B( 48-C , 49-C ) :   1.0116
B( 49-C , 50-C ) :   1.6639 B( 50-C , 51-C ) :   1.1400 B( 50-C , 53-C ) :   1.1550
B( 51-C , 52-N ) :   2.9976 B( 53-C , 54-N ) :   2.9971

-----------------------------------------------------------------------------
         ABSORPTION SPECTRUM VIA TRANSITION ELECTRIC DIPOLE MOMENTS
-----------------------------------------------------------------------------
State   Energy  Wavelength   fosc         T2         TX        TY        TZ
        (cm-1)    (nm)                  (au**2)     (au)      (au)      (au)
-----------------------------------------------------------------------------
   0   20687.2    483.4   1.497376869  23.82896  -1.90423   0.75915  -4.43019
   1   22505.6    444.3   0.875655627  12.80910   1.64737  -2.21362   2.27929
   2   26537.4    376.8   0.015726411   0.19510  -0.11896  -0.08779  -0.41622
   3   26913.0    371.6   0.057193443   0.69962  -0.06077  -0.28511   0.78399
   4   27893.7    358.5   0.003011519   0.03554   0.03124  -0.01529   0.18529
   5   28478.3    351.1   0.094299583   1.09011  -0.38315   0.75930  -0.60562
   6   28536.2    350.4   0.006988123   0.08062   0.11490  -0.25951  -0.00864
   7   28699.7    348.4   0.006354669   0.07289  -0.13143   0.19910  -0.12641
   8   29808.8    335.5   0.004612445   0.05094  -0.19321   0.11028   0.03806
   9   31016.8    322.4   0.416719111   4.42305  -0.62356   1.66748  -1.11970
  10   31306.7    319.4   0.108433338   1.14025  -0.26656   1.03190   0.06620
  11   32168.0    310.9   0.414103820   4.23800  -0.26292   1.20605  -1.64752
  12   32638.6    306.4   0.123219181   1.24286   0.24453  -0.90505  -0.60328
  13   33255.1    300.7   0.049424692   0.48928  -0.40150   0.16235  -0.54930
  14   33582.2    297.8   0.001040234   0.01020  -0.04615   0.06297  -0.06405
  15   34474.8    290.1   0.063757296   0.60884  -0.00694  -0.39469  -0.67306
  16   34673.3    288.4   0.014386163   0.13659   0.16555  -0.22126   0.24542
  17   35116.7    284.8   0.049104679   0.46035  -0.20537   0.64561   0.03684
  18   35462.7    282.0   0.026347438   0.24459   0.08469   0.45001  -0.18686
  19   35743.5    279.8   0.061066564   0.56245  -0.07663  -0.08980  -0.74061
  20   35760.6    279.6   0.046045524   0.42390   0.03092   0.06235   0.64734
  21   36190.0    276.3   0.054131631   0.49242   0.27316  -0.47826   0.43483
  22   36686.1    272.6   0.095992498   0.86141  -0.04988  -0.42536  -0.82340
  23   37379.0    267.5   0.004059419   0.03575   0.02500  -0.00644   0.18731
  24   37587.2    266.0   0.003935004   0.03447  -0.06919  -0.01047  -0.17196
  25   37625.1    265.8   0.538343749   4.71039  -0.23223   2.00905   0.78750
  26   37958.1    263.4   0.620037761   5.37761   0.16743  -0.07169  -2.31181
  27   38247.6    261.5   0.240901397   2.07353   0.01198  -1.21381   0.77463
  28   39688.1    252.0   0.009598545   0.07962   0.05841   0.05295   0.27093
  29   40299.9    248.1   0.028808217   0.23534  -0.12033   0.39376   0.25654

FINAL SINGLE POINT ENERGY     -4634.527790712719

DIPOLE MOMENT
-------------
                                X             Y             Z
Electronic contribution:     -6.21000      15.54386       8.73245
Nuclear contribution   :      5.44070     -15.52119      -9.01825
                        -----------------------------------------
Total Dipole Moment    :     -0.76930       0.02267      -0.28580
                        -----------------------------------------
Magnitude (a.u.)       :      0.82099
Magnitude (Debye)      :      2.08679

Rotational constants in cm-1:     0.003469     0.000239     0.000225
Rotational constants in MHz :   104.004499     7.164300     6.759461

                             ****ORCA TERMINATED NORMALLY****
TOTAL RUN TIME: 0 days 0 hours 5 minutes 6 seconds 350 msec
