                         Program Version 4.2.0 -  RELEASE  -
|  1> # ORCA input file
|  2> # SCF done       -188.093772286809          0.000460935648
|  3> ! CAM-B3LYP def2-SVP def2/J RIJCOSX Grid4 TightSCF
|  4> %maxcore 5000
|  5> %tddft
|  6>     Mode sTDDFT
|  7>     Ethresh 5.0
|  8>     maxcore 5000
|  9> end
| 10>
| 11> %pal
| 12>   nprocs 6
| 13>   end
| 14> * xyz 0 1
| 15>    C        0.58268         1.49515        -6.95724
| 16>    C       -0.31583         2.33951        -7.53180
| 17>    S       -1.17137         1.56190        -8.81334
| 18>    C       -0.30153         0.06414        -8.57206
| 19>   Cl       -0.60455        -1.29742        -9.53307
| 20>    C        0.59318         0.19253        -7.55243
| 21>    C        1.56935        -0.66369        -6.86858
| 22>    O        1.78615        -1.83732        -7.06186
| 23>    C        2.16760         0.21236        -5.81443
| 24>    C        1.56266         1.53284        -5.89045
| 25>    C        1.87369         2.64662        -5.15587
| 26>    C        1.19908         3.86896        -5.35917
| 27>    N        0.65674         4.86854        -5.51076
| 28>    C        2.87468         2.72746        -4.16732
| 29>    N        3.68546         2.86608        -3.36643
| 30>    C        3.01203        -0.21781        -4.83419
| 31>    C        3.71401        -1.45017        -4.77464
| 32>    C        4.08269        -2.07748        -3.60203
| 33>    C        4.77812        -3.28222        -3.91371
| 34>    C        4.85372        -3.34056        -5.38071
| 35>    C        4.21179        -2.25333        -5.88495
| 36>    C        5.41664        -4.36361        -6.15574
| 37>    N        5.83433        -5.19564        -6.82754
| 38>    C        5.27733        -4.21238        -3.02614
| 39>    C        6.08613        -5.33883        -3.31803
| 40>    C        6.31217        -6.05632        -2.15386
| 41>    C        5.62906        -5.36209        -1.07036
| 42>    C        5.03632        -4.24759        -1.57201
| 43>    C        4.29020        -3.33718        -0.81483
| 44>    N        3.67879        -2.61853        -0.15994
| 45>    C        7.09898        -7.23220        -2.10057
| 46>    N        7.11027        -8.19720        -1.12273
| 47>    C        6.24631        -8.31998         0.02894
| 48>    C        4.78810        -8.53385        -0.36289
| 49>    C        8.00769        -9.23914        -1.42738
| 50>    O        8.16526       -10.21213        -0.71741
| 51>    C        8.61347        -8.84382        -2.67894
| 52>    C        8.03394        -7.62428        -3.07102
| 53>    C        8.68897        -7.18817        -4.29366
| 54>    O        8.56599        -6.19899        -4.97726
| 55>    N        9.60753        -8.21953        -4.57597
| 56>    C       10.47365        -8.14529        -5.72943
| 57>    C       11.87645        -7.67221        -5.35817
| 58>    C        9.58651        -9.20828        -3.62766
| 59>    C       10.40725       -10.35140        -3.66124
| 60>    C       10.35605       -11.32564        -2.70373
| 61>    C       11.16835       -12.48086        -2.70168
| 62>    C       12.16788       -12.84957        -3.58301
| 63>    C       12.71551       -14.09910        -3.17707
| 64>    C       11.97625       -14.49743        -1.96327
| 65>    C       11.06816       -13.52626        -1.69022
| 66>    C       12.14973       -15.64850        -1.17974
| 67>    N       12.21903       -16.55620        -0.48104
| 68>    C       13.74073       -14.78858        -3.78185
| 69>    C       14.28020       -16.05102        -3.39764
| 70>    C       15.31806       -16.36637        -4.24161
| 71>    C       15.45273       -15.29227        -5.21741
| 72>    C       14.51766       -14.34306        -4.95644
| 73>    C       14.34955       -13.15741        -5.67746
| 74>    N       14.22897       -12.18968        -6.28616
| 75>    C       16.15661       -17.51603        -4.24040
| 76>    S       17.23292       -17.81038        -5.58398
| 77>    C       17.78550       -19.26664        -4.87889
| 78>    C       17.19979       -19.52779        -3.66975
| 79>    C       16.27864       -18.52358        -3.30915
| 80>    S       15.37693       -18.57060        -1.76216
| 81>    O       14.01752       -18.91911        -2.06692
| 82>    O       15.63182       -17.34985        -1.04928
| 83>    C       16.15162       -19.95550        -0.87708
| 84>    C       16.36901       -21.07401        -1.87330
| 85>    C       17.50416       -20.73399        -2.83703
| 86>    H       -0.54162         3.35957        -7.29213
| 87>    H        3.15069         0.42146        -3.96943
| 88>    H        3.86540        -1.73006        -2.61041
| 89>    H        4.11373        -2.00475        -6.92303
| 90>    H        6.46891        -5.58169        -4.28921
| 91>    H        5.62536        -5.64549        -0.03587
| 92>    H        6.36021        -7.44793         0.67752
| 93>    H        6.61356        -9.19629         0.57201
| 94>    H        4.40089        -7.68801        -0.92681
| 95>    H        4.18500        -8.65963         0.53195
| 96>    H        4.69387        -9.42873        -0.97349
| 97>    H       10.01061        -7.42352        -6.40786
| 98>    H       10.50908        -9.12050        -6.22173
| 99>    H       11.82943        -6.68091        -4.91408
|100>    H       12.49296        -7.62428        -6.25102
|101>    H       12.34507        -8.34977        -4.64790
|102>    H       11.09719       -10.45219        -4.48603
|103>    H        9.65610       -11.22279        -1.88459
|104>    H       12.49736       -12.29939        -4.44139
|105>    H       10.37550       -13.50599        -0.86931
|106>    H       13.90836       -16.64467        -2.58897
|107>    H       16.18649       -15.27154        -6.00274
|108>    H       18.51569       -19.86043        -5.39264
|109>    H       15.44981       -20.22526        -0.09240
|110>    H       17.07474       -19.58205        -0.44240
|111>    H       16.60555       -22.00421        -1.35209
|112>    H       15.43968       -21.22103        -2.42870
|113>    H       17.69891       -21.58110        -3.49832
|114>    H       18.42036       -20.55164        -2.26522
|115> *
|116>
|117>                          ****END OF INPUT****

CARTESIAN COORDINATES (ANGSTROEM)
---------------------------------
  C      0.582680    1.495150   -6.957240
  C     -0.315830    2.339510   -7.531800
  S     -1.171370    1.561900   -8.813340
  C     -0.301530    0.064140   -8.572060
  Cl    -0.604550   -1.297420   -9.533070
  C      0.593180    0.192530   -7.552430
  C      1.569350   -0.663690   -6.868580
  O      1.786150   -1.837320   -7.061860
  C      2.167600    0.212360   -5.814430
  C      1.562660    1.532840   -5.890450
  C      1.873690    2.646620   -5.155870
  C      1.199080    3.868960   -5.359170
  N      0.656740    4.868540   -5.510760
  C      2.874680    2.727460   -4.167320
  N      3.685460    2.866080   -3.366430
  C      3.012030   -0.217810   -4.834190
  C      3.714010   -1.450170   -4.774640
  C      4.082690   -2.077480   -3.602030
  C      4.778120   -3.282220   -3.913710
  C      4.853720   -3.340560   -5.380710
  C      4.211790   -2.253330   -5.884950
  C      5.416640   -4.363610   -6.155740
  N      5.834330   -5.195640   -6.827540
  C      5.277330   -4.212380   -3.026140
  C      6.086130   -5.338830   -3.318030
  C      6.312170   -6.056320   -2.153860
  C      5.629060   -5.362090   -1.070360
  C      5.036320   -4.247590   -1.572010
  C      4.290200   -3.337180   -0.814830
  N      3.678790   -2.618530   -0.159940
  C      7.098980   -7.232200   -2.100570
  N      7.110270   -8.197200   -1.122730
  C      6.246310   -8.319980    0.028940
  C      4.788100   -8.533850   -0.362890
  C      8.007690   -9.239140   -1.427380
  O      8.165260  -10.212130   -0.717410
  C      8.613470   -8.843820   -2.678940
  C      8.033940   -7.624280   -3.071020
  C      8.688970   -7.188170   -4.293660
  O      8.565990   -6.198990   -4.977260
  N      9.607530   -8.219530   -4.575970
  C     10.473650   -8.145290   -5.729430
  C     11.876450   -7.672210   -5.358170
  C      9.586510   -9.208280   -3.627660
  C     10.407250  -10.351400   -3.661240
  C     10.356050  -11.325640   -2.703730
  C     11.168350  -12.480860   -2.701680
  C     12.167880  -12.849570   -3.583010
  C     12.715510  -14.099100   -3.177070
  C     11.976250  -14.497430   -1.963270
  C     11.068160  -13.526260   -1.690220
  C     12.149730  -15.648500   -1.179740
  N     12.219030  -16.556200   -0.481040
  C     13.740730  -14.788580   -3.781850
  C     14.280200  -16.051020   -3.397640
  C     15.318060  -16.366370   -4.241610
  C     15.452730  -15.292270   -5.217410
  C     14.517660  -14.343060   -4.956440
  C     14.349550  -13.157410   -5.677460
  N     14.228970  -12.189680   -6.286160
  C     16.156610  -17.516030   -4.240400
  S     17.232920  -17.810380   -5.583980
  C     17.785500  -19.266640   -4.878890
  C     17.199790  -19.527790   -3.669750
  C     16.278640  -18.523580   -3.309150
  S     15.376930  -18.570600   -1.762160
  O     14.017520  -18.919110   -2.066920
  O     15.631820  -17.349850   -1.049280
  C     16.151620  -19.955500   -0.877080
  C     16.369010  -21.074010   -1.873300
  C     17.504160  -20.733990   -2.837030
  H     -0.541620    3.359570   -7.292130
  H      3.150690    0.421460   -3.969430
  H      3.865400   -1.730060   -2.610410
  H      4.113730   -2.004750   -6.923030
  H      6.468910   -5.581690   -4.289210
  H      5.625360   -5.645490   -0.035870
  H      6.360210   -7.447930    0.677520
  H      6.613560   -9.196290    0.572010
  H      4.400890   -7.688010   -0.926810
  H      4.185000   -8.659630    0.531950
  H      4.693870   -9.428730   -0.973490
  H     10.010610   -7.423520   -6.407860
  H     10.509080   -9.120500   -6.221730
  H     11.829430   -6.680910   -4.914080
  H     12.492960   -7.624280   -6.251020
  H     12.345070   -8.349770   -4.647900
  H     11.097190  -10.452190   -4.486030
  H      9.656100  -11.222790   -1.884590
  H     12.497360  -12.299390   -4.441390
  H     10.375500  -13.505990   -0.869310
  H     13.908360  -16.644670   -2.588970
  H     16.186490  -15.271540   -6.002740
  H     18.515690  -19.860430   -5.392640
  H     15.449810  -20.225260   -0.092400
  H     17.074740  -19.582050   -0.442400
  H     16.605550  -22.004210   -1.352090
  H     15.439680  -21.221030   -2.428700
  H     17.698910  -21.581100   -3.498320
  H     18.420360  -20.551640   -2.265220

 Total Charge           Charge          ....    0
 Multiplicity           Mult            ....    1
 Number of Electrons    NEL             ....  514
 Basis Dimension        Dim             .... 1155

ORBITAL ENERGIES
----------------

  NO   OCC          E(Eh)            E(eV)
   0   2.0000    -101.618955     -2765.1924
   1   2.0000     -89.145452     -2425.7711
   2   2.0000     -88.995486     -2421.6903
   3   2.0000     -88.983522     -2421.3647
   4   2.0000     -19.226718      -523.1856
   5   2.0000     -19.203049      -522.5415
   6   2.0000     -19.200156      -522.4628
   7   2.0000     -19.196067      -522.3515
   8   2.0000     -19.193437      -522.2800
   9   2.0000     -14.464363      -393.5953
  10   2.0000     -14.463026      -393.5590
  11   2.0000     -14.422272      -392.4500
  12   2.0000     -14.421919      -392.4404
  13   2.0000     -14.413628      -392.2147
  14   2.0000     -14.413076      -392.1997
  15   2.0000     -14.398123      -391.7928
  16   2.0000     -14.397107      -391.7652
  17   2.0000     -10.384857      -282.5863
  18   2.0000     -10.383047      -282.5371
  19   2.0000     -10.382897      -282.5330
  20   2.0000     -10.378437      -282.4116
  21   2.0000     -10.353747      -281.7398
  22   2.0000     -10.351295      -281.6731
  23   2.0000     -10.350716      -281.6573
  24   2.0000     -10.349494      -281.6240
  25   2.0000     -10.333627      -281.1923
  26   2.0000     -10.331656      -281.1386
  27   2.0000     -10.327465      -281.0246
  28   2.0000     -10.327349      -281.0215
  29   2.0000     -10.325977      -280.9841
  30   2.0000     -10.324685      -280.9490
  31   2.0000     -10.323971      -280.9295
  32   2.0000     -10.323777      -280.9242
  33   2.0000     -10.323425      -280.9147
  34   2.0000     -10.322405      -280.8869
  35   2.0000     -10.318392      -280.7777
  36   2.0000     -10.318023      -280.7677
  37   2.0000     -10.315901      -280.7099
  38   2.0000     -10.315383      -280.6958
  39   2.0000     -10.315334      -280.6945
  40   2.0000     -10.315254      -280.6923
  41   2.0000     -10.314921      -280.6833
  42   2.0000     -10.314858      -280.6815
  43   2.0000     -10.314197      -280.6636
  44   2.0000     -10.313021      -280.6316
  45   2.0000     -10.312192      -280.6090
  46   2.0000     -10.311541      -280.5913
  47   2.0000     -10.310946      -280.5751
  48   2.0000     -10.309759      -280.5428
  49   2.0000     -10.309564      -280.5375
  50   2.0000     -10.308989      -280.5219
  51   2.0000     -10.308585      -280.5109
  52   2.0000     -10.307810      -280.4898
  53   2.0000     -10.305613      -280.4300
  54   2.0000     -10.303663      -280.3769
  55   2.0000     -10.303179      -280.3638
  56   2.0000     -10.302401      -280.3426
  57   2.0000     -10.302249      -280.3385
  58   2.0000     -10.302093      -280.3342
  59   2.0000     -10.300518      -280.2913
  60   2.0000     -10.299704      -280.2692
  61   2.0000     -10.298405      -280.2338
  62   2.0000     -10.297664      -280.2137
  63   2.0000     -10.297632      -280.2128
  64   2.0000     -10.289275      -279.9854
  65   2.0000     -10.286533      -279.9108
  66   2.0000     -10.283119      -279.8179
  67   2.0000     -10.278316      -279.6872
  68   2.0000     -10.273584      -279.5584
  69   2.0000     -10.270861      -279.4843
  70   2.0000     -10.264000      -279.2976
  71   2.0000      -9.573706      -260.5138
  72   2.0000      -8.210245      -223.4121
  73   2.0000      -8.091257      -220.1743
  74   2.0000      -8.079042      -219.8419
  75   2.0000      -7.344361      -199.8502
  76   2.0000      -7.333732      -199.5610
  77   2.0000      -7.333196      -199.5464
  78   2.0000      -6.179364      -168.1490
  79   2.0000      -6.179011      -168.1394
  80   2.0000      -6.178273      -168.1194
  81   2.0000      -6.060647      -164.9186
  82   2.0000      -6.056019      -164.7927
  83   2.0000      -6.053480      -164.7236
  84   2.0000      -6.048218      -164.5804
  85   2.0000      -6.043945      -164.4641
  86   2.0000      -6.041532      -164.3985
  87   2.0000      -1.203197       -32.7407
  88   2.0000      -1.144983       -31.1566
  89   2.0000      -1.143990       -31.1295
  90   2.0000      -1.138153       -30.9707
  91   2.0000      -1.081720       -29.4351
  92   2.0000      -1.074873       -29.2488
  93   2.0000      -1.066086       -29.0097
  94   2.0000      -1.040511       -28.3137
  95   2.0000      -1.021249       -27.7896
  96   2.0000      -1.019803       -27.7503
  97   2.0000      -1.018548       -27.7161
  98   2.0000      -1.010331       -27.4925
  99   2.0000      -1.001541       -27.2533
 100   2.0000      -1.000320       -27.2201
 101   2.0000      -0.998863       -27.1804
 102   2.0000      -0.990600       -26.9556
 103   2.0000      -0.987082       -26.8599
 104   2.0000      -0.984460       -26.7885
 105   2.0000      -0.976891       -26.5826
 106   2.0000      -0.974911       -26.5287
 107   2.0000      -0.956465       -26.0267
 108   2.0000      -0.938987       -25.5511
 109   2.0000      -0.937924       -25.5222
 110   2.0000      -0.919550       -25.0222
 111   2.0000      -0.913563       -24.8593
 112   2.0000      -0.900698       -24.5092
 113   2.0000      -0.889873       -24.2147
 114   2.0000      -0.885546       -24.0969
 115   2.0000      -0.874774       -23.8038
 116   2.0000      -0.866372       -23.5752
 117   2.0000      -0.862106       -23.4591
 118   2.0000      -0.858983       -23.3741
 119   2.0000      -0.850610       -23.1463
 120   2.0000      -0.845233       -23.0000
 121   2.0000      -0.843741       -22.9594
 122   2.0000      -0.834789       -22.7158
 123   2.0000      -0.827722       -22.5235
 124   2.0000      -0.820423       -22.3248
 125   2.0000      -0.814947       -22.1758
 126   2.0000      -0.797139       -21.6913
 127   2.0000      -0.788222       -21.4486
 128   2.0000      -0.770503       -20.9665
 129   2.0000      -0.767055       -20.8726
 130   2.0000      -0.762728       -20.7549
 131   2.0000      -0.757306       -20.6073
 132   2.0000      -0.736423       -20.0391
 133   2.0000      -0.726497       -19.7690
 134   2.0000      -0.724392       -19.7117
 135   2.0000      -0.721975       -19.6459
 136   2.0000      -0.717275       -19.5180
 137   2.0000      -0.712372       -19.3846
 138   2.0000      -0.711112       -19.3503
 139   2.0000      -0.699771       -19.0418
 140   2.0000      -0.693117       -18.8607
 141   2.0000      -0.690097       -18.7785
 142   2.0000      -0.679263       -18.4837
 143   2.0000      -0.674884       -18.3645
 144   2.0000      -0.674138       -18.3442
 145   2.0000      -0.670507       -18.2454
 146   2.0000      -0.656212       -17.8564
 147   2.0000      -0.655168       -17.8280
 148   2.0000      -0.647551       -17.6208
 149   2.0000      -0.643182       -17.5019
 150   2.0000      -0.635491       -17.2926
 151   2.0000      -0.632493       -17.2110
 152   2.0000      -0.616907       -16.7869
 153   2.0000      -0.615454       -16.7473
 154   2.0000      -0.608660       -16.5625
 155   2.0000      -0.606005       -16.4902
 156   2.0000      -0.599345       -16.3090
 157   2.0000      -0.586084       -15.9482
 158   2.0000      -0.585086       -15.9210
 159   2.0000      -0.580382       -15.7930
 160   2.0000      -0.579228       -15.7616
 161   2.0000      -0.575911       -15.6713
 162   2.0000      -0.569615       -15.5000
 163   2.0000      -0.564995       -15.3743
 164   2.0000      -0.558796       -15.2056
 165   2.0000      -0.555328       -15.1113
 166   2.0000      -0.553991       -15.0749
 167   2.0000      -0.548571       -14.9274
 168   2.0000      -0.545025       -14.8309
 169   2.0000      -0.542612       -14.7652
 170   2.0000      -0.538839       -14.6625
 171   2.0000      -0.537635       -14.6298
 172   2.0000      -0.536767       -14.6062
 173   2.0000      -0.535328       -14.5670
 174   2.0000      -0.534434       -14.5427
 175   2.0000      -0.530713       -14.4414
 176   2.0000      -0.528497       -14.3811
 177   2.0000      -0.526999       -14.3404
 178   2.0000      -0.526192       -14.3184
 179   2.0000      -0.524332       -14.2678
 180   2.0000      -0.523673       -14.2499
 181   2.0000      -0.520902       -14.1745
 182   2.0000      -0.519344       -14.1321
 183   2.0000      -0.516399       -14.0519
 184   2.0000      -0.514492       -14.0000
 185   2.0000      -0.510713       -13.8972
 186   2.0000      -0.508303       -13.8316
 187   2.0000      -0.506714       -13.7884
 188   2.0000      -0.504937       -13.7400
 189   2.0000      -0.503488       -13.7006
 190   2.0000      -0.501688       -13.6516
 191   2.0000      -0.494916       -13.4674
 192   2.0000      -0.494000       -13.4424
 193   2.0000      -0.492946       -13.4137
 194   2.0000      -0.488939       -13.3047
 195   2.0000      -0.486907       -13.2494
 196   2.0000      -0.485414       -13.2088
 197   2.0000      -0.483763       -13.1639
 198   2.0000      -0.480854       -13.0847
 199   2.0000      -0.479355       -13.0439
 200   2.0000      -0.476698       -12.9716
 201   2.0000      -0.474285       -12.9060
 202   2.0000      -0.471261       -12.8237
 203   2.0000      -0.466508       -12.6943
 204   2.0000      -0.461820       -12.5667
 205   2.0000      -0.459511       -12.5039
 206   2.0000      -0.458549       -12.4778
 207   2.0000      -0.457098       -12.4383
 208   2.0000      -0.455365       -12.3911
 209   2.0000      -0.454071       -12.3559
 210   2.0000      -0.450734       -12.2651
 211   2.0000      -0.448707       -12.2099
 212   2.0000      -0.448523       -12.2049
 213   2.0000      -0.446847       -12.1593
 214   2.0000      -0.446406       -12.1473
 215   2.0000      -0.444772       -12.1029
 216   2.0000      -0.443675       -12.0730
 217   2.0000      -0.442677       -12.0459
 218   2.0000      -0.435672       -11.8552
 219   2.0000      -0.435127       -11.8404
 220   2.0000      -0.433762       -11.8033
 221   2.0000      -0.432274       -11.7628
 222   2.0000      -0.431855       -11.7514
 223   2.0000      -0.430292       -11.7089
 224   2.0000      -0.429906       -11.6983
 225   2.0000      -0.426923       -11.6172
 226   2.0000      -0.426154       -11.5963
 227   2.0000      -0.421454       -11.4683
 228   2.0000      -0.419038       -11.4026
 229   2.0000      -0.416912       -11.3448
 230   2.0000      -0.415311       -11.3012
 231   2.0000      -0.415224       -11.2988
 232   2.0000      -0.406591       -11.0639
 233   2.0000      -0.404808       -11.0154
 234   2.0000      -0.402276       -10.9465
 235   2.0000      -0.398764       -10.8509
 236   2.0000      -0.395002       -10.7486
 237   2.0000      -0.391209       -10.6453
 238   2.0000      -0.381559       -10.3827
 239   2.0000      -0.377144       -10.2626
 240   2.0000      -0.369776       -10.0621
 241   2.0000      -0.357760        -9.7352
 242   2.0000      -0.356615        -9.7040
 243   2.0000      -0.352272        -9.5858
 244   2.0000      -0.349633        -9.5140
 245   2.0000      -0.342712        -9.3257
 246   2.0000      -0.339617        -9.2414
 247   2.0000      -0.337118        -9.1735
 248   2.0000      -0.327418        -8.9095
 249   2.0000      -0.325716        -8.8632
 250   2.0000      -0.324700        -8.8355
 251   2.0000      -0.317225        -8.6321
 252   2.0000      -0.315154        -8.5758
 253   2.0000      -0.301604        -8.2071
 254   2.0000      -0.295716        -8.0468
 255   2.0000      -0.282502        -7.6873
 256   2.0000      -0.240674        -6.5491
 257   0.0000      -0.142548        -3.8789
 258   0.0000      -0.123822        -3.3694
 259   0.0000      -0.084077        -2.2879
 260   0.0000      -0.063687        -1.7330
 261   0.0000      -0.053203        -1.4477

MULLIKEN ATOMIC CHARGES
-----------------------
   0 C :    0.031337
   1 C :   -0.126886
   2 S :    0.188742
   3 C :   -0.167093
   4 Cl:    0.002737
   5 C :    0.073138
   6 C :    0.139465
   7 O :   -0.127379
   8 C :   -0.098118
   9 C :    0.292228
  10 C :   -0.321922
  11 C :   -0.194864
  12 N :    0.158370
  13 C :   -0.193924
  14 N :    0.171293
  15 C :   -0.037347
  16 C :    0.090419
  17 C :   -0.078072
  18 C :    0.101096
  19 C :   -0.120637
  20 C :    0.064070
  21 C :   -0.177901
  22 N :    0.145070
  23 C :    0.131707
  24 C :   -0.108417
  25 C :    0.038492
  26 C :   -0.031423
  27 C :   -0.089724
  28 C :   -0.185682
  29 N :    0.148405
  30 C :    0.144342
  31 N :   -0.253518
  32 C :    0.094660
  33 C :   -0.007389
  34 C :    0.162129
  35 O :   -0.207406
  36 C :   -0.076738
  37 C :   -0.044545
  38 C :    0.153684
  39 O :   -0.168400
  40 N :   -0.254442
  41 C :    0.091464
  42 C :    0.003904
  43 C :    0.162748
  44 C :   -0.019648
  45 C :    0.014718
  46 C :    0.106120
  47 C :   -0.112732
  48 C :    0.110467
  49 C :   -0.070892
  50 C :   -0.007547
  51 C :   -0.190171
  52 N :    0.157359
  53 C :    0.099259
  54 C :   -0.115401
  55 C :    0.098818
  56 C :   -0.024249
  57 C :   -0.087520
  58 C :   -0.171196
  59 N :    0.123029
  60 C :   -0.120291
  61 S :    0.150338
  62 C :   -0.120376
  63 C :   -0.037238
  64 C :   -0.021303
  65 S :    0.740462
  66 O :   -0.445242
  67 O :   -0.449780
  68 C :   -0.004368
  69 C :   -0.036981
  70 C :    0.120746
  71 H :    0.054824
  72 H :    0.037255
  73 H :    0.014756
  74 H :    0.006013
  75 H :    0.028341
  76 H :   -0.009726
  77 H :    0.026268
  78 H :    0.050632
  79 H :    0.031230
  80 H :    0.029622
  81 H :    0.029309
  82 H :    0.053504
  83 H :    0.032324
  84 H :    0.028218
  85 H :    0.033571
  86 H :    0.018693
  87 H :   -0.011523
  88 H :    0.009202
  89 H :    0.000473
  90 H :    0.011983
  91 H :    0.032167
  92 H :    0.008260
  93 H :    0.025047
  94 H :    0.076514
  95 H :    0.052593
  96 H :    0.029668
  97 H :    0.048178
  98 H :    0.019266
  99 H :    0.029282
Sum of atomic charges:   -0.0000000

LOEWDIN ATOMIC CHARGES
----------------------
   0 C :   -0.059207
   1 C :   -0.148013
   2 S :    0.478018
   3 C :   -0.270977
   4 Cl:    0.194309
   5 C :   -0.117729
   6 C :    0.081079
   7 O :   -0.122701
   8 C :   -0.080777
   9 C :    0.071905
  10 C :   -0.130686
  11 C :   -0.015005
  12 N :   -0.048126
  13 C :   -0.026027
  14 N :   -0.038965
  15 C :    0.075138
  16 C :   -0.028185
  17 C :    0.019643
  18 C :    0.036360
  19 C :   -0.090144
  20 C :    0.073677
  21 C :   -0.032421
  22 N :   -0.053508
  23 C :    0.040145
  24 C :    0.006220
  25 C :   -0.029286
  26 C :    0.047395
  27 C :   -0.076405
  28 C :   -0.033303
  29 N :   -0.057196
  30 C :    0.064487
  31 N :    0.000445
  32 C :    0.035004
  33 C :   -0.060782
  34 C :    0.079560
  35 O :   -0.198001
  36 C :   -0.119521
  37 C :   -0.091775
  38 C :    0.084978
  39 O :   -0.161666
  40 N :    0.004134
  41 C :    0.037597
  42 C :   -0.059450
  43 C :    0.088924
  44 C :   -0.029449
  45 C :    0.040006
  46 C :   -0.023913
  47 C :   -0.010043
  48 C :    0.038384
  49 C :   -0.075144
  50 C :    0.056842
  51 C :   -0.038631
  52 N :   -0.043284
  53 C :    0.043926
  54 C :   -0.004943
  55 C :   -0.038732
  56 C :    0.047269
  57 C :   -0.083132
  58 C :   -0.027797
  59 N :   -0.071191
  60 C :   -0.156607
  61 S :    0.471713
  62 C :   -0.184515
  63 C :   -0.066840
  64 C :   -0.209138
  65 S :    1.170188
  66 O :   -0.493722
  67 O :   -0.495234
  68 C :   -0.129030
  69 C :   -0.046174
  70 C :   -0.025319
  71 H :    0.038125
  72 H :    0.053224
  73 H :    0.039519
  74 H :    0.037714
  75 H :    0.039523
  76 H :    0.035778
  77 H :    0.019900
  78 H :    0.039945
  79 H :    0.024476
  80 H :    0.034315
  81 H :    0.033331
  82 H :    0.042006
  83 H :    0.026918
  84 H :    0.031824
  85 H :    0.035301
  86 H :    0.023034
  87 H :    0.035561
  88 H :    0.039188
  89 H :    0.031235
  90 H :    0.042346
  91 H :    0.026379
  92 H :    0.031688
  93 H :    0.027337
  94 H :    0.047349
  95 H :    0.033458
  96 H :    0.036767
  97 H :    0.033219
  98 H :    0.038666
  99 H :    0.037226

  Mayer bond orders larger than 0.100000
B(  0-C ,  1-C ) :   1.5483 B(  0-C ,  5-C ) :   1.2199 B(  0-C ,  9-C ) :   0.9994
B(  1-C ,  2-S ) :   1.1617 B(  1-C , 71-H ) :   0.9536 B(  2-S ,  3-C ) :   1.1514
B(  3-C ,  4-Cl) :   1.1302 B(  3-C ,  5-C ) :   1.4778 B(  5-C ,  6-C ) :   0.9501
B(  6-C ,  7-O ) :   2.2338 B(  6-C ,  8-C ) :   0.9346 B(  8-C ,  9-C ) :   1.0566
B(  8-C , 15-C ) :   1.6218 B(  9-C , 10-C ) :   1.6637 B( 10-C , 11-C ) :   1.1471
B( 10-C , 13-C ) :   1.1349 B( 11-C , 12-N ) :   2.9907 B( 13-C , 14-N ) :   2.9856
B( 15-C , 16-C ) :   1.1082 B( 15-C , 72-H ) :   0.9485 B( 16-C , 17-C ) :   1.5022
B( 16-C , 20-C ) :   1.0546 B( 17-C , 18-C ) :   1.1080 B( 17-C , 73-H ) :   1.0086
B( 18-C , 19-C ) :   1.1250 B( 18-C , 23-C ) :   1.3774 B( 19-C , 20-C ) :   1.6678
B( 19-C , 21-C ) :   1.0898 B( 20-C , 74-H ) :   1.0089 B( 21-C , 22-N ) :   2.9851
B( 23-C , 24-C ) :   1.1351 B( 23-C , 27-C ) :   1.0954 B( 24-C , 25-C ) :   1.5263
B( 24-C , 75-H ) :   0.9918 B( 25-C , 26-C ) :   1.0141 B( 25-C , 30-C ) :   1.0607
B( 26-C , 27-C ) :   1.6738 B( 26-C , 76-H ) :   1.0294 B( 27-C , 28-C ) :   1.0835
B( 28-C , 29-N ) :   2.9747 B( 30-C , 31-N ) :   1.1957 B( 30-C , 37-C ) :   1.3603
B( 31-N , 32-C ) :   0.9406 B( 31-N , 34-C ) :   1.0529 B( 32-C , 33-C ) :   1.1170
B( 32-C , 77-H ) :   0.9510 B( 32-C , 78-H ) :   0.9217 B( 33-C , 79-H ) :   0.9663
B( 33-C , 80-H ) :   0.9661 B( 33-C , 81-H ) :   0.9615 B( 34-C , 35-O ) :   2.0175
B( 34-C , 36-C ) :   0.9986 B( 35-O , 88-H ) :   0.1149 B( 36-C , 37-C ) :   1.2802
B( 36-C , 43-C ) :   1.2725 B( 37-C , 38-C ) :   0.9569 B( 38-C , 39-O ) :   2.1104
B( 38-C , 40-N ) :   1.0364 B( 40-N , 41-C ) :   0.9361 B( 40-N , 43-C ) :   1.1851
B( 41-C , 42-C ) :   1.1228 B( 41-C , 82-H ) :   0.9280 B( 41-C , 83-H ) :   0.9497
B( 42-C , 84-H ) :   0.9635 B( 42-C , 85-H ) :   0.9675 B( 42-C , 86-H ) :   0.9683
B( 43-C , 44-C ) :   1.1812 B( 44-C , 45-C ) :   1.5519 B( 44-C , 87-H ) :   0.9671
B( 45-C , 46-C ) :   1.1201 B( 45-C , 88-H ) :   0.9547 B( 46-C , 47-C ) :   1.5205
B( 46-C , 50-C ) :   1.0308 B( 47-C , 48-C ) :   1.1294 B( 47-C , 89-H ) :   0.9931
B( 48-C , 49-C ) :   1.1007 B( 48-C , 53-C ) :   1.4135 B( 49-C , 50-C ) :   1.6754
B( 49-C , 51-C ) :   1.0790 B( 50-C , 90-H ) :   1.0280 B( 51-C , 52-N ) :   3.0020
B( 53-C , 54-C ) :   1.1319 B( 53-C , 57-C ) :   1.1002 B( 54-C , 55-C ) :   1.5728
B( 54-C , 91-H ) :   0.9706 B( 55-C , 56-C ) :   1.0347 B( 55-C , 60-C ) :   1.1017
B( 56-C , 57-C ) :   1.6824 B( 56-C , 92-H ) :   1.0100 B( 57-C , 58-C ) :   1.0832
B( 58-C , 59-N ) :   2.9578 B( 60-C , 61-S ) :   1.1743 B( 60-C , 62-C ) :   0.1028
B( 60-C , 64-C ) :   1.5593 B( 61-S , 62-C ) :   1.1590 B( 62-C , 63-C ) :   1.5671
B( 62-C , 93-H ) :   0.9707 B( 63-C , 64-C ) :   1.2964 B( 63-C , 70-C ) :   1.0285
B( 64-C , 65-S ) :   0.8165 B( 65-S , 66-O ) :   1.6639 B( 65-S , 67-O ) :   1.7208
B( 65-S , 68-C ) :   0.8586 B( 68-C , 69-C ) :   1.0315 B( 68-C , 94-H ) :   0.9307
B( 68-C , 95-H ) :   0.9364 B( 69-C , 70-C ) :   1.0809 B( 69-C , 96-H ) :   0.9344
B( 69-C , 97-H ) :   0.9486 B( 70-C , 98-H ) :   0.9223 B( 70-C , 99-H ) :   0.9214

-----------------------------------------------------------------------------
         ABSORPTION SPECTRUM VIA TRANSITION ELECTRIC DIPOLE MOMENTS
-----------------------------------------------------------------------------
State   Energy  Wavelength   fosc         T2         TX        TY        TZ
        (cm-1)    (nm)                  (au**2)     (au)      (au)      (au)
-----------------------------------------------------------------------------
   0    7199.1   1389.1   0.680941634  31.13900  -3.58239   4.26821  -0.29640
   1   11757.4    850.5   0.162320422   4.54504   1.43600  -1.17810  -1.04643
   2   15509.7    644.8   0.086309125   1.83201   0.96488  -0.85513  -0.41203
   3   16166.2    618.6   0.042621306   0.86795  -0.40638   0.63284  -0.54983
   4   18082.0    553.0   0.007747840   0.14106   0.26283  -0.19294  -0.18642
   5   19423.2    514.8   0.071697802   1.21524   0.73041  -0.76774  -0.30384
   6   21822.0    458.3   0.409172423   6.17286  -1.59003   1.89972   0.18899
   7   22337.4    447.7   0.425935441   6.27751  -0.95984   2.02754  -1.11593
   8   22817.1    438.3   0.022944348   0.33105   0.32080  -0.20460  -0.43160
   9   22986.7    435.0   0.003776262   0.05408  -0.07408   0.20327  -0.08530
  10   23660.7    422.6   0.030177349   0.41988  -0.15176  -0.38969   0.49497
  11   24648.1    405.7   0.017447208   0.23303   0.44411  -0.18858   0.01550
  12   24903.5    401.6   0.071491068   0.94508   0.36155  -0.41564   0.80100
  13   25257.7    395.9   0.483792217   6.30581   1.69599  -1.78890  -0.47879
  14   26143.1    382.5   0.011132401   0.14019  -0.05231   0.29199  -0.22846
  15   27150.8    368.3   0.139635406   1.69313   0.43253  -0.99613   0.71678
  16   27736.3    360.5   0.251095838   2.98035   0.72150  -1.40099   0.70500
  17   28302.6    353.3   0.013158217   0.15305   0.21550  -0.04043  -0.32401
  18   28314.5    353.2   0.009719708   0.11301  -0.23571   0.08779   0.22304
  19   28550.6    350.3   0.195944549   2.25940  -0.73481   1.16530  -0.60128
  20   28756.7    347.7   0.004872005   0.05578   0.11767  -0.16706  -0.11841
  21   29303.4    341.3   0.049755466   0.55898  -0.23807   0.23597  -0.66830
  22   29646.9    337.3   0.106623620   1.18400  -0.65586   0.25250  -0.83072
  23   29978.2    333.6   0.053326649   0.58562   0.04055   0.31992   0.69399
  24   30339.0    329.6   0.010263813   0.11137  -0.11534  -0.02614   0.31207
  25   31166.5    320.9   0.002627245   0.02775  -0.13885   0.00720  -0.09177
  26   31812.7    314.3   0.022989860   0.23791   0.33776  -0.34399   0.07415
  27   32235.0    310.2   0.086031631   0.87863   0.60715  -0.71258  -0.04726
  28   32326.1    309.3   0.018974581   0.19324  -0.25270  -0.05637  -0.35525
  29   33203.9    301.2   0.010805852   0.10714  -0.21242  -0.23668   0.07744
  30   33242.0    300.8   0.193310094   1.91444  -0.32181   1.16588  -0.67201
  31   33535.6    298.2   0.045716369   0.44879  -0.26524   0.61262  -0.05601
  32   34143.9    292.9   0.171790261   1.65638   0.66106  -0.19812   1.08634
  33   34210.3    292.3   0.035315622   0.33985  -0.31833  -0.41921  -0.25055
  34   34402.8    290.7   0.099672710   0.95380  -0.72177   0.06969  -0.65421
  35   34728.0    288.0   0.075292034   0.71375  -0.43983  -0.06001  -0.71881
  36   35010.9    285.6   0.007058512   0.06637   0.06527   0.14563  -0.20225
  37   35217.2    284.0   0.005193124   0.04855   0.20064   0.06308  -0.06564
  38   35592.6    281.0   0.045853833   0.42412  -0.42734   0.48849   0.05365
  39   35811.2    279.2   0.021197921   0.19487   0.35162  -0.23512  -0.12632
  40   35883.9    278.7   0.036235177   0.33244  -0.25585   0.51639   0.01777
  41   36152.2    276.6   0.010310763   0.09389  -0.05377   0.30119   0.01687
  42   36173.2    276.4   0.129387570   1.17756  -0.71337   0.81623  -0.04916
  43   36343.9    275.1   0.006587802   0.05967  -0.04922   0.23028  -0.06497
  44   36428.5    274.5   0.001309436   0.01183  -0.05984   0.09017  -0.01104
  45   36574.0    273.4   0.043168614   0.38857  -0.21564   0.30923  -0.49644
  46   37219.0    268.7   0.049107549   0.43437   0.40874  -0.37664   0.35418
  47   37337.5    267.8   0.003070113   0.02707   0.09048  -0.13241  -0.03675
  48   37713.4    265.2   0.001896882   0.01656   0.03541   0.10308  -0.06840
  49   37750.2    264.9   0.050494407   0.44035  -0.05944   0.35089   0.56009
  50   37997.9    263.2   0.431715247   3.74036  -0.88638  -1.06883  -1.34621
  51   38265.7    261.3   0.157737771   1.35707   0.36327  -1.08372   0.22506
  52   38596.7    259.1   0.004265199   0.03638   0.15322   0.09827  -0.05697
  53   38671.8    258.6   0.017631634   0.15010   0.09653   0.33075  -0.17715
  54   38848.5    257.4   0.068994328   0.58468  -0.45562  -0.37912   0.48308
  55   39232.8    254.9   0.059135687   0.49622   0.44522   0.17461   0.51722
  56   39339.8    254.2   0.099566938   0.83322  -0.40790   0.66538  -0.47341
  57   39744.3    251.6   0.001122196   0.00930  -0.06132   0.06944  -0.02673
  58   39915.0    250.5   0.329189369   2.71510   0.99549  -1.30860  -0.10793

FINAL SINGLE POINT ENERGY     -4539.689658087483

DIPOLE MOMENT
-------------
                                X             Y             Z
Electronic contribution:    -63.93080      76.51201     -36.11414
Nuclear contribution   :     66.28950     -80.60692      35.05502
                        -----------------------------------------
Total Dipole Moment    :      2.35871      -4.09491      -1.05912
                        -----------------------------------------
Magnitude (a.u.)       :      4.84289
Magnitude (Debye)      :     12.30964

Rotational constants in cm-1:     0.002693     0.000187     0.000182
Rotational constants in MHz :    80.736454     5.618406     5.445038

                             ****ORCA TERMINATED NORMALLY****
TOTAL RUN TIME: 0 days 0 hours 10 minutes 43 seconds 599 msec
