                         Program Version 4.2.0 -  RELEASE  -
|  1> # ORCA input file
|  2> # SCF done       -130.623701372187          0.000763705546
|  3> ! CAM-B3LYP def2-SVP def2/J RIJCOSX Grid4 TightSCF
|  4> %maxcore 5000
|  5> %tddft
|  6>     Mode sTDDFT
|  7>     Ethresh 5.0
|  8>     maxcore 5000
|  9> end
| 10>
| 11> %pal
| 12>   nprocs 6
| 13>   end
| 14> * xyz 0 1
| 15>    C        2.53331         1.84118         3.01392
| 16>    C        2.25555         2.92607         3.78777
| 17>    S        3.63337         3.40560         4.70767
| 18>    C        4.61033         2.11980         4.03909
| 19>   Cl        6.22777         1.91095         4.49362
| 20>    C        3.88151         1.37703         3.15759
| 21>    C        4.10676         0.21227         2.29796
| 22>    O        5.12835        -0.41402         2.14047
| 23>    C        2.79487        -0.00276         1.60194
| 24>    C        1.83824         0.99952         2.06304
| 25>    C        0.52157         1.12967         1.71711
| 26>    C       -0.28509         2.14936         2.26776
| 27>    N       -0.95188         2.97403         2.70425
| 28>    C       -0.17580         0.30000         0.81589
| 29>    N       -0.79426        -0.34468         0.09543
| 30>    C        2.59961        -0.91102         0.61931
| 31>    C        3.55042        -1.92198         0.22488
| 32>    C        4.17020        -2.79854         1.13005
| 33>    N        5.02962        -3.70966         0.74845
| 34>    C        5.29619        -3.81873        -0.55224
| 35>    N        4.72760        -3.07221        -1.49726
| 36>    C        3.88343        -2.14169        -1.11892
| 37>    C        6.25057        -4.83499        -0.96903
| 38>    C        6.83978        -5.72075        -0.05983
| 39>    N        7.69138        -6.64788        -0.43825
| 40>    C        7.97638        -6.72893        -1.73846
| 41>    N        7.48374        -5.92586        -2.68213
| 42>    C        6.63857        -4.99238        -2.30416
| 43>    C        8.89567        -7.77772        -2.15962
| 44>    C        9.46157        -8.68090        -1.25239
| 45>    N       10.29334        -9.62463        -1.63313
| 46>    C       10.54984        -9.73050        -2.93684
| 47>    N       10.06756        -8.91894        -3.88167
| 48>    C        9.26718        -7.94921        -3.49712
| 49>    C       11.48566       -10.76812        -3.31965
| 50>    C       11.68281       -11.30973        -4.53704
| 51>    C       12.95073       -12.08066        -4.79852
| 52>    O       13.70717       -12.51695        -3.96920
| 53>    C       13.05586       -12.10914        -6.26026
| 54>    C       13.96165       -12.53064        -7.18912
| 55>    S       13.37259       -12.21696        -8.80340
| 56>    C       11.90544       -11.53131        -8.20662
| 57>    C       11.87752       -11.53755        -6.84710
| 58>    C       10.95282       -11.16948        -5.79251
| 59>    C        9.61711       -10.95311        -5.96455
| 60>    C        9.04312       -10.89891        -7.25311
| 61>    N        8.57591       -10.83949        -8.29875
| 62>    C        8.67334       -10.86585        -4.91962
| 63>    N        7.84654       -10.87275        -4.12421
| 64>   Cl       15.46518       -13.26245        -6.92367
| 65>    H        1.34189         3.47900         3.88073
| 66>    H        1.67738        -0.89359         0.05136
| 67>    H        3.92901        -2.77852         2.18398
| 68>    H        3.46883        -1.52581        -1.90680
| 69>    H        6.60682        -5.66871         0.99510
| 70>    H        6.24926        -4.34182        -3.07566
| 71>    H        9.23519        -8.62027        -0.19677
| 72>    H        8.89470        -7.28639        -4.26616
| 73>    H       12.14788       -11.09304        -2.52512
| 74>    H       11.17408       -11.16524        -8.89948
| 75> *
| 76>
| 77>                          ****END OF INPUT****

CARTESIAN COORDINATES (ANGSTROEM)
---------------------------------
  C      2.533310    1.841180    3.013920
  C      2.255550    2.926070    3.787770
  S      3.633370    3.405600    4.707670
  C      4.610330    2.119800    4.039090
  Cl     6.227770    1.910950    4.493620
  C      3.881510    1.377030    3.157590
  C      4.106760    0.212270    2.297960
  O      5.128350   -0.414020    2.140470
  C      2.794870   -0.002760    1.601940
  C      1.838240    0.999520    2.063040
  C      0.521570    1.129670    1.717110
  C     -0.285090    2.149360    2.267760
  N     -0.951880    2.974030    2.704250
  C     -0.175800    0.300000    0.815890
  N     -0.794260   -0.344680    0.095430
  C      2.599610   -0.911020    0.619310
  C      3.550420   -1.921980    0.224880
  C      4.170200   -2.798540    1.130050
  N      5.029620   -3.709660    0.748450
  C      5.296190   -3.818730   -0.552240
  N      4.727600   -3.072210   -1.497260
  C      3.883430   -2.141690   -1.118920
  C      6.250570   -4.834990   -0.969030
  C      6.839780   -5.720750   -0.059830
  N      7.691380   -6.647880   -0.438250
  C      7.976380   -6.728930   -1.738460
  N      7.483740   -5.925860   -2.682130
  C      6.638570   -4.992380   -2.304160
  C      8.895670   -7.777720   -2.159620
  C      9.461570   -8.680900   -1.252390
  N     10.293340   -9.624630   -1.633130
  C     10.549840   -9.730500   -2.936840
  N     10.067560   -8.918940   -3.881670
  C      9.267180   -7.949210   -3.497120
  C     11.485660  -10.768120   -3.319650
  C     11.682810  -11.309730   -4.537040
  C     12.950730  -12.080660   -4.798520
  O     13.707170  -12.516950   -3.969200
  C     13.055860  -12.109140   -6.260260
  C     13.961650  -12.530640   -7.189120
  S     13.372590  -12.216960   -8.803400
  C     11.905440  -11.531310   -8.206620
  C     11.877520  -11.537550   -6.847100
  C     10.952820  -11.169480   -5.792510
  C      9.617110  -10.953110   -5.964550
  C      9.043120  -10.898910   -7.253110
  N      8.575910  -10.839490   -8.298750
  C      8.673340  -10.865850   -4.919620
  N      7.846540  -10.872750   -4.124210
  Cl    15.465180  -13.262450   -6.923670
  H      1.341890    3.479000    3.880730
  H      1.677380   -0.893590    0.051360
  H      3.929010   -2.778520    2.183980
  H      3.468830   -1.525810   -1.906800
  H      6.606820   -5.668710    0.995100
  H      6.249260   -4.341820   -3.075660
  H      9.235190   -8.620270   -0.196770
  H      8.894700   -7.286390   -4.266160
  H     12.147880  -11.093040   -2.525120
  H     11.174080  -11.165240   -8.899480

 Total Charge           Charge          ....    0
 Multiplicity           Mult            ....    1
 Number of Electrons    NEL             ....  366
 Basis Dimension        Dim             ....  766

ORBITAL ENERGIES
----------------

  NO   OCC          E(Eh)            E(eV)
   0   2.0000    -101.629428     -2765.4773
   1   2.0000    -101.615158     -2765.0890
   2   2.0000     -89.007247     -2422.0103
   3   2.0000     -88.990954     -2421.5670
   4   2.0000     -19.237829      -523.4879
   5   2.0000     -19.218525      -522.9627
   6   2.0000     -14.435852      -392.8195
   7   2.0000     -14.434022      -392.7697
   8   2.0000     -14.430749      -392.6806
   9   2.0000     -14.429681      -392.6516
  10   2.0000     -14.422280      -392.4502
  11   2.0000     -14.422137      -392.4463
  12   2.0000     -14.420328      -392.3971
  13   2.0000     -14.418049      -392.3350
  14   2.0000     -14.417469      -392.3193
  15   2.0000     -14.412543      -392.1852
  16   2.0000     -10.394842      -282.8580
  17   2.0000     -10.389986      -282.7259
  18   2.0000     -10.374411      -282.3021
  19   2.0000     -10.373954      -282.2896
  20   2.0000     -10.368388      -282.1382
  21   2.0000     -10.364971      -282.0452
  22   2.0000     -10.364084      -282.0211
  23   2.0000     -10.359579      -281.8985
  24   2.0000     -10.353963      -281.7456
  25   2.0000     -10.345594      -281.5179
  26   2.0000     -10.345498      -281.5153
  27   2.0000     -10.345431      -281.5135
  28   2.0000     -10.343149      -281.4514
  29   2.0000     -10.342968      -281.4465
  30   2.0000     -10.340188      -281.3708
  31   2.0000     -10.337272      -281.2915
  32   2.0000     -10.335396      -281.2404
  33   2.0000     -10.331783      -281.1421
  34   2.0000     -10.331580      -281.1366
  35   2.0000     -10.326978      -281.0114
  36   2.0000     -10.326933      -281.0101
  37   2.0000     -10.325549      -280.9725
  38   2.0000     -10.325536      -280.9721
  39   2.0000     -10.324600      -280.9466
  40   2.0000     -10.319399      -280.8051
  41   2.0000     -10.316480      -280.7257
  42   2.0000     -10.315689      -280.7042
  43   2.0000     -10.313999      -280.6582
  44   2.0000     -10.310358      -280.5591
  45   2.0000     -10.309025      -280.5228
  46   2.0000     -10.306374      -280.4507
  47   2.0000     -10.299602      -280.2664
  48   2.0000     -10.298105      -280.2257
  49   2.0000     -10.295642      -280.1587
  50   2.0000      -9.584191      -260.7991
  51   2.0000      -9.569945      -260.4114
  52   2.0000      -8.103022      -220.4944
  53   2.0000      -8.086628      -220.0483
  54   2.0000      -7.354852      -200.1357
  55   2.0000      -7.344225      -199.8465
  56   2.0000      -7.343653      -199.8310
  57   2.0000      -7.340587      -199.7475
  58   2.0000      -7.329986      -199.4591
  59   2.0000      -7.329434      -199.4440
  60   2.0000      -6.072374      -165.2377
  61   2.0000      -6.067734      -165.1114
  62   2.0000      -6.065316      -165.0456
  63   2.0000      -6.056007      -164.7923
  64   2.0000      -6.051390      -164.6667
  65   2.0000      -6.048918      -164.5994
  66   2.0000      -1.155240       -31.4357
  67   2.0000      -1.136092       -30.9146
  68   2.0000      -1.108209       -30.1559
  69   2.0000      -1.097680       -29.8694
  70   2.0000      -1.089335       -29.6423
  71   2.0000      -1.052211       -28.6321
  72   2.0000      -1.035254       -28.1707
  73   2.0000      -1.031927       -28.0802
  74   2.0000      -1.013224       -27.5712
  75   2.0000      -1.013147       -27.5691
  76   2.0000      -1.002741       -27.2860
  77   2.0000      -1.000636       -27.2287
  78   2.0000      -0.994916       -27.0730
  79   2.0000      -0.990563       -26.9546
  80   2.0000      -0.984858       -26.7994
  81   2.0000      -0.983815       -26.7710
  82   2.0000      -0.970474       -26.4079
  83   2.0000      -0.951917       -25.9030
  84   2.0000      -0.948681       -25.8149
  85   2.0000      -0.928531       -25.2666
  86   2.0000      -0.919114       -25.0104
  87   2.0000      -0.905631       -24.6435
  88   2.0000      -0.897121       -24.4119
  89   2.0000      -0.873269       -23.7629
  90   2.0000      -0.853111       -23.2143
  91   2.0000      -0.846632       -23.0380
  92   2.0000      -0.829512       -22.5722
  93   2.0000      -0.814166       -22.1546
  94   2.0000      -0.794744       -21.6261
  95   2.0000      -0.780005       -21.2250
  96   2.0000      -0.771521       -20.9941
  97   2.0000      -0.767373       -20.8813
  98   2.0000      -0.760116       -20.6838
  99   2.0000      -0.752750       -20.4834
 100   2.0000      -0.738107       -20.0849
 101   2.0000      -0.734354       -19.9828
 102   2.0000      -0.715818       -19.4784
 103   2.0000      -0.703148       -19.1336
 104   2.0000      -0.691252       -18.8099
 105   2.0000      -0.688934       -18.7468
 106   2.0000      -0.677640       -18.4395
 107   2.0000      -0.672594       -18.3022
 108   2.0000      -0.658134       -17.9087
 109   2.0000      -0.646642       -17.5960
 110   2.0000      -0.644851       -17.5473
 111   2.0000      -0.632871       -17.2213
 112   2.0000      -0.626685       -17.0530
 113   2.0000      -0.621554       -16.9133
 114   2.0000      -0.620291       -16.8790
 115   2.0000      -0.614407       -16.7189
 116   2.0000      -0.606643       -16.5076
 117   2.0000      -0.589674       -16.0458
 118   2.0000      -0.587077       -15.9752
 119   2.0000      -0.575735       -15.6665
 120   2.0000      -0.567000       -15.4289
 121   2.0000      -0.560209       -15.2441
 122   2.0000      -0.559026       -15.2119
 123   2.0000      -0.551497       -15.0070
 124   2.0000      -0.547624       -14.9016
 125   2.0000      -0.545028       -14.8310
 126   2.0000      -0.541069       -14.7232
 127   2.0000      -0.537284       -14.6202
 128   2.0000      -0.532746       -14.4968
 129   2.0000      -0.529631       -14.4120
 130   2.0000      -0.526593       -14.3293
 131   2.0000      -0.523120       -14.2348
 132   2.0000      -0.520561       -14.1652
 133   2.0000      -0.519044       -14.1239
 134   2.0000      -0.518083       -14.0978
 135   2.0000      -0.516840       -14.0639
 136   2.0000      -0.509064       -13.8523
 137   2.0000      -0.506220       -13.7749
 138   2.0000      -0.505754       -13.7623
 139   2.0000      -0.504220       -13.7205
 140   2.0000      -0.500883       -13.6297
 141   2.0000      -0.496966       -13.5231
 142   2.0000      -0.491794       -13.3824
 143   2.0000      -0.483206       -13.1487
 144   2.0000      -0.476194       -12.9579
 145   2.0000      -0.469517       -12.7762
 146   2.0000      -0.466605       -12.6970
 147   2.0000      -0.461046       -12.5457
 148   2.0000      -0.458335       -12.4719
 149   2.0000      -0.453310       -12.3352
 150   2.0000      -0.449314       -12.2265
 151   2.0000      -0.447980       -12.1902
 152   2.0000      -0.446109       -12.1392
 153   2.0000      -0.442812       -12.0495
 154   2.0000      -0.440463       -11.9856
 155   2.0000      -0.434935       -11.8352
 156   2.0000      -0.431968       -11.7544
 157   2.0000      -0.431127       -11.7316
 158   2.0000      -0.430339       -11.7101
 159   2.0000      -0.422144       -11.4871
 160   2.0000      -0.417598       -11.3634
 161   2.0000      -0.415617       -11.3095
 162   2.0000      -0.413009       -11.2386
 163   2.0000      -0.412605       -11.2275
 164   2.0000      -0.405740       -11.0407
 165   2.0000      -0.403256       -10.9732
 166   2.0000      -0.401003       -10.9119
 167   2.0000      -0.395293       -10.7565
 168   2.0000      -0.391274       -10.6471
 169   2.0000      -0.384045       -10.4504
 170   2.0000      -0.377046       -10.2599
 171   2.0000      -0.368893       -10.0381
 172   2.0000      -0.358484        -9.7549
 173   2.0000      -0.350396        -9.5348
 174   2.0000      -0.343239        -9.3400
 175   2.0000      -0.342192        -9.3115
 176   2.0000      -0.337255        -9.1772
 177   2.0000      -0.334054        -9.0901
 178   2.0000      -0.329637        -8.9699
 179   2.0000      -0.324333        -8.8256
 180   2.0000      -0.321690        -8.7536
 181   2.0000      -0.309921        -8.4334
 182   2.0000      -0.298321        -8.1177
 183   0.0000      -0.109960        -2.9922
 184   0.0000      -0.094369        -2.5679
 185   0.0000      -0.067742        -1.8433
 186   0.0000      -0.054059        -1.4710
 187   0.0000      -0.041270        -1.1230

MULLIKEN ATOMIC CHARGES
-----------------------
   0 C :    0.029375
   1 C :   -0.125070
   2 S :    0.198859
   3 C :   -0.166192
   4 Cl:    0.008401
   5 C :    0.071740
   6 C :    0.140445
   7 O :   -0.120823
   8 C :   -0.092882
   9 C :    0.292504
  10 C :   -0.318174
  11 C :   -0.192438
  12 N :    0.164775
  13 C :   -0.190291
  14 N :    0.168567
  15 C :   -0.020873
  16 C :   -0.029074
  17 C :    0.113123
  18 N :   -0.053570
  19 C :   -0.062022
  20 N :   -0.051029
  21 C :    0.066103
  22 C :    0.011843
  23 C :    0.059102
  24 N :   -0.047271
  25 C :   -0.064467
  26 N :   -0.049154
  27 C :    0.062989
  28 C :    0.031084
  29 C :    0.057901
  30 N :   -0.042504
  31 C :   -0.075922
  32 N :   -0.082413
  33 C :    0.069977
  34 C :    0.089579
  35 C :   -0.103160
  36 C :    0.134231
  37 O :   -0.119434
  38 C :    0.080509
  39 C :   -0.167515
  40 S :    0.184287
  41 C :   -0.125950
  42 C :    0.017744
  43 C :    0.286353
  44 C :   -0.282579
  45 C :   -0.199095
  46 N :    0.152679
  47 C :   -0.178650
  48 N :    0.164366
  49 Cl:   -0.000244
  50 H :    0.057342
  51 H :    0.045281
  52 H :    0.011485
  53 H :    0.012937
  54 H :    0.024073
  55 H :    0.022504
  56 H :    0.024233
  57 H :    0.021662
  58 H :    0.031811
  59 H :    0.052933
Sum of atomic charges:   -0.0000000

LOEWDIN ATOMIC CHARGES
----------------------
   0 C :   -0.060060
   1 C :   -0.146538
   2 S :    0.487015
   3 C :   -0.269551
   4 Cl:    0.198812
   5 C :   -0.119453
   6 C :    0.081311
   7 O :   -0.121618
   8 C :   -0.073633
   9 C :    0.072195
  10 C :   -0.126124
  11 C :   -0.015540
  12 N :   -0.041449
  13 C :   -0.023507
  14 N :   -0.036493
  15 C :    0.073349
  16 C :   -0.082687
  17 C :    0.087710
  18 N :   -0.074447
  19 C :    0.045038
  20 N :   -0.078048
  21 C :    0.067566
  22 C :   -0.089440
  23 C :    0.080143
  24 N :   -0.078000
  25 C :    0.041746
  26 N :   -0.078290
  27 C :    0.080042
  28 C :   -0.073696
  29 C :    0.079313
  30 N :   -0.067006
  31 C :    0.020983
  32 N :   -0.069656
  33 C :    0.081545
  34 C :    0.061645
  35 C :   -0.054627
  36 C :    0.082350
  37 O :   -0.123191
  38 C :   -0.119585
  39 C :   -0.272596
  40 S :    0.475174
  41 C :   -0.153919
  42 C :   -0.054332
  43 C :    0.071253
  44 C :   -0.112259
  45 C :   -0.014200
  46 N :   -0.049082
  47 C :   -0.018257
  48 N :   -0.048943
  49 Cl:    0.192274
  50 H :    0.039239
  51 H :    0.050336
  52 H :    0.029209
  53 H :    0.030325
  54 H :    0.031882
  55 H :    0.031487
  56 H :    0.031862
  57 H :    0.031145
  58 H :    0.053702
  59 H :    0.037578

  Mayer bond orders larger than 0.100000
B(  0-C ,  1-C ) :   1.5390 B(  0-C ,  5-C ) :   1.2195 B(  0-C ,  9-C ) :   1.0088
B(  1-C ,  2-S ) :   1.1682 B(  1-C , 50-H ) :   0.9541 B(  2-S ,  3-C ) :   1.1570
B(  3-C ,  4-Cl) :   1.1359 B(  3-C ,  5-C ) :   1.4712 B(  5-C ,  6-C ) :   0.9522
B(  6-C ,  7-O ) :   2.2491 B(  6-C ,  8-C ) :   0.9169 B(  8-C ,  9-C ) :   1.0350
B(  8-C , 15-C ) :   1.7595 B(  9-C , 10-C ) :   1.6796 B( 10-C , 11-C ) :   1.1415
B( 10-C , 13-C ) :   1.1366 B( 11-C , 12-N ) :   2.9935 B( 13-C , 14-N ) :   2.9771
B( 15-C , 16-C ) :   1.0144 B( 15-C , 51-H ) :   0.9402 B( 16-C , 17-C ) :   1.3120
B( 16-C , 21-C ) :   1.3311 B( 17-C , 18-N ) :   1.5804 B( 17-C , 52-H ) :   0.9849
B( 18-N , 19-C ) :   1.5662 B( 19-C , 20-N ) :   1.5803 B( 19-C , 22-C ) :   0.9696
B( 20-N , 21-C ) :   1.5577 B( 21-C , 53-H ) :   0.9912 B( 22-C , 23-C ) :   1.3361
B( 22-C , 27-C ) :   1.3377 B( 23-C , 24-N ) :   1.5495 B( 23-C , 54-H ) :   0.9776
B( 24-N , 25-C ) :   1.5794 B( 25-C , 26-N ) :   1.5773 B( 25-C , 28-C ) :   0.9662
B( 26-N , 27-C ) :   1.5477 B( 27-C , 55-H ) :   0.9773 B( 28-C , 29-C ) :   1.3426
B( 28-C , 33-C ) :   1.3392 B( 29-C , 30-N ) :   1.5468 B( 29-C , 56-H ) :   0.9750
B( 30-N , 31-C ) :   1.5166 B( 31-C , 32-N ) :   1.4760 B( 31-C , 34-C ) :   1.0046
B( 32-N , 33-C ) :   1.5298 B( 33-C , 57-H ) :   0.9758 B( 34-C , 35-C ) :   1.7293
B( 34-C , 58-H ) :   0.9482 B( 35-C , 36-C ) :   0.9197 B( 35-C , 43-C ) :   1.0050
B( 36-C , 37-O ) :   2.2919 B( 36-C , 38-C ) :   0.9236 B( 38-C , 39-C ) :   1.4811
B( 38-C , 42-C ) :   1.2219 B( 39-C , 40-S ) :   1.1560 B( 39-C , 49-Cl) :   1.1283
B( 40-S , 41-C ) :   1.1568 B( 41-C , 42-C ) :   1.5529 B( 41-C , 59-H ) :   0.9553
B( 42-C , 43-C ) :   1.0112 B( 43-C , 44-C ) :   1.7120 B( 44-C , 45-C ) :   1.1364
B( 44-C , 47-C ) :   1.1487 B( 45-C , 46-N ) :   2.9998 B( 47-C , 48-N ) :   2.9826

-----------------------------------------------------------------------------
         ABSORPTION SPECTRUM VIA TRANSITION ELECTRIC DIPOLE MOMENTS
-----------------------------------------------------------------------------
State   Energy  Wavelength   fosc         T2         TX        TY        TZ
        (cm-1)    (nm)                  (au**2)     (au)      (au)      (au)
-----------------------------------------------------------------------------
   0   25034.2    399.5   0.418470313   5.50310   1.09414  -1.76898  -1.08475
   1   25434.9    393.2   0.362135440   4.68723   1.36159  -1.47207  -0.81628
   2   27513.9    363.5   0.151616533   1.81413  -0.02033  -0.97207  -0.93209
   3   28099.8    355.9   0.089450854   1.04799  -0.64050   0.69446   0.39430
   4   29054.6    344.2   0.271915340   3.08102  -0.89587   1.20867   0.90418
   5   29629.7    337.5   0.044055218   0.48949   0.33327   0.39863   0.46853
   6   29842.9    335.1   0.248333233   2.73949   0.88619  -0.97424  -1.00250
   7   30449.2    328.4   0.028485646   0.30798   0.32513  -0.43698  -0.10639
   8   30641.3    326.4   0.074688437   0.80246   0.66064  -0.60420  -0.03074
   9   33009.8    302.9   0.067456136   0.67275  -0.79786   0.15002   0.11689
  10   33138.8    301.8   0.018066369   0.17948  -0.19918  -0.16536  -0.33536
  11   33417.7    299.2   0.102250059   1.00731   0.12170  -0.74147  -0.66537
  12   35152.3    284.5   0.036312920   0.34008  -0.45056  -0.35599  -0.10171
  13   35893.5    278.6   0.043702022   0.40083   0.59878  -0.18551  -0.08873
  14   35976.1    278.0   0.328703965   3.00792   1.38890  -0.96985  -0.37187
  15   36625.2    273.0   0.316863908   2.84819  -0.83333   1.21949   0.81645
  16   36994.9    270.3   0.226373345   2.01446   1.39930  -0.03992   0.23418
  17   37323.5    267.9   0.550256475   4.85354  -1.99800   0.87176   0.31870
  18   37986.5    263.3   0.122169208   1.05879  -0.27983  -0.46542  -0.87399
  19   38109.1    262.4   0.435752504   3.76432  -1.70424  -0.56149  -0.73799
  20   38643.2    258.8   0.035361409   0.30125   0.17937  -0.05115   0.51620
  21   38802.8    257.7   0.086607102   0.73479  -0.78127  -0.04373   0.34999
  22   39395.9    253.8   0.251640822   2.10284  -0.14937   0.89674   1.12977
  23   39892.3    250.7   0.100870302   0.83243   0.58877  -0.30453  -0.62693

FINAL SINGLE POINT ENERGY     -3713.248182871051

DIPOLE MOMENT
-------------
                                X             Y             Z
Electronic contribution:     18.31690      -1.70385      -0.24359
Nuclear contribution   :    -17.53784       4.41984       1.33827
                        -----------------------------------------
Total Dipole Moment    :      0.77906       2.71599       1.09468
                        -----------------------------------------
Magnitude (a.u.)       :      3.03016
Magnitude (Debye)      :      7.70205

Rotational constants in cm-1:     0.005221     0.000356     0.000342
Rotational constants in MHz :   156.533627    10.673145    10.246702

                             ****ORCA TERMINATED NORMALLY****
TOTAL RUN TIME: 0 days 0 hours 4 minutes 4 seconds 502 msec
