                         Program Version 4.2.0 -  RELEASE  -
|  1> # ORCA input file
|  2> # SCF done       -171.662468026869          0.000623970373
|  3> ! CAM-B3LYP def2-SVP def2/J RIJCOSX Grid4 TightSCF
|  4> %maxcore 5000
|  5> %tddft
|  6>     Mode sTDDFT
|  7>     Ethresh 5.0
|  8>     maxcore 5000
|  9> end
| 10>
| 11> %pal
| 12>   nprocs 6
| 13>   end
| 14> * xyz 0 1
| 15>    C       -3.82947        -0.50877        -4.27575
| 16>    S       -3.81415        -2.15603        -3.83872
| 17>    C       -3.69185        -1.79464        -2.14510
| 18>    C       -3.66677        -0.40724        -1.94453
| 19>    C       -3.74531         0.31864        -3.17888
| 20>    C       -3.73122         1.74463        -3.15370
| 21>    C       -3.80581         2.46008        -4.36637
| 22>    N       -3.86413         3.03437        -5.35800
| 23>    C       -3.64647         2.39483        -1.94558
| 24>    C       -3.57437         1.67104        -0.74219
| 25>    C       -3.58351         0.30293        -0.73076
| 26>    C       -3.63060        -2.80238        -1.15246
| 27>    C       -3.66226        -4.13227        -1.41531
| 28>    C       -3.61365        -5.20811        -0.49034
| 29>    S       -3.37613        -6.80547        -1.14661
| 30>    C       -3.41977        -7.52406         0.43543
| 31>    C       -3.59341        -6.55380         1.41294
| 32>    C       -3.72679        -5.25760         0.89261
| 33>    C       -4.01954        -4.07843         1.76847
| 34>    C       -4.51074        -4.51764         3.15225
| 35>    C       -4.59421        -3.29018         4.05223
| 36>    F       -5.24649        -2.27972         3.45008
| 37>    F       -5.23771        -3.51791         5.19989
| 38>    F       -3.38007        -2.81187         4.36952
| 39>    C       -3.54382        -5.56830         3.71845
| 40>    C       -3.82384        -5.91028         5.09642
| 41>    N       -4.03164        -6.22992         6.17265
| 42>    C       -3.63662        -6.85065         2.87723
| 43>    C       -3.28637        -8.92908         0.56715
| 44>    S       -3.25608        -9.76488         2.09033
| 45>    C       -3.02884       -11.29110         1.30333
| 46>    C       -3.00075       -11.15870        -0.08219
| 47>    C       -3.16396        -9.81978        -0.49575
| 48>    O       -3.21833        -9.38801        -1.80032
| 49>    C       -4.49820        -9.53203        -2.39837
| 50>    O       -2.83086       -12.27721        -0.81071
| 51>    C       -2.29718       -12.18546        -2.11889
| 52>    C       -2.91145       -12.50276         2.01217
| 53>    S       -2.76357       -14.01730         1.20176
| 54>    C       -2.75778       -14.86335         2.73122
| 55>    C       -2.84068       -13.96185         3.80903
| 56>    C       -2.90855       -12.62506         3.40037
| 57>    O       -2.96370       -11.51758         4.21911
| 58>    C       -1.69072       -11.04032         4.62631
| 59>    O       -2.86660       -14.46234         5.06169
| 60>    C       -3.40988       -13.67620         6.10764
| 61>    C       -2.75886       -16.25822         2.91346
| 62>    S       -2.89229       -16.89097         4.52812
| 63>    C       -2.94489       -18.55269         3.97911
| 64>    C       -2.85184       -18.60044         2.61725
| 65>    C       -2.73053       -17.32443         2.00000
| 66>    N       -2.56770       -17.22828         0.61552
| 67>    O       -2.34190       -16.13203         0.11536
| 68>    O       -2.64355       -18.25787        -0.03304
| 69>    N       -2.84723       -19.84688         1.86008
| 70>    O       -1.77367       -20.36634         1.69080
| 71>    O       -3.92248       -20.28906         1.54506
| 72>    C       -3.06416       -19.58494         4.97700
| 73>    C       -3.18035       -20.89499         4.77487
| 74>    H       -3.89835        -0.22464        -5.30704
| 75>    H       -3.63686         3.47441        -1.92023
| 76>    H       -3.51268         2.21660         0.18695
| 77>    H       -3.53111        -0.23237         0.20472
| 78>    H       -3.53263        -2.44032        -0.14238
| 79>    H       -3.70323        -4.43763        -2.45416
| 80>    H       -4.78287        -3.45545         1.29597
| 81>    H       -3.11421        -3.47275         1.89220
| 82>    H       -5.51991        -4.93807         3.08697
| 83>    H       -2.52356        -5.16637         3.67251
| 84>    H       -4.56153        -7.38457         3.12028
| 85>    H       -2.80984        -7.51220         3.14698
| 86>    H       -4.38274        -9.20913        -3.43053
| 87>    H       -5.23957        -8.90097        -1.89866
| 88>    H       -4.84136       -10.57027        -2.36785
| 89>    H       -1.90758       -13.17869        -2.33638
| 90>    H       -1.49414       -11.44767        -2.17036
| 91>    H       -3.06815       -11.93194        -2.85032
| 92>    H       -1.08993       -10.72957         3.76630
| 93>    H       -1.13697       -11.80200         5.18435
| 94>    H       -1.88594       -10.18195         5.26567
| 95>    H       -3.66917       -14.38097         6.89624
| 96>    H       -4.30035       -13.13857         5.77876
| 97>    H       -2.67715       -12.96183         6.48881
| 98>    H       -3.05605       -19.20126         5.98921
| 99>    H       -3.20682       -21.35383         3.80379
|100>    H       -3.26148       -21.56722         5.61085
|101> *
|102>
|103>                          ****END OF INPUT****

CARTESIAN COORDINATES (ANGSTROEM)
---------------------------------
  C     -3.829470   -0.508770   -4.275750
  S     -3.814150   -2.156030   -3.838720
  C     -3.691850   -1.794640   -2.145100
  C     -3.666770   -0.407240   -1.944530
  C     -3.745310    0.318640   -3.178880
  C     -3.731220    1.744630   -3.153700
  C     -3.805810    2.460080   -4.366370
  N     -3.864130    3.034370   -5.358000
  C     -3.646470    2.394830   -1.945580
  C     -3.574370    1.671040   -0.742190
  C     -3.583510    0.302930   -0.730760
  C     -3.630600   -2.802380   -1.152460
  C     -3.662260   -4.132270   -1.415310
  C     -3.613650   -5.208110   -0.490340
  S     -3.376130   -6.805470   -1.146610
  C     -3.419770   -7.524060    0.435430
  C     -3.593410   -6.553800    1.412940
  C     -3.726790   -5.257600    0.892610
  C     -4.019540   -4.078430    1.768470
  C     -4.510740   -4.517640    3.152250
  C     -4.594210   -3.290180    4.052230
  F     -5.246490   -2.279720    3.450080
  F     -5.237710   -3.517910    5.199890
  F     -3.380070   -2.811870    4.369520
  C     -3.543820   -5.568300    3.718450
  C     -3.823840   -5.910280    5.096420
  N     -4.031640   -6.229920    6.172650
  C     -3.636620   -6.850650    2.877230
  C     -3.286370   -8.929080    0.567150
  S     -3.256080   -9.764880    2.090330
  C     -3.028840  -11.291100    1.303330
  C     -3.000750  -11.158700   -0.082190
  C     -3.163960   -9.819780   -0.495750
  O     -3.218330   -9.388010   -1.800320
  C     -4.498200   -9.532030   -2.398370
  O     -2.830860  -12.277210   -0.810710
  C     -2.297180  -12.185460   -2.118890
  C     -2.911450  -12.502760    2.012170
  S     -2.763570  -14.017300    1.201760
  C     -2.757780  -14.863350    2.731220
  C     -2.840680  -13.961850    3.809030
  C     -2.908550  -12.625060    3.400370
  O     -2.963700  -11.517580    4.219110
  C     -1.690720  -11.040320    4.626310
  O     -2.866600  -14.462340    5.061690
  C     -3.409880  -13.676200    6.107640
  C     -2.758860  -16.258220    2.913460
  S     -2.892290  -16.890970    4.528120
  C     -2.944890  -18.552690    3.979110
  C     -2.851840  -18.600440    2.617250
  C     -2.730530  -17.324430    2.000000
  N     -2.567700  -17.228280    0.615520
  O     -2.341900  -16.132030    0.115360
  O     -2.643550  -18.257870   -0.033040
  N     -2.847230  -19.846880    1.860080
  O     -1.773670  -20.366340    1.690800
  O     -3.922480  -20.289060    1.545060
  C     -3.064160  -19.584940    4.977000
  C     -3.180350  -20.894990    4.774870
  H     -3.898350   -0.224640   -5.307040
  H     -3.636860    3.474410   -1.920230
  H     -3.512680    2.216600    0.186950
  H     -3.531110   -0.232370    0.204720
  H     -3.532630   -2.440320   -0.142380
  H     -3.703230   -4.437630   -2.454160
  H     -4.782870   -3.455450    1.295970
  H     -3.114210   -3.472750    1.892200
  H     -5.519910   -4.938070    3.086970
  H     -2.523560   -5.166370    3.672510
  H     -4.561530   -7.384570    3.120280
  H     -2.809840   -7.512200    3.146980
  H     -4.382740   -9.209130   -3.430530
  H     -5.239570   -8.900970   -1.898660
  H     -4.841360  -10.570270   -2.367850
  H     -1.907580  -13.178690   -2.336380
  H     -1.494140  -11.447670   -2.170360
  H     -3.068150  -11.931940   -2.850320
  H     -1.089930  -10.729570    3.766300
  H     -1.136970  -11.802000    5.184350
  H     -1.885940  -10.181950    5.265670
  H     -3.669170  -14.380970    6.896240
  H     -4.300350  -13.138570    5.778760
  H     -2.677150  -12.961830    6.488810
  H     -3.056050  -19.201260    5.989210
  H     -3.206820  -21.353830    3.803790
  H     -3.261480  -21.567220    5.610850

 Total Charge           Charge          ....    0
 Multiplicity           Mult            ....    1
 Number of Electrons    NEL             ....  460
 Basis Dimension        Dim             ....  981

ORBITAL ENERGIES
----------------

  NO   OCC          E(Eh)            E(eV)
   0   2.0000     -88.979588     -2421.2577
   1   2.0000     -88.975156     -2421.1371
   2   2.0000     -88.974446     -2421.1178
   3   2.0000     -88.965329     -2420.8697
   4   2.0000     -88.962608     -2420.7956
   5   2.0000     -24.814027      -675.2240
   6   2.0000     -24.810218      -675.1204
   7   2.0000     -24.809301      -675.0954
   8   2.0000     -19.275577      -524.5151
   9   2.0000     -19.266780      -524.2757
  10   2.0000     -19.261613      -524.1351
  11   2.0000     -19.257916      -524.0345
  12   2.0000     -19.236601      -523.4545
  13   2.0000     -19.236524      -523.4524
  14   2.0000     -19.236243      -523.4448
  15   2.0000     -19.234158      -523.3880
  16   2.0000     -14.644773      -398.5045
  17   2.0000     -14.643622      -398.4732
  18   2.0000     -14.412105      -392.1733
  19   2.0000     -14.405049      -391.9813
  20   2.0000     -10.525835      -286.4225
  21   2.0000     -10.354708      -281.7659
  22   2.0000     -10.352263      -281.6994
  23   2.0000     -10.346072      -281.5309
  24   2.0000     -10.344701      -281.4936
  25   2.0000     -10.341238      -281.3994
  26   2.0000     -10.337509      -281.2979
  27   2.0000     -10.336259      -281.2639
  28   2.0000     -10.334868      -281.2261
  29   2.0000     -10.332701      -281.1671
  30   2.0000     -10.332698      -281.1670
  31   2.0000     -10.331695      -281.1397
  32   2.0000     -10.331073      -281.1228
  33   2.0000     -10.328044      -281.0404
  34   2.0000     -10.322207      -280.8815
  35   2.0000     -10.320257      -280.8285
  36   2.0000     -10.316292      -280.7206
  37   2.0000     -10.316049      -280.7140
  38   2.0000     -10.314289      -280.6661
  39   2.0000     -10.314116      -280.6614
  40   2.0000     -10.311677      -280.5950
  41   2.0000     -10.311261      -280.5837
  42   2.0000     -10.310016      -280.5498
  43   2.0000     -10.308785      -280.5163
  44   2.0000     -10.308093      -280.4975
  45   2.0000     -10.307060      -280.4694
  46   2.0000     -10.305863      -280.4368
  47   2.0000     -10.304248      -280.3928
  48   2.0000     -10.299667      -280.2682
  49   2.0000     -10.299100      -280.2528
  50   2.0000     -10.298679      -280.2413
  51   2.0000     -10.297748      -280.2160
  52   2.0000     -10.297653      -280.2134
  53   2.0000     -10.297074      -280.1976
  54   2.0000     -10.296309      -280.1768
  55   2.0000     -10.295797      -280.1629
  56   2.0000     -10.289177      -279.9827
  57   2.0000     -10.288917      -279.9757
  58   2.0000     -10.273012      -279.5429
  59   2.0000      -8.074837      -219.7275
  60   2.0000      -8.068739      -219.5616
  61   2.0000      -8.068638      -219.5588
  62   2.0000      -8.059883      -219.3206
  63   2.0000      -8.054930      -219.1858
  64   2.0000      -6.043700      -164.4574
  65   2.0000      -6.039472      -164.3424
  66   2.0000      -6.038324      -164.3111
  67   2.0000      -6.038238      -164.3088
  68   2.0000      -6.037994      -164.3022
  69   2.0000      -6.033992      -164.1933
  70   2.0000      -6.033915      -164.1912
  71   2.0000      -6.030423      -164.0961
  72   2.0000      -6.030421      -164.0961
  73   2.0000      -6.029276      -164.0649
  74   2.0000      -6.024977      -163.9480
  75   2.0000      -6.024710      -163.9407
  76   2.0000      -6.021970      -163.8661
  77   2.0000      -6.020187      -163.8176
  78   2.0000      -6.016358      -163.7134
  79   2.0000      -1.401964       -38.1494
  80   2.0000      -1.321525       -35.9605
  81   2.0000      -1.313050       -35.7299
  82   2.0000      -1.304960       -35.5098
  83   2.0000      -1.302090       -35.4317
  84   2.0000      -1.181813       -32.1588
  85   2.0000      -1.176416       -32.0119
  86   2.0000      -1.156872       -31.4801
  87   2.0000      -1.153940       -31.4003
  88   2.0000      -1.140189       -31.0261
  89   2.0000      -1.132868       -30.8269
  90   2.0000      -1.018222       -27.7072
  91   2.0000      -1.015990       -27.6465
  92   2.0000      -1.012003       -27.5380
  93   2.0000      -1.003558       -27.3082
  94   2.0000      -0.995401       -27.0862
  95   2.0000      -0.988594       -26.9010
  96   2.0000      -0.979689       -26.6587
  97   2.0000      -0.962787       -26.1988
  98   2.0000      -0.948439       -25.8083
  99   2.0000      -0.920200       -25.0399
 100   2.0000      -0.916953       -24.9516
 101   2.0000      -0.910293       -24.7703
 102   2.0000      -0.896000       -24.3814
 103   2.0000      -0.883044       -24.0288
 104   2.0000      -0.877983       -23.8911
 105   2.0000      -0.868123       -23.6228
 106   2.0000      -0.859913       -23.3994
 107   2.0000      -0.858713       -23.3668
 108   2.0000      -0.852656       -23.2020
 109   2.0000      -0.845358       -23.0034
 110   2.0000      -0.843906       -22.9639
 111   2.0000      -0.833243       -22.6737
 112   2.0000      -0.805430       -21.9169
 113   2.0000      -0.803616       -21.8675
 114   2.0000      -0.797630       -21.7046
 115   2.0000      -0.787775       -21.4364
 116   2.0000      -0.776870       -21.1397
 117   2.0000      -0.773981       -21.0611
 118   2.0000      -0.762256       -20.7420
 119   2.0000      -0.757547       -20.6139
 120   2.0000      -0.753492       -20.5036
 121   2.0000      -0.744215       -20.2511
 122   2.0000      -0.740213       -20.1422
 123   2.0000      -0.729251       -19.8439
 124   2.0000      -0.707965       -19.2647
 125   2.0000      -0.695540       -18.9266
 126   2.0000      -0.691477       -18.8161
 127   2.0000      -0.686389       -18.6776
 128   2.0000      -0.684207       -18.6182
 129   2.0000      -0.681216       -18.5368
 130   2.0000      -0.678299       -18.4575
 131   2.0000      -0.672573       -18.3016
 132   2.0000      -0.668328       -18.1861
 133   2.0000      -0.652125       -17.7452
 134   2.0000      -0.646079       -17.5807
 135   2.0000      -0.643133       -17.5005
 136   2.0000      -0.636392       -17.3171
 137   2.0000      -0.628360       -17.0985
 138   2.0000      -0.626788       -17.0558
 139   2.0000      -0.624448       -16.9921
 140   2.0000      -0.619986       -16.8707
 141   2.0000      -0.617263       -16.7966
 142   2.0000      -0.616955       -16.7882
 143   2.0000      -0.602995       -16.4083
 144   2.0000      -0.598028       -16.2732
 145   2.0000      -0.592347       -16.1186
 146   2.0000      -0.586924       -15.9710
 147   2.0000      -0.586126       -15.9493
 148   2.0000      -0.582865       -15.8606
 149   2.0000      -0.580236       -15.7890
 150   2.0000      -0.579304       -15.7637
 151   2.0000      -0.576874       -15.6976
 152   2.0000      -0.571458       -15.5502
 153   2.0000      -0.570691       -15.5293
 154   2.0000      -0.568778       -15.4772
 155   2.0000      -0.561843       -15.2885
 156   2.0000      -0.561612       -15.2822
 157   2.0000      -0.558125       -15.1873
 158   2.0000      -0.555499       -15.1159
 159   2.0000      -0.554703       -15.0942
 160   2.0000      -0.553801       -15.0697
 161   2.0000      -0.549525       -14.9533
 162   2.0000      -0.546768       -14.8783
 163   2.0000      -0.539473       -14.6798
 164   2.0000      -0.535727       -14.5779
 165   2.0000      -0.531793       -14.4708
 166   2.0000      -0.531501       -14.4629
 167   2.0000      -0.528740       -14.3878
 168   2.0000      -0.522661       -14.2223
 169   2.0000      -0.521506       -14.1909
 170   2.0000      -0.518291       -14.1034
 171   2.0000      -0.516110       -14.0441
 172   2.0000      -0.514788       -14.0081
 173   2.0000      -0.511822       -13.9274
 174   2.0000      -0.509206       -13.8562
 175   2.0000      -0.505372       -13.7519
 176   2.0000      -0.503356       -13.6970
 177   2.0000      -0.498219       -13.5572
 178   2.0000      -0.496859       -13.5202
 179   2.0000      -0.491786       -13.3822
 180   2.0000      -0.487158       -13.2562
 181   2.0000      -0.479520       -13.0484
 182   2.0000      -0.476658       -12.9705
 183   2.0000      -0.475131       -12.9290
 184   2.0000      -0.472470       -12.8566
 185   2.0000      -0.469866       -12.7857
 186   2.0000      -0.465129       -12.6568
 187   2.0000      -0.461788       -12.5659
 188   2.0000      -0.460885       -12.5413
 189   2.0000      -0.459657       -12.5079
 190   2.0000      -0.453402       -12.3377
 191   2.0000      -0.452200       -12.3050
 192   2.0000      -0.451162       -12.2767
 193   2.0000      -0.447084       -12.1658
 194   2.0000      -0.443477       -12.0676
 195   2.0000      -0.439406       -11.9568
 196   2.0000      -0.438600       -11.9349
 197   2.0000      -0.435819       -11.8592
 198   2.0000      -0.431876       -11.7520
 199   2.0000      -0.427544       -11.6341
 200   2.0000      -0.424840       -11.5605
 201   2.0000      -0.423588       -11.5264
 202   2.0000      -0.422307       -11.4916
 203   2.0000      -0.419822       -11.4239
 204   2.0000      -0.413275       -11.2458
 205   2.0000      -0.410672       -11.1750
 206   2.0000      -0.410237       -11.1631
 207   2.0000      -0.408834       -11.1250
 208   2.0000      -0.403296       -10.9742
 209   2.0000      -0.402439       -10.9509
 210   2.0000      -0.400012       -10.8849
 211   2.0000      -0.386888       -10.5277
 212   2.0000      -0.382201       -10.4002
 213   2.0000      -0.377910       -10.2835
 214   2.0000      -0.374535       -10.1916
 215   2.0000      -0.368663       -10.0318
 216   2.0000      -0.367960       -10.0127
 217   2.0000      -0.366625        -9.9764
 218   2.0000      -0.365353        -9.9417
 219   2.0000      -0.347354        -9.4520
 220   2.0000      -0.346877        -9.4390
 221   2.0000      -0.334334        -9.0977
 222   2.0000      -0.331213        -9.0128
 223   2.0000      -0.326395        -8.8817
 224   2.0000      -0.323936        -8.8147
 225   2.0000      -0.311049        -8.4641
 226   2.0000      -0.305081        -8.3017
 227   2.0000      -0.291095        -7.9211
 228   2.0000      -0.258081        -7.0228
 229   2.0000      -0.230985        -6.2854
 230   0.0000      -0.080199        -2.1823
 231   0.0000      -0.061400        -1.6708
 232   0.0000      -0.035888        -0.9766
 233   0.0000      -0.022494        -0.6121
 234   0.0000      -0.010829        -0.2947

MULLIKEN ATOMIC CHARGES
-----------------------
   0 C :   -0.127539
   1 S :    0.159639
   2 C :   -0.119786
   3 C :    0.097020
   4 C :    0.111132
   5 C :   -0.073878
   6 C :   -0.193631
   7 N :    0.110475
   8 C :    0.024150
   9 C :    0.016557
  10 C :   -0.002337
  11 C :   -0.009807
  12 C :    0.030922
  13 C :   -0.118439
  14 S :    0.141828
  15 C :   -0.103461
  16 C :   -0.077328
  17 C :   -0.088637
  18 C :    0.167910
  19 C :   -0.167210
  20 C :    0.510599
  21 F :   -0.167341
  22 F :   -0.140504
  23 F :   -0.167031
  24 C :   -0.083207
  25 C :   -0.263747
  26 N :    0.158988
  27 C :    0.142184
  28 C :   -0.099291
  29 S :    0.119007
  30 C :   -0.127764
  31 C :    0.180341
  32 C :    0.059538
  33 O :   -0.354569
  34 C :    0.199791
  35 O :   -0.315188
  36 C :    0.183150
  37 C :   -0.051192
  38 S :    0.223889
  39 C :   -0.130114
  40 C :    0.189519
  41 C :    0.041129
  42 O :   -0.356077
  43 C :    0.196068
  44 O :   -0.336888
  45 C :    0.189643
  46 C :   -0.157654
  47 S :    0.177825
  48 C :   -0.126514
  49 C :    0.099969
  50 C :    0.164706
  51 N :    0.282295
  52 O :   -0.281342
  53 O :   -0.249478
  54 N :    0.235899
  55 O :   -0.215595
  56 O :   -0.216915
  57 C :    0.032698
  58 C :   -0.016797
  59 H :    0.037863
  60 H :   -0.003359
  61 H :   -0.004636
  62 H :   -0.016709
  63 H :   -0.023471
  64 H :   -0.014652
  65 H :    0.042715
  66 H :    0.035105
  67 H :    0.043361
  68 H :    0.049576
  69 H :    0.038888
  70 H :    0.044347
  71 H :    0.041272
  72 H :    0.022574
  73 H :    0.030079
  74 H :    0.052825
  75 H :    0.037894
  76 H :    0.020020
  77 H :    0.022312
  78 H :    0.023586
  79 H :    0.045597
  80 H :    0.038242
  81 H :    0.046242
  82 H :    0.025032
  83 H :   -0.013463
  84 H :    0.038955
  85 H :    0.032193
Sum of atomic charges:   -0.0000000

LOEWDIN ATOMIC CHARGES
----------------------
   0 C :   -0.188170
   1 S :    0.496921
   2 C :   -0.178564
   3 C :   -0.046821
   4 C :   -0.038995
   5 C :   -0.065126
   6 C :   -0.027937
   7 N :   -0.058836
   8 C :    0.015413
   9 C :   -0.029231
  10 C :    0.004839
  11 C :   -0.042203
  12 C :   -0.050097
  13 C :   -0.176589
  14 S :    0.471821
  15 C :   -0.185226
  16 C :   -0.067077
  17 C :   -0.064240
  18 C :   -0.021395
  19 C :   -0.047154
  20 C :    0.161700
  21 F :   -0.062873
  22 F :   -0.041563
  23 F :   -0.062438
  24 C :   -0.040938
  25 C :   -0.045659
  26 N :   -0.052165
  27 C :   -0.018143
  28 C :   -0.201754
  29 S :    0.485645
  30 C :   -0.226470
  31 C :    0.008775
  32 C :   -0.032779
  33 O :   -0.135021
  34 C :    0.075104
  35 O :   -0.094639
  36 C :    0.086822
  37 C :   -0.187515
  38 S :    0.528527
  39 C :   -0.248183
  40 C :    0.017294
  41 C :   -0.048404
  42 O :   -0.138531
  43 C :    0.072693
  44 O :   -0.101245
  45 C :    0.087949
  46 C :   -0.129841
  47 S :    0.496358
  48 C :   -0.177918
  49 C :   -0.040506
  50 C :   -0.098908
  51 N :    0.289389
  52 O :   -0.241018
  53 O :   -0.207052
  54 N :    0.276586
  55 O :   -0.181888
  56 O :   -0.182617
  57 C :   -0.051240
  58 C :   -0.017827
  59 H :    0.032378
  60 H :    0.040698
  61 H :    0.034257
  62 H :    0.030909
  63 H :    0.030799
  64 H :    0.020506
  65 H :    0.040127
  66 H :    0.035646
  67 H :    0.048144
  68 H :    0.056391
  69 H :    0.039881
  70 H :    0.030283
  71 H :    0.027923
  72 H :    0.011487
  73 H :    0.015297
  74 H :    0.034142
  75 H :    0.023098
  76 H :    0.015755
  77 H :    0.010395
  78 H :    0.012857
  79 H :    0.028331
  80 H :    0.027810
  81 H :    0.026785
  82 H :    0.018944
  83 H :    0.028815
  84 H :    0.025938
  85 H :    0.031363

  Mayer bond orders larger than 0.100000
B(  0-C ,  1-S ) :   1.1873 B(  0-C ,  2-C ) :   0.1052 B(  0-C ,  4-C ) :   1.4598
B(  0-C , 59-H ) :   0.9503 B(  1-S ,  2-C ) :   1.1689 B(  2-C ,  3-C ) :   1.3272
B(  2-C , 11-C ) :   1.1802 B(  3-C ,  4-C ) :   1.1896 B(  3-C , 10-C ) :   1.2106
B(  4-C ,  5-C ) :   1.1826 B(  5-C ,  6-C ) :   1.0751 B(  5-C ,  8-C ) :   1.5662
B(  6-C ,  7-N ) :   3.0396 B(  8-C ,  9-C ) :   1.1932 B(  8-C , 60-H ) :   0.9951
B(  9-C , 10-C ) :   1.5431 B(  9-C , 61-H ) :   0.9834 B( 10-C , 62-H ) :   0.9923
B( 11-C , 12-C ) :   1.6507 B( 11-C , 63-H ) :   0.9601 B( 12-C , 13-C ) :   1.1457
B( 12-C , 64-H ) :   0.9471 B( 13-C , 14-S ) :   1.0899 B( 13-C , 15-C ) :   0.1008
B( 13-C , 17-C ) :   1.4974 B( 14-S , 15-C ) :   1.1296 B( 15-C , 16-C ) :   1.4782
B( 15-C , 28-C ) :   1.1742 B( 16-C , 17-C ) :   1.3366 B( 16-C , 27-C ) :   1.0584
B( 17-C , 18-C ) :   1.0410 B( 18-C , 19-C ) :   1.0339 B( 18-C , 65-H ) :   0.9084
B( 18-C , 66-H ) :   0.8921 B( 19-C , 20-C ) :   0.9875 B( 19-C , 24-C ) :   1.0171
B( 19-C , 67-H ) :   0.8896 B( 20-C , 21-F ) :   1.1375 B( 20-C , 22-F ) :   1.1721
B( 20-C , 23-F ) :   1.1439 B( 24-C , 25-C ) :   1.0782 B( 24-C , 27-C ) :   1.0742
B( 24-C , 68-H ) :   0.8656 B( 25-C , 26-N ) :   3.1267 B( 27-C , 69-H ) :   0.8950
B( 27-C , 70-H ) :   0.9005 B( 28-C , 29-S ) :   1.0882 B( 28-C , 30-C ) :   0.1197
B( 28-C , 32-C ) :   1.4546 B( 29-S , 30-C ) :   1.0813 B( 30-C , 31-C ) :   1.4314
B( 30-C , 37-C ) :   1.2115 B( 31-C , 32-C ) :   1.2333 B( 31-C , 35-O ) :   1.1956
B( 32-C , 33-O ) :   1.1205 B( 33-O , 34-C ) :   0.9184 B( 34-C , 71-H ) :   0.9833
B( 34-C , 72-H ) :   0.9636 B( 34-C , 73-H ) :   0.9679 B( 35-O , 36-C ) :   0.9254
B( 36-C , 74-H ) :   0.9789 B( 36-C , 75-H ) :   0.9719 B( 36-C , 76-H ) :   0.9744
B( 37-C , 38-S ) :   1.1180 B( 37-C , 39-C ) :   0.1068 B( 37-C , 41-C ) :   1.3981
B( 38-S , 39-C ) :   1.0479 B( 39-C , 40-C ) :   1.3727 B( 39-C , 46-C ) :   1.2913
B( 40-C , 41-C ) :   1.2876 B( 40-C , 44-O ) :   1.1451 B( 41-C , 42-O ) :   1.1238
B( 42-O , 43-C ) :   0.9245 B( 43-C , 77-H ) :   0.9642 B( 43-C , 78-H ) :   0.9663
B( 43-C , 79-H ) :   0.9830 B( 44-O , 45-C ) :   0.9212 B( 45-C , 80-H ) :   0.9774
B( 45-C , 81-H ) :   0.9724 B( 45-C , 82-H ) :   0.9763 B( 46-C , 47-S ) :   1.1737
B( 46-C , 50-C ) :   1.3816 B( 47-S , 48-C ) :   1.0442 B( 48-C , 49-C ) :   1.6219
B( 48-C , 57-C ) :   1.1063 B( 49-C , 50-C ) :   1.2520 B( 49-C , 54-N ) :   0.8312
B( 50-C , 51-N ) :   0.9971 B( 51-N , 52-O ) :   1.4292 B( 51-N , 53-O ) :   1.5167
B( 52-O , 53-O ) :   0.2388 B( 54-N , 55-O ) :   1.5587 B( 54-N , 56-O ) :   1.5499
B( 55-O , 56-O ) :   0.2901 B( 57-C , 58-C ) :   1.9477 B( 57-C , 83-H ) :   0.9404
B( 58-C , 84-H ) :   0.9556 B( 58-C , 85-H ) :   0.9456

-----------------------------------------------------------------------------
         ABSORPTION SPECTRUM VIA TRANSITION ELECTRIC DIPOLE MOMENTS
-----------------------------------------------------------------------------
State   Energy  Wavelength   fosc         T2         TX        TY        TZ
        (cm-1)    (nm)                  (au**2)     (au)      (au)      (au)
-----------------------------------------------------------------------------
   0   18212.6    549.1   2.221803009  40.16138   0.33333  -6.06467   1.80832
   1   22282.9    448.8   0.085996093   1.27053  -0.01465  -0.04477   1.12619
   2   25824.6    387.2   0.053106493   0.67700   0.03943  -0.63861   0.51732
   3   26942.9    371.2   0.167317616   2.04443  -0.08136   1.25872  -0.67338
   4   30168.8    331.5   0.032720151   0.35705   0.00380  -0.57225  -0.17196
   5   30276.3    330.3   0.004187835   0.04554   0.03151   0.20591   0.04633
   6   30689.5    325.8   0.121892775   1.30757  -0.05957  -0.75148   0.85982
   7   31907.3    313.4   0.130295158   1.34435  -0.06259  -0.30781   1.11610
   8   33567.4    297.9   0.033557899   0.32912  -0.02978   0.38924  -0.42038
   9   33928.8    294.7   0.115857155   1.12416  -0.02862  -0.90908  -0.54490
  10   34141.4    292.9   0.022406799   0.21606   0.16937  -0.17043  -0.39791
  11   35719.9    280.0   0.007022795   0.06473   0.14730  -0.18691   0.08996
  12   35850.0    278.9   0.017460902   0.16034   0.02677  -0.39310   0.07139
  13   36977.2    270.4   0.011396086   0.10146  -0.00360   0.14938   0.28131
  14   37808.1    264.5   0.047985008   0.41783   0.14261  -0.12621  -0.61771
  15   38354.5    260.7   0.031623738   0.27144   0.01542   0.29532  -0.42894
  16   38898.0    257.1   0.128723747   1.08945  -0.01721  -0.91017  -0.51063
  17   39439.4    253.6   0.122868146   1.02562   0.05867   0.73092   0.69852
  18   39905.7    250.6   0.134575310   1.11021   0.08476   0.49754  -0.92492
  19   40290.3    248.2   0.099172649   0.81034  -0.07763   0.84388   0.30360

FINAL SINGLE POINT ENERGY     -4609.622728007596

DIPOLE MOMENT
-------------
                                X             Y             Z
Electronic contribution:     -3.66910       7.25052       1.66801
Nuclear contribution   :      3.75918      -5.62648      -0.32575
                        -----------------------------------------
Total Dipole Moment    :      0.09008       1.62404       1.34225
                        -----------------------------------------
Magnitude (a.u.)       :      2.10886
Magnitude (Debye)      :      5.36029

Rotational constants in cm-1:     0.002867     0.000392     0.000348
Rotational constants in MHz :    85.957832    11.746114    10.437884

                             ****ORCA TERMINATED NORMALLY****
TOTAL RUN TIME: 0 days 0 hours 6 minutes 35 seconds 359 msec
