                         Program Version 4.2.0 -  RELEASE  -
|  1> # ORCA input file
|  2> # SCF done       -183.666276241791          0.000246552538
|  3> ! CAM-B3LYP def2-SVP def2/J RIJCOSX Grid4 TightSCF
|  4> %maxcore 5000
|  5> %tddft
|  6>     Mode sTDDFT
|  7>     Ethresh 5.0
|  8>     maxcore 5000
|  9> end
| 10>
| 11> %pal
| 12>   nprocs 6
| 13>   end
| 14> * xyz 0 1
| 15>    C      -10.15905        -7.03131        -3.94796
| 16>    S       -8.73683        -7.08664        -4.89043
| 17>    C       -7.73085        -7.40594        -3.51577
| 18>    C       -8.50170        -7.46488        -2.35516
| 19>    C       -9.89765        -7.24736        -2.61731
| 20>    C      -10.82628        -7.27671        -1.53316
| 21>    C      -12.19538        -7.06818        -1.79155
| 22>    N      -13.30978        -6.90293        -2.01197
| 23>    C      -10.36541        -7.51190        -0.26133
| 24>    C       -8.99605        -7.72741        -0.01549
| 25>    C       -8.08103        -7.70542        -1.02883
| 26>    C       -6.31634        -7.58085        -3.64701
| 27>    C       -5.65917        -7.52309        -4.80827
| 28>    C       -4.18601        -7.70733        -4.99480
| 29>    C       -3.46904        -8.24884        -3.80016
| 30>    C       -2.49003        -7.67964        -3.09589
| 31>    O       -2.03235        -8.40411        -2.01688
| 32>    C       -0.69059        -8.30941        -1.58217
| 33>    C       -0.51683        -7.41391        -0.34803
| 34>    C       -0.67777        -5.93050        -0.68710
| 35>    O       -2.05809        -5.68132        -0.96673
| 36>    C       -2.34459        -5.29378        -2.28494
| 37>    C       -1.92218        -6.31301        -3.36064
| 38>    C       -0.21024        -4.89836         0.32892
| 39>    C        0.44928        -3.77573        -0.20075
| 40>    O        0.74240        -3.80502        -1.53647
| 41>    C        1.42378        -2.71233        -2.12138
| 42>    C        1.61270        -3.03149        -3.59676
| 43>    C        0.75872        -2.70431         0.62021
| 44>    C        0.39433        -2.69264         1.95582
| 45>    C        0.72871        -1.49467         2.80083
| 46>    C        2.23473        -1.39046         3.04564
| 47>    C       -0.26925        -3.79554         2.49747
| 48>    O       -0.73922        -3.65524         3.77941
| 49>    C       -0.37335        -4.58698         4.78733
| 50>    C        1.11926        -4.87372         4.83309
| 51>    C       -0.54147        -4.91055         1.68604
| 52>    C       -1.23799        -6.07454         2.24931
| 53>    S       -0.37780        -7.44649         2.88614
| 54>    C       -1.87714        -8.29230         3.19431
| 55>    C       -2.95400        -7.52441         2.82925
| 56>    C       -2.58804        -6.26164         2.30586
| 57>    C       -3.57963        -5.24342         1.84039
| 58>    C       -4.96712        -5.87190         1.67945
| 59>    C       -5.99051        -4.76858         1.45059
| 60>    F       -5.60660        -3.92568         0.47904
| 61>    F       -7.19213        -5.23378         1.08020
| 62>    F       -6.18938        -4.02019         2.54687
| 63>    C       -5.29686        -6.70469         2.93191
| 64>    C       -6.66650        -7.15957         2.97697
| 65>    N       -7.72769        -7.57880         3.03654
| 66>    C       -4.38424        -7.94176         2.95896
| 67>    C       -1.88182        -9.67917         3.57199
| 68>    S       -2.78443       -10.79639         2.60065
| 69>    C       -2.22449       -12.17483         3.47647
| 70>    C       -1.32833       -11.78795         4.47210
| 71>    C       -1.16351       -10.36159         4.54403
| 72>    C       -0.37102        -9.82170         5.59931
| 73>    C       -0.35897        -8.44381         5.88973
| 74>    N       -0.37031        -7.34661         6.22705
| 75>    C        0.32099       -10.66977         6.43321
| 76>    C        0.25727       -12.06303         6.26153
| 77>    C       -0.56172       -12.61766         5.32050
| 78>    C       -2.73886       -13.46515         3.10379
| 79>    C       -2.84355       -14.53465         3.89038
| 80>    H      -11.10659        -6.84435        -4.41241
| 81>    H      -11.06020        -7.53259         0.56486
| 82>    H       -8.67965        -7.90162         1.00074
| 83>    H       -7.03415        -7.87447        -0.82624
| 84>    H       -5.77295        -7.77455        -2.73252
| 85>    H       -6.21103        -7.32038        -5.71813
| 86>    H       -3.76492        -6.75231        -5.32075
| 87>    H       -4.04501        -8.40941        -5.82624
| 88>    H       -3.78538        -9.23493        -3.48889
| 89>    H       -0.02300        -7.99542        -2.39232
| 90>    H       -0.41753        -9.33350        -1.30042
| 91>    H        0.46941        -7.59051         0.08177
| 92>    H       -1.28652        -7.70885         0.36136
| 93>    H       -0.08163        -5.73354        -1.58320
| 94>    H       -1.86939        -4.32699        -2.51061
| 95>    H       -3.43063        -5.16776        -2.30741
| 96>    H       -0.83220        -6.35577        -3.41590
| 97>    H       -2.27677        -5.94445        -4.32105
| 98>    H        2.39924        -2.57126        -1.63650
| 99>    H        0.83352        -1.79307        -2.00667
|100>    H        2.13438        -2.21471        -4.08672
|101>    H        0.64659        -3.17322        -4.07417
|102>    H        2.19381        -3.94296        -3.70934
|103>    H        1.26476        -1.83819         0.22491
|104>    H        0.20664        -1.57492         3.75327
|105>    H        0.38347        -0.58959         2.29598
|106>    H        2.60287        -2.28707         3.53859
|107>    H        2.45394        -0.53295         3.67739
|108>    H        2.77369        -1.27452         2.10811
|109>    H       -0.93228        -5.52168         4.68156
|110>    H       -0.69459        -4.10759         5.71524
|111>    H        1.45574        -5.29364         3.88621
|112>    H        1.31136        -5.59337         5.62260
|113>    H        1.67735        -3.96204         5.03215
|114>    H       -3.24110        -4.83259         0.88659
|115>    H       -3.62562        -4.42218         2.56401
|116>    H       -4.98586        -6.51281         0.79114
|117>    H       -5.11669        -6.08915         3.82277
|118>    H       -4.65548        -8.60172         2.12779
|119>    H       -4.53680        -8.50099         3.88554
|120>    H        0.91821       -10.25544         7.23191
|121>    H        0.85122       -12.69440         6.90438
|122>    H       -0.61250       -13.68732         5.20083
|123>    H       -3.11372       -13.51933         2.08885
|124>    H       -2.55855       -14.52512         4.92721
|125>    H       -3.25253       -15.45604         3.51475
|126> *
|127>
|128>                          ****END OF INPUT****

CARTESIAN COORDINATES (ANGSTROEM)
---------------------------------
  C    -10.159050   -7.031310   -3.947960
  S     -8.736830   -7.086640   -4.890430
  C     -7.730850   -7.405940   -3.515770
  C     -8.501700   -7.464880   -2.355160
  C     -9.897650   -7.247360   -2.617310
  C    -10.826280   -7.276710   -1.533160
  C    -12.195380   -7.068180   -1.791550
  N    -13.309780   -6.902930   -2.011970
  C    -10.365410   -7.511900   -0.261330
  C     -8.996050   -7.727410   -0.015490
  C     -8.081030   -7.705420   -1.028830
  C     -6.316340   -7.580850   -3.647010
  C     -5.659170   -7.523090   -4.808270
  C     -4.186010   -7.707330   -4.994800
  C     -3.469040   -8.248840   -3.800160
  C     -2.490030   -7.679640   -3.095890
  O     -2.032350   -8.404110   -2.016880
  C     -0.690590   -8.309410   -1.582170
  C     -0.516830   -7.413910   -0.348030
  C     -0.677770   -5.930500   -0.687100
  O     -2.058090   -5.681320   -0.966730
  C     -2.344590   -5.293780   -2.284940
  C     -1.922180   -6.313010   -3.360640
  C     -0.210240   -4.898360    0.328920
  C      0.449280   -3.775730   -0.200750
  O      0.742400   -3.805020   -1.536470
  C      1.423780   -2.712330   -2.121380
  C      1.612700   -3.031490   -3.596760
  C      0.758720   -2.704310    0.620210
  C      0.394330   -2.692640    1.955820
  C      0.728710   -1.494670    2.800830
  C      2.234730   -1.390460    3.045640
  C     -0.269250   -3.795540    2.497470
  O     -0.739220   -3.655240    3.779410
  C     -0.373350   -4.586980    4.787330
  C      1.119260   -4.873720    4.833090
  C     -0.541470   -4.910550    1.686040
  C     -1.237990   -6.074540    2.249310
  S     -0.377800   -7.446490    2.886140
  C     -1.877140   -8.292300    3.194310
  C     -2.954000   -7.524410    2.829250
  C     -2.588040   -6.261640    2.305860
  C     -3.579630   -5.243420    1.840390
  C     -4.967120   -5.871900    1.679450
  C     -5.990510   -4.768580    1.450590
  F     -5.606600   -3.925680    0.479040
  F     -7.192130   -5.233780    1.080200
  F     -6.189380   -4.020190    2.546870
  C     -5.296860   -6.704690    2.931910
  C     -6.666500   -7.159570    2.976970
  N     -7.727690   -7.578800    3.036540
  C     -4.384240   -7.941760    2.958960
  C     -1.881820   -9.679170    3.571990
  S     -2.784430  -10.796390    2.600650
  C     -2.224490  -12.174830    3.476470
  C     -1.328330  -11.787950    4.472100
  C     -1.163510  -10.361590    4.544030
  C     -0.371020   -9.821700    5.599310
  C     -0.358970   -8.443810    5.889730
  N     -0.370310   -7.346610    6.227050
  C      0.320990  -10.669770    6.433210
  C      0.257270  -12.063030    6.261530
  C     -0.561720  -12.617660    5.320500
  C     -2.738860  -13.465150    3.103790
  C     -2.843550  -14.534650    3.890380
  H    -11.106590   -6.844350   -4.412410
  H    -11.060200   -7.532590    0.564860
  H     -8.679650   -7.901620    1.000740
  H     -7.034150   -7.874470   -0.826240
  H     -5.772950   -7.774550   -2.732520
  H     -6.211030   -7.320380   -5.718130
  H     -3.764920   -6.752310   -5.320750
  H     -4.045010   -8.409410   -5.826240
  H     -3.785380   -9.234930   -3.488890
  H     -0.023000   -7.995420   -2.392320
  H     -0.417530   -9.333500   -1.300420
  H      0.469410   -7.590510    0.081770
  H     -1.286520   -7.708850    0.361360
  H     -0.081630   -5.733540   -1.583200
  H     -1.869390   -4.326990   -2.510610
  H     -3.430630   -5.167760   -2.307410
  H     -0.832200   -6.355770   -3.415900
  H     -2.276770   -5.944450   -4.321050
  H      2.399240   -2.571260   -1.636500
  H      0.833520   -1.793070   -2.006670
  H      2.134380   -2.214710   -4.086720
  H      0.646590   -3.173220   -4.074170
  H      2.193810   -3.942960   -3.709340
  H      1.264760   -1.838190    0.224910
  H      0.206640   -1.574920    3.753270
  H      0.383470   -0.589590    2.295980
  H      2.602870   -2.287070    3.538590
  H      2.453940   -0.532950    3.677390
  H      2.773690   -1.274520    2.108110
  H     -0.932280   -5.521680    4.681560
  H     -0.694590   -4.107590    5.715240
  H      1.455740   -5.293640    3.886210
  H      1.311360   -5.593370    5.622600
  H      1.677350   -3.962040    5.032150
  H     -3.241100   -4.832590    0.886590
  H     -3.625620   -4.422180    2.564010
  H     -4.985860   -6.512810    0.791140
  H     -5.116690   -6.089150    3.822770
  H     -4.655480   -8.601720    2.127790
  H     -4.536800   -8.500990    3.885540
  H      0.918210  -10.255440    7.231910
  H      0.851220  -12.694400    6.904380
  H     -0.612500  -13.687320    5.200830
  H     -3.113720  -13.519330    2.088850
  H     -2.558550  -14.525120    4.927210
  H     -3.252530  -15.456040    3.514750

 Total Charge           Charge          ....    0
 Multiplicity           Mult            ....    1
 Number of Electrons    NEL             ....  486
 Basis Dimension        Dim             .... 1152

ORBITAL ENERGIES
----------------

  NO   OCC          E(Eh)            E(eV)
   0   2.0000     -88.980462     -2421.2815
   1   2.0000     -88.956963     -2420.6420
   2   2.0000     -88.954756     -2420.5820
   3   2.0000     -24.796688      -674.7522
   4   2.0000     -24.792793      -674.6462
   5   2.0000     -24.792568      -674.6401
   6   2.0000     -19.247289      -523.7454
   7   2.0000     -19.222164      -523.0617
   8   2.0000     -19.217300      -522.9293
   9   2.0000     -19.213469      -522.8251
  10   2.0000     -14.409173      -392.0935
  11   2.0000     -14.406056      -392.0087
  12   2.0000     -14.384275      -391.4160
  13   2.0000     -10.508380      -285.9476
  14   2.0000     -10.330285      -281.1014
  15   2.0000     -10.327709      -281.0312
  16   2.0000     -10.327336      -281.0211
  17   2.0000     -10.320993      -280.8485
  18   2.0000     -10.319716      -280.8138
  19   2.0000     -10.317404      -280.7508
  20   2.0000     -10.316544      -280.7274
  21   2.0000     -10.316076      -280.7147
  22   2.0000     -10.315571      -280.7009
  23   2.0000     -10.314789      -280.6797
  24   2.0000     -10.313900      -280.6555
  25   2.0000     -10.311072      -280.5785
  26   2.0000     -10.310127      -280.5528
  27   2.0000     -10.308103      -280.4978
  28   2.0000     -10.306365      -280.4505
  29   2.0000     -10.304359      -280.3959
  30   2.0000     -10.303381      -280.3692
  31   2.0000     -10.298516      -280.2369
  32   2.0000     -10.298121      -280.2261
  33   2.0000     -10.297789      -280.2171
  34   2.0000     -10.296865      -280.1919
  35   2.0000     -10.295881      -280.1652
  36   2.0000     -10.295615      -280.1579
  37   2.0000     -10.291231      -280.0386
  38   2.0000     -10.290877      -280.0290
  39   2.0000     -10.290349      -280.0146
  40   2.0000     -10.285299      -279.8772
  41   2.0000     -10.284139      -279.8456
  42   2.0000     -10.283252      -279.8215
  43   2.0000     -10.282064      -279.7892
  44   2.0000     -10.281081      -279.7624
  45   2.0000     -10.277446      -279.6635
  46   2.0000     -10.275930      -279.6223
  47   2.0000     -10.274595      -279.5859
  48   2.0000     -10.274296      -279.5778
  49   2.0000     -10.274135      -279.5734
  50   2.0000     -10.273099      -279.5452
  51   2.0000     -10.270705      -279.4801
  52   2.0000     -10.270365      -279.4708
  53   2.0000     -10.269779      -279.4549
  54   2.0000     -10.269709      -279.4530
  55   2.0000     -10.268100      -279.4092
  56   2.0000     -10.267161      -279.3837
  57   2.0000     -10.265444      -279.3369
  58   2.0000     -10.264917      -279.3226
  59   2.0000     -10.257611      -279.1238
  60   2.0000     -10.256819      -279.1022
  61   2.0000     -10.255916      -279.0777
  62   2.0000     -10.251854      -278.9671
  63   2.0000     -10.244854      -278.7766
  64   2.0000     -10.241537      -278.6864
  65   2.0000      -8.075379      -219.7422
  66   2.0000      -8.050926      -219.0768
  67   2.0000      -8.050034      -219.0526
  68   2.0000      -6.044204      -164.4712
  69   2.0000      -6.040125      -164.3602
  70   2.0000      -6.038492      -164.3157
  71   2.0000      -6.020365      -163.8225
  72   2.0000      -6.018890      -163.7823
  73   2.0000      -6.016235      -163.7101
  74   2.0000      -6.014711      -163.6686
  75   2.0000      -6.013197      -163.6274
  76   2.0000      -6.012920      -163.6199
  77   2.0000      -1.384470       -37.6733
  78   2.0000      -1.287479       -35.0341
  79   2.0000      -1.284477       -34.9524
  80   2.0000      -1.150980       -31.3198
  81   2.0000      -1.128731       -30.7143
  82   2.0000      -1.121186       -30.5090
  83   2.0000      -1.111513       -30.2458
  84   2.0000      -1.018939       -27.7267
  85   2.0000      -1.001617       -27.2554
  86   2.0000      -0.994420       -27.0596
  87   2.0000      -0.989477       -26.9250
  88   2.0000      -0.987653       -26.8754
  89   2.0000      -0.967360       -26.3232
  90   2.0000      -0.953284       -25.9402
  91   2.0000      -0.951644       -25.8956
  92   2.0000      -0.944387       -25.6981
  93   2.0000      -0.923432       -25.1279
  94   2.0000      -0.910555       -24.7775
  95   2.0000      -0.906855       -24.6768
  96   2.0000      -0.893053       -24.3012
  97   2.0000      -0.883947       -24.0534
  98   2.0000      -0.878455       -23.9040
  99   2.0000      -0.872172       -23.7330
 100   2.0000      -0.865160       -23.5422
 101   2.0000      -0.861521       -23.4432
 102   2.0000      -0.853958       -23.2374
 103   2.0000      -0.847894       -23.0724
 104   2.0000      -0.846456       -23.0332
 105   2.0000      -0.836847       -22.7718
 106   2.0000      -0.834213       -22.7001
 107   2.0000      -0.831683       -22.6313
 108   2.0000      -0.819525       -22.3004
 109   2.0000      -0.816364       -22.2144
 110   2.0000      -0.807017       -21.9600
 111   2.0000      -0.791416       -21.5355
 112   2.0000      -0.788038       -21.4436
 113   2.0000      -0.766826       -20.8664
 114   2.0000      -0.760640       -20.6981
 115   2.0000      -0.748829       -20.3767
 116   2.0000      -0.746153       -20.3039
 117   2.0000      -0.739662       -20.1272
 118   2.0000      -0.731880       -19.9155
 119   2.0000      -0.722095       -19.6492
 120   2.0000      -0.718924       -19.5629
 121   2.0000      -0.714124       -19.4323
 122   2.0000      -0.713128       -19.4052
 123   2.0000      -0.707596       -19.2547
 124   2.0000      -0.705039       -19.1851
 125   2.0000      -0.691418       -18.8144
 126   2.0000      -0.682288       -18.5660
 127   2.0000      -0.678235       -18.4557
 128   2.0000      -0.671738       -18.2789
 129   2.0000      -0.667172       -18.1547
 130   2.0000      -0.666415       -18.1341
 131   2.0000      -0.656373       -17.8608
 132   2.0000      -0.654527       -17.8106
 133   2.0000      -0.650970       -17.7138
 134   2.0000      -0.647325       -17.6146
 135   2.0000      -0.637333       -17.3427
 136   2.0000      -0.627879       -17.0854
 137   2.0000      -0.619556       -16.8590
 138   2.0000      -0.615548       -16.7499
 139   2.0000      -0.613127       -16.6840
 140   2.0000      -0.601419       -16.3654
 141   2.0000      -0.596177       -16.2228
 142   2.0000      -0.593842       -16.1593
 143   2.0000      -0.590117       -16.0579
 144   2.0000      -0.583915       -15.8891
 145   2.0000      -0.581698       -15.8288
 146   2.0000      -0.577607       -15.7175
 147   2.0000      -0.574669       -15.6375
 148   2.0000      -0.572970       -15.5913
 149   2.0000      -0.567098       -15.4315
 150   2.0000      -0.566023       -15.4023
 151   2.0000      -0.560559       -15.2536
 152   2.0000      -0.556085       -15.1318
 153   2.0000      -0.552465       -15.0333
 154   2.0000      -0.549928       -14.9643
 155   2.0000      -0.545648       -14.8478
 156   2.0000      -0.543819       -14.7981
 157   2.0000      -0.543004       -14.7759
 158   2.0000      -0.538400       -14.6506
 159   2.0000      -0.537108       -14.6155
 160   2.0000      -0.535173       -14.5628
 161   2.0000      -0.533306       -14.5120
 162   2.0000      -0.528578       -14.3833
 163   2.0000      -0.526028       -14.3139
 164   2.0000      -0.524037       -14.2598
 165   2.0000      -0.521109       -14.1801
 166   2.0000      -0.517708       -14.0876
 167   2.0000      -0.516263       -14.0482
 168   2.0000      -0.512413       -13.9435
 169   2.0000      -0.509996       -13.8777
 170   2.0000      -0.507068       -13.7980
 171   2.0000      -0.503769       -13.7082
 172   2.0000      -0.502040       -13.6612
 173   2.0000      -0.500511       -13.6196
 174   2.0000      -0.498456       -13.5637
 175   2.0000      -0.494935       -13.4679
 176   2.0000      -0.491579       -13.3765
 177   2.0000      -0.490115       -13.3367
 178   2.0000      -0.489463       -13.3190
 179   2.0000      -0.482427       -13.1275
 180   2.0000      -0.481211       -13.0944
 181   2.0000      -0.479912       -13.0591
 182   2.0000      -0.479104       -13.0371
 183   2.0000      -0.476978       -12.9792
 184   2.0000      -0.474737       -12.9182
 185   2.0000      -0.471713       -12.8360
 186   2.0000      -0.470039       -12.7904
 187   2.0000      -0.468588       -12.7509
 188   2.0000      -0.466370       -12.6906
 189   2.0000      -0.463623       -12.6158
 190   2.0000      -0.461944       -12.5701
 191   2.0000      -0.457717       -12.4551
 192   2.0000      -0.456375       -12.4186
 193   2.0000      -0.451698       -12.2913
 194   2.0000      -0.450309       -12.2535
 195   2.0000      -0.447433       -12.1753
 196   2.0000      -0.445323       -12.1179
 197   2.0000      -0.442755       -12.0480
 198   2.0000      -0.442239       -12.0339
 199   2.0000      -0.439496       -11.9593
 200   2.0000      -0.438413       -11.9298
 201   2.0000      -0.436368       -11.8742
 202   2.0000      -0.435760       -11.8576
 203   2.0000      -0.433741       -11.8027
 204   2.0000      -0.432752       -11.7758
 205   2.0000      -0.431139       -11.7319
 206   2.0000      -0.428827       -11.6690
 207   2.0000      -0.428579       -11.6622
 208   2.0000      -0.425614       -11.5815
 209   2.0000      -0.424751       -11.5581
 210   2.0000      -0.424011       -11.5379
 211   2.0000      -0.419383       -11.4120
 212   2.0000      -0.416617       -11.3367
 213   2.0000      -0.413184       -11.2433
 214   2.0000      -0.411551       -11.1989
 215   2.0000      -0.409084       -11.1317
 216   2.0000      -0.407594       -11.0912
 217   2.0000      -0.403690       -10.9850
 218   2.0000      -0.401917       -10.9367
 219   2.0000      -0.400538       -10.8992
 220   2.0000      -0.398607       -10.8467
 221   2.0000      -0.395144       -10.7524
 222   2.0000      -0.394819       -10.7436
 223   2.0000      -0.391714       -10.6591
 224   2.0000      -0.388362       -10.5679
 225   2.0000      -0.386589       -10.5196
 226   2.0000      -0.378450       -10.2981
 227   2.0000      -0.368994       -10.0408
 228   2.0000      -0.367001        -9.9866
 229   2.0000      -0.365064        -9.9339
 230   2.0000      -0.346485        -9.4283
 231   2.0000      -0.343443        -9.3456
 232   2.0000      -0.332978        -9.0608
 233   2.0000      -0.332069        -9.0361
 234   2.0000      -0.316994        -8.6259
 235   2.0000      -0.310653        -8.4533
 236   2.0000      -0.308146        -8.3851
 237   2.0000      -0.305350        -8.3090
 238   2.0000      -0.304638        -8.2896
 239   2.0000      -0.274745        -7.4762
 240   2.0000      -0.269085        -7.3222
 241   2.0000      -0.257061        -6.9950
 242   2.0000      -0.238943        -6.5020
 243   0.0000      -0.067440        -1.8351
 244   0.0000      -0.036937        -1.0051
 245   0.0000      -0.007884        -0.2145
 246   0.0000       0.002714         0.0738
 247   0.0000       0.015705         0.4274

MULLIKEN ATOMIC CHARGES
-----------------------
   0 C :   -0.141085
   1 S :    0.141414
   2 C :   -0.116301
   3 C :    0.098262
   4 C :    0.114274
   5 C :   -0.074473
   6 C :   -0.192067
   7 N :    0.098218
   8 C :    0.021637
   9 C :    0.027153
  10 C :    0.000871
  11 C :    0.038557
  12 C :   -0.163122
  13 C :    0.214841
  14 C :   -0.144204
  15 C :    0.067589
  16 O :   -0.333934
  17 C :    0.221905
  18 C :    0.077103
  19 C :    0.171457
  20 O :   -0.382153
  21 C :    0.229719
  22 C :    0.053523
  23 C :   -0.045364
  24 C :    0.223924
  25 O :   -0.335796
  26 C :    0.136407
  27 C :    0.025081
  28 C :   -0.160678
  29 C :   -0.058715
  30 C :    0.092910
  31 C :    0.007948
  32 C :    0.122009
  33 O :   -0.335780
  34 C :    0.188449
  35 C :   -0.014184
  36 C :   -0.032078
  37 C :   -0.302032
  38 S :    0.162899
  39 C :   -0.148420
  40 C :   -0.058015
  41 C :   -0.008984
  42 C :    0.269053
  43 C :   -0.206137
  44 C :    0.511507
  45 F :   -0.160977
  46 F :   -0.146058
  47 F :   -0.165227
  48 C :   -0.119204
  49 C :   -0.198651
  50 N :    0.122351
  51 C :    0.192528
  52 C :   -0.243405
  53 S :    0.194028
  54 C :   -0.149478
  55 C :    0.081055
  56 C :    0.213425
  57 C :   -0.121778
  58 C :   -0.168383
  59 N :    0.093555
  60 C :    0.026986
  61 C :    0.019515
  62 C :   -0.006309
  63 C :    0.020902
  64 C :   -0.022298
  65 H :    0.029004
  66 H :   -0.007166
  67 H :   -0.015257
  68 H :   -0.039255
  69 H :   -0.005455
  70 H :   -0.005377
  71 H :    0.003721
  72 H :    0.013932
  73 H :   -0.010179
  74 H :   -0.011196
  75 H :    0.008606
  76 H :    0.003153
  77 H :    0.022235
  78 H :   -0.009164
  79 H :    0.000964
  80 H :    0.010910
  81 H :    0.011316
  82 H :    0.001895
  83 H :    0.016579
  84 H :    0.018679
  85 H :    0.019227
  86 H :    0.023480
  87 H :    0.023883
  88 H :   -0.042446
  89 H :    0.014829
  90 H :    0.002549
  91 H :    0.010931
  92 H :    0.014252
  93 H :    0.001350
  94 H :    0.033596
  95 H :    0.009227
  96 H :    0.006902
  97 H :    0.029883
  98 H :    0.012310
  99 H :    0.041905
 100 H :    0.026162
 101 H :    0.043531
 102 H :    0.057067
 103 H :    0.025984
 104 H :    0.036378
 105 H :   -0.003378
 106 H :   -0.004173
 107 H :   -0.013395
 108 H :    0.004461
 109 H :    0.028572
 110 H :    0.033205
Sum of atomic charges:   -0.0000000

LOEWDIN ATOMIC CHARGES
----------------------
   0 C :   -0.197874
   1 S :    0.484680
   2 C :   -0.178434
   3 C :   -0.050591
   4 C :   -0.039840
   5 C :   -0.072018
   6 C :   -0.025656
   7 N :   -0.070742
   8 C :    0.019375
   9 C :   -0.026887
  10 C :   -0.000522
  11 C :   -0.055144
  12 C :   -0.028328
  13 C :   -0.032088
  14 C :   -0.087910
  15 C :    0.044301
  16 O :   -0.123369
  17 C :    0.083704
  18 C :   -0.055814
  19 C :    0.075539
  20 O :   -0.158606
  21 C :    0.080163
  22 C :   -0.061972
  23 C :   -0.048842
  24 C :    0.051330
  25 O :   -0.110913
  26 C :    0.081368
  27 C :   -0.060442
  28 C :   -0.064129
  29 C :   -0.023292
  30 C :   -0.026607
  31 C :   -0.049605
  32 C :    0.040756
  33 O :   -0.124055
  34 C :    0.077875
  35 C :   -0.076643
  36 C :   -0.059455
  37 C :   -0.157225
  38 S :    0.474176
  39 C :   -0.206768
  40 C :   -0.061824
  41 C :   -0.053101
  42 C :   -0.014933
  43 C :   -0.048035
  44 C :    0.162164
  45 F :   -0.057879
  46 F :   -0.046723
  47 F :   -0.061402
  48 C :   -0.043103
  49 C :   -0.024806
  50 N :   -0.059604
  51 C :   -0.009198
  52 C :   -0.200459
  53 S :    0.512659
  54 C :   -0.176404
  55 C :   -0.047053
  56 C :   -0.034620
  57 C :   -0.071957
  58 C :   -0.023623
  59 N :   -0.059659
  60 C :    0.021488
  61 C :   -0.033268
  62 C :    0.012019
  63 C :   -0.043827
  64 C :   -0.034104
  65 H :    0.028630
  66 H :    0.039879
  67 H :    0.029342
  68 H :    0.023694
  69 H :    0.030689
  70 H :    0.014145
  71 H :    0.030469
  72 H :    0.038888
  73 H :    0.026098
  74 H :    0.006679
  75 H :    0.022250
  76 H :    0.023838
  77 H :    0.026933
  78 H :    0.013504
  79 H :    0.005988
  80 H :    0.021797
  81 H :    0.026326
  82 H :    0.036561
  83 H :    0.013583
  84 H :    0.013769
  85 H :    0.032052
  86 H :    0.027743
  87 H :    0.028604
  88 H :    0.025476
  89 H :    0.028507
  90 H :    0.027417
  91 H :    0.022607
  92 H :    0.023845
  93 H :    0.017187
  94 H :    0.002772
  95 H :    0.022742
  96 H :    0.015338
  97 H :    0.032828
  98 H :    0.020809
  99 H :    0.040787
 100 H :    0.039453
 101 H :    0.045499
 102 H :    0.060061
 103 H :    0.034136
 104 H :    0.041555
 105 H :    0.040937
 106 H :    0.034292
 107 H :    0.033675
 108 H :    0.032620
 109 H :    0.023634
 110 H :    0.030118

  Mayer bond orders larger than 0.100000
B(  0-C ,  1-S ) :   1.1798 B(  0-C ,  2-C ) :   0.1102 B(  0-C ,  4-C ) :   1.4712
B(  0-C , 65-H ) :   0.9506 B(  1-S ,  2-C ) :   1.1733 B(  2-C ,  3-C ) :   1.3625
B(  2-C , 11-C ) :   1.1164 B(  3-C ,  4-C ) :   1.1834 B(  3-C , 10-C ) :   1.1990
B(  4-C ,  5-C ) :   1.1782 B(  5-C ,  6-C ) :   1.0756 B(  5-C ,  8-C ) :   1.5588
B(  6-C ,  7-N ) :   3.0378 B(  8-C ,  9-C ) :   1.1963 B(  8-C , 66-H ) :   0.9986
B(  9-C , 10-C ) :   1.5427 B(  9-C , 67-H ) :   0.9670 B( 10-C , 68-H ) :   0.9908
B( 11-C , 12-C ) :   1.8387 B( 11-C , 69-H ) :   0.9484 B( 12-C , 13-C ) :   0.9962
B( 12-C , 70-H ) :   0.9696 B( 13-C , 14-C ) :   1.0611 B( 13-C , 71-H ) :   0.9072
B( 13-C , 72-H ) :   0.9041 B( 14-C , 15-C ) :   1.8763 B( 14-C , 73-H ) :   0.9401
B( 15-C , 16-O ) :   1.0814 B( 15-C , 22-C ) :   1.0249 B( 16-O , 17-C ) :   0.9824
B( 17-C , 18-C ) :   1.0770 B( 17-C , 74-H ) :   0.9389 B( 17-C , 75-H ) :   0.9481
B( 18-C , 19-C ) :   1.0325 B( 18-C , 76-H ) :   0.9299 B( 18-C , 77-H ) :   0.8986
B( 19-C , 20-O ) :   0.9827 B( 19-C , 23-C ) :   1.0126 B( 19-C , 78-H ) :   0.8795
B( 20-O , 21-C ) :   1.0075 B( 21-C , 22-C ) :   1.0689 B( 21-C , 79-H ) :   0.9429
B( 21-C , 80-H ) :   0.9457 B( 22-C , 81-H ) :   0.9059 B( 22-C , 82-H ) :   0.9071
B( 23-C , 24-C ) :   1.3787 B( 23-C , 36-C ) :   1.4471 B( 24-C , 25-O ) :   1.0957
B( 24-C , 28-C ) :   1.3035 B( 25-O , 26-C ) :   0.9471 B( 26-C , 27-C ) :   1.0951
B( 26-C , 83-H ) :   0.9501 B( 26-C , 84-H ) :   0.9504 B( 27-C , 85-H ) :   0.9607
B( 27-C , 86-H ) :   0.9700 B( 27-C , 87-H ) :   0.9680 B( 28-C , 29-C ) :   1.3096
B( 28-C , 88-H ) :   1.0072 B( 29-C , 30-C ) :   1.0417 B( 29-C , 32-C ) :   1.4080
B( 30-C , 31-C ) :   1.1007 B( 30-C , 89-H ) :   0.9256 B( 30-C , 90-H ) :   0.9275
B( 31-C , 91-H ) :   0.9670 B( 31-C , 92-H ) :   0.9685 B( 31-C , 93-H ) :   0.9693
B( 32-C , 33-O ) :   1.1563 B( 32-C , 36-C ) :   1.3341 B( 33-O , 34-C ) :   0.9242
B( 34-C , 35-C ) :   1.1099 B( 34-C , 94-H ) :   0.9425 B( 34-C , 95-H ) :   0.9530
B( 35-C , 96-H ) :   0.9553 B( 35-C , 97-H ) :   0.9520 B( 35-C , 98-H ) :   0.9598
B( 36-C , 37-C ) :   0.9176 B( 37-C , 38-S ) :   1.1679 B( 37-C , 39-C ) :   0.1109
B( 37-C , 41-C ) :   1.6094 B( 38-S , 39-C ) :   1.1243 B( 39-C , 40-C ) :   1.5466
B( 39-C , 52-C ) :   1.0382 B( 40-C , 41-C ) :   1.2644 B( 40-C , 51-C ) :   1.0649
B( 41-C , 42-C ) :   1.0450 B( 42-C , 43-C ) :   1.0410 B( 42-C , 99-H ) :   0.8687
B( 42-C ,100-H ) :   0.8967 B( 43-C , 44-C ) :   0.9840 B( 43-C , 48-C ) :   0.9964
B( 43-C ,101-H ) :   0.8912 B( 44-C , 45-F ) :   1.1499 B( 44-C , 46-F ) :   1.1501
B( 44-C , 47-F ) :   1.1522 B( 48-C , 49-C ) :   1.0902 B( 48-C , 51-C ) :   1.0950
B( 48-C ,102-H ) :   0.8686 B( 49-C , 50-N ) :   3.0042 B( 51-C ,103-H ) :   0.8812
B( 51-C ,104-H ) :   0.9068 B( 52-C , 53-S ) :   1.1838 B( 52-C , 54-C ) :   0.1276
B( 52-C , 56-C ) :   1.4058 B( 53-S , 54-C ) :   1.1761 B( 54-C , 55-C ) :   1.3840
B( 54-C , 63-C ) :   1.0867 B( 55-C , 56-C ) :   1.1809 B( 55-C , 62-C ) :   1.1972
B( 56-C , 57-C ) :   1.1863 B( 57-C , 58-C ) :   1.0940 B( 57-C , 60-C ) :   1.5678
B( 58-C , 59-N ) :   2.9476 B( 60-C , 61-C ) :   1.1946 B( 60-C ,105-H ) :   0.9938
B( 61-C , 62-C ) :   1.5406 B( 61-C ,106-H ) :   0.9842 B( 62-C ,107-H ) :   0.9916
B( 63-C , 64-C ) :   1.9379 B( 63-C ,108-H ) :   0.9497 B( 64-C ,109-H ) :   0.9601
B( 64-C ,110-H ) :   0.9474

-----------------------------------------------------------------------------
         ABSORPTION SPECTRUM VIA TRANSITION ELECTRIC DIPOLE MOMENTS
-----------------------------------------------------------------------------
State   Energy  Wavelength   fosc         T2         TX        TY        TZ
        (cm-1)    (nm)                  (au**2)     (au)      (au)      (au)
-----------------------------------------------------------------------------
   0   23535.6    424.9   0.362989242   5.07743   0.26182   2.23476  -0.12142
   1   26579.9    376.2   0.324531002   4.01956   1.98454  -0.18169  -0.21943
   2   27493.2    363.7   0.000046476   0.00056  -0.02009  -0.01156  -0.00440
   3   30564.3    327.2   0.000738404   0.00795  -0.01451  -0.04796  -0.07378
   4   32030.4    312.2   0.005680981   0.05839   0.14503   0.14365   0.12931
   5   32849.3    304.4   0.031387112   0.31456  -0.24038  -0.33605  -0.37928
   6   33978.2    294.3   0.018763089   0.18179   0.24426  -0.34523  -0.05431
   7   34529.8    289.6   0.313040736   2.98457   0.15087   1.59929  -0.63567
   8   35544.8    281.3   0.000593620   0.00550  -0.05357   0.00018   0.05127
   9   36773.6    271.9   0.038431694   0.34406   0.31081   0.33665   0.36622
  10   37757.8    264.8   0.000055283   0.00048  -0.02001  -0.00417   0.00801
  11   38569.0    259.3   0.185277354   1.58147  -1.15262   0.03969   0.50135
  12   38707.1    258.4   0.012637732   0.10749   0.08085  -0.02224   0.31695
  13   39393.1    253.9   0.006206660   0.05187   0.00743  -0.06795  -0.21725
  14   39862.1    250.9   0.000101758   0.00084  -0.00172   0.00078   0.02893

FINAL SINGLE POINT ENERGY     -3964.593605176738

DIPOLE MOMENT
-------------
                                X             Y             Z
Electronic contribution:    -68.34126     -17.33642      14.41439
Nuclear contribution   :     73.77626      16.09501     -14.68995
                        -----------------------------------------
Total Dipole Moment    :      5.43499      -1.24142      -0.27555
                        -----------------------------------------
Magnitude (a.u.)       :      5.58177
Magnitude (Debye)      :     14.18774

Rotational constants in cm-1:     0.001276     0.000816     0.000659
Rotational constants in MHz :    38.262308    24.470073    19.747490

                             ****ORCA TERMINATED NORMALLY****
TOTAL RUN TIME: 0 days 0 hours 10 minutes 48 seconds 381 msec
