                         Program Version 4.2.0 -  RELEASE  -
|  1> # ORCA input file
|  2> # SCF done       -182.422933254661          0.000689037911
|  3> ! CAM-B3LYP def2-SVP def2/J RIJCOSX Grid4 TightSCF
|  4> %maxcore 5000
|  5> %tddft
|  6>     Mode sTDDFT
|  7>     Ethresh 5.0
|  8>     maxcore 5000
|  9> end
| 10>
| 11> %pal
| 12>   nprocs 6
| 13>   end
| 14> * xyz 0 1
| 15>    C       -6.05581        -0.71590         5.80424
| 16>    S       -5.71263        -2.35440         5.48262
| 17>    C       -5.17516        -2.01536         3.86722
| 18>    C       -5.26750        -0.64217         3.60266
| 19>    C       -5.77505         0.09181         4.72621
| 20>    C       -5.92900         1.50628         4.62569
| 21>    C       -6.42589         2.22971         5.72883
| 22>    N       -6.83027         2.81331         6.63015
| 23>    C       -5.58685         2.13830         3.45373
| 24>    C       -5.08941         1.40733         2.36020
| 25>    C       -4.92975         0.04992         2.42268
| 26>    C       -4.72100        -3.03144         2.98925
| 27>    C       -4.64485        -4.33938         3.33504
| 28>    C       -4.21806        -5.44691         2.55451
| 29>    S       -4.36476        -7.01893         3.29523
| 30>    C       -3.74482        -7.81387         1.88188
| 31>    C       -3.45153        -6.89661         0.89102
| 32>    C       -3.69862        -5.56493         1.27418
| 33>    C       -3.43607        -4.40853         0.35841
| 34>    C       -2.66166        -4.82732        -0.89691
| 35>    C       -2.71828        -3.68416        -1.90339
| 36>    F       -2.41518        -2.50524        -1.32960
| 37>    F       -1.86558        -3.83154        -2.92116
| 38>    F       -3.94226        -3.53478        -2.43461
| 39>    C       -3.26589        -6.11798        -1.47086
| 40>    C       -2.70072        -6.48052        -2.75195
| 41>    N       -2.25387        -6.81910        -3.74692
| 42>    C       -2.99580        -7.26358        -0.48458
| 43>    C       -3.64097        -9.23816         1.88459
| 44>    S       -4.78764       -10.15820         2.81706
| 45>    C       -4.05149       -11.65865         2.36988
| 46>    C       -2.97646       -11.44146         1.52410
| 47>    C       -2.71804       -10.07082         1.27115
| 48>    O       -1.66863        -9.55234         0.58327
| 49>    C       -0.48106       -10.32272         0.50719
| 50>    O       -2.26209       -12.49740         1.00695
| 51>    C       -2.67923       -12.88570        -0.29171
| 52>    C       -4.45416       -12.92862         2.86433
| 53>    S       -3.47717       -14.31652         2.49253
| 54>    C       -4.48251       -15.33359         3.48611
| 55>    C       -5.53745       -14.62876         4.01970
| 56>    C       -5.51930       -13.26397         3.67869
| 57>    C       -6.53345       -12.29096         4.18886
| 58>    C       -7.73639       -13.00363         4.81817
| 59>    C       -8.57688       -11.97279         5.56408
| 60>    F       -8.82782       -10.89546         4.80151
| 61>    F       -9.77050       -12.44310         5.94318
| 62>    F       -7.96553       -11.52122         6.66904
| 63>    C       -7.24962       -14.12243         5.75495
| 64>    C       -8.32358       -14.72493         6.51458
| 65>    N       -9.14876       -15.25357         7.10073
| 66>    C       -6.58126       -15.22050         4.91273
| 67>    C       -4.21271       -16.73670         3.59122
| 68>    S       -5.46281       -17.89650         3.28855
| 69>    C       -4.38772       -19.24295         3.42448
| 70>    C       -3.08556       -18.80635         3.66966
| 71>    C       -2.99894       -17.37906         3.80400
| 72>    C       -1.75682       -16.80174         4.20257
| 73>    C       -1.65649       -15.45802         4.62137
| 74>    N       -1.53703       -14.40096         5.05242
| 75>    C       -0.64096       -17.60115         4.29726
| 76>    C       -0.71014       -18.97586         4.01200
| 77>    C       -1.90277       -19.57737         3.72935
| 78>    C       -4.94452       -20.56230         3.29725
| 79>    C       -4.44999       -21.68612         3.81358
| 80>    H       -6.44360        -0.42344         6.75979
| 81>    H       -5.70045         3.20921         3.37239
| 82>    H       -4.82996         1.93881         1.45745
| 83>    H       -4.54413        -0.49106         1.57212
| 84>    H       -4.44215        -2.69443         2.00468
| 85>    H       -4.96125        -4.60572         4.33689
| 86>    H       -2.86447        -3.64331         0.88979
| 87>    H       -4.39181        -3.96571         0.05388
| 88>    H       -1.60511        -4.99215        -0.65955
| 89>    H       -4.34668        -5.97933        -1.60183
| 90>    H       -1.92663        -7.49058        -0.47689
| 91>    H       -3.51090        -8.16844        -0.81346
| 92>    H       -0.52585       -11.05282        -0.30418
| 93>    H       -0.27910       -10.84005         1.44654
| 94>    H        0.31584        -9.60879         0.30080
| 95>    H       -2.56972       -12.06558        -1.00875
| 96>    H       -3.72232       -13.21696        -0.28850
| 97>    H       -2.03595       -13.71507        -0.57737
| 98>    H       -6.87661       -11.64417         3.37706
| 99>    H       -6.06415       -11.64131         4.93689
|100>    H       -8.37781       -13.43202         4.03996
|101>    H       -6.52387       -13.70334         6.46315
|102>    H       -7.34418       -15.72453         4.30944
|103>    H       -6.13551       -15.97214         5.56841
|104>    H        0.29914       -17.16429         4.59997
|105>    H        0.19650       -19.56026         4.04765
|106>    H       -1.94831       -20.63484         3.52796
|107>    H       -5.88582       -20.59900         2.76213
|108>    H       -3.55962       -21.70799         4.41605
|109>    H       -4.95121       -22.62638         3.66552
|110> *
|111>
|112>                          ****END OF INPUT****

CARTESIAN COORDINATES (ANGSTROEM)
---------------------------------
  C     -6.055810   -0.715900    5.804240
  S     -5.712630   -2.354400    5.482620
  C     -5.175160   -2.015360    3.867220
  C     -5.267500   -0.642170    3.602660
  C     -5.775050    0.091810    4.726210
  C     -5.929000    1.506280    4.625690
  C     -6.425890    2.229710    5.728830
  N     -6.830270    2.813310    6.630150
  C     -5.586850    2.138300    3.453730
  C     -5.089410    1.407330    2.360200
  C     -4.929750    0.049920    2.422680
  C     -4.721000   -3.031440    2.989250
  C     -4.644850   -4.339380    3.335040
  C     -4.218060   -5.446910    2.554510
  S     -4.364760   -7.018930    3.295230
  C     -3.744820   -7.813870    1.881880
  C     -3.451530   -6.896610    0.891020
  C     -3.698620   -5.564930    1.274180
  C     -3.436070   -4.408530    0.358410
  C     -2.661660   -4.827320   -0.896910
  C     -2.718280   -3.684160   -1.903390
  F     -2.415180   -2.505240   -1.329600
  F     -1.865580   -3.831540   -2.921160
  F     -3.942260   -3.534780   -2.434610
  C     -3.265890   -6.117980   -1.470860
  C     -2.700720   -6.480520   -2.751950
  N     -2.253870   -6.819100   -3.746920
  C     -2.995800   -7.263580   -0.484580
  C     -3.640970   -9.238160    1.884590
  S     -4.787640  -10.158200    2.817060
  C     -4.051490  -11.658650    2.369880
  C     -2.976460  -11.441460    1.524100
  C     -2.718040  -10.070820    1.271150
  O     -1.668630   -9.552340    0.583270
  C     -0.481060  -10.322720    0.507190
  O     -2.262090  -12.497400    1.006950
  C     -2.679230  -12.885700   -0.291710
  C     -4.454160  -12.928620    2.864330
  S     -3.477170  -14.316520    2.492530
  C     -4.482510  -15.333590    3.486110
  C     -5.537450  -14.628760    4.019700
  C     -5.519300  -13.263970    3.678690
  C     -6.533450  -12.290960    4.188860
  C     -7.736390  -13.003630    4.818170
  C     -8.576880  -11.972790    5.564080
  F     -8.827820  -10.895460    4.801510
  F     -9.770500  -12.443100    5.943180
  F     -7.965530  -11.521220    6.669040
  C     -7.249620  -14.122430    5.754950
  C     -8.323580  -14.724930    6.514580
  N     -9.148760  -15.253570    7.100730
  C     -6.581260  -15.220500    4.912730
  C     -4.212710  -16.736700    3.591220
  S     -5.462810  -17.896500    3.288550
  C     -4.387720  -19.242950    3.424480
  C     -3.085560  -18.806350    3.669660
  C     -2.998940  -17.379060    3.804000
  C     -1.756820  -16.801740    4.202570
  C     -1.656490  -15.458020    4.621370
  N     -1.537030  -14.400960    5.052420
  C     -0.640960  -17.601150    4.297260
  C     -0.710140  -18.975860    4.012000
  C     -1.902770  -19.577370    3.729350
  C     -4.944520  -20.562300    3.297250
  C     -4.449990  -21.686120    3.813580
  H     -6.443600   -0.423440    6.759790
  H     -5.700450    3.209210    3.372390
  H     -4.829960    1.938810    1.457450
  H     -4.544130   -0.491060    1.572120
  H     -4.442150   -2.694430    2.004680
  H     -4.961250   -4.605720    4.336890
  H     -2.864470   -3.643310    0.889790
  H     -4.391810   -3.965710    0.053880
  H     -1.605110   -4.992150   -0.659550
  H     -4.346680   -5.979330   -1.601830
  H     -1.926630   -7.490580   -0.476890
  H     -3.510900   -8.168440   -0.813460
  H     -0.525850  -11.052820   -0.304180
  H     -0.279100  -10.840050    1.446540
  H      0.315840   -9.608790    0.300800
  H     -2.569720  -12.065580   -1.008750
  H     -3.722320  -13.216960   -0.288500
  H     -2.035950  -13.715070   -0.577370
  H     -6.876610  -11.644170    3.377060
  H     -6.064150  -11.641310    4.936890
  H     -8.377810  -13.432020    4.039960
  H     -6.523870  -13.703340    6.463150
  H     -7.344180  -15.724530    4.309440
  H     -6.135510  -15.972140    5.568410
  H      0.299140  -17.164290    4.599970
  H      0.196500  -19.560260    4.047650
  H     -1.948310  -20.634840    3.527960
  H     -5.885820  -20.599000    2.762130
  H     -3.559620  -21.707990    4.416050
  H     -4.951210  -22.626380    3.665520

 Total Charge           Charge          ....    0
 Multiplicity           Mult            ....    1
 Number of Electrons    NEL             ....  496
 Basis Dimension        Dim             .... 1080

ORBITAL ENERGIES
----------------

  NO   OCC          E(Eh)            E(eV)
   0   2.0000     -88.981778     -2421.3173
   1   2.0000     -88.973901     -2421.1029
   2   2.0000     -88.970707     -2421.0160
   3   2.0000     -88.960410     -2420.7358
   4   2.0000     -88.959167     -2420.7020
   5   2.0000     -24.807605      -675.0492
   6   2.0000     -24.805132      -674.9819
   7   2.0000     -24.804370      -674.9612
   8   2.0000     -24.802754      -674.9172
   9   2.0000     -24.801361      -674.8793
  10   2.0000     -24.799612      -674.8318
  11   2.0000     -19.259367      -524.0740
  12   2.0000     -19.257855      -524.0329
  13   2.0000     -14.403126      -391.9290
  14   2.0000     -14.402810      -391.9204
  15   2.0000     -14.402202      -391.9038
  16   2.0000     -14.400375      -391.8541
  17   2.0000     -10.519305      -286.2449
  18   2.0000     -10.517021      -286.1827
  19   2.0000     -10.348487      -281.5966
  20   2.0000     -10.339847      -281.3615
  21   2.0000     -10.332085      -281.1503
  22   2.0000     -10.331940      -281.1464
  23   2.0000     -10.329811      -281.0885
  24   2.0000     -10.327472      -281.0248
  25   2.0000     -10.321130      -280.8522
  26   2.0000     -10.320760      -280.8422
  27   2.0000     -10.320606      -280.8380
  28   2.0000     -10.318640      -280.7845
  29   2.0000     -10.318418      -280.7784
  30   2.0000     -10.318350      -280.7766
  31   2.0000     -10.314130      -280.6618
  32   2.0000     -10.312383      -280.6142
  33   2.0000     -10.311074      -280.5786
  34   2.0000     -10.310832      -280.5720
  35   2.0000     -10.310665      -280.5675
  36   2.0000     -10.307420      -280.4792
  37   2.0000     -10.307191      -280.4729
  38   2.0000     -10.304150      -280.3902
  39   2.0000     -10.303336      -280.3680
  40   2.0000     -10.302493      -280.3451
  41   2.0000     -10.302020      -280.3322
  42   2.0000     -10.301457      -280.3169
  43   2.0000     -10.301227      -280.3106
  44   2.0000     -10.300062      -280.2789
  45   2.0000     -10.299742      -280.2702
  46   2.0000     -10.299649      -280.2677
  47   2.0000     -10.298811      -280.2449
  48   2.0000     -10.297727      -280.2154
  49   2.0000     -10.296970      -280.1948
  50   2.0000     -10.296783      -280.1897
  51   2.0000     -10.294756      -280.1346
  52   2.0000     -10.293679      -280.1052
  53   2.0000     -10.293215      -280.0926
  54   2.0000     -10.292414      -280.0708
  55   2.0000     -10.291974      -280.0589
  56   2.0000     -10.291365      -280.0423
  57   2.0000     -10.290671      -280.0234
  58   2.0000     -10.290174      -280.0099
  59   2.0000     -10.290019      -280.0057
  60   2.0000     -10.289941      -280.0035
  61   2.0000     -10.288861      -279.9741
  62   2.0000     -10.287955      -279.9495
  63   2.0000     -10.284032      -279.8427
  64   2.0000     -10.281698      -279.7792
  65   2.0000      -8.076760      -219.7798
  66   2.0000      -8.069010      -219.5689
  67   2.0000      -8.065332      -219.4688
  68   2.0000      -8.055115      -219.1908
  69   2.0000      -8.054351      -219.1700
  70   2.0000      -6.045595      -164.5090
  71   2.0000      -6.041535      -164.3985
  72   2.0000      -6.039837      -164.3523
  73   2.0000      -6.037878      -164.2990
  74   2.0000      -6.034811      -164.2155
  75   2.0000      -6.033644      -164.1838
  76   2.0000      -6.032221      -164.1451
  77   2.0000      -6.030741      -164.1048
  78   2.0000      -6.027084      -164.0053
  79   2.0000      -6.024295      -163.9294
  80   2.0000      -6.023867      -163.9178
  81   2.0000      -6.020355      -163.8222
  82   2.0000      -6.019420      -163.7967
  83   2.0000      -6.017136      -163.7346
  84   2.0000      -6.016361      -163.7135
  85   2.0000      -1.395577       -37.9756
  86   2.0000      -1.393015       -37.9059
  87   2.0000      -1.298513       -35.3343
  88   2.0000      -1.296181       -35.2709
  89   2.0000      -1.295838       -35.2615
  90   2.0000      -1.292830       -35.1797
  91   2.0000      -1.169253       -31.8170
  92   2.0000      -1.150625       -31.3101
  93   2.0000      -1.020237       -27.7621
  94   2.0000      -1.009870       -27.4799
  95   2.0000      -1.006695       -27.3936
  96   2.0000      -1.004147       -27.3242
  97   2.0000      -0.996285       -27.1103
  98   2.0000      -0.991094       -26.9690
  99   2.0000      -0.988038       -26.8859
 100   2.0000      -0.983975       -26.7753
 101   2.0000      -0.981367       -26.7044
 102   2.0000      -0.955751       -26.0073
 103   2.0000      -0.954175       -25.9644
 104   2.0000      -0.948663       -25.8144
 105   2.0000      -0.943171       -25.6650
 106   2.0000      -0.915252       -24.9053
 107   2.0000      -0.909293       -24.7431
 108   2.0000      -0.891873       -24.2691
 109   2.0000      -0.886759       -24.1300
 110   2.0000      -0.872808       -23.7503
 111   2.0000      -0.871442       -23.7132
 112   2.0000      -0.870594       -23.6901
 113   2.0000      -0.862889       -23.4804
 114   2.0000      -0.861217       -23.4349
 115   2.0000      -0.848512       -23.0892
 116   2.0000      -0.847379       -23.0584
 117   2.0000      -0.839854       -22.8536
 118   2.0000      -0.838120       -22.8064
 119   2.0000      -0.824230       -22.4284
 120   2.0000      -0.803146       -21.8547
 121   2.0000      -0.794839       -21.6287
 122   2.0000      -0.791248       -21.5309
 123   2.0000      -0.780214       -21.2307
 124   2.0000      -0.771568       -20.9954
 125   2.0000      -0.763430       -20.7740
 126   2.0000      -0.752532       -20.4774
 127   2.0000      -0.748964       -20.3803
 128   2.0000      -0.743990       -20.2450
 129   2.0000      -0.739020       -20.1098
 130   2.0000      -0.733098       -19.9486
 131   2.0000      -0.732074       -19.9207
 132   2.0000      -0.724902       -19.7256
 133   2.0000      -0.713967       -19.4280
 134   2.0000      -0.698833       -19.0162
 135   2.0000      -0.689540       -18.7633
 136   2.0000      -0.682990       -18.5851
 137   2.0000      -0.682643       -18.5756
 138   2.0000      -0.678875       -18.4731
 139   2.0000      -0.677284       -18.4298
 140   2.0000      -0.675797       -18.3894
 141   2.0000      -0.674016       -18.3409
 142   2.0000      -0.666016       -18.1232
 143   2.0000      -0.663510       -18.0550
 144   2.0000      -0.655772       -17.8445
 145   2.0000      -0.652417       -17.7532
 146   2.0000      -0.639581       -17.4039
 147   2.0000      -0.632730       -17.2175
 148   2.0000      -0.631199       -17.1758
 149   2.0000      -0.618211       -16.8224
 150   2.0000      -0.616664       -16.7803
 151   2.0000      -0.613089       -16.6830
 152   2.0000      -0.606888       -16.5143
 153   2.0000      -0.596544       -16.2328
 154   2.0000      -0.595480       -16.2038
 155   2.0000      -0.586978       -15.9725
 156   2.0000      -0.585032       -15.9195
 157   2.0000      -0.578357       -15.7379
 158   2.0000      -0.574930       -15.6446
 159   2.0000      -0.572932       -15.5903
 160   2.0000      -0.568865       -15.4796
 161   2.0000      -0.566077       -15.4037
 162   2.0000      -0.564843       -15.3702
 163   2.0000      -0.562131       -15.2964
 164   2.0000      -0.557463       -15.1693
 165   2.0000      -0.554629       -15.0922
 166   2.0000      -0.554206       -15.0807
 167   2.0000      -0.552518       -15.0348
 168   2.0000      -0.549984       -14.9658
 169   2.0000      -0.546929       -14.8827
 170   2.0000      -0.544696       -14.8219
 171   2.0000      -0.543876       -14.7996
 172   2.0000      -0.541485       -14.7346
 173   2.0000      -0.537282       -14.6202
 174   2.0000      -0.532203       -14.4820
 175   2.0000      -0.528837       -14.3904
 176   2.0000      -0.526800       -14.3350
 177   2.0000      -0.523871       -14.2553
 178   2.0000      -0.520907       -14.1746
 179   2.0000      -0.520289       -14.1578
 180   2.0000      -0.516718       -14.0606
 181   2.0000      -0.516077       -14.0432
 182   2.0000      -0.513231       -13.9657
 183   2.0000      -0.510837       -13.9006
 184   2.0000      -0.510375       -13.8880
 185   2.0000      -0.508533       -13.8379
 186   2.0000      -0.502441       -13.6721
 187   2.0000      -0.501960       -13.6590
 188   2.0000      -0.499437       -13.5904
 189   2.0000      -0.497767       -13.5449
 190   2.0000      -0.493881       -13.4392
 191   2.0000      -0.491001       -13.3608
 192   2.0000      -0.490418       -13.3450
 193   2.0000      -0.488865       -13.3027
 194   2.0000      -0.487081       -13.2541
 195   2.0000      -0.480218       -13.0674
 196   2.0000      -0.476632       -12.9698
 197   2.0000      -0.471332       -12.8256
 198   2.0000      -0.470117       -12.7925
 199   2.0000      -0.468702       -12.7540
 200   2.0000      -0.468160       -12.7393
 201   2.0000      -0.466086       -12.6828
 202   2.0000      -0.462369       -12.5817
 203   2.0000      -0.459904       -12.5146
 204   2.0000      -0.458252       -12.4697
 205   2.0000      -0.456105       -12.4113
 206   2.0000      -0.454758       -12.3746
 207   2.0000      -0.451969       -12.2987
 208   2.0000      -0.448100       -12.1934
 209   2.0000      -0.446522       -12.1505
 210   2.0000      -0.445137       -12.1128
 211   2.0000      -0.442119       -12.0307
 212   2.0000      -0.440501       -11.9867
 213   2.0000      -0.439354       -11.9554
 214   2.0000      -0.437802       -11.9132
 215   2.0000      -0.433621       -11.7994
 216   2.0000      -0.432729       -11.7752
 217   2.0000      -0.430332       -11.7099
 218   2.0000      -0.427983       -11.6460
 219   2.0000      -0.426626       -11.6091
 220   2.0000      -0.426019       -11.5926
 221   2.0000      -0.419438       -11.4135
 222   2.0000      -0.416536       -11.3345
 223   2.0000      -0.415854       -11.3160
 224   2.0000      -0.415439       -11.3047
 225   2.0000      -0.414994       -11.2926
 226   2.0000      -0.411182       -11.1888
 227   2.0000      -0.404397       -11.0042
 228   2.0000      -0.404062       -10.9951
 229   2.0000      -0.403132       -10.9698
 230   2.0000      -0.401201       -10.9172
 231   2.0000      -0.398898       -10.8546
 232   2.0000      -0.395422       -10.7600
 233   2.0000      -0.394657       -10.7392
 234   2.0000      -0.390404       -10.6234
 235   2.0000      -0.362902        -9.8751
 236   2.0000      -0.362458        -9.8630
 237   2.0000      -0.345886        -9.4120
 238   2.0000      -0.341325        -9.2879
 239   2.0000      -0.333421        -9.0729
 240   2.0000      -0.325627        -8.8608
 241   2.0000      -0.319349        -8.6899
 242   2.0000      -0.314380        -8.5547
 243   2.0000      -0.312351        -8.4995
 244   2.0000      -0.305749        -8.3198
 245   2.0000      -0.278594        -7.5809
 246   2.0000      -0.254409        -6.9228
 247   2.0000      -0.232451        -6.3253
 248   0.0000      -0.072077        -1.9613
 249   0.0000      -0.065559        -1.7840
 250   0.0000      -0.038549        -1.0490
 251   0.0000      -0.014564        -0.3963
 252   0.0000       0.000667         0.0182

MULLIKEN ATOMIC CHARGES
-----------------------
   0 C :   -0.128809
   1 S :    0.159010
   2 C :   -0.120172
   3 C :    0.095745
   4 C :    0.114240
   5 C :   -0.077247
   6 C :   -0.191202
   7 N :    0.109943
   8 C :    0.022774
   9 C :    0.017762
  10 C :   -0.003852
  11 C :   -0.014189
  12 C :    0.043062
  13 C :   -0.121460
  14 S :    0.133491
  15 C :   -0.121506
  16 C :   -0.045673
  17 C :   -0.106798
  18 C :    0.163269
  19 C :   -0.159889
  20 C :    0.507228
  21 F :   -0.168960
  22 F :   -0.141521
  23 F :   -0.165676
  24 C :   -0.104176
  25 C :   -0.261011
  26 N :    0.154833
  27 C :    0.195879
  28 C :   -0.167157
  29 S :    0.122354
  30 C :   -0.094911
  31 C :    0.050173
  32 C :    0.202588
  33 O :   -0.329314
  34 C :    0.190302
  35 O :   -0.355150
  36 C :    0.200932
  37 C :   -0.085788
  38 S :    0.182628
  39 C :   -0.155376
  40 C :   -0.022579
  41 C :   -0.133297
  42 C :    0.176310
  43 C :   -0.169173
  44 C :    0.509689
  45 F :   -0.165356
  46 F :   -0.143854
  47 F :   -0.163548
  48 C :   -0.116609
  49 C :   -0.256476
  50 N :    0.156665
  51 C :    0.191494
  52 C :   -0.231636
  53 S :    0.186716
  54 C :   -0.149323
  55 C :    0.082321
  56 C :    0.199141
  57 C :   -0.107868
  58 C :   -0.211279
  59 N :    0.115610
  60 C :    0.023887
  61 C :    0.020467
  62 C :   -0.007804
  63 C :    0.022284
  64 C :   -0.024053
  65 H :    0.036048
  66 H :   -0.005127
  67 H :   -0.005809
  68 H :   -0.015658
  69 H :   -0.025340
  70 H :   -0.015564
  71 H :    0.045371
  72 H :    0.036888
  73 H :    0.039971
  74 H :    0.049366
  75 H :    0.035615
  76 H :    0.025877
  77 H :    0.018650
  78 H :    0.042317
  79 H :    0.034273
  80 H :    0.028331
  81 H :    0.022935
  82 H :    0.041471
  83 H :    0.041212
  84 H :    0.038765
  85 H :    0.040106
  86 H :    0.057476
  87 H :    0.025590
  88 H :    0.038432
  89 H :   -0.003687
  90 H :   -0.004752
  91 H :   -0.014640
  92 H :    0.001930
  93 H :    0.028568
  94 H :    0.033282
Sum of atomic charges:   -0.0000000

LOEWDIN ATOMIC CHARGES
----------------------
   0 C :   -0.189574
   1 S :    0.497892
   2 C :   -0.176726
   3 C :   -0.048204
   4 C :   -0.039056
   5 C :   -0.065991
   6 C :   -0.027655
   7 N :   -0.060260
   8 C :    0.014806
   9 C :   -0.030958
  10 C :    0.005254
  11 C :   -0.044934
  12 C :   -0.048157
  13 C :   -0.172167
  14 S :    0.437111
  15 C :   -0.188462
  16 C :   -0.060471
  17 C :   -0.061552
  18 C :   -0.021175
  19 C :   -0.046998
  20 C :    0.161479
  21 F :   -0.064961
  22 F :   -0.042791
  23 F :   -0.061869
  24 C :   -0.044282
  25 C :   -0.043838
  26 N :   -0.056972
  27 C :   -0.003941
  28 C :   -0.228224
  29 S :    0.459127
  30 C :   -0.199102
  31 C :   -0.030040
  32 C :    0.004744
  33 O :   -0.100665
  34 C :    0.084006
  35 O :   -0.131019
  36 C :    0.074750
  37 C :   -0.179029
  38 S :    0.500928
  39 C :   -0.205914
  40 C :   -0.062455
  41 C :   -0.066002
  42 C :   -0.031548
  43 C :   -0.046740
  44 C :    0.161176
  45 F :   -0.060728
  46 F :   -0.045006
  47 F :   -0.059463
  48 C :   -0.041816
  49 C :   -0.045572
  50 N :   -0.053119
  51 C :   -0.009340
  52 C :   -0.203335
  53 S :    0.504060
  54 C :   -0.176499
  55 C :   -0.046327
  56 C :   -0.033962
  57 C :   -0.069298
  58 C :   -0.043117
  59 N :   -0.063699
  60 C :    0.018821
  61 C :   -0.031568
  62 C :    0.008479
  63 C :   -0.044330
  64 C :   -0.034761
  65 H :    0.031878
  66 H :    0.040073
  67 H :    0.033764
  68 H :    0.031242
  69 H :    0.030052
  70 H :    0.020377
  71 H :    0.039670
  72 H :    0.037023
  73 H :    0.046935
  74 H :    0.055222
  75 H :    0.039668
  76 H :    0.041098
  77 H :    0.014923
  78 H :    0.024994
  79 H :    0.025475
  80 H :    0.015182
  81 H :    0.013346
  82 H :    0.027779
  83 H :    0.030474
  84 H :    0.036652
  85 H :    0.046232
  86 H :    0.058794
  87 H :    0.035629
  88 H :    0.041420
  89 H :    0.040744
  90 H :    0.034046
  91 H :    0.033068
  92 H :    0.031694
  93 H :    0.023640
  94 H :    0.029950

  Mayer bond orders larger than 0.100000
B(  0-C ,  1-S ) :   1.1860 B(  0-C ,  2-C ) :   0.1058 B(  0-C ,  4-C ) :   1.4633
B(  0-C , 65-H ) :   0.9498 B(  1-S ,  2-C ) :   1.1719 B(  2-C ,  3-C ) :   1.3292
B(  2-C , 11-C ) :   1.1769 B(  3-C ,  4-C ) :   1.1885 B(  3-C , 10-C ) :   1.2107
B(  4-C ,  5-C ) :   1.1812 B(  5-C ,  6-C ) :   1.0765 B(  5-C ,  8-C ) :   1.5648
B(  6-C ,  7-N ) :   3.0389 B(  8-C ,  9-C ) :   1.1944 B(  8-C , 66-H ) :   0.9953
B(  9-C , 10-C ) :   1.5439 B(  9-C , 67-H ) :   0.9819 B( 10-C , 68-H ) :   0.9909
B( 11-C , 12-C ) :   1.6570 B( 11-C , 69-H ) :   0.9591 B( 12-C , 13-C ) :   1.1477
B( 12-C , 70-H ) :   0.9425 B( 13-C , 14-S ) :   1.1121 B( 13-C , 15-C ) :   0.1129
B( 13-C , 17-C ) :   1.5109 B( 14-S , 15-C ) :   1.1345 B( 15-C , 16-C ) :   1.5525
B( 15-C , 28-C ) :   1.0497 B( 16-C , 17-C ) :   1.3045 B( 16-C , 27-C ) :   1.0723
B( 17-C , 18-C ) :   1.0416 B( 18-C , 19-C ) :   1.0331 B( 18-C , 71-H ) :   0.9033
B( 18-C , 72-H ) :   0.9000 B( 19-C , 20-C ) :   0.9844 B( 19-C , 24-C ) :   1.0148
B( 19-C , 73-H ) :   0.8860 B( 20-C , 21-F ) :   1.1356 B( 20-C , 22-F ) :   1.1711
B( 20-C , 23-F ) :   1.1466 B( 24-C , 25-C ) :   1.0850 B( 24-C , 27-C ) :   1.0702
B( 24-C , 74-H ) :   0.8674 B( 25-C , 26-N ) :   3.1256 B( 27-C , 75-H ) :   0.8803
B( 27-C , 76-H ) :   0.9098 B( 28-C , 29-S ) :   1.0944 B( 28-C , 30-C ) :   0.1317
B( 28-C , 32-C ) :   1.5155 B( 29-S , 30-C ) :   1.1142 B( 30-C , 31-C ) :   1.4885
B( 30-C , 37-C ) :   1.1405 B( 31-C , 32-C ) :   1.2077 B( 31-C , 35-O ) :   1.1066
B( 32-C , 33-O ) :   1.1771 B( 33-O , 34-C ) :   0.9342 B( 34-C , 77-H ) :   0.9745
B( 34-C , 78-H ) :   0.9714 B( 34-C , 79-H ) :   0.9789 B( 35-O , 36-C ) :   0.9189
B( 36-C , 80-H ) :   0.9681 B( 36-C , 81-H ) :   0.9656 B( 36-C , 82-H ) :   0.9825
B( 37-C , 38-S ) :   1.1443 B( 37-C , 39-C ) :   0.1105 B( 37-C , 41-C ) :   1.5129
B( 38-S , 39-C ) :   1.1219 B( 39-C , 40-C ) :   1.5331 B( 39-C , 52-C ) :   1.0372
B( 40-C , 41-C ) :   1.3100 B( 40-C , 51-C ) :   1.0627 B( 41-C , 42-C ) :   1.0359
B( 42-C , 43-C ) :   1.0327 B( 42-C , 83-H ) :   0.9022 B( 42-C , 84-H ) :   0.8996
B( 43-C , 44-C ) :   0.9842 B( 43-C , 48-C ) :   1.0078 B( 43-C , 85-H ) :   0.8912
B( 44-C , 45-F ) :   1.1391 B( 44-C , 46-F ) :   1.1666 B( 44-C , 47-F ) :   1.1519
B( 48-C , 49-C ) :   1.0803 B( 48-C , 51-C ) :   1.0906 B( 48-C , 86-H ) :   0.8738
B( 49-C , 50-N ) :   3.1251 B( 51-C , 87-H ) :   0.8860 B( 51-C , 88-H ) :   0.9046
B( 52-C , 53-S ) :   1.1745 B( 52-C , 54-C ) :   0.1266 B( 52-C , 56-C ) :   1.4060
B( 53-S , 54-C ) :   1.1730 B( 54-C , 55-C ) :   1.3808 B( 54-C , 63-C ) :   1.0891
B( 55-C , 56-C ) :   1.1845 B( 55-C , 62-C ) :   1.1940 B( 56-C , 57-C ) :   1.1897
B( 57-C , 58-C ) :   1.0812 B( 57-C , 60-C ) :   1.5719 B( 58-C , 59-N ) :   3.0386
B( 60-C , 61-C ) :   1.1910 B( 60-C , 89-H ) :   0.9941 B( 61-C , 62-C ) :   1.5434
B( 61-C , 90-H ) :   0.9848 B( 62-C , 91-H ) :   0.9920 B( 63-C , 64-C ) :   1.9365
B( 63-C , 92-H ) :   0.9496 B( 64-C , 93-H ) :   0.9601 B( 64-C , 94-H ) :   0.9475

-----------------------------------------------------------------------------
         ABSORPTION SPECTRUM VIA TRANSITION ELECTRIC DIPOLE MOMENTS
-----------------------------------------------------------------------------
State   Energy  Wavelength   fosc         T2         TX        TY        TZ
        (cm-1)    (nm)                  (au**2)     (au)      (au)      (au)
-----------------------------------------------------------------------------
   0   20311.3    492.3   1.799987882  29.17476  -0.68856   5.31438   0.67675
   1   22374.0    446.9   0.081976889   1.20621  -0.52572  -0.13078   0.95537
   2   26697.3    374.6   0.276285506   3.40696  -0.09044  -1.68718   0.74310
   3   26983.9    370.6   0.095136705   1.16070   0.28363   0.94167  -0.43990
   4   28805.8    347.2   0.189945678   2.17082  -0.08378   1.38613   0.49239
   5   30691.9    325.8   0.032699117   0.35074  -0.13102   0.14563   0.55890
   6   32263.9    309.9   0.046761402   0.47714   0.06040  -0.50194   0.47069
   7   32530.1    307.4   0.029404731   0.29758   0.48492   0.06513  -0.24124
   8   34500.4    289.9   0.048226428   0.46019  -0.30850   0.43490   0.41938
   9   34997.4    285.7   0.076803180   0.72247  -0.17001   0.82958   0.07329
  10   35902.2    278.5   0.022353349   0.20497   0.01009   0.42597   0.15304
  11   36426.4    274.5   0.083940398   0.75863   0.63235   0.32794  -0.50122
  12   37109.8    269.5   0.026882323   0.23848   0.07967   0.46869   0.11165
  13   38280.0    261.2   0.045317857   0.38974   0.49841   0.30884  -0.21435
  14   38911.4    257.0   0.049957774   0.42267   0.14068  -0.42573   0.47078
  15   38998.0    256.4   0.029704311   0.25076  -0.40545  -0.27636  -0.09996
  16   39396.6    253.8   0.065460979   0.54702  -0.40247  -0.39952   0.47479
  17   39900.7    250.6   0.163730271   1.35090  -0.12117  -1.09660   0.36562
  18   40181.1    248.9   0.044292639   0.36290   0.12753   0.23800   0.53850

FINAL SINGLE POINT ENERGY     -4802.563655307972

DIPOLE MOMENT
-------------
                                X             Y             Z
Electronic contribution:    -23.23144      31.95655       7.85084
Nuclear contribution   :     25.07491     -35.41317      -9.55232
                        -----------------------------------------
Total Dipole Moment    :      1.84347      -3.45662      -1.70148
                        -----------------------------------------
Magnitude (a.u.)       :      4.27102
Magnitude (Debye)      :     10.85607

Rotational constants in cm-1:     0.001627     0.000410     0.000350
Rotational constants in MHz :    48.787141    12.293945    10.479000

                             ****ORCA TERMINATED NORMALLY****
TOTAL RUN TIME: 0 days 0 hours 8 minutes 2 seconds 884 msec
