                         Program Version 4.2.0 -  RELEASE  -
|  1> # ORCA input file
|  2> # SCF done       -176.720353743410          0.000337187912
|  3> ! CAM-B3LYP def2-SVP def2/J RIJCOSX Grid4 TightSCF
|  4> %maxcore 5000
|  5> %tddft
|  6>     Mode sTDDFT
|  7>     Ethresh 5.0
|  8>     maxcore 5000
|  9> end
| 10>
| 11> %pal
| 12>   nprocs 6
| 13>   end
| 14> * xyz 0 1
| 15>    O       -2.86021         3.72403         4.85467
| 16>    C       -2.38511         3.19003         3.69525
| 17>    N       -2.60595         1.91470         3.59580
| 18>    C       -3.26126         1.56583         4.74077
| 19>    C       -3.40978         2.69974         5.50888
| 20>    C       -3.69250         0.19622         5.00482
| 21>    O       -4.27743        -0.15594         5.99538
| 22>    C       -1.74120         4.03324         2.74257
| 23>    S       -1.61485         5.74556         3.02925
| 24>    C       -1.17407         3.71052         1.53380
| 25>    C       -0.91995         2.49309         0.73519
| 26>    O       -1.17850         1.34026         0.94236
| 27>    N       -0.26721         2.96440        -0.40582
| 28>    C        0.21201         2.08272        -1.44987
| 29>    C        1.62022         1.58439        -1.14480
| 30>    C       -0.07673         4.33356        -0.42947
| 31>    O        0.45044         4.93704        -1.33568
| 32>    C       -0.65645         4.82462         0.83410
| 33>    C       -0.80674         6.02760         1.50016
| 34>    C       -0.43510         7.35420         1.16132
| 35>    C        0.09824         7.70020        -0.03845
| 36>    C        0.46510         9.03287        -0.35210
| 37>    N        0.92209         9.41842        -1.58798
| 38>    C        1.02155         8.58693        -2.76462
| 39>    C       -0.34056         8.37010        -3.41808
| 40>    C        1.21736        10.79151        -1.63558
| 41>    O        1.59459        11.36704        -2.63453
| 42>    C        0.94920        11.26116        -0.28974
| 43>    C        0.47015        10.16342         0.46588
| 44>    C        0.18148        10.63541         1.80243
| 45>    O       -0.26035        10.07550         2.78661
| 46>    N        0.51421        12.00000         1.76695
| 47>    C        0.38388        12.83466         2.93655
| 48>    C        1.72610        13.04875         3.63208
| 49>    C        0.97935        12.38416         0.53224
| 50>    C        1.38072        13.71085         0.21645
| 51>    C        1.89656        14.03167        -0.99005
| 52>    C        2.30294        15.34232        -1.41836
| 53>    C        1.62455        16.55977        -1.18491
| 54>    C        0.30978        16.66374        -0.51551
| 55>    O       -0.37779        15.79501        -0.06762
| 56>    S       -0.20346        18.38311        -0.47244
| 57>    C        1.27650        18.94865        -1.30645
| 58>    O        1.50785        20.10491        -1.49263
| 59>    C        2.10208        17.77837        -1.67573
| 60>    C        3.27320        17.90600        -2.44964
| 61>    C        3.91811        16.68674        -2.71602
| 62>    C        3.45062        15.47772        -2.21851
| 63>    C        4.38830        14.41712        -2.66071
| 64>    O        4.44089        13.26435        -2.37359
| 65>    O        5.30574        15.02032        -3.49150
| 66>    C        5.08855        16.37062        -3.58195
| 67>    O        5.75679        17.07534        -4.27090
| 68>    C        3.72151        19.18235        -2.95551
| 69>    C        5.00451        19.56366        -3.05076
| 70>    C        5.36983        20.84202        -3.58479
| 71>    N        4.58295        21.75113        -4.08367
| 72>    C        5.39840        22.77482        -4.46862
| 73>    C        6.69634        22.41821        -4.16849
| 74>    O        6.67862        21.20860        -3.61308
| 75>    C        4.89048        23.99797        -5.08020
| 76>    O        5.57562        24.92229        -5.43208
| 77>    H       -3.85879         2.87254         6.46546
| 78>    H       -3.42304        -0.49677         4.19043
| 79>    H        0.20015         2.64683        -2.38532
| 80>    H       -0.48292         1.24231        -1.51139
| 81>    H        2.30892         2.42279        -1.06833
| 82>    H        1.95762         0.92657        -1.94042
| 83>    H        1.62740         1.03256        -0.20785
| 84>    H       -0.60838         8.10976         1.91693
| 85>    H        0.25789         6.94168        -0.79065
| 86>    H        1.47534         7.62904        -2.49990
| 87>    H        1.68246         9.11767        -3.45512
| 88>    H       -1.01849         7.85888        -2.73850
| 89>    H       -0.22361         7.76475        -4.31212
| 90>    H       -0.77869         9.32528        -3.69783
| 91>    H       -0.29659        12.30661         3.61041
| 92>    H       -0.06951        13.78837         2.65358
| 93>    H        2.14181        12.09198         3.93841
| 94>    H        1.58851        13.66586         4.51561
| 95>    H        2.43737        13.53775         2.96971
| 96>    H        1.27650        14.45760         0.98873
| 97>    H        2.08921        13.23879        -1.70421
| 98>    H        2.95959        19.89653        -3.23567
| 99>    H        5.82765        18.94939        -2.72023
|100>    H        7.63186        22.92190        -4.30241
|101>    H        3.79244        23.99635        -5.19004
|102> *
|103>
|104>                          ****END OF INPUT****

CARTESIAN COORDINATES (ANGSTROEM)
---------------------------------
  O     -2.860210    3.724030    4.854670
  C     -2.385110    3.190030    3.695250
  N     -2.605950    1.914700    3.595800
  C     -3.261260    1.565830    4.740770
  C     -3.409780    2.699740    5.508880
  C     -3.692500    0.196220    5.004820
  O     -4.277430   -0.155940    5.995380
  C     -1.741200    4.033240    2.742570
  S     -1.614850    5.745560    3.029250
  C     -1.174070    3.710520    1.533800
  C     -0.919950    2.493090    0.735190
  O     -1.178500    1.340260    0.942360
  N     -0.267210    2.964400   -0.405820
  C      0.212010    2.082720   -1.449870
  C      1.620220    1.584390   -1.144800
  C     -0.076730    4.333560   -0.429470
  O      0.450440    4.937040   -1.335680
  C     -0.656450    4.824620    0.834100
  C     -0.806740    6.027600    1.500160
  C     -0.435100    7.354200    1.161320
  C      0.098240    7.700200   -0.038450
  C      0.465100    9.032870   -0.352100
  N      0.922090    9.418420   -1.587980
  C      1.021550    8.586930   -2.764620
  C     -0.340560    8.370100   -3.418080
  C      1.217360   10.791510   -1.635580
  O      1.594590   11.367040   -2.634530
  C      0.949200   11.261160   -0.289740
  C      0.470150   10.163420    0.465880
  C      0.181480   10.635410    1.802430
  O     -0.260350   10.075500    2.786610
  N      0.514210   12.000000    1.766950
  C      0.383880   12.834660    2.936550
  C      1.726100   13.048750    3.632080
  C      0.979350   12.384160    0.532240
  C      1.380720   13.710850    0.216450
  C      1.896560   14.031670   -0.990050
  C      2.302940   15.342320   -1.418360
  C      1.624550   16.559770   -1.184910
  C      0.309780   16.663740   -0.515510
  O     -0.377790   15.795010   -0.067620
  S     -0.203460   18.383110   -0.472440
  C      1.276500   18.948650   -1.306450
  O      1.507850   20.104910   -1.492630
  C      2.102080   17.778370   -1.675730
  C      3.273200   17.906000   -2.449640
  C      3.918110   16.686740   -2.716020
  C      3.450620   15.477720   -2.218510
  C      4.388300   14.417120   -2.660710
  O      4.440890   13.264350   -2.373590
  O      5.305740   15.020320   -3.491500
  C      5.088550   16.370620   -3.581950
  O      5.756790   17.075340   -4.270900
  C      3.721510   19.182350   -2.955510
  C      5.004510   19.563660   -3.050760
  C      5.369830   20.842020   -3.584790
  N      4.582950   21.751130   -4.083670
  C      5.398400   22.774820   -4.468620
  C      6.696340   22.418210   -4.168490
  O      6.678620   21.208600   -3.613080
  C      4.890480   23.997970   -5.080200
  O      5.575620   24.922290   -5.432080
  H     -3.858790    2.872540    6.465460
  H     -3.423040   -0.496770    4.190430
  H      0.200150    2.646830   -2.385320
  H     -0.482920    1.242310   -1.511390
  H      2.308920    2.422790   -1.068330
  H      1.957620    0.926570   -1.940420
  H      1.627400    1.032560   -0.207850
  H     -0.608380    8.109760    1.916930
  H      0.257890    6.941680   -0.790650
  H      1.475340    7.629040   -2.499900
  H      1.682460    9.117670   -3.455120
  H     -1.018490    7.858880   -2.738500
  H     -0.223610    7.764750   -4.312120
  H     -0.778690    9.325280   -3.697830
  H     -0.296590   12.306610    3.610410
  H     -0.069510   13.788370    2.653580
  H      2.141810   12.091980    3.938410
  H      1.588510   13.665860    4.515610
  H      2.437370   13.537750    2.969710
  H      1.276500   14.457600    0.988730
  H      2.089210   13.238790   -1.704210
  H      2.959590   19.896530   -3.235670
  H      5.827650   18.949390   -2.720230
  H      7.631860   22.921900   -4.302410
  H      3.792440   23.996350   -5.190040

 Total Charge           Charge          ....    0
 Multiplicity           Mult            ....    1
 Number of Electrons    NEL             ....  448
 Basis Dimension        Dim             .... 1001

ORBITAL ENERGIES
----------------

  NO   OCC          E(Eh)            E(eV)
   0   2.0000     -88.989855     -2421.5371
   1   2.0000     -88.961365     -2420.7618
   2   2.0000     -19.330407      -526.0071
   3   2.0000     -19.322763      -525.7991
   4   2.0000     -19.298935      -525.1507
   5   2.0000     -19.253644      -523.9183
   6   2.0000     -19.253276      -523.9083
   7   2.0000     -19.246844      -523.7333
   8   2.0000     -19.245760      -523.7037
   9   2.0000     -19.222417      -523.0686
  10   2.0000     -19.216442      -522.9060
  11   2.0000     -19.214283      -522.8472
  12   2.0000     -19.214115      -522.8427
  13   2.0000     -19.197550      -522.3919
  14   2.0000     -19.196537      -522.3643
  15   2.0000     -14.460126      -393.4800
  16   2.0000     -14.458706      -393.4414
  17   2.0000     -14.457450      -393.4072
  18   2.0000     -14.427001      -392.5786
  19   2.0000     -14.422566      -392.4580
  20   2.0000     -10.442579      -284.1570
  21   2.0000     -10.438419      -284.0438
  22   2.0000     -10.417974      -283.4875
  23   2.0000     -10.415684      -283.4252
  24   2.0000     -10.404911      -283.1320
  25   2.0000     -10.398894      -282.9683
  26   2.0000     -10.388313      -282.6804
  27   2.0000     -10.379525      -282.4412
  28   2.0000     -10.379037      -282.4280
  29   2.0000     -10.375444      -282.3302
  30   2.0000     -10.360615      -281.9267
  31   2.0000     -10.359876      -281.9066
  32   2.0000     -10.358939      -281.8811
  33   2.0000     -10.353807      -281.7414
  34   2.0000     -10.346544      -281.5438
  35   2.0000     -10.345883      -281.5258
  36   2.0000     -10.345245      -281.5084
  37   2.0000     -10.344580      -281.4903
  38   2.0000     -10.342676      -281.4385
  39   2.0000     -10.341546      -281.4078
  40   2.0000     -10.340937      -281.3912
  41   2.0000     -10.339337      -281.3477
  42   2.0000     -10.338913      -281.3361
  43   2.0000     -10.335665      -281.2477
  44   2.0000     -10.313996      -280.6581
  45   2.0000     -10.312741      -280.6239
  46   2.0000     -10.309854      -280.5454
  47   2.0000     -10.309763      -280.5429
  48   2.0000     -10.309453      -280.5345
  49   2.0000     -10.308055      -280.4964
  50   2.0000     -10.306279      -280.4481
  51   2.0000     -10.305506      -280.4271
  52   2.0000     -10.305330      -280.4223
  53   2.0000     -10.303651      -280.3766
  54   2.0000     -10.301979      -280.3311
  55   2.0000     -10.297477      -280.2086
  56   2.0000     -10.295068      -280.1430
  57   2.0000     -10.269262      -279.4408
  58   2.0000     -10.268688      -279.4252
  59   2.0000     -10.266958      -279.3781
  60   2.0000     -10.262570      -279.2587
  61   2.0000     -10.261410      -279.2272
  62   2.0000      -8.084905      -220.0014
  63   2.0000      -8.060743      -219.3440
  64   2.0000      -6.054219      -164.7437
  65   2.0000      -6.049864      -164.6252
  66   2.0000      -6.047098      -164.5499
  67   2.0000      -6.029575      -164.0731
  68   2.0000      -6.026335      -163.9849
  69   2.0000      -6.021785      -163.8611
  70   2.0000      -1.259037       -34.2601
  71   2.0000      -1.251927       -34.0667
  72   2.0000      -1.249174       -33.9917
  73   2.0000      -1.179835       -32.1049
  74   2.0000      -1.175751       -31.9938
  75   2.0000      -1.175059       -31.9750
  76   2.0000      -1.165873       -31.7250
  77   2.0000      -1.141837       -31.0710
  78   2.0000      -1.139329       -31.0027
  79   2.0000      -1.136904       -30.9367
  80   2.0000      -1.132735       -30.8233
  81   2.0000      -1.130031       -30.7497
  82   2.0000      -1.127848       -30.6903
  83   2.0000      -1.069673       -29.1073
  84   2.0000      -1.061193       -28.8765
  85   2.0000      -1.056995       -28.7623
  86   2.0000      -1.037948       -28.2440
  87   2.0000      -1.030999       -28.0549
  88   2.0000      -1.026887       -27.9430
  89   2.0000      -1.013764       -27.5859
  90   2.0000      -0.963415       -26.2158
  91   2.0000      -0.950363       -25.8607
  92   2.0000      -0.934137       -25.4192
  93   2.0000      -0.928073       -25.2541
  94   2.0000      -0.921047       -25.0630
  95   2.0000      -0.913703       -24.8631
  96   2.0000      -0.898582       -24.4517
  97   2.0000      -0.892989       -24.2995
  98   2.0000      -0.885003       -24.0822
  99   2.0000      -0.873106       -23.7584
 100   2.0000      -0.851623       -23.1738
 101   2.0000      -0.847973       -23.0745
 102   2.0000      -0.836378       -22.7590
 103   2.0000      -0.823459       -22.4074
 104   2.0000      -0.812157       -22.0999
 105   2.0000      -0.807491       -21.9730
 106   2.0000      -0.795075       -21.6351
 107   2.0000      -0.781684       -21.2707
 108   2.0000      -0.780023       -21.2255
 109   2.0000      -0.775055       -21.0903
 110   2.0000      -0.768106       -20.9012
 111   2.0000      -0.763581       -20.7781
 112   2.0000      -0.760290       -20.6885
 113   2.0000      -0.749393       -20.3920
 114   2.0000      -0.742612       -20.2075
 115   2.0000      -0.728262       -19.8170
 116   2.0000      -0.718535       -19.5523
 117   2.0000      -0.712880       -19.3984
 118   2.0000      -0.705616       -19.2008
 119   2.0000      -0.703353       -19.1392
 120   2.0000      -0.699433       -19.0325
 121   2.0000      -0.693112       -18.8605
 122   2.0000      -0.680425       -18.5153
 123   2.0000      -0.671546       -18.2737
 124   2.0000      -0.659159       -17.9366
 125   2.0000      -0.654510       -17.8101
 126   2.0000      -0.645483       -17.5645
 127   2.0000      -0.642360       -17.4795
 128   2.0000      -0.640668       -17.4335
 129   2.0000      -0.631717       -17.1899
 130   2.0000      -0.624131       -16.9835
 131   2.0000      -0.623787       -16.9741
 132   2.0000      -0.617130       -16.7930
 133   2.0000      -0.611926       -16.6514
 134   2.0000      -0.606305       -16.4984
 135   2.0000      -0.604689       -16.4544
 136   2.0000      -0.600628       -16.3439
 137   2.0000      -0.594400       -16.1745
 138   2.0000      -0.591216       -16.0878
 139   2.0000      -0.590172       -16.0594
 140   2.0000      -0.583659       -15.8822
 141   2.0000      -0.581701       -15.8289
 142   2.0000      -0.579123       -15.7587
 143   2.0000      -0.576410       -15.6849
 144   2.0000      -0.572605       -15.5814
 145   2.0000      -0.569781       -15.5045
 146   2.0000      -0.567516       -15.4429
 147   2.0000      -0.565855       -15.3977
 148   2.0000      -0.563162       -15.3244
 149   2.0000      -0.561045       -15.2668
 150   2.0000      -0.557665       -15.1748
 151   2.0000      -0.553992       -15.0749
 152   2.0000      -0.550844       -14.9892
 153   2.0000      -0.548634       -14.9291
 154   2.0000      -0.541976       -14.7479
 155   2.0000      -0.536675       -14.6037
 156   2.0000      -0.535759       -14.5787
 157   2.0000      -0.532505       -14.4902
 158   2.0000      -0.531513       -14.4632
 159   2.0000      -0.530343       -14.4314
 160   2.0000      -0.527207       -14.3460
 161   2.0000      -0.520613       -14.1666
 162   2.0000      -0.518316       -14.1041
 163   2.0000      -0.515488       -14.0271
 164   2.0000      -0.513984       -13.9862
 165   2.0000      -0.513785       -13.9808
 166   2.0000      -0.513468       -13.9722
 167   2.0000      -0.512185       -13.9373
 168   2.0000      -0.507407       -13.8073
 169   2.0000      -0.505396       -13.7525
 170   2.0000      -0.503403       -13.6983
 171   2.0000      -0.502958       -13.6862
 172   2.0000      -0.501360       -13.6427
 173   2.0000      -0.495125       -13.4730
 174   2.0000      -0.491480       -13.3738
 175   2.0000      -0.490837       -13.3563
 176   2.0000      -0.489834       -13.3291
 177   2.0000      -0.485520       -13.2117
 178   2.0000      -0.485128       -13.2010
 179   2.0000      -0.482726       -13.1356
 180   2.0000      -0.479780       -13.0555
 181   2.0000      -0.475399       -12.9363
 182   2.0000      -0.472573       -12.8594
 183   2.0000      -0.470419       -12.8007
 184   2.0000      -0.469516       -12.7762
 185   2.0000      -0.468051       -12.7363
 186   2.0000      -0.460007       -12.5174
 187   2.0000      -0.455855       -12.4045
 188   2.0000      -0.455817       -12.4034
 189   2.0000      -0.451693       -12.2912
 190   2.0000      -0.446253       -12.1432
 191   2.0000      -0.444467       -12.0946
 192   2.0000      -0.440410       -11.9842
 193   2.0000      -0.433339       -11.7918
 194   2.0000      -0.430435       -11.7127
 195   2.0000      -0.428653       -11.6642
 196   2.0000      -0.427444       -11.6314
 197   2.0000      -0.421385       -11.4665
 198   2.0000      -0.420685       -11.4474
 199   2.0000      -0.408594       -11.1184
 200   2.0000      -0.401393       -10.9225
 201   2.0000      -0.395586       -10.7644
 202   2.0000      -0.389675       -10.6036
 203   2.0000      -0.389188       -10.5903
 204   2.0000      -0.385597       -10.4926
 205   2.0000      -0.384672       -10.4674
 206   2.0000      -0.378445       -10.2980
 207   2.0000      -0.372540       -10.1373
 208   2.0000      -0.369001       -10.0410
 209   2.0000      -0.362792        -9.8721
 210   2.0000      -0.358942        -9.7673
 211   2.0000      -0.357538        -9.7291
 212   2.0000      -0.353227        -9.6118
 213   2.0000      -0.348328        -9.4785
 214   2.0000      -0.345748        -9.4083
 215   2.0000      -0.339856        -9.2480
 216   2.0000      -0.337577        -9.1859
 217   2.0000      -0.337009        -9.1705
 218   2.0000      -0.335012        -9.1161
 219   2.0000      -0.332540        -9.0489
 220   2.0000      -0.320216        -8.7135
 221   2.0000      -0.300322        -8.1722
 222   2.0000      -0.297332        -8.0908
 223   2.0000      -0.244132        -6.6432
 224   0.0000      -0.106934        -2.9098
 225   0.0000      -0.102143        -2.7794
 226   0.0000      -0.075498        -2.0544
 227   0.0000      -0.054002        -1.4695
 228   0.0000      -0.045562        -1.2398

MULLIKEN ATOMIC CHARGES
-----------------------
   0 O :   -0.168242
   1 C :    0.071552
   2 N :   -0.030150
   3 C :   -0.055586
   4 C :    0.139404
   5 C :    0.173935
   6 O :   -0.174422
   7 C :   -0.181354
   8 S :    0.227536
   9 C :    0.031216
  10 C :    0.176365
  11 O :   -0.122721
  12 N :   -0.306508
  13 C :    0.134348
  14 C :   -0.009427
  15 C :    0.208658
  16 O :   -0.185212
  17 C :   -0.009894
  18 C :   -0.142276
  19 C :    0.066399
  20 C :   -0.023039
  21 C :    0.131803
  22 N :   -0.254520
  23 C :    0.094445
  24 C :    0.008828
  25 C :    0.174417
  26 O :   -0.197151
  27 C :   -0.055635
  28 C :   -0.067253
  29 C :    0.162376
  30 O :   -0.211261
  31 N :   -0.255578
  32 C :    0.093551
  33 C :    0.004879
  34 C :    0.092742
  35 C :    0.061337
  36 C :   -0.069732
  37 C :    0.046204
  38 C :    0.027219
  39 C :    0.030012
  40 O :   -0.121523
  41 S :    0.028586
  42 C :    0.033794
  43 O :   -0.119668
  44 C :    0.039495
  45 C :    0.034029
  46 C :   -0.081376
  47 C :   -0.064596
  48 C :    0.236361
  49 O :   -0.085084
  50 O :   -0.226606
  51 C :    0.230498
  52 O :   -0.096061
  53 C :   -0.026642
  54 C :    0.062026
  55 C :    0.065379
  56 N :   -0.070742
  57 C :   -0.057356
  58 C :    0.133295
  59 O :   -0.159243
  60 C :    0.174686
  61 O :   -0.175633
  62 H :    0.039229
  63 H :    0.000767
  64 H :    0.031169
  65 H :    0.034755
  66 H :    0.025398
  67 H :    0.025341
  68 H :    0.029706
  69 H :   -0.000016
  70 H :   -0.003917
  71 H :    0.041637
  72 H :    0.042778
  73 H :    0.016482
  74 H :    0.026049
  75 H :    0.024906
  76 H :    0.043541
  77 H :    0.033286
  78 H :    0.029946
  79 H :    0.025332
  80 H :    0.012838
  81 H :   -0.019928
  82 H :    0.060336
  83 H :    0.047958
  84 H :    0.010560
  85 H :    0.038888
  86 H :   -0.007923
Sum of atomic charges:   -0.0000000

LOEWDIN ATOMIC CHARGES
----------------------
   0 O :    0.024911
   1 C :    0.019273
   2 N :   -0.063611
   3 C :   -0.104590
   4 C :    0.078981
   5 C :    0.106692
   6 O :   -0.128809
   7 C :   -0.167309
   8 S :    0.495431
   9 C :   -0.068378
  10 C :    0.088437
  11 O :   -0.131292
  12 N :   -0.030606
  13 C :    0.043957
  14 C :   -0.059591
  15 C :    0.093941
  16 O :   -0.171452
  17 C :   -0.090651
  18 C :   -0.131210
  19 C :   -0.005111
  20 C :   -0.020358
  21 C :    0.079314
  22 N :    0.004959
  23 C :    0.037960
  24 C :   -0.059057
  25 C :    0.084252
  26 O :   -0.184962
  27 C :   -0.108010
  28 C :   -0.119454
  29 C :    0.079344
  30 O :   -0.203168
  31 N :    0.003045
  32 C :    0.036685
  33 C :   -0.061099
  34 C :    0.069661
  35 C :   -0.000063
  36 C :    0.001707
  37 C :    0.027753
  38 C :   -0.054723
  39 C :   -0.044530
  40 O :   -0.109862
  41 S :    0.312173
  42 C :   -0.046363
  43 O :   -0.101719
  44 C :   -0.049097
  45 C :    0.024997
  46 C :   -0.043498
  47 C :   -0.038765
  48 C :    0.106761
  49 O :   -0.079104
  50 O :   -0.053808
  51 C :    0.105261
  52 O :   -0.093590
  53 C :   -0.000631
  54 C :   -0.004521
  55 C :    0.040493
  56 N :   -0.084577
  57 C :   -0.106290
  58 C :    0.075986
  59 O :    0.036918
  60 C :    0.105016
  61 O :   -0.130281
  62 H :    0.038217
  63 H :    0.007122
  64 H :    0.031727
  65 H :    0.033576
  66 H :    0.027552
  67 H :    0.031378
  68 H :    0.029408
  69 H :    0.035570
  70 H :    0.032404
  71 H :    0.030671
  72 H :    0.037778
  73 H :    0.023194
  74 H :    0.032431
  75 H :    0.029661
  76 H :    0.037951
  77 H :    0.026653
  78 H :    0.032498
  79 H :    0.031241
  80 H :    0.020999
  81 H :    0.027865
  82 H :    0.044627
  83 H :    0.045164
  84 H :    0.038204
  85 H :    0.037180
  86 H :    0.003160

  Mayer bond orders larger than 0.100000
B(  0-O ,  1-C ) :   1.2058 B(  0-O ,  4-C ) :   1.1729 B(  1-C ,  2-N ) :   1.7827
B(  1-C ,  7-C ) :   1.0333 B(  2-N ,  3-C ) :   1.3082 B(  3-C ,  4-C ) :   1.4995
B(  3-C ,  5-C ) :   0.9637 B(  4-C , 62-H ) :   0.9898 B(  5-C ,  6-O ) :   2.2056
B(  5-C , 63-H ) :   0.9525 B(  7-C ,  8-S ) :   1.1453 B(  7-C ,  9-C ) :   1.5849
B(  8-S , 18-C ) :   1.1310 B(  9-C , 10-C ) :   0.8644 B(  9-C , 17-C ) :   1.2710
B( 10-C , 11-O ) :   2.2452 B( 10-C , 12-N ) :   1.0469 B( 12-N , 13-C ) :   0.9171
B( 12-N , 15-C ) :   1.1130 B( 13-C , 14-C ) :   1.1291 B( 13-C , 64-H ) :   0.9412
B( 13-C , 65-H ) :   0.9397 B( 14-C , 66-H ) :   0.9685 B( 14-C , 67-H ) :   0.9703
B( 14-C , 68-H ) :   0.9687 B( 15-C , 16-O ) :   2.0727 B( 15-C , 17-C ) :   0.8971
B( 16-O , 70-H ) :   0.1031 B( 17-C , 18-C ) :   1.4893 B( 18-C , 19-C ) :   1.1327
B( 19-C , 20-C ) :   1.6157 B( 19-C , 69-H ) :   0.9351 B( 20-C , 21-C ) :   1.1641
B( 20-C , 70-H ) :   0.9370 B( 21-C , 22-N ) :   1.1724 B( 21-C , 28-C ) :   1.3222
B( 22-N , 23-C ) :   0.9392 B( 22-N , 25-C ) :   1.0590 B( 23-C , 24-C ) :   1.1240
B( 23-C , 71-H ) :   0.9473 B( 23-C , 72-H ) :   0.9291 B( 24-C , 73-H ) :   0.9672
B( 24-C , 74-H ) :   0.9675 B( 24-C , 75-H ) :   0.9640 B( 25-C , 26-O ) :   2.0445
B( 25-C , 27-C ) :   0.9710 B( 26-O , 82-H ) :   0.1031 B( 27-C , 28-C ) :   1.2604
B( 27-C , 34-C ) :   1.3574 B( 28-C , 29-C ) :   0.9875 B( 29-C , 30-O ) :   2.0276
B( 29-C , 31-N ) :   1.0643 B( 30-O , 69-H ) :   0.1106 B( 31-N , 32-C ) :   0.9448
B( 31-N , 34-C ) :   1.1567 B( 32-C , 33-C ) :   1.1198 B( 32-C , 76-H ) :   0.9287
B( 32-C , 77-H ) :   0.9498 B( 33-C , 78-H ) :   0.9633 B( 33-C , 79-H ) :   0.9679
B( 33-C , 80-H ) :   0.9687 B( 34-C , 35-C ) :   1.1763 B( 35-C , 36-C ) :   1.6675
B( 35-C , 81-H ) :   0.9463 B( 36-C , 37-C ) :   1.0919 B( 36-C , 82-H ) :   0.9142
B( 37-C , 38-C ) :   1.3481 B( 37-C , 47-C ) :   1.3272 B( 38-C , 39-C ) :   0.8441
B( 38-C , 44-C ) :   1.3139 B( 39-C , 40-O ) :   2.1797 B( 39-C , 41-S ) :   1.0315
B( 40-O , 41-S ) :   0.1058 B( 41-S , 42-C ) :   1.0318 B( 41-S , 43-O ) :   0.1057
B( 42-C , 43-O ) :   2.1674 B( 42-C , 44-C ) :   0.8465 B( 44-C , 45-C ) :   1.3735
B( 45-C , 46-C ) :   1.3233 B( 45-C , 53-C ) :   1.0781 B( 46-C , 47-C ) :   1.3714
B( 46-C , 51-C ) :   0.8941 B( 47-C , 48-C ) :   0.9066 B( 48-C , 49-O ) :   2.2531
B( 48-C , 50-O ) :   1.0450 B( 50-O , 51-C ) :   1.0637 B( 51-C , 52-O ) :   2.2583
B( 53-C , 54-C ) :   1.7534 B( 53-C , 83-H ) :   0.9396 B( 54-C , 55-C ) :   1.1163
B( 54-C , 84-H ) :   0.9412 B( 55-C , 56-N ) :   1.7261 B( 55-C , 59-O ) :   1.1541
B( 56-N , 57-C ) :   1.3213 B( 57-C , 58-C ) :   1.4980 B( 57-C , 60-C ) :   0.9685
B( 58-C , 59-O ) :   1.1862 B( 58-C , 85-H ) :   0.9912 B( 60-C , 61-O ) :   2.2037
B( 60-C , 86-H ) :   0.9512

-----------------------------------------------------------------------------
         ABSORPTION SPECTRUM VIA TRANSITION ELECTRIC DIPOLE MOMENTS
-----------------------------------------------------------------------------
State   Energy  Wavelength   fosc         T2         TX        TY        TZ
        (cm-1)    (nm)                  (au**2)     (au)      (au)      (au)
-----------------------------------------------------------------------------
   0   14081.6    710.1   0.587093533  13.72563  -0.76700  -3.61004   0.32394
   1   15297.9    653.7   0.301211301   6.48210  -1.01316  -2.30434   0.38163
   2   21737.2    460.0   0.009047046   0.13702   0.10539  -0.21233  -0.28430
   3   23781.1    420.5   0.033054862   0.45759   0.46594  -0.45660  -0.17891
   4   25885.6    386.3   0.003194959   0.04063  -0.09235  -0.03963   0.17474
   5   26394.4    378.9   0.047266093   0.58954   0.03331   0.73873  -0.20667
   6   26983.4    370.6   0.234697349   2.86343  -0.45715  -1.55899   0.47329
   7   27431.3    364.5   0.505037692   6.06112  -1.06132  -1.43740   1.69370
   8   27704.9    360.9   0.113739580   1.35154   0.55185   0.83308  -0.59412
   9   28097.2    355.9   0.432745241   5.07044  -1.06511  -1.78248   0.87105
  10   28454.8    351.4   0.047335055   0.54765  -0.48310  -0.50708   0.23904
  11   30996.4    322.6   0.018533698   0.19685   0.06674   0.22369  -0.37730
  12   31448.7    318.0   0.085538418   0.89544  -0.34585  -0.55766   0.68179
  13   31894.9    313.5   0.122888025   1.26842  -0.35139  -0.57009   0.90551
  14   32105.4    311.5   0.024104082   0.24717  -0.11967  -0.19425   0.44172
  15   32588.0    306.9   0.008753809   0.08843   0.13680  -0.19516  -0.17786
  16   32899.1    304.0   0.016534467   0.16546  -0.13115  -0.25071   0.29223
  17   33542.6    298.1   0.025797902   0.25320   0.20887   0.45390  -0.05958
  18   33826.3    295.6   0.012751209   0.12410   0.18717  -0.28870   0.07564
  19   34134.5    293.0   0.014913188   0.14383  -0.25624   0.27959  -0.00086
  20   34364.5    291.0   0.000009714   0.00009  -0.00408   0.00809   0.00332
  21   35015.8    285.6   0.016441576   0.15458  -0.04999  -0.38013   0.08706
  22   35201.0    284.1   0.039116093   0.36583  -0.34002  -0.49780   0.04905
  23   35391.2    282.6   0.156027209   1.45138  -0.50924  -0.86464   0.66668
  24   35904.3    278.5   0.144334804   1.32343  -0.57256   0.06491   0.99568
  25   37011.4    270.2   0.033873507   0.30130   0.16606  -0.35302  -0.38614
  26   37186.0    268.9   0.009933157   0.08794   0.02927   0.01300  -0.29481
  27   37411.8    267.3   0.097408152   0.85716   0.34089   0.44828  -0.73484
  28   37487.0    266.8   0.067252084   0.59061   0.01464  -0.76424  -0.07953
  29   38261.2    261.4   0.028807597   0.24787  -0.22340  -0.34130   0.28543
  30   38301.4    261.1   0.008648400   0.07434  -0.13172  -0.18137   0.15522
  31   38735.9    258.2   0.014624508   0.12429   0.22590  -0.25894  -0.07882
  32   38830.6    257.5   0.042878785   0.36353   0.16589   0.43046  -0.38822
  33   38895.7    257.1   0.005210712   0.04410   0.15584  -0.13990  -0.01560
  34   39025.7    256.2   0.066712689   0.56277   0.65415  -0.24541  -0.27320
  35   39461.4    253.4   0.006304093   0.05259   0.07204   0.15675  -0.15111
  36   39657.1    252.2   0.053630998   0.44522  -0.37156  -0.38780   0.39594
  37   39840.3    251.0   0.017847596   0.14748   0.19889   0.30321  -0.12643
  38   40214.8    248.7   0.004141704   0.03391   0.01605   0.00520  -0.18336

FINAL SINGLE POINT ENERGY     -3659.942268771400

DIPOLE MOMENT
-------------
                                X             Y             Z
Electronic contribution:      0.13715      38.34429       2.28222
Nuclear contribution   :     -0.03577     -38.43618      -1.33825
                        -----------------------------------------
Total Dipole Moment    :      0.10138      -0.09190       0.94397
                        -----------------------------------------
Magnitude (a.u.)       :      0.95384
Magnitude (Debye)      :      2.42447

Rotational constants in cm-1:     0.003520     0.000327     0.000308
Rotational constants in MHz :   105.536780     9.805978     9.220491

                             ****ORCA TERMINATED NORMALLY****
TOTAL RUN TIME: 0 days 0 hours 7 minutes 19 seconds 990 msec
