                         Program Version 4.2.0 -  RELEASE  -
|  1> # ORCA input file
|  2> # SCF done       -118.192251293653          0.000471910716
|  3> ! CAM-B3LYP def2-SVP def2/J RIJCOSX Grid4 TightSCF
|  4> %maxcore 5000
|  5> %tddft
|  6>     Mode sTDDFT
|  7>     Ethresh 5.0
|  8>     maxcore 5000
|  9> end
| 10>
| 11> %pal
| 12>   nprocs 6
| 13>   end
| 14> * xyz 0 1
| 15>    O        2.09559         1.82959         0.09704
| 16>    C        1.12343         1.87994        -0.85188
| 17>    N        1.04201         0.79189        -1.56040
| 18>    C        2.01196        -0.03696        -1.06201
| 19>    C        2.65201         0.62106        -0.03911
| 20>    C        2.24843        -1.37183        -1.59448
| 21>    O        3.08828        -2.13344        -1.18911
| 22>    C        0.31298         3.04263        -0.99429
| 23>    S        0.54887         4.42922         0.03110
| 24>    C       -0.74375         5.28117        -0.75440
| 25>    C       -1.30576         4.49630        -1.76389
| 26>    C       -0.70369         3.23179        -1.89358
| 27>    C       -2.36088         4.96357        -2.56229
| 28>    N       -3.21827         5.37672        -3.20432
| 29>    C       -1.15840         6.58935        -0.39984
| 30>    C       -0.57663         7.33454         0.56892
| 31>    C       -0.93188         8.65149         0.97409
| 32>    C       -0.45887         9.28748         2.13058
| 33>    C        0.43753         8.67599         3.14581
| 34>    C       -1.01825        10.60035         2.24075
| 35>    C       -1.85813        10.75706         1.14198
| 36>    C       -1.81493         9.56786         0.30879
| 37>    C       -2.52478         9.59578        -0.86456
| 38>    C       -3.28901        10.74581        -1.15625
| 39>    C       -3.29038        11.80378        -0.29565
| 40>    O       -2.58399        11.83211         0.82555
| 41>    C       -0.85101        11.62691         3.22368
| 42>    C        0.11609        11.73549         4.15814
| 43>    C        0.19798        12.81233         5.09214
| 44>    S        1.58266        12.93502         6.14086
| 45>    C        0.98395        14.38439         6.89057
| 46>    C       -0.24644        14.73146         6.33685
| 47>    C       -0.67809        13.84621         5.33128
| 48>    C       -1.02648        15.84103         6.70471
| 49>    N       -1.71373        16.72562         6.95408
| 50>    C        1.76452        15.01222         7.89806
| 51>    C        1.44372        16.14299         8.56274
| 52>    C        2.29772        16.71917         9.55064
| 53>    N        2.06151        17.80448        10.22928
| 54>    C        3.14582        17.97736        11.04312
| 55>    C        4.02298        16.94327        10.80705
| 56>    O        3.49678        16.14969         9.87163
| 57>    C        3.26439        19.09624        11.96802
| 58>    O        4.20355        19.28697        12.69768
| 59>    H        3.45598         0.34241         0.61011
| 60>    H        1.56827        -1.62748        -2.42556
| 61>    H       -0.99410         2.48583        -2.60997
| 62>    H       -2.00846         6.95368        -0.95529
| 63>    H        0.24749         6.87992         1.10503
| 64>    H        0.46580         7.59469         3.04903
| 65>    H        0.09021         8.92382         4.14699
| 66>    H        1.45433         9.05475         3.03309
| 67>    H       -2.51723         8.78658        -1.57559
| 68>    H       -3.87189        10.79358        -2.05967
| 69>    H       -3.85445        12.71020        -0.45711
| 70>    H       -1.58930        12.41565         3.15359
| 71>    H        0.91150        11.01059         4.22055
| 72>    H       -1.61054        13.97490         4.81205
| 73>    H        2.70148        14.52115         8.12982
| 74>    H        0.52724        16.68183         8.38488
| 75>    H        4.97944        16.69827        11.22132
| 76>    H        2.39159        19.77123        11.93666
| 77> *
| 78>
| 79>                          ****END OF INPUT****

CARTESIAN COORDINATES (ANGSTROEM)
---------------------------------
  O      2.095590    1.829590    0.097040
  C      1.123430    1.879940   -0.851880
  N      1.042010    0.791890   -1.560400
  C      2.011960   -0.036960   -1.062010
  C      2.652010    0.621060   -0.039110
  C      2.248430   -1.371830   -1.594480
  O      3.088280   -2.133440   -1.189110
  C      0.312980    3.042630   -0.994290
  S      0.548870    4.429220    0.031100
  C     -0.743750    5.281170   -0.754400
  C     -1.305760    4.496300   -1.763890
  C     -0.703690    3.231790   -1.893580
  C     -2.360880    4.963570   -2.562290
  N     -3.218270    5.376720   -3.204320
  C     -1.158400    6.589350   -0.399840
  C     -0.576630    7.334540    0.568920
  C     -0.931880    8.651490    0.974090
  C     -0.458870    9.287480    2.130580
  C      0.437530    8.675990    3.145810
  C     -1.018250   10.600350    2.240750
  C     -1.858130   10.757060    1.141980
  C     -1.814930    9.567860    0.308790
  C     -2.524780    9.595780   -0.864560
  C     -3.289010   10.745810   -1.156250
  C     -3.290380   11.803780   -0.295650
  O     -2.583990   11.832110    0.825550
  C     -0.851010   11.626910    3.223680
  C      0.116090   11.735490    4.158140
  C      0.197980   12.812330    5.092140
  S      1.582660   12.935020    6.140860
  C      0.983950   14.384390    6.890570
  C     -0.246440   14.731460    6.336850
  C     -0.678090   13.846210    5.331280
  C     -1.026480   15.841030    6.704710
  N     -1.713730   16.725620    6.954080
  C      1.764520   15.012220    7.898060
  C      1.443720   16.142990    8.562740
  C      2.297720   16.719170    9.550640
  N      2.061510   17.804480   10.229280
  C      3.145820   17.977360   11.043120
  C      4.022980   16.943270   10.807050
  O      3.496780   16.149690    9.871630
  C      3.264390   19.096240   11.968020
  O      4.203550   19.286970   12.697680
  H      3.455980    0.342410    0.610110
  H      1.568270   -1.627480   -2.425560
  H     -0.994100    2.485830   -2.609970
  H     -2.008460    6.953680   -0.955290
  H      0.247490    6.879920    1.105030
  H      0.465800    7.594690    3.049030
  H      0.090210    8.923820    4.146990
  H      1.454330    9.054750    3.033090
  H     -2.517230    8.786580   -1.575590
  H     -3.871890   10.793580   -2.059670
  H     -3.854450   12.710200   -0.457110
  H     -1.589300   12.415650    3.153590
  H      0.911500   11.010590    4.220550
  H     -1.610540   13.974900    4.812050
  H      2.701480   14.521150    8.129820
  H      0.527240   16.681830    8.384880
  H      4.979440   16.698270   11.221320
  H      2.391590   19.771230   11.936660

 Total Charge           Charge          ....    0
 Multiplicity           Mult            ....    1
 Number of Electrons    NEL             ....  316
 Basis Dimension        Dim             ....  714

ORBITAL ENERGIES
----------------

  NO   OCC          E(Eh)            E(eV)
   0   2.0000     -88.978166     -2421.2190
   1   2.0000     -88.974694     -2421.1245
   2   2.0000     -19.342090      -526.3250
   3   2.0000     -19.323659      -525.8235
   4   2.0000     -19.315985      -525.6147
   5   2.0000     -19.214029      -522.8403
   6   2.0000     -19.209309      -522.7119
   7   2.0000     -14.420230      -392.3944
   8   2.0000     -14.414690      -392.2437
   9   2.0000     -14.409650      -392.1065
  10   2.0000     -14.406097      -392.0098
  11   2.0000     -10.382425      -282.5201
  12   2.0000     -10.380142      -282.4580
  13   2.0000     -10.369442      -282.1669
  14   2.0000     -10.361435      -281.9490
  15   2.0000     -10.358935      -281.8809
  16   2.0000     -10.354081      -281.7489
  17   2.0000     -10.352387      -281.7028
  18   2.0000     -10.349349      -281.6201
  19   2.0000     -10.331661      -281.1388
  20   2.0000     -10.327161      -281.0163
  21   2.0000     -10.326968      -281.0111
  22   2.0000     -10.321603      -280.8651
  23   2.0000     -10.319492      -280.8077
  24   2.0000     -10.317641      -280.7573
  25   2.0000     -10.311905      -280.6012
  26   2.0000     -10.310185      -280.5544
  27   2.0000     -10.309965      -280.5484
  28   2.0000     -10.309450      -280.5344
  29   2.0000     -10.307887      -280.4919
  30   2.0000     -10.306120      -280.4438
  31   2.0000     -10.304193      -280.3913
  32   2.0000     -10.303509      -280.3727
  33   2.0000     -10.301779      -280.3257
  34   2.0000     -10.300720      -280.2968
  35   2.0000     -10.298060      -280.2245
  36   2.0000     -10.295035      -280.1422
  37   2.0000     -10.293723      -280.1065
  38   2.0000     -10.292483      -280.0727
  39   2.0000     -10.287837      -279.9463
  40   2.0000     -10.285534      -279.8836
  41   2.0000     -10.282522      -279.8016
  42   2.0000     -10.281079      -279.7624
  43   2.0000     -10.278784      -279.6999
  44   2.0000      -8.073406      -219.6885
  45   2.0000      -8.070556      -219.6110
  46   2.0000      -6.042635      -164.4284
  47   2.0000      -6.039656      -164.3474
  48   2.0000      -6.038655      -164.3202
  49   2.0000      -6.035677      -164.2391
  50   2.0000      -6.035478      -164.2337
  51   2.0000      -6.032842      -164.1620
  52   2.0000      -1.252172       -34.0733
  53   2.0000      -1.251913       -34.0663
  54   2.0000      -1.243314       -33.8323
  55   2.0000      -1.127427       -30.6788
  56   2.0000      -1.122464       -30.5438
  57   2.0000      -1.030673       -28.0460
  58   2.0000      -1.023149       -27.8413
  59   2.0000      -1.012444       -27.5500
  60   2.0000      -1.011998       -27.5379
  61   2.0000      -0.996010       -27.1028
  62   2.0000      -0.987747       -26.8780
  63   2.0000      -0.985442       -26.8152
  64   2.0000      -0.944904       -25.7121
  65   2.0000      -0.928414       -25.2634
  66   2.0000      -0.920351       -25.0440
  67   2.0000      -0.904193       -24.6043
  68   2.0000      -0.895827       -24.3767
  69   2.0000      -0.881472       -23.9861
  70   2.0000      -0.868578       -23.6352
  71   2.0000      -0.866193       -23.5703
  72   2.0000      -0.861177       -23.4338
  73   2.0000      -0.839938       -22.8559
  74   2.0000      -0.822410       -22.3789
  75   2.0000      -0.817853       -22.2549
  76   2.0000      -0.798126       -21.7181
  77   2.0000      -0.777132       -21.1468
  78   2.0000      -0.766115       -20.8470
  79   2.0000      -0.762548       -20.7500
  80   2.0000      -0.751411       -20.4469
  81   2.0000      -0.744155       -20.2495
  82   2.0000      -0.729674       -19.8554
  83   2.0000      -0.718308       -19.5462
  84   2.0000      -0.700006       -19.0481
  85   2.0000      -0.696424       -18.9507
  86   2.0000      -0.694825       -18.9071
  87   2.0000      -0.682736       -18.5782
  88   2.0000      -0.671804       -18.2807
  89   2.0000      -0.659567       -17.9477
  90   2.0000      -0.650409       -17.6985
  91   2.0000      -0.642532       -17.4842
  92   2.0000      -0.632122       -17.2009
  93   2.0000      -0.626465       -17.0470
  94   2.0000      -0.614862       -16.7312
  95   2.0000      -0.613371       -16.6907
  96   2.0000      -0.608344       -16.5539
  97   2.0000      -0.601845       -16.3770
  98   2.0000      -0.594397       -16.1744
  99   2.0000      -0.593094       -16.1389
 100   2.0000      -0.589477       -16.0405
 101   2.0000      -0.584292       -15.8994
 102   2.0000      -0.582882       -15.8610
 103   2.0000      -0.570011       -15.5108
 104   2.0000      -0.563179       -15.3249
 105   2.0000      -0.559872       -15.2349
 106   2.0000      -0.558109       -15.1869
 107   2.0000      -0.549469       -14.9518
 108   2.0000      -0.537924       -14.6377
 109   2.0000      -0.535583       -14.5740
 110   2.0000      -0.534139       -14.5347
 111   2.0000      -0.523669       -14.2498
 112   2.0000      -0.521929       -14.2024
 113   2.0000      -0.517701       -14.0874
 114   2.0000      -0.514062       -13.9883
 115   2.0000      -0.511488       -13.9183
 116   2.0000      -0.509786       -13.8720
 117   2.0000      -0.509265       -13.8578
 118   2.0000      -0.502365       -13.6700
 119   2.0000      -0.498644       -13.5688
 120   2.0000      -0.493290       -13.4231
 121   2.0000      -0.488340       -13.2884
 122   2.0000      -0.485485       -13.2107
 123   2.0000      -0.482644       -13.1334
 124   2.0000      -0.479893       -13.0585
 125   2.0000      -0.477769       -13.0007
 126   2.0000      -0.472675       -12.8621
 127   2.0000      -0.467838       -12.7305
 128   2.0000      -0.465446       -12.6654
 129   2.0000      -0.464117       -12.6293
 130   2.0000      -0.446540       -12.1510
 131   2.0000      -0.445463       -12.1217
 132   2.0000      -0.442318       -12.0361
 133   2.0000      -0.439599       -11.9621
 134   2.0000      -0.436443       -11.8762
 135   2.0000      -0.434554       -11.8248
 136   2.0000      -0.433742       -11.8027
 137   2.0000      -0.431556       -11.7432
 138   2.0000      -0.425332       -11.5739
 139   2.0000      -0.421484       -11.4692
 140   2.0000      -0.420546       -11.4436
 141   2.0000      -0.410526       -11.1710
 142   2.0000      -0.406761       -11.0685
 143   2.0000      -0.406509       -11.0617
 144   2.0000      -0.400823       -10.9069
 145   2.0000      -0.384758       -10.4698
 146   2.0000      -0.377914       -10.2836
 147   2.0000      -0.376559       -10.2467
 148   2.0000      -0.353269        -9.6129
 149   2.0000      -0.337443        -9.1823
 150   2.0000      -0.337120        -9.1735
 151   2.0000      -0.335214        -9.1216
 152   2.0000      -0.333402        -9.0723
 153   2.0000      -0.330426        -8.9913
 154   2.0000      -0.310305        -8.4438
 155   2.0000      -0.298225        -8.1151
 156   2.0000      -0.266275        -7.2457
 157   2.0000      -0.238366        -6.4863
 158   0.0000      -0.068888        -1.8745
 159   0.0000      -0.066465        -1.8086
 160   0.0000      -0.050789        -1.3820
 161   0.0000      -0.019668        -0.5352
 162   0.0000      -0.016167        -0.4399

MULLIKEN ATOMIC CHARGES
-----------------------
   0 O :   -0.171917
   1 C :    0.111038
   2 N :   -0.079340
   3 C :   -0.043569
   4 C :    0.131751
   5 C :    0.168161
   6 O :   -0.177164
   7 C :   -0.101365
   8 S :    0.152585
   9 C :   -0.031336
  10 C :   -0.074887
  11 C :    0.023136
  12 C :   -0.189038
  13 N :    0.117797
  14 C :   -0.036155
  15 C :   -0.027088
  16 C :    0.071877
  17 C :   -0.154033
  18 C :    0.111033
  19 C :   -0.005113
  20 C :    0.090916
  21 C :    0.042058
  22 C :    0.014793
  23 C :   -0.035899
  24 C :    0.176652
  25 O :   -0.141092
  26 C :   -0.000922
  27 C :    0.042317
  28 C :   -0.068297
  29 S :    0.144355
  30 C :   -0.063030
  31 C :   -0.067604
  32 C :    0.000571
  33 C :   -0.179952
  34 N :    0.121675
  35 C :    0.050232
  36 C :   -0.019668
  37 C :    0.080595
  38 N :   -0.059590
  39 C :   -0.061451
  40 C :    0.137506
  41 O :   -0.180323
  42 C :    0.172905
  43 O :   -0.180104
  44 H :    0.034772
  45 H :   -0.008942
  46 H :    0.009916
  47 H :   -0.010710
  48 H :   -0.018518
  49 H :    0.017955
  50 H :    0.036111
  51 H :    0.042621
  52 H :    0.015777
  53 H :    0.023768
  54 H :    0.040355
  55 H :   -0.014769
  56 H :   -0.034365
  57 H :   -0.006797
  58 H :    0.001397
  59 H :    0.032511
  60 H :    0.033952
  61 H :   -0.008050
Sum of atomic charges:   -0.0000000

LOEWDIN ATOMIC CHARGES
----------------------
   0 O :    0.020636
   1 C :    0.029486
   2 N :   -0.099860
   3 C :   -0.104906
   4 C :    0.070142
   5 C :    0.104606
   6 O :   -0.132063
   7 C :   -0.204544
   8 S :    0.457024
   9 C :   -0.118104
  10 C :   -0.123844
  11 C :    0.005394
  12 C :   -0.031013
  13 N :   -0.070587
  14 C :   -0.080827
  15 C :    0.011072
  16 C :   -0.092934
  17 C :    0.028495
  18 C :   -0.049467
  19 C :   -0.105542
  20 C :    0.069391
  21 C :   -0.024245
  22 C :    0.047693
  23 C :   -0.073464
  24 C :    0.093288
  25 O :    0.059786
  26 C :    0.003232
  27 C :   -0.071599
  28 C :   -0.155421
  29 S :    0.457014
  30 C :   -0.153728
  31 C :   -0.098137
  32 C :   -0.037585
  33 C :   -0.028061
  34 N :   -0.055042
  35 C :   -0.026449
  36 C :   -0.028739
  37 C :    0.042543
  38 N :   -0.088670
  39 C :   -0.109488
  40 C :    0.074628
  41 O :    0.021303
  42 C :    0.104821
  43 O :   -0.134810
  44 H :    0.036057
  45 H :    0.002688
  46 H :    0.046953
  47 H :    0.032318
  48 H :    0.022196
  49 H :    0.033373
  50 H :    0.041365
  51 H :    0.042946
  52 H :    0.042287
  53 H :    0.046832
  54 H :    0.038054
  55 H :    0.030016
  56 H :    0.023559
  57 H :    0.035903
  58 H :    0.033337
  59 H :    0.052222
  60 H :    0.035227
  61 H :    0.003241

  Mayer bond orders larger than 0.100000
B(  0-O ,  1-C ) :   1.2084 B(  0-O ,  4-C ) :   1.1549 B(  1-C ,  2-N ) :   1.7789
B(  1-C ,  7-C ) :   1.0385 B(  2-N ,  3-C ) :   1.2940 B(  3-C ,  4-C ) :   1.5188
B(  3-C ,  5-C ) :   0.9675 B(  4-C , 44-H ) :   0.9909 B(  5-C ,  6-O ) :   2.2040
B(  5-C , 45-H ) :   0.9524 B(  7-C ,  8-S ) :   1.0954 B(  7-C , 11-C ) :   1.5505
B(  8-S ,  9-C ) :   1.1285 B(  9-C , 10-C ) :   1.4460 B(  9-C , 14-C ) :   1.1927
B( 10-C , 11-C ) :   1.2355 B( 10-C , 12-C ) :   1.1033 B( 11-C , 46-H ) :   1.0128
B( 12-C , 13-N ) :   3.0125 B( 14-C , 15-C ) :   1.6106 B( 14-C , 47-H ) :   0.9649
B( 15-C , 16-C ) :   1.1493 B( 15-C , 48-H ) :   0.9649 B( 16-C , 17-C ) :   1.4403
B( 16-C , 21-C ) :   1.0921 B( 17-C , 18-C ) :   1.1250 B( 17-C , 19-C ) :   1.2033
B( 18-C , 49-H ) :   0.9366 B( 18-C , 50-H ) :   0.9371 B( 18-C , 51-H ) :   0.9287
B( 19-C , 20-C ) :   1.4055 B( 19-C , 26-C ) :   1.1150 B( 20-C , 21-C ) :   1.0992
B( 20-C , 25-O ) :   1.1533 B( 21-C , 22-C ) :   1.4930 B( 22-C , 23-C ) :   1.2305
B( 22-C , 52-H ) :   0.9853 B( 23-C , 24-C ) :   1.5795 B( 23-C , 53-H ) :   0.9661
B( 24-C , 25-O ) :   1.1758 B( 24-C , 54-H ) :   0.9804 B( 26-C , 27-C ) :   1.6844
B( 26-C , 55-H ) :   0.9628 B( 27-C , 28-C ) :   1.0926 B( 27-C , 56-H ) :   0.9588
B( 28-C , 29-S ) :   1.1275 B( 28-C , 32-C ) :   1.4948 B( 29-S , 30-C ) :   1.1245
B( 30-C , 31-C ) :   1.4669 B( 30-C , 35-C ) :   1.1291 B( 31-C , 32-C ) :   1.2905
B( 31-C , 33-C ) :   1.1134 B( 32-C , 57-H ) :   0.9984 B( 33-C , 34-N ) :   2.9785
B( 35-C , 36-C ) :   1.6746 B( 35-C , 58-H ) :   0.9522 B( 36-C , 37-C ) :   1.1135
B( 36-C , 59-H ) :   0.9530 B( 37-C , 38-N ) :   1.7237 B( 37-C , 41-O ) :   1.1494
B( 38-N , 39-C ) :   1.3096 B( 39-C , 40-C ) :   1.5089 B( 39-C , 42-C ) :   0.9715
B( 40-C , 41-O ) :   1.1717 B( 40-C , 60-H ) :   0.9906 B( 42-C , 43-O ) :   2.2009
B( 42-C , 61-H ) :   0.9521

-----------------------------------------------------------------------------
         ABSORPTION SPECTRUM VIA TRANSITION ELECTRIC DIPOLE MOMENTS
-----------------------------------------------------------------------------
State   Energy  Wavelength   fosc         T2         TX        TY        TZ
        (cm-1)    (nm)                  (au**2)     (au)      (au)      (au)
-----------------------------------------------------------------------------
   0   17798.5    561.8   0.070010293   1.29496  -0.37246   1.06055   0.17737
   1   22073.1    453.0   1.929993056  28.78517   0.60515   4.27790   3.18097
   2   25419.8    393.4   0.500460790   6.48148   1.83925  -0.81835   1.55851
   3   27760.4    360.2   0.271702015   3.22213   0.62224   0.96495   1.37979
   4   30554.1    327.3   0.099255959   1.06945   0.82371  -0.11859   0.61392
   5   32559.4    307.1   0.149525033   1.51186  -0.16296   1.19656   0.23140
   6   33564.5    297.9   0.355701212   3.48884  -0.58157  -1.06094  -1.42303
   7   34266.2    291.8   0.000004108   0.00004  -0.00369   0.00067  -0.00504
   8   35031.1    285.5   0.122220560   1.14859  -0.37571  -0.46808  -0.88788
   9   35268.6    283.5   0.017112818   0.15974  -0.01293   0.25278  -0.30931
  10   36116.2    276.9   0.005443767   0.04962   0.00581   0.10392  -0.19695
  11   36991.9    270.3   0.009658687   0.08596  -0.20052   0.20804   0.04968
  12   37363.7    267.6   0.012122824   0.10681   0.06997  -0.21408  -0.23683
  13   38064.5    262.7   0.259677212   2.24590   1.00658  -0.46534   1.00804
  14   38968.1    256.6   0.057648038   0.48702  -0.46033   0.52085  -0.06192

FINAL SINGLE POINT ENERGY     -2657.180102987535

DIPOLE MOMENT
-------------
                                X             Y             Z
Electronic contribution:      4.02176      -4.39146       0.87147
Nuclear contribution   :     -3.88898       4.03512      -1.97548
                        -----------------------------------------
Total Dipole Moment    :      0.13278      -0.35634      -1.10400
                        -----------------------------------------
Magnitude (a.u.)       :      1.16766
Magnitude (Debye)      :      2.96795

Rotational constants in cm-1:     0.003917     0.000509     0.000452
Rotational constants in MHz :   117.432341    15.266395    13.553031

                             ****ORCA TERMINATED NORMALLY****
TOTAL RUN TIME: 0 days 0 hours 6 minutes 43 seconds 988 msec
