                         Program Version 4.2.0 -  RELEASE  -
|  1> # ORCA input file
|  2> # SCF done       -139.023462595896          0.000439622315
|  3> ! CAM-B3LYP def2-SVP def2/J RIJCOSX Grid4 TightSCF
|  4> %maxcore 5000
|  5> %tddft
|  6>     Mode sTDDFT
|  7>     Ethresh 5.0
|  8>     maxcore 5000
|  9> end
| 10>
| 11> %pal
| 12>   nprocs 6
| 13>   end
| 14> * xyz 0 1
| 15>    C        1.35746         2.82727         0.23857
| 16>    C       -0.00305         2.74703         0.30507
| 17>    S       -0.60123         1.12520         0.31722
| 18>    C        0.99720         0.53188         0.23128
| 19>    C        1.93773         1.54842         0.19603
| 20>    C        3.28633         0.94310         0.12208
| 21>    O        4.36071         1.49071         0.07463
| 22>    C        3.02458        -0.53221         0.11671
| 23>    C        1.64313        -0.75936         0.18354
| 24>    C        1.07332        -2.06059         0.19566
| 25>    C       -0.31994        -2.26147         0.26333
| 26>    N       -1.45639        -2.40071         0.32027
| 27>    C        2.02120        -3.05301         0.13464
| 28>    N        2.19133        -4.48969         0.10530
| 29>    C        3.97471        -1.56983         0.05504
| 30>    C        3.41351        -2.80943         0.06723
| 31>    C        3.49985        -4.31943         0.04202
| 32>    C        4.52686        -5.22167        -0.02859
| 33>    C        5.45380        -6.01128        -0.09946
| 34>    C        6.47365        -6.93577        -0.18817
| 35>    N        6.24713        -8.29433        -0.21189
| 36>    C        4.94766        -8.92076        -0.19275
| 37>    C        4.25956        -8.83128        -1.55164
| 38>    C        7.44133        -9.01556        -0.31625
| 39>    O        7.49926       -10.23088        -0.35364
| 40>    C        8.47166        -7.99961        -0.35005
| 41>    C        7.84637        -6.73191        -0.26644
| 42>    C        8.87821        -5.71337        -0.29357
| 43>    O        8.83791        -4.50642        -0.24133
| 44>    N       10.07928        -6.45210        -0.39195
| 45>    C       11.35440        -5.78474        -0.49729
| 46>    C       11.84163        -5.71478        -1.94259
| 47>    C        9.85227        -7.80554        -0.43472
| 48>    C       10.87496        -8.78070        -0.54316
| 49>    C       10.59624       -10.11037        -0.59593
| 50>    C       11.55471       -11.09380        -0.72622
| 51>    C       12.36601       -11.99918        -0.85828
| 52>    C       13.24221       -12.99641        -1.00836
| 53>    C       14.01851       -13.92350        -1.18742
| 54>    C       14.90951       -14.97146        -1.31693
| 55>    C       14.94163       -15.77786        -2.40889
| 56>    C       15.80515       -16.92349        -2.66170
| 57>    C       16.80577       -17.43484        -1.87749
| 58>    C       17.54258       -18.56549        -2.29015
| 59>    N       18.14294       -19.48414        -2.62371
| 60>    C       17.19683       -16.91160        -0.63047
| 61>    N       17.54634       -16.51332         0.38785
| 62>    C       15.39787       -17.43977        -3.93865
| 63>    C       14.36298       -16.69323        -4.49087
| 64>    C       13.94567       -17.17981        -5.74026
| 65>    C       14.66950       -18.27768        -6.10356
| 66>    S       15.86532       -18.74287        -4.94905
| 67>    C       14.01855       -15.59909        -3.57314
| 68>    O       13.18562       -14.73241        -3.70184
| 69>    H        1.90778         3.74979         0.22171
| 70>    H       -0.70739         3.55413         0.34899
| 71>    H        5.03115        -1.36127         0.00516
| 72>    H        4.33281        -8.44044         0.57393
| 73>    H        5.11474        -9.96727         0.07576
| 74>    H        4.09511        -7.79224        -1.82848
| 75>    H        3.29827        -9.33457        -1.50821
| 76>    H        4.86975        -9.30922        -2.31464
| 77>    H       12.08636        -6.29123         0.13798
| 78>    H       11.19764        -4.77209        -0.11518
| 79>    H       11.96584        -6.71012        -2.36392
| 80>    H       12.79530        -5.19613        -1.98367
| 81>    H       11.12362        -5.16894        -2.54966
| 82>    H       11.90169        -8.44670        -0.59427
| 83>    H        9.56736       -10.45676        -0.54720
| 84>    H       15.59014       -15.12640        -0.48780
| 85>    H       13.16053       -16.74673        -6.33168
| 86>    H       14.57178       -18.85673        -7.00122
| 87> *
| 88>
| 89>                          ****END OF INPUT****

CARTESIAN COORDINATES (ANGSTROEM)
---------------------------------
  C      1.357460    2.827270    0.238570
  C     -0.003050    2.747030    0.305070
  S     -0.601230    1.125200    0.317220
  C      0.997200    0.531880    0.231280
  C      1.937730    1.548420    0.196030
  C      3.286330    0.943100    0.122080
  O      4.360710    1.490710    0.074630
  C      3.024580   -0.532210    0.116710
  C      1.643130   -0.759360    0.183540
  C      1.073320   -2.060590    0.195660
  C     -0.319940   -2.261470    0.263330
  N     -1.456390   -2.400710    0.320270
  C      2.021200   -3.053010    0.134640
  N      2.191330   -4.489690    0.105300
  C      3.974710   -1.569830    0.055040
  C      3.413510   -2.809430    0.067230
  C      3.499850   -4.319430    0.042020
  C      4.526860   -5.221670   -0.028590
  C      5.453800   -6.011280   -0.099460
  C      6.473650   -6.935770   -0.188170
  N      6.247130   -8.294330   -0.211890
  C      4.947660   -8.920760   -0.192750
  C      4.259560   -8.831280   -1.551640
  C      7.441330   -9.015560   -0.316250
  O      7.499260  -10.230880   -0.353640
  C      8.471660   -7.999610   -0.350050
  C      7.846370   -6.731910   -0.266440
  C      8.878210   -5.713370   -0.293570
  O      8.837910   -4.506420   -0.241330
  N     10.079280   -6.452100   -0.391950
  C     11.354400   -5.784740   -0.497290
  C     11.841630   -5.714780   -1.942590
  C      9.852270   -7.805540   -0.434720
  C     10.874960   -8.780700   -0.543160
  C     10.596240  -10.110370   -0.595930
  C     11.554710  -11.093800   -0.726220
  C     12.366010  -11.999180   -0.858280
  C     13.242210  -12.996410   -1.008360
  C     14.018510  -13.923500   -1.187420
  C     14.909510  -14.971460   -1.316930
  C     14.941630  -15.777860   -2.408890
  C     15.805150  -16.923490   -2.661700
  C     16.805770  -17.434840   -1.877490
  C     17.542580  -18.565490   -2.290150
  N     18.142940  -19.484140   -2.623710
  C     17.196830  -16.911600   -0.630470
  N     17.546340  -16.513320    0.387850
  C     15.397870  -17.439770   -3.938650
  C     14.362980  -16.693230   -4.490870
  C     13.945670  -17.179810   -5.740260
  C     14.669500  -18.277680   -6.103560
  S     15.865320  -18.742870   -4.949050
  C     14.018550  -15.599090   -3.573140
  O     13.185620  -14.732410   -3.701840
  H      1.907780    3.749790    0.221710
  H     -0.707390    3.554130    0.348990
  H      5.031150   -1.361270    0.005160
  H      4.332810   -8.440440    0.573930
  H      5.114740   -9.967270    0.075760
  H      4.095110   -7.792240   -1.828480
  H      3.298270   -9.334570   -1.508210
  H      4.869750   -9.309220   -2.314640
  H     12.086360   -6.291230    0.137980
  H     11.197640   -4.772090   -0.115180
  H     11.965840   -6.710120   -2.363920
  H     12.795300   -5.196130   -1.983670
  H     11.123620   -5.168940   -2.549660
  H     11.901690   -8.446700   -0.594270
  H      9.567360  -10.456760   -0.547200
  H     15.590140  -15.126400   -0.487800
  H     13.160530  -16.746730   -6.331680
  H     14.571780  -18.856730   -7.001220

 Total Charge           Charge          ....    0
 Multiplicity           Mult            ....    1
 Number of Electrons    NEL             ....  376
 Basis Dimension        Dim             ....  854

ORBITAL ENERGIES
----------------

  NO   OCC          E(Eh)            E(eV)
   0   2.0000     -88.999049     -2421.7873
   1   2.0000     -88.974034     -2421.1065
   2   2.0000     -19.231192      -523.3073
   3   2.0000     -19.218764      -522.9692
   4   2.0000     -19.212923      -522.8102
   5   2.0000     -19.200247      -522.4653
   6   2.0000     -14.472163      -393.8076
   7   2.0000     -14.466599      -393.6562
   8   2.0000     -14.431029      -392.6883
   9   2.0000     -14.430924      -392.6854
  10   2.0000     -14.428796      -392.6275
  11   2.0000     -14.410276      -392.1236
  12   2.0000     -10.396030      -282.8904
  13   2.0000     -10.385917      -282.6152
  14   2.0000     -10.384797      -282.5847
  15   2.0000     -10.368422      -282.1391
  16   2.0000     -10.366666      -282.0913
  17   2.0000     -10.365606      -282.0625
  18   2.0000     -10.362896      -281.9887
  19   2.0000     -10.361440      -281.9491
  20   2.0000     -10.360517      -281.9240
  21   2.0000     -10.342013      -281.4205
  22   2.0000     -10.339850      -281.3616
  23   2.0000     -10.334230      -281.2087
  24   2.0000     -10.332513      -281.1620
  25   2.0000     -10.332155      -281.1522
  26   2.0000     -10.329298      -281.0745
  27   2.0000     -10.327884      -281.0360
  28   2.0000     -10.325649      -280.9752
  29   2.0000     -10.323541      -280.9178
  30   2.0000     -10.323345      -280.9125
  31   2.0000     -10.322634      -280.8931
  32   2.0000     -10.321034      -280.8496
  33   2.0000     -10.318302      -280.7753
  34   2.0000     -10.316857      -280.7360
  35   2.0000     -10.316371      -280.7227
  36   2.0000     -10.313732      -280.6509
  37   2.0000     -10.313144      -280.6349
  38   2.0000     -10.312187      -280.6089
  39   2.0000     -10.311952      -280.6025
  40   2.0000     -10.310957      -280.5754
  41   2.0000     -10.310946      -280.5751
  42   2.0000     -10.310026      -280.5501
  43   2.0000     -10.309852      -280.5453
  44   2.0000     -10.304539      -280.4008
  45   2.0000     -10.301110      -280.3075
  46   2.0000     -10.299289      -280.2579
  47   2.0000     -10.291724      -280.0521
  48   2.0000     -10.287172      -279.9282
  49   2.0000     -10.285355      -279.8787
  50   2.0000     -10.279662      -279.7238
  51   2.0000     -10.276039      -279.6252
  52   2.0000     -10.275676      -279.6154
  53   2.0000     -10.263768      -279.2913
  54   2.0000      -8.093697      -220.2407
  55   2.0000      -8.068758      -219.5621
  56   2.0000      -6.063025      -164.9833
  57   2.0000      -6.058374      -164.8567
  58   2.0000      -6.056253      -164.7990
  59   2.0000      -6.037997      -164.3023
  60   2.0000      -6.033454      -164.1786
  61   2.0000      -6.031473      -164.1247
  62   2.0000      -1.152313       -31.3560
  63   2.0000      -1.146218       -31.1902
  64   2.0000      -1.140340       -31.0302
  65   2.0000      -1.130632       -30.7661
  66   2.0000      -1.094490       -29.7826
  67   2.0000      -1.082438       -29.4546
  68   2.0000      -1.071607       -29.1599
  69   2.0000      -1.041987       -28.3539
  70   2.0000      -1.020744       -27.7759
  71   2.0000      -1.012493       -27.5513
  72   2.0000      -1.007722       -27.4215
  73   2.0000      -0.993234       -27.0273
  74   2.0000      -0.977778       -26.6067
  75   2.0000      -0.962878       -26.2012
  76   2.0000      -0.947390       -25.7798
  77   2.0000      -0.938817       -25.5465
  78   2.0000      -0.929998       -25.3065
  79   2.0000      -0.913087       -24.8464
  80   2.0000      -0.910663       -24.7804
  81   2.0000      -0.896821       -24.4038
  82   2.0000      -0.891829       -24.2679
  83   2.0000      -0.885258       -24.0891
  84   2.0000      -0.882150       -24.0045
  85   2.0000      -0.865877       -23.5617
  86   2.0000      -0.852939       -23.2097
  87   2.0000      -0.843777       -22.9603
  88   2.0000      -0.836161       -22.7531
  89   2.0000      -0.831496       -22.6262
  90   2.0000      -0.812852       -22.1188
  91   2.0000      -0.788651       -21.4603
  92   2.0000      -0.788008       -21.4428
  93   2.0000      -0.771857       -21.0033
  94   2.0000      -0.771453       -20.9923
  95   2.0000      -0.767866       -20.8947
  96   2.0000      -0.745761       -20.2932
  97   2.0000      -0.737807       -20.0767
  98   2.0000      -0.730505       -19.8781
  99   2.0000      -0.720235       -19.5986
 100   2.0000      -0.717096       -19.5132
 101   2.0000      -0.704474       -19.1697
 102   2.0000      -0.693835       -18.8802
 103   2.0000      -0.689129       -18.7522
 104   2.0000      -0.679943       -18.5022
 105   2.0000      -0.675076       -18.3698
 106   2.0000      -0.667068       -18.1518
 107   2.0000      -0.657018       -17.8784
 108   2.0000      -0.649758       -17.6808
 109   2.0000      -0.644473       -17.5370
 110   2.0000      -0.638089       -17.3633
 111   2.0000      -0.627418       -17.0729
 112   2.0000      -0.623060       -16.9543
 113   2.0000      -0.616655       -16.7800
 114   2.0000      -0.605709       -16.4822
 115   2.0000      -0.592702       -16.1283
 116   2.0000      -0.591313       -16.0904
 117   2.0000      -0.588650       -16.0180
 118   2.0000      -0.576589       -15.6898
 119   2.0000      -0.573569       -15.6076
 120   2.0000      -0.569940       -15.5088
 121   2.0000      -0.564184       -15.3522
 122   2.0000      -0.562123       -15.2961
 123   2.0000      -0.557501       -15.1704
 124   2.0000      -0.554254       -15.0820
 125   2.0000      -0.546513       -14.8714
 126   2.0000      -0.544162       -14.8074
 127   2.0000      -0.542494       -14.7620
 128   2.0000      -0.540714       -14.7136
 129   2.0000      -0.536971       -14.6117
 130   2.0000      -0.527448       -14.3526
 131   2.0000      -0.525711       -14.3053
 132   2.0000      -0.522996       -14.2314
 133   2.0000      -0.516648       -14.0587
 134   2.0000      -0.514706       -14.0059
 135   2.0000      -0.509738       -13.8707
 136   2.0000      -0.508890       -13.8476
 137   2.0000      -0.508305       -13.8317
 138   2.0000      -0.507210       -13.8019
 139   2.0000      -0.496770       -13.5178
 140   2.0000      -0.495043       -13.4708
 141   2.0000      -0.491029       -13.3616
 142   2.0000      -0.488223       -13.2852
 143   2.0000      -0.486987       -13.2516
 144   2.0000      -0.484511       -13.1842
 145   2.0000      -0.480657       -13.0794
 146   2.0000      -0.472052       -12.8452
 147   2.0000      -0.469657       -12.7800
 148   2.0000      -0.467639       -12.7251
 149   2.0000      -0.465567       -12.6687
 150   2.0000      -0.465523       -12.6675
 151   2.0000      -0.461836       -12.5672
 152   2.0000      -0.461142       -12.5483
 153   2.0000      -0.461055       -12.5459
 154   2.0000      -0.456647       -12.4260
 155   2.0000      -0.455898       -12.4056
 156   2.0000      -0.454368       -12.3640
 157   2.0000      -0.448302       -12.1989
 158   2.0000      -0.446584       -12.1522
 159   2.0000      -0.440644       -11.9905
 160   2.0000      -0.440578       -11.9887
 161   2.0000      -0.439014       -11.9462
 162   2.0000      -0.437422       -11.9029
 163   2.0000      -0.434413       -11.8210
 164   2.0000      -0.429950       -11.6995
 165   2.0000      -0.429552       -11.6887
 166   2.0000      -0.425228       -11.5711
 167   2.0000      -0.418965       -11.4006
 168   2.0000      -0.411456       -11.1963
 169   2.0000      -0.400671       -10.9028
 170   2.0000      -0.386673       -10.5219
 171   2.0000      -0.384701       -10.4682
 172   2.0000      -0.380258       -10.3473
 173   2.0000      -0.366145        -9.9633
 174   2.0000      -0.364117        -9.9081
 175   2.0000      -0.359525        -9.7832
 176   2.0000      -0.357516        -9.7285
 177   2.0000      -0.355194        -9.6653
 178   2.0000      -0.346632        -9.4323
 179   2.0000      -0.335170        -9.1204
 180   2.0000      -0.332530        -9.0486
 181   2.0000      -0.332277        -9.0417
 182   2.0000      -0.323570        -8.8048
 183   2.0000      -0.321817        -8.7571
 184   2.0000      -0.316415        -8.6101
 185   2.0000      -0.308703        -8.4002
 186   2.0000      -0.273036        -7.4297
 187   2.0000      -0.255862        -6.9624
 188   0.0000      -0.121010        -3.2929
 189   0.0000      -0.104072        -2.8320
 190   0.0000      -0.080717        -2.1964
 191   0.0000      -0.072586        -1.9752
 192   0.0000      -0.049389        -1.3439

MULLIKEN ATOMIC CHARGES
-----------------------
   0 C :    0.020210
   1 C :   -0.070302
   2 S :    0.202126
   3 C :   -0.149841
   4 C :   -0.016699
   5 C :    0.166739
   6 O :   -0.112163
   7 C :   -0.113566
   8 C :    0.090625
   9 C :   -0.167045
  10 C :   -0.310781
  11 N :    0.217314
  12 C :    0.100268
  13 N :   -0.093744
  14 C :   -0.094745
  15 C :    0.145839
  16 C :   -0.018533
  17 C :    0.119456
  18 C :   -0.016547
  19 C :   -0.006783
  20 N :   -0.258900
  21 C :    0.111857
  22 C :    0.000711
  23 C :    0.181672
  24 O :   -0.213847
  25 C :   -0.099019
  26 C :    0.027853
  27 C :    0.136774
  28 O :   -0.157343
  29 N :   -0.269122
  30 C :    0.094252
  31 C :    0.003165
  32 C :    0.152604
  33 C :   -0.021961
  34 C :   -0.086858
  35 C :    0.065662
  36 C :    0.006666
  37 C :    0.027161
  38 C :    0.073303
  39 C :   -0.111097
  40 C :   -0.088748
  41 C :    0.254091
  42 C :   -0.323123
  43 C :   -0.206791
  44 N :    0.170877
  45 C :   -0.186804
  46 N :    0.173248
  47 C :   -0.157569
  48 C :    0.014434
  49 C :    0.016556
  50 C :   -0.046215
  51 S :    0.226245
  52 C :    0.157873
  53 O :   -0.111343
  54 H :   -0.001382
  55 H :    0.033465
  56 H :    0.007469
  57 H :    0.034011
  58 H :    0.044548
  59 H :    0.026325
  60 H :    0.028216
  61 H :    0.024944
  62 H :    0.028921
  63 H :    0.048650
  64 H :    0.018432
  65 H :    0.029041
  66 H :    0.032882
  67 H :   -0.002528
  68 H :    0.079708
  69 H :    0.061589
  70 H :    0.009933
  71 H :    0.047683
Sum of atomic charges:    0.0000000

LOEWDIN ATOMIC CHARGES
----------------------
   0 C :   -0.032757
   1 C :   -0.177822
   2 S :    0.494101
   3 C :   -0.179314
   4 C :   -0.098600
   5 C :    0.090483
   6 O :   -0.115625
   7 C :   -0.068472
   8 C :    0.026286
   9 C :   -0.097147
  10 C :   -0.034162
  11 N :   -0.039677
  12 C :    0.075298
  13 N :   -0.081174
  14 C :    0.025308
  15 C :   -0.036461
  16 C :    0.050392
  17 C :   -0.026072
  18 C :    0.024270
  19 C :    0.029956
  20 N :    0.012541
  21 C :    0.040322
  22 C :   -0.059165
  23 C :    0.075822
  24 O :   -0.202807
  25 C :   -0.126755
  26 C :   -0.075885
  27 C :    0.088403
  28 O :   -0.161665
  29 N :   -0.003494
  30 C :    0.036712
  31 C :   -0.060168
  32 C :    0.096300
  33 C :   -0.028566
  34 C :    0.026152
  35 C :    0.019419
  36 C :   -0.019027
  37 C :   -0.000750
  38 C :    0.015768
  39 C :    0.037150
  40 C :   -0.055240
  41 C :    0.056300
  42 C :   -0.131727
  43 C :   -0.034338
  44 N :   -0.035594
  45 C :   -0.022011
  46 N :   -0.038232
  47 C :   -0.175702
  48 C :   -0.065748
  49 C :   -0.033821
  50 C :   -0.147057
  51 S :    0.513754
  52 C :    0.079440
  53 O :   -0.112542
  54 H :    0.039287
  55 H :    0.025630
  56 H :    0.046818
  57 H :    0.031154
  58 H :    0.037802
  59 H :    0.026632
  60 H :    0.033674
  61 H :    0.029563
  62 H :    0.025405
  63 H :    0.040116
  64 H :    0.022833
  65 H :    0.033469
  66 H :    0.033564
  67 H :    0.037694
  68 H :    0.059161
  69 H :    0.063503
  70 H :    0.044472
  71 H :    0.032625

  Mayer bond orders larger than 0.100000
B(  0-C ,  1-C ) :   1.5492 B(  0-C ,  4-C ) :   1.2784 B(  0-C , 54-H ) :   1.0055
B(  1-C ,  2-S ) :   1.1540 B(  1-C , 55-H ) :   0.9699 B(  2-S ,  3-C ) :   1.1576
B(  3-C ,  4-C ) :   1.4881 B(  3-C ,  8-C ) :   1.0599 B(  4-C ,  5-C ) :   0.9275
B(  5-C ,  6-O ) :   2.3143 B(  5-C ,  7-C ) :   0.9057 B(  7-C ,  8-C ) :   1.4545
B(  7-C , 14-C ) :   1.2231 B(  8-C ,  9-C ) :   1.3010 B(  9-C , 10-C ) :   1.1106
B(  9-C , 12-C ) :   1.4759 B( 10-C , 11-N ) :   3.0465 B( 12-C , 13-N ) :   1.0815
B( 12-C , 15-C ) :   1.2365 B( 12-C , 16-C ) :   0.1031 B( 13-N , 16-C ) :   1.7516
B( 14-C , 15-C ) :   1.4417 B( 14-C , 56-H ) :   1.0251 B( 15-C , 16-C ) :   0.8807
B( 16-C , 17-C ) :   0.7933 B( 17-C , 18-C ) :   2.0930 B( 18-C , 19-C ) :   0.8796
B( 19-C , 20-N ) :   1.1905 B( 19-C , 26-C ) :   1.4027 B( 20-N , 21-C ) :   0.9383
B( 20-N , 23-C ) :   1.0730 B( 21-C , 22-C ) :   1.1225 B( 21-C , 57-H ) :   0.9470
B( 21-C , 58-H ) :   0.9329 B( 22-C , 59-H ) :   0.9691 B( 22-C , 60-H ) :   0.9672
B( 22-C , 61-H ) :   0.9657 B( 23-C , 24-O ) :   2.0148 B( 23-C , 25-C ) :   0.9925
B( 24-O , 68-H ) :   0.1213 B( 25-C , 26-C ) :   1.2567 B( 25-C , 32-C ) :   1.3165
B( 26-C , 27-C ) :   0.9249 B( 27-C , 28-O ) :   2.1977 B( 27-C , 29-N ) :   1.0221
B( 29-N , 30-C ) :   0.9405 B( 29-N , 32-C ) :   1.1789 B( 30-C , 31-C ) :   1.1199
B( 30-C , 62-H ) :   0.9509 B( 30-C , 63-H ) :   0.9279 B( 31-C , 64-H ) :   0.9687
B( 31-C , 65-H ) :   0.9682 B( 31-C , 66-H ) :   0.9635 B( 32-C , 33-C ) :   1.1650
B( 33-C , 34-C ) :   1.6313 B( 33-C , 67-H ) :   0.9698 B( 34-C , 35-C ) :   1.0006
B( 34-C , 68-H ) :   0.9100 B( 35-C , 36-C ) :   2.1249 B( 35-C , 38-C ) :   0.1745
B( 36-C , 37-C ) :   0.9040 B( 37-C , 38-C ) :   2.1054 B( 38-C , 39-C ) :   1.0083
B( 39-C , 40-C ) :   1.7000 B( 39-C , 69-H ) :   0.9354 B( 40-C , 41-C ) :   1.0362
B( 40-C , 52-C ) :   0.9095 B( 41-C , 42-C ) :   1.6601 B( 41-C , 47-C ) :   1.1053
B( 42-C , 43-C ) :   1.1362 B( 42-C , 45-C ) :   1.1498 B( 43-C , 44-N ) :   3.0069
B( 45-C , 46-N ) :   2.9767 B( 47-C , 48-C ) :   1.4314 B( 47-C , 51-S ) :   1.1459
B( 48-C , 49-C ) :   1.2757 B( 48-C , 52-C ) :   0.9548 B( 49-C , 50-C ) :   1.5412
B( 49-C , 70-H ) :   1.0091 B( 50-C , 51-S ) :   1.1699 B( 50-C , 71-H ) :   0.9677
B( 52-C , 53-O ) :   2.2709

-----------------------------------------------------------------------------
         ABSORPTION SPECTRUM VIA TRANSITION ELECTRIC DIPOLE MOMENTS
-----------------------------------------------------------------------------
State   Energy  Wavelength   fosc         T2         TX        TY        TZ
        (cm-1)    (nm)                  (au**2)     (au)      (au)      (au)
-----------------------------------------------------------------------------
   0   14304.5    699.1   0.863987575  19.88433   3.69786  -2.45195  -0.44510
   1   17251.2    579.7   0.165612049   3.16045   1.54650  -0.85447  -0.19661
   2   20601.2    485.4   0.009833146   0.15714   0.12325   0.34708   0.14656
   3   22954.3    435.6   0.046673198   0.66939  -0.76676   0.27745   0.06694
   4   24577.0    406.9   0.039203806   0.52514   0.35865  -0.55858  -0.29069
   5   24824.6    402.8   0.265105152   3.51569  -0.89057   1.64101   0.17224
   6   25732.2    388.6   0.231742637   2.96486  -0.81752   1.50567   0.17169
   7   25927.2    385.7   0.011950474   0.15174   0.07888  -0.38036   0.02911
   8   26817.9    372.9   0.142444959   1.74863   0.75989  -1.02641  -0.34306
   9   27148.0    368.4   0.021032048   0.25505   0.32914  -0.36118  -0.12752
  10   27271.1    366.7   0.007833240   0.09456  -0.28765   0.09532   0.05230
  11   27851.4    359.0   0.359218762   4.24607  -1.01895   1.73538   0.44303
  12   28162.0    355.1   0.122949077   1.43727   0.45002  -1.11102  -0.01991
  13   28815.3    347.0   0.135475558   1.54779  -0.67171   1.04691  -0.02406
  14   29217.7    342.3   0.200954063   2.26426  -1.10829   0.54771  -0.85788
  15   29733.4    336.3   0.027867152   0.30855   0.07497  -0.43559  -0.33644
  16   29757.6    336.0   0.018729777   0.20721  -0.06061   0.41735   0.17133
  17   30390.0    329.1   0.070780247   0.76675   0.09059   0.51246   0.70423
  18   30546.0    327.4   0.029883755   0.32207  -0.34674   0.43683   0.10501
  19   31594.3    316.5   0.023622237   0.24614  -0.41364   0.02243   0.27303
  20   32287.7    309.7   0.217630199   2.21900  -0.35843   1.44038  -0.12580
  21   32584.2    306.9   0.298240506   3.01325  -0.88730   1.36781   0.59586
  22   32630.6    306.5   0.047682642   0.48107  -0.23716   0.64099   0.11813
  23   33066.9    302.4   0.133937351   1.33347  -0.25276   1.00993   0.49963
  24   33337.4    300.0   0.387531542   3.82693   0.94685   0.29443   1.68633
  25   33603.3    297.6   0.064388842   0.63082   0.70205  -0.36412   0.07325
  26   34839.3    287.0   0.003014450   0.02848   0.02387  -0.10148  -0.13273
  27   35123.0    284.7   0.043377813   0.40658  -0.36069   0.05730  -0.52269
  28   35902.5    278.5   0.144545586   1.32543   0.87342  -0.64437   0.38386
  29   36462.5    274.3   0.357818935   3.23067   0.92568  -1.51582  -0.27583
  30   36523.7    273.8   0.001472995   0.01328  -0.05594   0.09016   0.04494
  31   36688.1    272.6   0.043059261   0.38638  -0.52537   0.33018  -0.03665
  32   37266.9    268.3   0.031274582   0.27628   0.00166  -0.46110  -0.25231
  33   37954.1    263.5   0.000921269   0.00799   0.06557   0.04648   0.03912
  34   38117.2    262.3   0.461863423   3.98903   0.32796  -1.95074  -0.27582
  35   38320.2    261.0   0.005882756   0.05054   0.02316   0.21690  -0.05438
  36   38733.7    258.2   0.033638581   0.28591   0.02859   0.07826   0.52817
  37   39116.8    255.6   0.152308373   1.28185   0.24038  -1.09951  -0.12303
  38   39287.7    254.5   0.060618540   0.50795   0.49427  -0.50196  -0.10810
  39   39889.2    250.7   0.032427475   0.26763   0.07045   0.51188   0.02545
  40   39977.8    250.1   0.024129071   0.19870  -0.38608   0.18222   0.12822
  41   40109.8    249.3   0.045473881   0.37324   0.29439  -0.51111  -0.15920
  42   40266.9    248.3   0.002161183   0.01767   0.05324  -0.08958  -0.08253

FINAL SINGLE POINT ENERGY     -3033.707813912929

DIPOLE MOMENT
-------------
                                X             Y             Z
Electronic contribution:      2.15553     -13.30876       4.26347
Nuclear contribution   :     -0.87824      12.93379      -6.05617
                        -----------------------------------------
Total Dipole Moment    :      1.27729      -0.37498      -1.79269
                        -----------------------------------------
Magnitude (a.u.)       :      2.23290
Magnitude (Debye)      :      5.67558

Rotational constants in cm-1:     0.005234     0.000285     0.000277
Rotational constants in MHz :   156.899687     8.532309     8.315529

                             ****ORCA TERMINATED NORMALLY****
TOTAL RUN TIME: 0 days 0 hours 5 minutes 24 seconds 514 msec
