                         Program Version 4.2.0 -  RELEASE  -
|  1> # ORCA input file
|  2> # SCF done       -203.323090203389          0.000950164997
|  3> ! CAM-B3LYP def2-SVP def2/J RIJCOSX Grid4 TightSCF
|  4> %maxcore 5000
|  5> %tddft
|  6>     Mode sTDDFT
|  7>     Ethresh 5.0
|  8>     maxcore 5000
|  9> end
| 10>
| 11> %pal
| 12>   nprocs 6
| 13>   end
| 14> * xyz 0 1
| 15>    C        4.54430         1.10874        11.73976
| 16>    C        5.29276         0.39722        12.63024
| 17>    S        6.39484        -0.70965        11.89249
| 18>    C        5.84841        -0.22817        10.34941
| 19>    C        4.86011         0.75230        10.41743
| 20>    C        4.44002         1.12395         9.06173
| 21>    O        3.66140         1.97082         8.69991
| 22>    C        5.15908         0.13350         8.18904
| 23>    C        6.18948        -0.52274         8.99106
| 24>    C        7.33461        -1.09190         8.50673
| 25>    C        8.24967        -1.78207         9.32353
| 26>    N        8.98279        -2.37924         9.97351
| 27>    C        7.68691        -0.94879         7.15272
| 28>    N        8.00424        -0.71453         6.07390
| 29>    C        4.67964        -0.23059         6.98490
| 30>    C        4.92179        -1.45911         6.27352
| 31>    C        4.87837        -2.75962         6.76180
| 32>    N        4.71855        -3.22539         8.07570
| 33>    O        4.78822        -4.43023         8.25038
| 34>    O        4.52619        -2.42556         8.98160
| 35>    C        4.99003        -3.69609         5.66850
| 36>    C        5.22040        -2.99986         4.53834
| 37>    C        5.24173        -1.58327         4.85790
| 38>    C        5.68177        -0.59034         4.00384
| 39>    C        5.31024         0.78111         3.93728
| 40>    C        5.72671         1.28921         2.73797
| 41>    C        6.47336         0.29273         2.03519
| 42>    N        7.10995         0.52073         0.80637
| 43>    O        6.97094         1.61650         0.29234
| 44>    O        7.75507        -0.39248         0.30937
| 45>    C        6.53402        -0.86008         2.81953
| 46>    C        7.38893        -1.96492         2.67601
| 47>    C        7.78745        -2.69563         3.77055
| 48>    C        8.49039        -3.90377         3.89526
| 49>    N        9.03922        -4.74170         2.95465
| 50>    C        9.17362        -4.50087         1.53652
| 51>    C       10.27572        -3.49071         1.23232
| 52>    C        9.59217        -5.89326         3.54097
| 53>    O       10.14746        -6.76873         2.90747
| 54>    C        9.32293        -5.75218         4.96003
| 55>    C        8.65836        -4.52839         5.14161
| 56>    C        8.32979        -4.39671         6.54727
| 57>    O        7.71789        -3.55180         7.16643
| 58>    N        8.87585        -5.54834         7.14003
| 59>    C        8.72418        -5.78643         8.55868
| 60>    C        7.46329        -6.59163         8.86016
| 61>    C        9.44454        -6.37886         6.21270
| 62>    C       10.03692        -7.62967         6.52118
| 63>    C       10.61499        -8.39575         5.56367
| 64>    C       11.26427        -9.66348         5.75804
| 65>    C       11.29733       -10.34135         6.97837
| 66>    C       11.95807       -11.55094         7.10018
| 67>    N       11.98738       -12.14996         8.41210
| 68>    O       11.14210       -11.79135         9.20372
| 69>    O       12.85800       -12.95921         8.65277
| 70>    C       12.61589       -12.15153         6.01075
| 71>    C       12.57094       -11.46212         4.79078
| 72>    C       11.91682       -10.26037         4.66477
| 73>    C       13.25194       -13.44780         6.08848
| 74>    C       14.38252       -13.75330         5.42524
| 75>    C       15.05724       -15.01591         5.46017
| 76>    C       14.51836       -16.25572         5.55984
| 77>    C       15.29538       -17.49671         5.61838
| 78>    C       16.64465       -17.65900         5.78809
| 79>    C       17.21130       -18.95206         5.82969
| 80>    N       17.67536       -20.00054         5.85901
| 81>    C       17.59424       -16.62940         5.93837
| 82>    N       18.42120       -15.84393         6.06804
| 83>    C       14.34920       -18.56687         5.49346
| 84>    C       13.05082       -18.08607         5.38097
| 85>    C       12.09723       -19.10940         5.25056
| 86>    C       12.69318       -20.33596         5.27200
| 87>    S       14.40990       -20.27884         5.44809
| 88>    C       13.06663       -16.62052         5.43685
| 89>    O       12.11805       -15.87369         5.35397
| 90>    H        3.81238         1.84555        12.01409
| 91>    H        5.26901         0.46169        13.70066
| 92>    H        3.93507         0.42641         6.54668
| 93>    H        4.88905        -4.75673         5.79066
| 94>    H        5.29448        -3.39256         3.54379
| 95>    H        4.70476         1.29656         4.65572
| 96>    H        5.55008         2.27698         2.35446
| 97>    H        7.77830        -2.14613         1.68375
| 98>    H        7.56085        -2.27297         4.74173
| 99>    H        8.21370        -4.16951         1.13334
|100>    H        9.42686        -5.46710         1.09070
|101>    H       10.09037        -2.54330         1.73206
|102>    H       10.32202        -3.31230         0.16214
|103>    H       11.23664        -3.87624         1.56465
|104>    H        8.65559        -4.80425         9.03486
|105>    H        9.61634        -6.29167         8.93487
|106>    H        6.57823        -6.03330         8.56317
|107>    H        7.40246        -6.78372         9.92726
|108>    H        7.47334        -7.54306         8.33170
|109>    H       10.01751        -7.94682         7.55302
|110>    H       10.61349        -8.03213         4.54400
|111>    H       10.81530        -9.94083         7.85702
|112>    H       13.03825       -11.91207         3.92883
|113>    H       11.89658        -9.75526         3.71064
|114>    H       12.79943       -14.18139         6.73802
|115>    H       14.91196       -12.97071         4.89476
|116>    H       16.13410       -14.94844         5.35525
|117>    H       11.03993       -18.94857         5.15067
|118>    H       12.21777       -21.29454         5.19668
|119> *
|120>
|121>                          ****END OF INPUT****

CARTESIAN COORDINATES (ANGSTROEM)
---------------------------------
  C      4.544300    1.108740   11.739760
  C      5.292760    0.397220   12.630240
  S      6.394840   -0.709650   11.892490
  C      5.848410   -0.228170   10.349410
  C      4.860110    0.752300   10.417430
  C      4.440020    1.123950    9.061730
  O      3.661400    1.970820    8.699910
  C      5.159080    0.133500    8.189040
  C      6.189480   -0.522740    8.991060
  C      7.334610   -1.091900    8.506730
  C      8.249670   -1.782070    9.323530
  N      8.982790   -2.379240    9.973510
  C      7.686910   -0.948790    7.152720
  N      8.004240   -0.714530    6.073900
  C      4.679640   -0.230590    6.984900
  C      4.921790   -1.459110    6.273520
  C      4.878370   -2.759620    6.761800
  N      4.718550   -3.225390    8.075700
  O      4.788220   -4.430230    8.250380
  O      4.526190   -2.425560    8.981600
  C      4.990030   -3.696090    5.668500
  C      5.220400   -2.999860    4.538340
  C      5.241730   -1.583270    4.857900
  C      5.681770   -0.590340    4.003840
  C      5.310240    0.781110    3.937280
  C      5.726710    1.289210    2.737970
  C      6.473360    0.292730    2.035190
  N      7.109950    0.520730    0.806370
  O      6.970940    1.616500    0.292340
  O      7.755070   -0.392480    0.309370
  C      6.534020   -0.860080    2.819530
  C      7.388930   -1.964920    2.676010
  C      7.787450   -2.695630    3.770550
  C      8.490390   -3.903770    3.895260
  N      9.039220   -4.741700    2.954650
  C      9.173620   -4.500870    1.536520
  C     10.275720   -3.490710    1.232320
  C      9.592170   -5.893260    3.540970
  O     10.147460   -6.768730    2.907470
  C      9.322930   -5.752180    4.960030
  C      8.658360   -4.528390    5.141610
  C      8.329790   -4.396710    6.547270
  O      7.717890   -3.551800    7.166430
  N      8.875850   -5.548340    7.140030
  C      8.724180   -5.786430    8.558680
  C      7.463290   -6.591630    8.860160
  C      9.444540   -6.378860    6.212700
  C     10.036920   -7.629670    6.521180
  C     10.614990   -8.395750    5.563670
  C     11.264270   -9.663480    5.758040
  C     11.297330  -10.341350    6.978370
  C     11.958070  -11.550940    7.100180
  N     11.987380  -12.149960    8.412100
  O     11.142100  -11.791350    9.203720
  O     12.858000  -12.959210    8.652770
  C     12.615890  -12.151530    6.010750
  C     12.570940  -11.462120    4.790780
  C     11.916820  -10.260370    4.664770
  C     13.251940  -13.447800    6.088480
  C     14.382520  -13.753300    5.425240
  C     15.057240  -15.015910    5.460170
  C     14.518360  -16.255720    5.559840
  C     15.295380  -17.496710    5.618380
  C     16.644650  -17.659000    5.788090
  C     17.211300  -18.952060    5.829690
  N     17.675360  -20.000540    5.859010
  C     17.594240  -16.629400    5.938370
  N     18.421200  -15.843930    6.068040
  C     14.349200  -18.566870    5.493460
  C     13.050820  -18.086070    5.380970
  C     12.097230  -19.109400    5.250560
  C     12.693180  -20.335960    5.272000
  S     14.409900  -20.278840    5.448090
  C     13.066630  -16.620520    5.436850
  O     12.118050  -15.873690    5.353970
  H      3.812380    1.845550   12.014090
  H      5.269010    0.461690   13.700660
  H      3.935070    0.426410    6.546680
  H      4.889050   -4.756730    5.790660
  H      5.294480   -3.392560    3.543790
  H      4.704760    1.296560    4.655720
  H      5.550080    2.276980    2.354460
  H      7.778300   -2.146130    1.683750
  H      7.560850   -2.272970    4.741730
  H      8.213700   -4.169510    1.133340
  H      9.426860   -5.467100    1.090700
  H     10.090370   -2.543300    1.732060
  H     10.322020   -3.312300    0.162140
  H     11.236640   -3.876240    1.564650
  H      8.655590   -4.804250    9.034860
  H      9.616340   -6.291670    8.934870
  H      6.578230   -6.033300    8.563170
  H      7.402460   -6.783720    9.927260
  H      7.473340   -7.543060    8.331700
  H     10.017510   -7.946820    7.553020
  H     10.613490   -8.032130    4.544000
  H     10.815300   -9.940830    7.857020
  H     13.038250  -11.912070    3.928830
  H     11.896580   -9.755260    3.710640
  H     12.799430  -14.181390    6.738020
  H     14.911960  -12.970710    4.894760
  H     16.134100  -14.948440    5.355250
  H     11.039930  -18.948570    5.150670
  H     12.217770  -21.294540    5.196680

 Total Charge           Charge          ....    0
 Multiplicity           Mult            ....    1
 Number of Electrons    NEL             ....  528
 Basis Dimension        Dim             .... 1203

ORBITAL ENERGIES
----------------

  NO   OCC          E(Eh)            E(eV)
   0   2.0000     -88.993984     -2421.6494
   1   2.0000     -88.990482     -2421.5541
   2   2.0000     -19.257659      -524.0275
   3   2.0000     -19.255410      -523.9664
   4   2.0000     -19.249445      -523.8040
   5   2.0000     -19.248118      -523.7679
   6   2.0000     -19.229869      -523.2713
   7   2.0000     -19.228980      -523.2472
   8   2.0000     -19.226962      -523.1922
   9   2.0000     -19.222253      -523.0641
  10   2.0000     -19.216744      -522.9142
  11   2.0000     -19.202381      -522.5233
  12   2.0000     -14.662142      -398.9772
  13   2.0000     -14.655115      -398.7860
  14   2.0000     -14.639260      -398.3545
  15   2.0000     -14.472593      -393.8193
  16   2.0000     -14.465159      -393.6170
  17   2.0000     -14.422941      -392.4682
  18   2.0000     -14.421853      -392.4386
  19   2.0000     -14.418123      -392.3371
  20   2.0000     -14.413712      -392.2170
  21   2.0000     -10.398359      -282.9537
  22   2.0000     -10.387028      -282.6454
  23   2.0000     -10.382593      -282.5247
  24   2.0000     -10.377587      -282.3885
  25   2.0000     -10.364793      -282.0403
  26   2.0000     -10.354627      -281.7637
  27   2.0000     -10.351983      -281.6918
  28   2.0000     -10.351422      -281.6765
  29   2.0000     -10.348517      -281.5975
  30   2.0000     -10.347498      -281.5697
  31   2.0000     -10.345227      -281.5079
  32   2.0000     -10.339041      -281.3396
  33   2.0000     -10.333681      -281.1937
  34   2.0000     -10.331552      -281.1358
  35   2.0000     -10.329163      -281.0708
  36   2.0000     -10.327643      -281.0294
  37   2.0000     -10.326971      -281.0112
  38   2.0000     -10.325222      -280.9636
  39   2.0000     -10.324001      -280.9304
  40   2.0000     -10.323244      -280.9098
  41   2.0000     -10.323239      -280.9096
  42   2.0000     -10.322807      -280.8978
  43   2.0000     -10.322381      -280.8863
  44   2.0000     -10.321735      -280.8687
  45   2.0000     -10.321293      -280.8567
  46   2.0000     -10.320848      -280.8445
  47   2.0000     -10.319459      -280.8068
  48   2.0000     -10.318977      -280.7936
  49   2.0000     -10.316768      -280.7335
  50   2.0000     -10.316275      -280.7201
  51   2.0000     -10.313302      -280.6392
  52   2.0000     -10.313186      -280.6361
  53   2.0000     -10.313022      -280.6316
  54   2.0000     -10.310453      -280.5617
  55   2.0000     -10.310384      -280.5598
  56   2.0000     -10.309437      -280.5341
  57   2.0000     -10.309022      -280.5228
  58   2.0000     -10.307720      -280.4873
  59   2.0000     -10.307440      -280.4797
  60   2.0000     -10.307276      -280.4752
  61   2.0000     -10.305331      -280.4223
  62   2.0000     -10.304735      -280.4061
  63   2.0000     -10.303762      -280.3796
  64   2.0000     -10.303684      -280.3775
  65   2.0000     -10.301998      -280.3316
  66   2.0000     -10.301174      -280.3092
  67   2.0000     -10.297141      -280.1994
  68   2.0000     -10.287810      -279.9456
  69   2.0000     -10.285997      -279.8962
  70   2.0000     -10.285747      -279.8894
  71   2.0000     -10.284597      -279.8581
  72   2.0000     -10.277559      -279.6666
  73   2.0000     -10.263981      -279.2971
  74   2.0000     -10.261655      -279.2338
  75   2.0000      -8.088516      -220.0997
  76   2.0000      -8.085259      -220.0111
  77   2.0000      -6.057837      -164.8421
  78   2.0000      -6.054584      -164.7536
  79   2.0000      -6.053204      -164.7160
  80   2.0000      -6.051118      -164.6593
  81   2.0000      -6.049941      -164.6273
  82   2.0000      -6.047881      -164.5712
  83   2.0000      -1.338036       -36.4098
  84   2.0000      -1.325714       -36.0745
  85   2.0000      -1.308255       -35.5994
  86   2.0000      -1.156846       -31.4794
  87   2.0000      -1.155500       -31.4427
  88   2.0000      -1.143037       -31.1036
  89   2.0000      -1.142559       -31.0906
  90   2.0000      -1.141679       -31.0667
  91   2.0000      -1.138213       -30.9724
  92   2.0000      -1.125655       -30.6306
  93   2.0000      -1.083427       -29.4816
  94   2.0000      -1.068812       -29.0839
  95   2.0000      -1.035488       -28.1771
  96   2.0000      -1.032562       -28.0974
  97   2.0000      -1.018429       -27.7129
  98   2.0000      -1.014081       -27.5945
  99   2.0000      -1.008955       -27.4551
 100   2.0000      -1.007313       -27.4104
 101   2.0000      -1.000629       -27.2285
 102   2.0000      -0.997873       -27.1535
 103   2.0000      -0.995169       -27.0799
 104   2.0000      -0.969927       -26.3931
 105   2.0000      -0.965675       -26.2773
 106   2.0000      -0.947423       -25.7807
 107   2.0000      -0.940520       -25.5929
 108   2.0000      -0.926230       -25.2040
 109   2.0000      -0.921554       -25.0767
 110   2.0000      -0.911017       -24.7900
 111   2.0000      -0.910292       -24.7703
 112   2.0000      -0.908347       -24.7174
 113   2.0000      -0.906564       -24.6689
 114   2.0000      -0.889225       -24.1970
 115   2.0000      -0.887128       -24.1400
 116   2.0000      -0.880314       -23.9546
 117   2.0000      -0.877794       -23.8860
 118   2.0000      -0.860484       -23.4149
 119   2.0000      -0.857384       -23.3306
 120   2.0000      -0.850203       -23.1352
 121   2.0000      -0.842582       -22.9278
 122   2.0000      -0.827542       -22.5186
 123   2.0000      -0.825975       -22.4759
 124   2.0000      -0.809401       -22.0249
 125   2.0000      -0.804275       -21.8854
 126   2.0000      -0.800188       -21.7742
 127   2.0000      -0.776777       -21.1372
 128   2.0000      -0.772289       -21.0150
 129   2.0000      -0.769938       -20.9511
 130   2.0000      -0.766850       -20.8671
 131   2.0000      -0.760892       -20.7049
 132   2.0000      -0.747269       -20.3342
 133   2.0000      -0.742497       -20.2044
 134   2.0000      -0.728489       -19.8232
 135   2.0000      -0.718096       -19.5404
 136   2.0000      -0.712386       -19.3850
 137   2.0000      -0.706383       -19.2217
 138   2.0000      -0.703763       -19.1504
 139   2.0000      -0.698874       -19.0173
 140   2.0000      -0.695071       -18.9138
 141   2.0000      -0.688454       -18.7338
 142   2.0000      -0.678410       -18.4605
 143   2.0000      -0.675397       -18.3785
 144   2.0000      -0.670678       -18.2501
 145   2.0000      -0.668777       -18.1983
 146   2.0000      -0.666949       -18.1486
 147   2.0000      -0.660653       -17.9773
 148   2.0000      -0.656072       -17.8526
 149   2.0000      -0.655122       -17.8268
 150   2.0000      -0.643699       -17.5159
 151   2.0000      -0.640131       -17.4188
 152   2.0000      -0.637527       -17.3480
 153   2.0000      -0.636465       -17.3191
 154   2.0000      -0.628916       -17.1137
 155   2.0000      -0.627318       -17.0702
 156   2.0000      -0.621987       -16.9251
 157   2.0000      -0.620673       -16.8894
 158   2.0000      -0.619755       -16.8644
 159   2.0000      -0.618434       -16.8285
 160   2.0000      -0.610413       -16.6102
 161   2.0000      -0.607897       -16.5417
 162   2.0000      -0.603295       -16.4165
 163   2.0000      -0.601922       -16.3791
 164   2.0000      -0.599595       -16.3158
 165   2.0000      -0.597410       -16.2563
 166   2.0000      -0.590175       -16.0595
 167   2.0000      -0.585123       -15.9220
 168   2.0000      -0.583801       -15.8860
 169   2.0000      -0.579898       -15.7798
 170   2.0000      -0.576991       -15.7007
 171   2.0000      -0.573949       -15.6180
 172   2.0000      -0.568354       -15.4657
 173   2.0000      -0.562776       -15.3139
 174   2.0000      -0.559560       -15.2264
 175   2.0000      -0.550729       -14.9861
 176   2.0000      -0.549828       -14.9616
 177   2.0000      -0.548197       -14.9172
 178   2.0000      -0.546474       -14.8703
 179   2.0000      -0.541355       -14.7310
 180   2.0000      -0.539960       -14.6931
 181   2.0000      -0.539198       -14.6723
 182   2.0000      -0.538328       -14.6486
 183   2.0000      -0.532996       -14.5036
 184   2.0000      -0.532426       -14.4880
 185   2.0000      -0.531764       -14.4700
 186   2.0000      -0.529657       -14.4127
 187   2.0000      -0.527656       -14.3583
 188   2.0000      -0.524153       -14.2629
 189   2.0000      -0.520702       -14.1690
 190   2.0000      -0.517573       -14.0839
 191   2.0000      -0.514963       -14.0128
 192   2.0000      -0.506756       -13.7895
 193   2.0000      -0.505929       -13.7670
 194   2.0000      -0.504400       -13.7254
 195   2.0000      -0.503199       -13.6928
 196   2.0000      -0.499003       -13.5786
 197   2.0000      -0.497103       -13.5269
 198   2.0000      -0.494189       -13.4476
 199   2.0000      -0.490765       -13.3544
 200   2.0000      -0.487143       -13.2558
 201   2.0000      -0.486001       -13.2247
 202   2.0000      -0.482037       -13.1169
 203   2.0000      -0.481621       -13.1056
 204   2.0000      -0.479086       -13.0366
 205   2.0000      -0.478624       -13.0240
 206   2.0000      -0.477841       -13.0027
 207   2.0000      -0.477220       -12.9858
 208   2.0000      -0.473581       -12.8868
 209   2.0000      -0.471614       -12.8333
 210   2.0000      -0.470188       -12.7945
 211   2.0000      -0.466533       -12.6950
 212   2.0000      -0.463328       -12.6078
 213   2.0000      -0.462764       -12.5925
 214   2.0000      -0.461354       -12.5541
 215   2.0000      -0.458690       -12.4816
 216   2.0000      -0.457256       -12.4426
 217   2.0000      -0.454780       -12.3752
 218   2.0000      -0.454038       -12.3550
 219   2.0000      -0.452780       -12.3208
 220   2.0000      -0.449222       -12.2240
 221   2.0000      -0.448590       -12.2068
 222   2.0000      -0.447307       -12.1718
 223   2.0000      -0.442697       -12.0464
 224   2.0000      -0.436760       -11.8848
 225   2.0000      -0.434334       -11.8188
 226   2.0000      -0.432581       -11.7711
 227   2.0000      -0.431510       -11.7420
 228   2.0000      -0.430748       -11.7212
 229   2.0000      -0.427399       -11.6301
 230   2.0000      -0.425837       -11.5876
 231   2.0000      -0.423294       -11.5184
 232   2.0000      -0.421297       -11.4641
 233   2.0000      -0.417731       -11.3670
 234   2.0000      -0.415264       -11.2999
 235   2.0000      -0.412883       -11.2351
 236   2.0000      -0.398906       -10.8548
 237   2.0000      -0.397424       -10.8145
 238   2.0000      -0.394045       -10.7225
 239   2.0000      -0.388142       -10.5619
 240   2.0000      -0.385728       -10.4962
 241   2.0000      -0.383171       -10.4266
 242   2.0000      -0.381465       -10.3802
 243   2.0000      -0.374984       -10.2038
 244   2.0000      -0.368882       -10.0378
 245   2.0000      -0.367840       -10.0094
 246   2.0000      -0.365868        -9.9558
 247   2.0000      -0.362333        -9.8596
 248   2.0000      -0.358033        -9.7426
 249   2.0000      -0.356630        -9.7044
 250   2.0000      -0.353230        -9.6119
 251   2.0000      -0.349582        -9.5126
 252   2.0000      -0.348642        -9.4870
 253   2.0000      -0.348388        -9.4801
 254   2.0000      -0.339794        -9.2463
 255   2.0000      -0.339745        -9.2449
 256   2.0000      -0.333559        -9.0766
 257   2.0000      -0.330849        -9.0029
 258   2.0000      -0.315479        -8.5846
 259   2.0000      -0.312602        -8.5063
 260   2.0000      -0.305882        -8.3235
 261   2.0000      -0.300987        -8.1903
 262   2.0000      -0.292370        -7.9558
 263   2.0000      -0.247777        -6.7424
 264   0.0000      -0.138098        -3.7578
 265   0.0000      -0.102910        -2.8003
 266   0.0000      -0.090748        -2.4694
 267   0.0000      -0.080202        -2.1824
 268   0.0000      -0.071774        -1.9531

MULLIKEN ATOMIC CHARGES
-----------------------
   0 C :    0.016355
   1 C :   -0.053461
   2 S :    0.220153
   3 C :   -0.131551
   4 C :    0.013987
   5 C :    0.153660
   6 O :   -0.130112
   7 C :   -0.077151
   8 C :    0.199253
   9 C :   -0.320154
  10 C :   -0.141572
  11 N :    0.140402
  12 C :   -0.091501
  13 N :    0.090432
  14 C :   -0.025460
  15 C :    0.008504
  16 C :    0.106382
  17 N :    0.292819
  18 O :   -0.234309
  19 O :   -0.257102
  20 C :    0.002571
  21 C :    0.030670
  22 C :   -0.023457
  23 C :    0.087341
  24 C :   -0.010439
  25 C :    0.032273
  26 C :    0.078612
  27 N :    0.274234
  28 O :   -0.254550
  29 O :   -0.268353
  30 C :    0.028877
  31 C :   -0.047607
  32 C :    0.024255
  33 C :    0.084672
  34 N :   -0.253780
  35 C :    0.102521
  36 C :    0.000905
  37 C :    0.170350
  38 O :   -0.216590
  39 C :   -0.087746
  40 C :   -0.014578
  41 C :    0.192138
  42 O :   -0.209486
  43 N :   -0.247500
  44 C :    0.093459
  45 C :   -0.001879
  46 C :    0.154638
  47 C :   -0.000278
  48 C :    0.015138
  49 C :    0.107229
  50 C :   -0.062500
  51 C :    0.160925
  52 N :    0.245020
  53 O :   -0.228110
  54 O :   -0.225300
  55 C :    0.015474
  56 C :   -0.015405
  57 C :    0.019416
  58 C :    0.100180
  59 C :   -0.029167
  60 C :   -0.018376
  61 C :   -0.075275
  62 C :    0.235954
  63 C :   -0.323715
  64 C :   -0.207612
  65 N :    0.162470
  66 C :   -0.188808
  67 N :    0.165157
  68 C :   -0.152062
  69 C :    0.018528
  70 C :    0.016474
  71 C :   -0.050040
  72 S :    0.225911
  73 C :    0.155511
  74 O :   -0.138125
  75 H :    0.009412
  76 H :    0.044986
  77 H :    0.040319
  78 H :   -0.007314
  79 H :   -0.002116
  80 H :   -0.015316
  81 H :    0.008210
  82 H :    0.019749
  83 H :    0.036893
  84 H :    0.026606
  85 H :    0.041155
  86 H :    0.030047
  87 H :    0.033016
  88 H :    0.023468
  89 H :    0.051167
  90 H :    0.025680
  91 H :    0.038417
  92 H :    0.028386
  93 H :    0.006467
  94 H :   -0.020723
  95 H :    0.012174
  96 H :    0.002937
  97 H :   -0.000369
  98 H :    0.013623
  99 H :    0.032385
 100 H :    0.008358
 101 H :    0.028933
 102 H :    0.008245
 103 H :    0.045464
Sum of atomic charges:   -0.0000000

LOEWDIN ATOMIC CHARGES
----------------------
   0 C :   -0.034428
   1 C :   -0.150558
   2 S :    0.509662
   3 C :   -0.161497
   4 C :   -0.066818
   5 C :    0.086120
   6 O :   -0.131363
   7 C :   -0.044429
   8 C :    0.057378
   9 C :   -0.131846
  10 C :   -0.019926
  11 N :   -0.055574
  12 C :    0.004388
  13 N :   -0.072611
  14 C :    0.038278
  15 C :   -0.011685
  16 C :   -0.014006
  17 N :    0.294351
  18 O :   -0.196654
  19 O :   -0.205462
  20 C :   -0.025094
  21 C :   -0.016138
  22 C :    0.023728
  23 C :    0.062776
  24 C :   -0.054206
  25 C :    0.044856
  26 C :   -0.070491
  27 N :    0.286453
  28 O :   -0.218415
  29 O :   -0.233829
  30 C :    0.029198
  31 C :   -0.010086
  32 C :    0.025229
  33 C :    0.052305
  34 N :    0.004045
  35 C :    0.037281
  36 C :   -0.059581
  37 C :    0.079953
  38 O :   -0.205545
  39 C :   -0.130931
  40 C :   -0.079193
  41 C :    0.102726
  42 O :   -0.171248
  43 N :    0.011233
  44 C :    0.038260
  45 C :   -0.063026
  46 C :    0.101506
  47 C :   -0.046420
  48 C :    0.053493
  49 C :   -0.030742
  50 C :    0.022164
  51 C :   -0.020927
  52 N :    0.285368
  53 O :   -0.197361
  54 O :   -0.184427
  55 C :    0.002767
  56 C :   -0.000076
  57 C :    0.025066
  58 C :    0.050235
  59 C :   -0.042385
  60 C :    0.063241
  61 C :   -0.079300
  62 C :    0.060718
  63 C :   -0.136816
  64 C :   -0.033877
  65 N :   -0.041725
  66 C :   -0.025052
  67 N :   -0.041958
  68 C :   -0.175438
  69 C :   -0.068339
  70 C :   -0.034997
  71 C :   -0.150091
  72 S :    0.513368
  73 C :    0.083143
  74 O :   -0.131089
  75 H :    0.043507
  76 H :    0.031112
  77 H :    0.047657
  78 H :    0.032754
  79 H :    0.031357
  80 H :    0.029246
  81 H :    0.040595
  82 H :    0.036725
  83 H :    0.044676
  84 H :    0.024193
  85 H :    0.036801
  86 H :    0.026330
  87 H :    0.036013
  88 H :    0.030495
  89 H :    0.041039
  90 H :    0.025174
  91 H :    0.030249
  92 H :    0.033887
  93 H :    0.018849
  94 H :    0.031165
  95 H :    0.040064
  96 H :    0.038818
  97 H :    0.038906
  98 H :    0.044278
  99 H :    0.035655
 100 H :    0.034454
 101 H :    0.047633
 102 H :    0.043155
 103 H :    0.031584

  Mayer bond orders larger than 0.100000
B(  0-C ,  1-C ) :   1.5553 B(  0-C ,  4-C ) :   1.2722 B(  0-C , 75-H ) :   1.0055
B(  1-C ,  2-S ) :   1.1642 B(  1-C , 76-H ) :   0.9685 B(  2-S ,  3-C ) :   1.1585
B(  3-C ,  4-C ) :   1.4336 B(  3-C ,  8-C ) :   1.1042 B(  4-C ,  5-C ) :   0.9412
B(  5-C ,  6-O ) :   2.2792 B(  5-C ,  7-C ) :   0.9141 B(  7-C ,  8-C ) :   0.9843
B(  7-C , 14-C ) :   1.8135 B(  8-C ,  9-C ) :   1.6946 B(  9-C , 10-C ) :   1.1335
B(  9-C , 12-C ) :   1.1651 B( 10-C , 11-N ) :   2.9356 B( 12-C , 13-N ) :   2.8752
B( 14-C , 15-C ) :   1.0107 B( 14-C , 77-H ) :   0.9387 B( 15-C , 16-C ) :   1.5613
B( 15-C , 22-C ) :   1.1003 B( 16-C , 17-N ) :   0.9446 B( 16-C , 20-C ) :   1.1287
B( 17-N , 18-O ) :   1.5153 B( 17-N , 19-O ) :   1.4768 B( 18-O , 19-O ) :   0.2519
B( 20-C , 21-C ) :   1.5980 B( 20-C , 78-H ) :   1.0153 B( 21-C , 22-C ) :   1.1077
B( 21-C , 79-H ) :   0.9820 B( 22-C , 23-C ) :   1.4577 B( 23-C , 24-C ) :   1.1687
B( 23-C , 30-C ) :   0.9999 B( 24-C , 25-C ) :   1.5055 B( 24-C , 80-H ) :   1.0137
B( 25-C , 26-C ) :   1.1686 B( 25-C , 81-H ) :   1.0089 B( 26-C , 27-N ) :   0.9654
B( 26-C , 30-C ) :   1.4377 B( 27-N , 28-O ) :   1.5296 B( 27-N , 29-O ) :   1.4847
B( 28-O , 29-O ) :   0.2499 B( 30-C , 31-C ) :   1.2629 B( 31-C , 32-C ) :   1.4205
B( 31-C , 82-H ) :   0.9578 B( 32-C , 33-C ) :   1.2846 B( 32-C , 83-H ) :   0.8745
B( 33-C , 34-N ) :   1.1633 B( 33-C , 40-C ) :   1.3124 B( 34-N , 35-C ) :   0.9354
B( 34-N , 37-C ) :   1.0747 B( 35-C , 36-C ) :   1.1197 B( 35-C , 84-H ) :   0.9500
B( 35-C , 85-H ) :   0.9267 B( 36-C , 86-H ) :   0.9675 B( 36-C , 87-H ) :   0.9679
B( 36-C , 88-H ) :   0.9624 B( 37-C , 38-O ) :   2.0085 B( 37-C , 39-C ) :   0.9870
B( 38-O , 95-H ) :   0.1233 B( 39-C , 40-C ) :   1.2836 B( 39-C , 46-C ) :   1.2820
B( 40-C , 41-C ) :   0.9721 B( 41-C , 42-O ) :   1.9895 B( 41-C , 43-N ) :   1.0615
B( 43-N , 44-C ) :   0.9252 B( 43-N , 46-C ) :   1.1903 B( 44-C , 45-C ) :   1.1206
B( 44-C , 89-H ) :   0.9250 B( 44-C , 90-H ) :   0.9481 B( 45-C , 91-H ) :   0.9560
B( 45-C , 92-H ) :   0.9657 B( 45-C , 93-H ) :   0.9644 B( 46-C , 47-C ) :   1.1637
B( 47-C , 48-C ) :   1.5889 B( 47-C , 94-H ) :   0.9614 B( 48-C , 49-C ) :   1.0825
B( 48-C , 95-H ) :   0.9621 B( 49-C , 50-C ) :   1.2813 B( 49-C , 57-C ) :   1.3095
B( 50-C , 51-C ) :   1.3944 B( 50-C , 96-H ) :   0.9870 B( 51-C , 52-N ) :   0.8780
B( 51-C , 55-C ) :   1.3300 B( 52-N , 53-O ) :   1.5527 B( 52-N , 54-O ) :   1.5280
B( 53-O , 54-O ) :   0.2668 B( 55-C , 56-C ) :   1.3526 B( 55-C , 58-C ) :   1.0785
B( 56-C , 57-C ) :   1.3838 B( 56-C , 97-H ) :   0.9892 B( 57-C , 98-H ) :   1.0021
B( 58-C , 59-C ) :   1.7428 B( 58-C , 99-H ) :   0.9268 B( 59-C , 60-C ) :   1.1270
B( 59-C ,100-H ) :   0.9562 B( 60-C , 61-C ) :   1.6993 B( 60-C ,101-H ) :   0.9388
B( 61-C , 62-C ) :   1.0517 B( 61-C , 73-C ) :   0.9132 B( 62-C , 63-C ) :   1.6517
B( 62-C , 68-C ) :   1.1056 B( 63-C , 64-C ) :   1.1399 B( 63-C , 66-C ) :   1.1387
B( 64-C , 65-N ) :   3.0055 B( 66-C , 67-N ) :   2.9846 B( 68-C , 69-C ) :   1.4300
B( 68-C , 72-S ) :   1.1453 B( 69-C , 70-C ) :   1.2669 B( 69-C , 73-C ) :   0.9715
B( 70-C , 71-C ) :   1.5445 B( 70-C ,102-H ) :   1.0083 B( 71-C , 72-S ) :   1.1678
B( 71-C ,103-H ) :   0.9683 B( 73-C , 74-O ) :   2.2209

-----------------------------------------------------------------------------
         ABSORPTION SPECTRUM VIA TRANSITION ELECTRIC DIPOLE MOMENTS
-----------------------------------------------------------------------------
State   Energy  Wavelength   fosc         T2         TX        TY        TZ
        (cm-1)    (nm)                  (au**2)     (au)      (au)      (au)
-----------------------------------------------------------------------------
   0    6758.2   1479.7   0.179503675   8.74415   1.79920  -2.32915   0.28646
   1   13902.4    719.3   0.036732143   0.86982  -0.39898   0.41424  -0.73420
   2   16546.3    604.4   0.539735053  10.73880   1.00050  -2.54790   1.80167
   3   18562.2    538.7   0.032855968   0.58272   0.22569   0.61739  -0.38809
   4   19338.7    517.1   0.015730861   0.26779  -0.23228   0.31122   0.34203
   5   20709.4    482.9   0.034883572   0.55454   0.28097  -0.62991  -0.28072
   6   22518.3    444.1   0.055784705   0.81556  -0.32896   0.82548   0.16102
   7   23165.2    431.7   0.151678979   2.15558   0.45576  -1.39556   0.01693
   8   23955.2    417.4   0.127992689   1.75898  -0.16303   1.30944  -0.13330
   9   24249.2    412.4   0.614834569   8.34713  -1.59535   2.40738  -0.08082
  10   24638.0    405.9   0.142734477   1.90721   0.28134   0.05272  -1.35103
  11   25353.3    394.4   0.002031525   0.02638   0.15256  -0.04151  -0.03718
  12   25844.3    386.9   0.102577667   1.30666   0.47747  -0.10205  -1.03357
  13   26298.3    380.3   0.050690758   0.63457   0.16741  -0.05890  -0.77658
  14   26785.0    373.3   0.007717676   0.09486   0.01104   0.01585  -0.30738
  15   27169.0    368.1   0.002949826   0.03574   0.06463  -0.07832  -0.15948
  16   27514.4    363.4   0.037553194   0.44933  -0.00371  -0.13513  -0.65655
  17   27642.6    361.8   0.044875925   0.53445   0.40531   0.46529  -0.39203
  18   27906.6    358.3   0.089415696   1.05483  -0.36279   0.93012  -0.24101
  19   28360.5    352.6   0.032598036   0.37840   0.34515  -0.00281  -0.50918
  20   28605.7    349.6   0.009099596   0.10472   0.15501  -0.23872  -0.15397
  21   28872.1    346.4   0.061349217   0.69953   0.13314   0.66439  -0.49029
  22   29165.0    342.9   0.067693153   0.76411   0.31834   0.63744  -0.50641
  23   29356.7    340.6   0.231891348   2.60048   0.48140   0.53013  -1.44489
  24   29982.7    333.5   0.151354083   1.66188  -0.24580  -1.20392  -0.38991
  25   30185.6    331.3   0.103566875   1.12953  -0.52496   0.84159  -0.38168
  26   30657.9    326.2   0.022264081   0.23908  -0.04116  -0.38344   0.30059
  27   30784.3    324.8   0.136396011   1.45864  -0.83833   0.86926   0.01480
  28   30963.6    323.0   0.108714955   1.15588   0.61125  -0.70445   0.53480
  29   31180.4    320.7   0.033472782   0.35342   0.45922  -0.10034  -0.36396
  30   31262.7    319.9   0.006084108   0.06407  -0.14170   0.17395   0.11719
  31   31427.4    318.2   0.417848157   4.37710  -1.64396   1.06952   0.72844
  32   31621.4    316.2   0.008067615   0.08399  -0.16296  -0.07260   0.22840
  33   31908.5    313.4   0.062323039   0.64301  -0.18059   0.77800   0.07153
  34   32257.3    310.0   0.152994909   1.56143   0.30840   1.20131  -0.15224
  35   32413.9    308.5   0.025462292   0.25861   0.01494   0.48381   0.15593
  36   32560.9    307.1   0.038935311   0.39366   0.24860   0.50484  -0.27748
  37   32766.5    305.2   0.041984290   0.42183   0.44143  -0.01358  -0.47622
  38   32866.7    304.3   0.034945563   0.35004   0.15731   0.56947   0.03155
  39   33009.4    302.9   0.033559893   0.33470   0.08237  -0.38408  -0.42474
  40   33149.0    301.7   0.194126999   1.92793  -1.22283  -0.43371  -0.49450
  41   33480.1    298.7   0.015144717   0.14892   0.02169  -0.22542   0.31246
  42   33838.0    295.5   0.191835679   1.86638   1.16341  -0.47312  -0.53760
  43   33941.6    294.6   0.196982154   1.91060   0.72551  -0.52406  -1.05337
  44   34053.3    293.7   0.207084889   2.00200  -1.13246  -0.76950  -0.35694
  45   34484.2    290.0   0.163959468   1.56528   0.69192  -1.04220   0.01866
  46   34619.6    288.9   0.009928949   0.09442  -0.24755   0.18131  -0.01632
  47   34808.6    287.3   0.065373547   0.61829  -0.08375   0.72989  -0.28024
  48   35165.8    284.4   0.044644074   0.41795  -0.03340   0.60944   0.21310
  49   35586.6    281.0   0.023458757   0.21702  -0.08645  -0.43975   0.12712
  50   36090.4    277.1   0.015825013   0.14435  -0.36651  -0.08744  -0.04876
  51   36140.9    276.7   0.093080593   0.84788  -0.41716   0.37087   0.73234
  52   36326.5    275.3   0.094882316   0.85988  -0.33298  -0.82977   0.24593
  53   36505.7    273.9   0.017465523   0.15751  -0.05470   0.35493  -0.16893
  54   36617.0    273.1   0.011411073   0.10259   0.06682  -0.25523  -0.18162
  55   36962.4    270.5   0.006080408   0.05416   0.16823  -0.12411  -0.10222
  56   37367.0    267.6   0.089296474   0.78672   0.18202  -0.01235  -0.86801
  57   37430.1    267.2   0.095230617   0.83759  -0.77074   0.46603  -0.16237
  58   37782.1    264.7   0.019809155   0.17261   0.38726   0.09756  -0.11453
  59   38091.8    262.5   0.019189889   0.16585   0.12645  -0.14362  -0.35949
  60   38121.8    262.3   0.003874132   0.03346   0.04381   0.13769  -0.11216
  61   38238.8    261.5   0.033146743   0.28537   0.11221  -0.35008   0.38759
  62   38667.6    258.6   0.019425888   0.16539  -0.19247   0.35808  -0.01124
  63   38763.5    258.0   0.094600745   0.80343   0.03024   0.12229   0.88745
  64   38959.8    256.7   0.077935851   0.65856   0.36769   0.72153   0.05250
  65   39110.5    255.7   0.027070088   0.22786   0.36775   0.15228  -0.26351
  66   39185.9    255.2   0.037560727   0.31556  -0.54112   0.13518  -0.06688
  67   39286.5    254.5   0.018553212   0.15547   0.16244  -0.31942  -0.16448
  68   39534.9    252.9   0.067021604   0.55810  -0.06768   0.24210  -0.70350
  69   39814.5    251.2   0.013195600   0.10911   0.18612   0.14262   0.23266
  70   39913.8    250.5   0.018425522   0.15198   0.27905  -0.22332  -0.15567
  71   40071.1    249.6   0.033482877   0.27509   0.33622   0.17806  -0.36102
  72   40227.4    248.6   0.005001686   0.04093   0.20228  -0.00284  -0.00267

FINAL SINGLE POINT ENERGY     -4111.743033243230

DIPOLE MOMENT
-------------
                                X             Y             Z
Electronic contribution:      7.83545     -13.91479      17.74149
Nuclear contribution   :    -10.06049      12.93069     -17.44712
                        -----------------------------------------
Total Dipole Moment    :     -2.22504      -0.98409       0.29436
                        -----------------------------------------
Magnitude (a.u.)       :      2.45069
Magnitude (Debye)      :      6.22915

Rotational constants in cm-1:     0.001750     0.000264     0.000241
Rotational constants in MHz :    52.453726     7.901532     7.219239

                             ****ORCA TERMINATED NORMALLY****
TOTAL RUN TIME: 0 days 0 hours 17 minutes 3 seconds 731 msec
