                         Program Version 4.2.0 -  RELEASE  -
|  1> # ORCA input file
|  2> # SCF done       -167.829748439916          0.000954210100
|  3> ! CAM-B3LYP def2-SVP def2/J RIJCOSX Grid4 TightSCF
|  4> %maxcore 5000
|  5> %tddft
|  6>     Mode sTDDFT
|  7>     Ethresh 5.0
|  8>     maxcore 5000
|  9> end
| 10>
| 11> %pal
| 12>   nprocs 6
| 13>   end
| 14> * xyz 0 1
| 15>    C        0.03864         2.23329        -3.59737
| 16>    C       -1.06978         1.45419        -3.75271
| 17>    S       -1.03383        -0.00699        -2.83332
| 18>    C        0.51325         0.40938        -2.22863
| 19>    C        0.95513         1.63370        -2.71752
| 20>    C        2.26539         1.93792        -2.13137
| 21>    O        2.95064         2.92380        -2.26144
| 22>    C        2.61903         0.71053        -1.34160
| 23>    C        1.44471        -0.14838        -1.28478
| 24>    C        1.14644        -1.13511        -0.37993
| 25>    C       -0.08942        -1.81391        -0.43001
| 26>    N       -1.09092        -2.37036        -0.48101
| 27>    C        1.96092        -1.48958         0.71084
| 28>    N        2.57564        -1.77868         1.63619
| 29>    C        3.89426         0.55134        -0.91056
| 30>    C        4.55106        -0.63224        -0.48117
| 31>    S        5.94766        -0.52763         0.55240
| 32>    C        6.18149        -2.24497         0.52718
| 33>    C        5.21481        -2.85503        -0.27723
| 34>    C        4.30371        -1.94294        -0.83033
| 35>    C        5.07369        -4.23860        -0.48832
| 36>    N        4.88426        -5.35345        -0.67947
| 37>    C        7.24260        -2.80407         1.28410
| 38>    C        7.69867        -4.07630         1.15956
| 39>    C        8.75534        -4.70112         1.87193
| 40>    N        9.36211        -4.33120         3.05515
| 41>    C        8.98092        -3.29205         3.98359
| 42>    C        7.60493        -3.53687         4.59481
| 43>    C       10.38251        -5.23174         3.41618
| 44>    O       11.04970        -5.11477         4.42758
| 45>    C       10.40708        -6.20792         2.35404
| 46>    C        9.39148        -5.85850         1.43320
| 47>    C        9.41743        -6.81281         0.34509
| 48>    O        8.77079        -6.91227        -0.67232
| 49>    N       10.44675        -7.71121         0.70774
| 50>    C       10.81651        -8.80364        -0.15881
| 51>    C       12.06662        -8.48474        -0.97563
| 52>    C       11.04762        -7.35799         1.89091
| 53>    C       12.11324        -8.08232         2.48451
| 54>    C       12.70165        -7.67664         3.63769
| 55>    C       13.77549        -8.34847         4.28197
| 56>    S       14.46297        -7.64412         5.71649
| 57>    C       15.60334        -8.92714         5.86759
| 58>    C       16.67483        -8.89171         6.88597
| 59>    O       17.75514        -9.38717         6.70054
| 60>    O       16.39417        -8.23891         8.01689
| 61>    C       15.45460        -9.86410         4.85488
| 62>    C       14.42972        -9.51733         3.95615
| 63>    C       16.24450       -11.06906         4.71323
| 64>    C       16.60190       -11.89385         5.71440
| 65>    C       17.50108       -13.04604         5.60326
| 66>    C       18.06417       -13.58956         4.48066
| 67>    C       18.92899       -14.70223         4.57397
| 68>    N       19.62545       -15.61081         4.64311
| 69>    C       17.83959       -13.15700         3.15935
| 70>    N       17.67537       -12.86191         2.06209
| 71>    C       17.69770       -13.51830         6.94152
| 72>    C       16.93310       -12.80255         7.85717
| 73>    C       17.10379       -13.24726         9.17864
| 74>    C       17.99364       -14.27910         9.23461
| 75>    S       18.63356       -14.73699         7.69756
| 76>    C       16.16601       -11.77944         7.14922
| 77>    O       15.32250       -11.03622         7.60006
| 78>    H        0.18853         3.18058        -4.08096
| 79>    H       -1.93096         1.65633        -4.35927
| 80>    H        4.50885         1.44532        -0.96149
| 81>    H        3.51501        -2.24202        -1.49876
| 82>    H        7.72018        -2.11157         1.96079
| 83>    H        7.27460        -4.71346         0.39399
| 84>    H        9.03253        -2.31298         3.49991
| 85>    H        9.74181        -3.32009         4.77023
| 86>    H        6.82813        -3.54699         3.83420
| 87>    H        7.38004        -2.75280         5.31245
| 88>    H        7.59396        -4.49341         5.11169
| 89>    H        9.96799        -8.95249        -0.83253
| 90>    H       10.95802        -9.71144         0.43455
| 91>    H       11.89007        -7.60887        -1.59495
| 92>    H       12.30744        -9.32389        -1.62220
| 93>    H       12.91805        -8.28446        -0.32861
| 94>    H       12.45150        -8.97890         1.98691
| 95>    H       12.34927        -6.77259         4.11760
| 96>    H       15.46552        -7.97710         8.08469
| 97>    H       14.16863       -10.12927         3.11184
| 98>    H       16.54621       -11.29735         3.69875
| 99>    H       16.60628       -12.82589        10.03223
|100>    H       18.32231       -14.81159        10.10591
|101> *
|102>
|103>                          ****END OF INPUT****

CARTESIAN COORDINATES (ANGSTROEM)
---------------------------------
  C      0.038640    2.233290   -3.597370
  C     -1.069780    1.454190   -3.752710
  S     -1.033830   -0.006990   -2.833320
  C      0.513250    0.409380   -2.228630
  C      0.955130    1.633700   -2.717520
  C      2.265390    1.937920   -2.131370
  O      2.950640    2.923800   -2.261440
  C      2.619030    0.710530   -1.341600
  C      1.444710   -0.148380   -1.284780
  C      1.146440   -1.135110   -0.379930
  C     -0.089420   -1.813910   -0.430010
  N     -1.090920   -2.370360   -0.481010
  C      1.960920   -1.489580    0.710840
  N      2.575640   -1.778680    1.636190
  C      3.894260    0.551340   -0.910560
  C      4.551060   -0.632240   -0.481170
  S      5.947660   -0.527630    0.552400
  C      6.181490   -2.244970    0.527180
  C      5.214810   -2.855030   -0.277230
  C      4.303710   -1.942940   -0.830330
  C      5.073690   -4.238600   -0.488320
  N      4.884260   -5.353450   -0.679470
  C      7.242600   -2.804070    1.284100
  C      7.698670   -4.076300    1.159560
  C      8.755340   -4.701120    1.871930
  N      9.362110   -4.331200    3.055150
  C      8.980920   -3.292050    3.983590
  C      7.604930   -3.536870    4.594810
  C     10.382510   -5.231740    3.416180
  O     11.049700   -5.114770    4.427580
  C     10.407080   -6.207920    2.354040
  C      9.391480   -5.858500    1.433200
  C      9.417430   -6.812810    0.345090
  O      8.770790   -6.912270   -0.672320
  N     10.446750   -7.711210    0.707740
  C     10.816510   -8.803640   -0.158810
  C     12.066620   -8.484740   -0.975630
  C     11.047620   -7.357990    1.890910
  C     12.113240   -8.082320    2.484510
  C     12.701650   -7.676640    3.637690
  C     13.775490   -8.348470    4.281970
  S     14.462970   -7.644120    5.716490
  C     15.603340   -8.927140    5.867590
  C     16.674830   -8.891710    6.885970
  O     17.755140   -9.387170    6.700540
  O     16.394170   -8.238910    8.016890
  C     15.454600   -9.864100    4.854880
  C     14.429720   -9.517330    3.956150
  C     16.244500  -11.069060    4.713230
  C     16.601900  -11.893850    5.714400
  C     17.501080  -13.046040    5.603260
  C     18.064170  -13.589560    4.480660
  C     18.928990  -14.702230    4.573970
  N     19.625450  -15.610810    4.643110
  C     17.839590  -13.157000    3.159350
  N     17.675370  -12.861910    2.062090
  C     17.697700  -13.518300    6.941520
  C     16.933100  -12.802550    7.857170
  C     17.103790  -13.247260    9.178640
  C     17.993640  -14.279100    9.234610
  S     18.633560  -14.736990    7.697560
  C     16.166010  -11.779440    7.149220
  O     15.322500  -11.036220    7.600060
  H      0.188530    3.180580   -4.080960
  H     -1.930960    1.656330   -4.359270
  H      4.508850    1.445320   -0.961490
  H      3.515010   -2.242020   -1.498760
  H      7.720180   -2.111570    1.960790
  H      7.274600   -4.713460    0.393990
  H      9.032530   -2.312980    3.499910
  H      9.741810   -3.320090    4.770230
  H      6.828130   -3.546990    3.834200
  H      7.380040   -2.752800    5.312450
  H      7.593960   -4.493410    5.111690
  H      9.967990   -8.952490   -0.832530
  H     10.958020   -9.711440    0.434550
  H     11.890070   -7.608870   -1.594950
  H     12.307440   -9.323890   -1.622200
  H     12.918050   -8.284460   -0.328610
  H     12.451500   -8.978900    1.986910
  H     12.349270   -6.772590    4.117600
  H     15.465520   -7.977100    8.084690
  H     14.168630  -10.129270    3.111840
  H     16.546210  -11.297350    3.698750
  H     16.606280  -12.825890   10.032230
  H     18.322310  -14.811590   10.105910

 Total Charge           Charge          ....    0
 Multiplicity           Mult            ....    1
 Number of Electrons    NEL             ....  460
 Basis Dimension        Dim             .... 1013

ORBITAL ENERGIES
----------------

  NO   OCC          E(Eh)            E(eV)
   0   2.0000     -88.994783     -2421.6712
   1   2.0000     -88.994235     -2421.6562
   2   2.0000     -88.989243     -2421.5204
   3   2.0000     -88.985211     -2421.4107
   4   2.0000     -19.269999      -524.3633
   5   2.0000     -19.227715      -523.2127
   6   2.0000     -19.225597      -523.1551
   7   2.0000     -19.205915      -522.6195
   8   2.0000     -19.197468      -522.3897
   9   2.0000     -19.194332      -522.3043
  10   2.0000     -14.459402      -393.4603
  11   2.0000     -14.457290      -393.4029
  12   2.0000     -14.424904      -392.5216
  13   2.0000     -14.423244      -392.4764
  14   2.0000     -14.423174      -392.4745
  15   2.0000     -14.422077      -392.4447
  16   2.0000     -14.409221      -392.0948
  17   2.0000     -10.417910      -283.4857
  18   2.0000     -10.383681      -282.5543
  19   2.0000     -10.380354      -282.4638
  20   2.0000     -10.379793      -282.4485
  21   2.0000     -10.377492      -282.3859
  22   2.0000     -10.358283      -281.8632
  23   2.0000     -10.355664      -281.7919
  24   2.0000     -10.354095      -281.7492
  25   2.0000     -10.352666      -281.7104
  26   2.0000     -10.351507      -281.6788
  27   2.0000     -10.342023      -281.4208
  28   2.0000     -10.339939      -281.3640
  29   2.0000     -10.335530      -281.2441
  30   2.0000     -10.335098      -281.2323
  31   2.0000     -10.329880      -281.0903
  32   2.0000     -10.329799      -281.0881
  33   2.0000     -10.329184      -281.0714
  34   2.0000     -10.328652      -281.0569
  35   2.0000     -10.327194      -281.0172
  36   2.0000     -10.327187      -281.0170
  37   2.0000     -10.327042      -281.0131
  38   2.0000     -10.324589      -280.9464
  39   2.0000     -10.324064      -280.9321
  40   2.0000     -10.323818      -280.9254
  41   2.0000     -10.323070      -280.9050
  42   2.0000     -10.322975      -280.9024
  43   2.0000     -10.313377      -280.6413
  44   2.0000     -10.312961      -280.6299
  45   2.0000     -10.312661      -280.6218
  46   2.0000     -10.311867      -280.6002
  47   2.0000     -10.311154      -280.5808
  48   2.0000     -10.310084      -280.5517
  49   2.0000     -10.309695      -280.5411
  50   2.0000     -10.309330      -280.5311
  51   2.0000     -10.308047      -280.4962
  52   2.0000     -10.305833      -280.4360
  53   2.0000     -10.305454      -280.4257
  54   2.0000     -10.305451      -280.4256
  55   2.0000     -10.304977      -280.4127
  56   2.0000     -10.304705      -280.4053
  57   2.0000     -10.304156      -280.3903
  58   2.0000     -10.302679      -280.3501
  59   2.0000     -10.270382      -279.4713
  60   2.0000     -10.268136      -279.4102
  61   2.0000     -10.265594      -279.3410
  62   2.0000     -10.263768      -279.2913
  63   2.0000      -8.089446      -220.1250
  64   2.0000      -8.088809      -220.1077
  65   2.0000      -8.084865      -220.0004
  66   2.0000      -8.080998      -219.8951
  67   2.0000      -6.058753      -164.8670
  68   2.0000      -6.058145      -164.8505
  69   2.0000      -6.054136      -164.7414
  70   2.0000      -6.053898      -164.7349
  71   2.0000      -6.053468      -164.7232
  72   2.0000      -6.052040      -164.6844
  73   2.0000      -6.051413      -164.6673
  74   2.0000      -6.050153      -164.6330
  75   2.0000      -6.049736      -164.6217
  76   2.0000      -6.047487      -164.5605
  77   2.0000      -6.046085      -164.5223
  78   2.0000      -6.043229      -164.4446
  79   2.0000      -1.194589       -32.5064
  80   2.0000      -1.144368       -31.1398
  81   2.0000      -1.141394       -31.0589
  82   2.0000      -1.138950       -30.9924
  83   2.0000      -1.131624       -30.7930
  84   2.0000      -1.106312       -30.1043
  85   2.0000      -1.069262       -29.0961
  86   2.0000      -1.058732       -28.8096
  87   2.0000      -1.037332       -28.2272
  88   2.0000      -1.036201       -28.1965
  89   2.0000      -1.022181       -27.8150
  90   2.0000      -1.015208       -27.6252
  91   2.0000      -1.014559       -27.6076
  92   2.0000      -1.013985       -27.5919
  93   2.0000      -1.001518       -27.2527
  94   2.0000      -1.001100       -27.2413
  95   2.0000      -0.989561       -26.9273
  96   2.0000      -0.970335       -26.4042
  97   2.0000      -0.969613       -26.3845
  98   2.0000      -0.935437       -25.4545
  99   2.0000      -0.929406       -25.2904
 100   2.0000      -0.926229       -25.2040
 101   2.0000      -0.913883       -24.8680
 102   2.0000      -0.912561       -24.8321
 103   2.0000      -0.898880       -24.4598
 104   2.0000      -0.894675       -24.3453
 105   2.0000      -0.879046       -23.9200
 106   2.0000      -0.872693       -23.7472
 107   2.0000      -0.861448       -23.4412
 108   2.0000      -0.861300       -23.4372
 109   2.0000      -0.859469       -23.3873
 110   2.0000      -0.845168       -22.9982
 111   2.0000      -0.841839       -22.9076
 112   2.0000      -0.824422       -22.4337
 113   2.0000      -0.803471       -21.8636
 114   2.0000      -0.789639       -21.4872
 115   2.0000      -0.779676       -21.2161
 116   2.0000      -0.777844       -21.1662
 117   2.0000      -0.764417       -20.8008
 118   2.0000      -0.761301       -20.7160
 119   2.0000      -0.760580       -20.6964
 120   2.0000      -0.734797       -19.9948
 121   2.0000      -0.727502       -19.7963
 122   2.0000      -0.717713       -19.5300
 123   2.0000      -0.711522       -19.3615
 124   2.0000      -0.703254       -19.1365
 125   2.0000      -0.701320       -19.0839
 126   2.0000      -0.696889       -18.9633
 127   2.0000      -0.695017       -18.9124
 128   2.0000      -0.687948       -18.7200
 129   2.0000      -0.682117       -18.5613
 130   2.0000      -0.676137       -18.3986
 131   2.0000      -0.674886       -18.3646
 132   2.0000      -0.674219       -18.3464
 133   2.0000      -0.655910       -17.8482
 134   2.0000      -0.640270       -17.4226
 135   2.0000      -0.637985       -17.3604
 136   2.0000      -0.631911       -17.1952
 137   2.0000      -0.625664       -17.0252
 138   2.0000      -0.624620       -16.9968
 139   2.0000      -0.615284       -16.7427
 140   2.0000      -0.609916       -16.5967
 141   2.0000      -0.604582       -16.4515
 142   2.0000      -0.595011       -16.1911
 143   2.0000      -0.590069       -16.0566
 144   2.0000      -0.587323       -15.9819
 145   2.0000      -0.577751       -15.7214
 146   2.0000      -0.575322       -15.6553
 147   2.0000      -0.571373       -15.5478
 148   2.0000      -0.570159       -15.5148
 149   2.0000      -0.558832       -15.2066
 150   2.0000      -0.553850       -15.0710
 151   2.0000      -0.549573       -14.9546
 152   2.0000      -0.549058       -14.9406
 153   2.0000      -0.545892       -14.8545
 154   2.0000      -0.541147       -14.7254
 155   2.0000      -0.538194       -14.6450
 156   2.0000      -0.537423       -14.6240
 157   2.0000      -0.534591       -14.5470
 158   2.0000      -0.533574       -14.5193
 159   2.0000      -0.531378       -14.4595
 160   2.0000      -0.531211       -14.4550
 161   2.0000      -0.526811       -14.3353
 162   2.0000      -0.523319       -14.2402
 163   2.0000      -0.521780       -14.1983
 164   2.0000      -0.521283       -14.1848
 165   2.0000      -0.514827       -14.0091
 166   2.0000      -0.514480       -13.9997
 167   2.0000      -0.509874       -13.8744
 168   2.0000      -0.505653       -13.7595
 169   2.0000      -0.502524       -13.6744
 170   2.0000      -0.501418       -13.6443
 171   2.0000      -0.496706       -13.5161
 172   2.0000      -0.495327       -13.4785
 173   2.0000      -0.488886       -13.3033
 174   2.0000      -0.487192       -13.2572
 175   2.0000      -0.484985       -13.1971
 176   2.0000      -0.483494       -13.1565
 177   2.0000      -0.478953       -13.0330
 178   2.0000      -0.477820       -13.0021
 179   2.0000      -0.476599       -12.9689
 180   2.0000      -0.475273       -12.9328
 181   2.0000      -0.471167       -12.8211
 182   2.0000      -0.467738       -12.7278
 183   2.0000      -0.466523       -12.6947
 184   2.0000      -0.463362       -12.6087
 185   2.0000      -0.461613       -12.5611
 186   2.0000      -0.460749       -12.5376
 187   2.0000      -0.457644       -12.4531
 188   2.0000      -0.456383       -12.4188
 189   2.0000      -0.455738       -12.4013
 190   2.0000      -0.454605       -12.3704
 191   2.0000      -0.452878       -12.3234
 192   2.0000      -0.450697       -12.2641
 193   2.0000      -0.450042       -12.2463
 194   2.0000      -0.447777       -12.1846
 195   2.0000      -0.446049       -12.1376
 196   2.0000      -0.443537       -12.0692
 197   2.0000      -0.440670       -11.9912
 198   2.0000      -0.435658       -11.8549
 199   2.0000      -0.434766       -11.8306
 200   2.0000      -0.434693       -11.8286
 201   2.0000      -0.431701       -11.7472
 202   2.0000      -0.431405       -11.7391
 203   2.0000      -0.430171       -11.7056
 204   2.0000      -0.425216       -11.5707
 205   2.0000      -0.424819       -11.5599
 206   2.0000      -0.419554       -11.4167
 207   2.0000      -0.418543       -11.3891
 208   2.0000      -0.418181       -11.3793
 209   2.0000      -0.406846       -11.0708
 210   2.0000      -0.403059       -10.9678
 211   2.0000      -0.394706       -10.7405
 212   2.0000      -0.390883       -10.6365
 213   2.0000      -0.372060       -10.1243
 214   2.0000      -0.359163        -9.7733
 215   2.0000      -0.357461        -9.7270
 216   2.0000      -0.353016        -9.6060
 217   2.0000      -0.352793        -9.6000
 218   2.0000      -0.352731        -9.5983
 219   2.0000      -0.350515        -9.5380
 220   2.0000      -0.346720        -9.4347
 221   2.0000      -0.341553        -9.2941
 222   2.0000      -0.337104        -9.1731
 223   2.0000      -0.329778        -8.9737
 224   2.0000      -0.321484        -8.7480
 225   2.0000      -0.314917        -8.5693
 226   2.0000      -0.313614        -8.5339
 227   2.0000      -0.302951        -8.2437
 228   2.0000      -0.296097        -8.0572
 229   2.0000      -0.241643        -6.5754
 230   0.0000      -0.106113        -2.8875
 231   0.0000      -0.090803        -2.4709
 232   0.0000      -0.089739        -2.4419
 233   0.0000      -0.071864        -1.9555
 234   0.0000      -0.063085        -1.7166

MULLIKEN ATOMIC CHARGES
-----------------------
   0 C :    0.020104
   1 C :   -0.053839
   2 S :    0.225537
   3 C :   -0.172752
   4 C :    0.027032
   5 C :    0.144075
   6 O :   -0.132495
   7 C :   -0.132631
   8 C :    0.230248
   9 C :   -0.326471
  10 C :   -0.192932
  11 N :    0.167483
  12 C :   -0.189281
  13 N :    0.172313
  14 C :    0.080636
  15 C :   -0.110787
  16 S :    0.175808
  17 C :   -0.050668
  18 C :   -0.071876
  19 C :    0.048276
  20 C :   -0.190033
  21 N :    0.148986
  22 C :    0.050117
  23 C :   -0.035524
  24 C :    0.090886
  25 N :   -0.265465
  26 C :    0.095152
  27 C :   -0.006804
  28 C :    0.165487
  29 O :   -0.221733
  30 C :   -0.074072
  31 C :   -0.019364
  32 C :    0.152473
  33 O :   -0.169541
  34 N :   -0.267442
  35 C :    0.098358
  36 C :    0.000924
  37 C :    0.146602
  38 C :   -0.028030
  39 C :    0.096778
  40 C :   -0.084497
  41 S :    0.168892
  42 C :   -0.188286
  43 C :    0.186179
  44 O :   -0.184582
  45 O :   -0.144795
  46 C :    0.112445
  47 C :   -0.009809
  48 C :   -0.060293
  49 C :   -0.028982
  50 C :    0.241031
  51 C :   -0.324171
  52 C :   -0.209818
  53 N :    0.169302
  54 C :   -0.179442
  55 N :    0.155672
  56 C :   -0.146933
  57 C :    0.022247
  58 C :    0.025182
  59 C :   -0.048680
  60 S :    0.226013
  61 C :    0.169846
  62 O :   -0.153491
  63 H :    0.008865
  64 H :    0.046306
  65 H :    0.029634
  66 H :    0.012705
  67 H :   -0.022703
  68 H :    0.032830
  69 H :    0.024944
  70 H :    0.046560
  71 H :    0.034988
  72 H :    0.025241
  73 H :    0.025696
  74 H :    0.049233
  75 H :    0.023361
  76 H :    0.032242
  77 H :    0.027903
  78 H :    0.014647
  79 H :   -0.026178
  80 H :    0.009600
  81 H :    0.186558
  82 H :   -0.004331
  83 H :    0.028322
  84 H :    0.008507
  85 H :    0.046505
Sum of atomic charges:   -0.0000000

LOEWDIN ATOMIC CHARGES
----------------------
   0 C :   -0.034225
   1 C :   -0.151247
   2 S :    0.512818
   3 C :   -0.173909
   4 C :   -0.070952
   5 C :    0.082810
   6 O :   -0.132837
   7 C :   -0.082048
   8 C :    0.050918
   9 C :   -0.138819
  10 C :   -0.035515
  11 N :   -0.038198
  12 C :   -0.019952
  13 N :   -0.038310
  14 C :    0.041244
  15 C :   -0.185945
  16 S :    0.480960
  17 C :   -0.121315
  18 C :   -0.099866
  19 C :    0.009420
  20 C :   -0.033589
  21 N :   -0.039737
  22 C :   -0.044862
  23 C :    0.000861
  24 C :    0.057702
  25 N :   -0.003530
  26 C :    0.034477
  27 C :   -0.062326
  28 C :    0.079840
  29 O :   -0.209452
  30 C :   -0.131494
  31 C :   -0.096180
  32 C :    0.083442
  33 O :   -0.173175
  34 N :   -0.004312
  35 C :    0.036245
  36 C :   -0.060892
  37 C :    0.090381
  38 C :   -0.045761
  39 C :    0.018633
  40 C :   -0.166040
  41 S :    0.484880
  42 C :   -0.207611
  43 C :    0.060755
  44 O :   -0.162074
  45 O :   -0.016523
  46 C :   -0.042082
  47 C :   -0.023936
  48 C :    0.067278
  49 C :   -0.057912
  50 C :    0.065130
  51 C :   -0.134638
  52 C :   -0.033981
  53 N :   -0.039582
  54 C :   -0.019883
  55 N :   -0.045884
  56 C :   -0.168866
  57 C :   -0.062027
  58 C :   -0.031247
  59 C :   -0.146971
  60 S :    0.515622
  61 C :    0.093100
  62 O :   -0.138357
  63 H :    0.043673
  64 H :    0.031757
  65 H :    0.048063
  66 H :    0.042516
  67 H :    0.029185
  68 H :    0.053747
  69 H :    0.017940
  70 H :    0.037670
  71 H :    0.025530
  72 H :    0.032215
  73 H :    0.031572
  74 H :    0.040297
  75 H :    0.022883
  76 H :    0.033379
  77 H :    0.032579
  78 H :    0.021307
  79 H :    0.028981
  80 H :    0.037523
  81 H :    0.089294
  82 H :    0.035478
  83 H :    0.047810
  84 H :    0.043932
  85 H :    0.032214

  Mayer bond orders larger than 0.100000
B(  0-C ,  1-C ) :   1.5480 B(  0-C ,  4-C ) :   1.2736 B(  0-C , 63-H ) :   1.0071
B(  1-C ,  2-S ) :   1.1668 B(  1-C , 64-H ) :   0.9680 B(  2-S ,  3-C ) :   1.1568
B(  3-C ,  4-C ) :   1.4361 B(  3-C ,  8-C ) :   1.0936 B(  4-C ,  5-C ) :   0.9442
B(  5-C ,  6-O ) :   2.2672 B(  5-C ,  7-C ) :   0.9254 B(  7-C ,  8-C ) :   1.0244
B(  7-C , 14-C ) :   1.7406 B(  8-C ,  9-C ) :   1.6535 B(  9-C , 10-C ) :   1.1243
B(  9-C , 12-C ) :   1.1682 B( 10-C , 11-N ) :   3.0101 B( 12-C , 13-N ) :   2.9937
B( 14-C , 15-C ) :   1.0774 B( 14-C , 65-H ) :   0.9292 B( 15-C , 16-S ) :   1.1118
B( 15-C , 19-C ) :   1.4554 B( 16-S , 17-C ) :   1.1578 B( 17-C , 18-C ) :   1.4369
B( 17-C , 22-C ) :   1.1516 B( 18-C , 19-C ) :   1.3320 B( 18-C , 20-C ) :   1.1111
B( 19-C , 66-H ) :   0.9988 B( 20-C , 21-N ) :   2.9970 B( 22-C , 23-C ) :   1.5939
B( 22-C , 67-H ) :   0.9480 B( 23-C , 24-C ) :   1.1949 B( 23-C , 68-H ) :   0.9376
B( 24-C , 25-N ) :   1.1557 B( 24-C , 31-C ) :   1.3657 B( 25-N , 26-C ) :   0.9416
B( 25-N , 28-C ) :   1.0698 B( 26-C , 27-C ) :   1.1166 B( 26-C , 69-H ) :   0.9497
B( 26-C , 70-H ) :   0.9226 B( 27-C , 71-H ) :   0.9664 B( 27-C , 72-H ) :   0.9669
B( 27-C , 73-H ) :   0.9627 B( 28-C , 29-O ) :   1.9977 B( 28-C , 30-C ) :   1.0008
B( 29-O , 80-H ) :   0.1241 B( 30-C , 31-C ) :   1.2488 B( 30-C , 37-C ) :   1.3180
B( 31-C , 32-C ) :   0.9612 B( 32-C , 33-O ) :   2.1533 B( 32-C , 34-N ) :   1.0223
B( 34-N , 35-C ) :   0.9430 B( 34-N , 37-C ) :   1.1751 B( 35-C , 36-C ) :   1.1190
B( 35-C , 74-H ) :   0.9279 B( 35-C , 75-H ) :   0.9501 B( 36-C , 76-H ) :   0.9642
B( 36-C , 77-H ) :   0.9681 B( 36-C , 78-H ) :   0.9687 B( 37-C , 38-C ) :   1.1676
B( 38-C , 39-C ) :   1.6293 B( 38-C , 79-H ) :   0.9643 B( 39-C , 40-C ) :   1.1177
B( 39-C , 80-H ) :   0.9308 B( 40-C , 41-S ) :   1.1434 B( 40-C , 47-C ) :   1.4669
B( 41-S , 42-C ) :   1.1468 B( 42-C , 43-C ) :   0.9078 B( 42-C , 46-C ) :   1.5226
B( 43-C , 44-O ) :   2.1572 B( 43-C , 45-O ) :   1.2630 B( 45-O , 81-H ) :   0.9454
B( 46-C , 47-C ) :   1.2767 B( 46-C , 48-C ) :   1.0222 B( 47-C , 82-H ) :   0.9993
B( 48-C , 49-C ) :   1.7728 B( 48-C , 83-H ) :   0.9360 B( 49-C , 50-C ) :   1.0463
B( 49-C , 61-C ) :   0.9016 B( 50-C , 51-C ) :   1.6562 B( 50-C , 56-C ) :   1.1134
B( 51-C , 52-C ) :   1.1382 B( 51-C , 54-C ) :   1.1443 B( 52-C , 53-N ) :   3.0086
B( 54-C , 55-N ) :   2.9717 B( 56-C , 57-C ) :   1.4178 B( 56-C , 60-S ) :   1.1478
B( 57-C , 58-C ) :   1.2732 B( 57-C , 61-C ) :   0.9750 B( 58-C , 59-C ) :   1.5448
B( 58-C , 84-H ) :   1.0065 B( 59-C , 60-S ) :   1.1671 B( 59-C , 85-H ) :   0.9681
B( 61-C , 62-O ) :   2.2003

-----------------------------------------------------------------------------
         ABSORPTION SPECTRUM VIA TRANSITION ELECTRIC DIPOLE MOMENTS
-----------------------------------------------------------------------------
State   Energy  Wavelength   fosc         T2         TX        TY        TZ
        (cm-1)    (nm)                  (au**2)     (au)      (au)      (au)
-----------------------------------------------------------------------------
   0   14599.8    684.9   1.189566134  26.82357   3.82006  -3.29566   1.17017
   1   19763.3    506.0   0.014234509   0.23711  -0.21359  -0.43683  -0.02601
   2   21812.9    458.4   0.035666464   0.53830  -0.27219   0.67815   0.06571
   3   23464.9    426.2   0.009014824   0.12648   0.21638   0.28180   0.01576
   4   24979.6    400.3   0.015687540   0.20675   0.29466  -0.31616  -0.14130
   5   26123.7    382.8   0.437892560   5.51835  -2.03136   0.85772  -0.81009
   6   26576.2    376.3   0.000690573   0.00855   0.01736  -0.08329   0.03628
   7   27697.3    361.0   0.222154691   2.64054   1.21619  -0.68772   0.82974
   8   28206.0    354.5   0.092848221   1.08370  -0.55071   0.87762  -0.10100
   9   28535.8    350.4   0.001842604   0.02126   0.07282  -0.01699  -0.12517
  10   28750.7    347.8   0.088110451   1.00892  -0.64374   0.02260  -0.77071
  11   29467.2    339.4   0.259769927   2.90219   1.23418  -0.70090   0.94219
  12   29631.0    337.5   0.012942408   0.14380   0.13027   0.34466   0.08965
  13   30126.0    331.9   0.285916837   3.12446  -0.50239   1.14746  -1.24716
  14   31038.0    322.2   0.017977811   0.19069  -0.04408  -0.31382   0.30044
  15   31256.7    319.9   0.164456368   1.73214   0.42276  -0.25858  -1.21924
  16   31999.8    312.5   0.006491905   0.06679  -0.01818  -0.00631   0.25772
  17   32312.3    309.5   0.129331338   1.31768  -0.43037   0.83005  -0.66595
  18   32484.6    307.8   0.152341987   1.54389  -0.50973   0.50136   1.01622
  19   32673.2    306.1   0.271978221   2.74043  -0.12240   0.12037  -1.64650
  20   33454.9    298.9   0.122914380   1.20954  -0.42160   0.15581   1.00375
  21   33500.8    298.5   0.013505609   0.13272   0.02660  -0.36208  -0.03018
  22   33757.2    296.2   0.253299940   2.47027  -0.08293   0.81550  -1.34102
  23   34642.1    288.7   0.034874684   0.33142   0.23712  -0.50474  -0.14294
  24   35355.4    282.8   0.445335886   4.14674   1.19017  -1.22976   1.10360
  25   35422.7    282.3   0.253838685   2.35913  -0.82671   0.78574  -1.02873
  26   35516.1    281.6   0.160673684   1.48934   0.53831   0.26483   1.06275
  27   36144.7    276.7   0.124921906   1.13781  -0.45847  -0.82552  -0.49612
  28   36505.0    273.9   0.070976577   0.64009   0.56230  -0.22033   0.52475
  29   36989.9    270.3   0.026008907   0.23148  -0.34925  -0.28919   0.16087
  30   37039.9    270.0   0.093041517   0.82696   0.20162  -0.75637   0.46284
  31   37941.4    263.6   0.044730707   0.38812   0.47518  -0.28879   0.28095
  32   37990.1    263.2   0.143922422   1.24719  -0.22136   0.28382  -1.05718
  33   38039.7    262.9   0.013243062   0.11461   0.16540  -0.05800  -0.28964
  34   38132.5    262.2   0.095416138   0.82376  -0.27010  -0.75870  -0.41855
  35   38463.3    260.0   0.041843060   0.35814  -0.44014  -0.34683   0.21007
  36   38573.8    259.2   0.126903581   1.08307   0.54466  -0.87729  -0.12952
  37   39541.8    252.9   0.025990860   0.21639  -0.40580  -0.14927  -0.17158
  38   39767.4    251.5   0.158626512   1.31318  -0.30225   0.99524  -0.48096
  39   40205.8    248.7   0.004716151   0.03862  -0.09116  -0.15293  -0.08317
  40   40318.0    248.0   0.002243167   0.01832  -0.05733  -0.08458  -0.08874

FINAL SINGLE POINT ENERGY     -4190.257977796985

DIPOLE MOMENT
-------------
                                X             Y             Z
Electronic contribution:     -0.60441      -3.59217       4.65044
Nuclear contribution   :     -0.17683       5.27875      -4.06453
                        -----------------------------------------
Total Dipole Moment    :     -0.78125       1.68658       0.58591
                        -----------------------------------------
Magnitude (a.u.)       :      1.94890
Magnitude (Debye)      :      4.95370

Rotational constants in cm-1:     0.004006     0.000243     0.000238
Rotational constants in MHz :   120.108846     7.290550     7.143788

                             ****ORCA TERMINATED NORMALLY****
TOTAL RUN TIME: 0 days 0 hours 7 minutes 40 seconds 185 msec
