                         Program Version 4.2.0 -  RELEASE  -
|  1> # ORCA input file
|  2> # SCF done       -158.236679105558          0.000988632333
|  3> ! CAM-B3LYP def2-SVP def2/J RIJCOSX Grid4 TightSCF
|  4> %maxcore 5000
|  5> %tddft
|  6>     Mode sTDDFT
|  7>     Ethresh 5.0
|  8>     maxcore 5000
|  9> end
| 10>
| 11> %pal
| 12>   nprocs 6
| 13>   end
| 14> * xyz 0 1
| 15>    C        4.27108         5.63615         0.96483
| 16>    C        3.82217         5.57224         2.25102
| 17>    S        3.67759         3.96488         2.86421
| 18>    C        4.24789         3.34268         1.37309
| 19>    C        4.51757         4.35097         0.45418
| 20>    C        4.97794         3.74418        -0.79982
| 21>    O        5.26024         4.27483        -1.84670
| 22>    C        5.07836         2.27680        -0.49380
| 23>    C        4.46204         2.03825         0.80811
| 24>    C        3.99043         0.86843         1.34382
| 25>    C        3.37694         0.85383         2.61507
| 26>    N        2.89286         0.83857         3.65486
| 27>    C        3.98235        -0.38434         0.70345
| 28>    N        3.89425        -1.42528         0.22719
| 29>    C        5.76703         1.46938        -1.32911
| 30>    C        6.23686         0.13613        -1.07964
| 31>    C        6.28632        -0.85057        -2.08205
| 32>    N        6.71359        -2.06295        -1.85493
| 33>    C        7.09377        -2.37521        -0.61465
| 34>    N        7.14645        -1.50052         0.39372
| 35>    C        6.75169        -0.27422         0.15956
| 36>    C        7.51829        -3.73804        -0.40649
| 37>    N        7.56612        -4.38129         0.80049
| 38>    C        7.07519        -3.89116         2.06652
| 39>    C        5.54990        -3.89397         2.11393
| 40>    C        8.03568        -5.70313         0.66300
| 41>    O        8.15771        -6.47089         1.59541
| 42>    C        8.31449        -5.83701        -0.74939
| 43>    C        7.97628        -4.60911        -1.38058
| 44>    C        8.30413        -4.72431        -2.79158
| 45>    O        8.24043        -3.95469        -3.72059
| 46>    N        8.78482        -6.04813        -2.91761
| 47>    C        9.28406        -6.54010        -4.17913
| 48>    C       10.80768        -6.47673        -4.24642
| 49>    C        8.80640        -6.70814        -1.71552
| 50>    C        9.25538        -8.05251        -1.57917
| 51>    C        9.33473        -8.71179        -0.40487
| 52>    C        9.80071       -10.08369        -0.36164
| 53>    N        9.89732       -10.67640         0.83252
| 54>    C       10.32126       -11.92441         0.85339
| 55>    C       10.65706       -12.62324        -0.29926
| 56>    C       10.52550       -11.92675        -1.50705
| 57>    N       10.10245       -10.66556        -1.51705
| 58>    C       10.83182       -12.52256        -2.79400
| 59>    C       10.68194       -11.81629        -3.93297
| 60>    C       10.95687       -12.33329        -5.22873
| 61>    C       10.80284       -11.62235        -6.37624
| 62>    C       11.07720       -12.09669        -7.73186
| 63>    C       11.50085       -13.33310        -8.14233
| 64>    C       11.70821       -13.60099        -9.51309
| 65>    N       11.88053       -13.82650       -10.62447
| 66>    C       11.76430       -14.43579        -7.30715
| 67>    N       11.99996       -15.36939        -6.68191
| 68>    C       10.80617       -10.98909        -8.60369
| 69>    C       10.37522        -9.87577        -7.89290
| 70>    C       10.10058        -8.77173        -8.71685
| 71>    C       10.32933        -9.07364       -10.02717
| 72>    S       10.87672       -10.69009       -10.28964
| 73>    C       10.33362       -10.20133        -6.46371
| 74>    O        9.98984        -9.47511        -5.55670
| 75>    H        4.41332         6.54796         0.41527
| 76>    H        3.55229         6.39032         2.89007
| 77>    H        6.03877         1.90729        -2.28469
| 78>    H        5.94156        -0.64409        -3.08648
| 79>    H        6.87863         0.43069         0.97346
| 80>    H        7.45956        -2.88366         2.23239
| 81>    H        7.47331        -4.57188         2.82428
| 82>    H        5.13735        -3.23277         1.35486
| 83>    H        5.21253        -3.55324         3.08887
| 84>    H        5.17032        -4.89904         1.94581
| 85>    H        8.85440        -5.89100        -4.94690
| 86>    H        8.94271        -7.56351        -4.34595
| 87>    H       11.14673        -5.44608        -4.17387
| 88>    H       11.14510        -6.89544        -5.18992
| 89>    H       11.25247        -7.04959        -3.43603
| 90>    H        9.54846        -8.57719        -2.47763
| 91>    H        9.06396        -8.25834         0.53747
| 92>    H       10.39344       -12.38150         1.83238
| 93>    H       10.99933       -13.64471        -0.26794
| 94>    H       11.17751       -13.54777        -2.80002
| 95>    H       10.33035       -10.79843        -3.85444
| 96>    H       11.31196       -13.35522        -5.28381
| 97>    H        9.75607        -7.81720        -8.36447
| 98>    H       10.20617        -8.43017       -10.87649
| 99> *
|100>
|101>                          ****END OF INPUT****

CARTESIAN COORDINATES (ANGSTROEM)
---------------------------------
  C      4.271080    5.636150    0.964830
  C      3.822170    5.572240    2.251020
  S      3.677590    3.964880    2.864210
  C      4.247890    3.342680    1.373090
  C      4.517570    4.350970    0.454180
  C      4.977940    3.744180   -0.799820
  O      5.260240    4.274830   -1.846700
  C      5.078360    2.276800   -0.493800
  C      4.462040    2.038250    0.808110
  C      3.990430    0.868430    1.343820
  C      3.376940    0.853830    2.615070
  N      2.892860    0.838570    3.654860
  C      3.982350   -0.384340    0.703450
  N      3.894250   -1.425280    0.227190
  C      5.767030    1.469380   -1.329110
  C      6.236860    0.136130   -1.079640
  C      6.286320   -0.850570   -2.082050
  N      6.713590   -2.062950   -1.854930
  C      7.093770   -2.375210   -0.614650
  N      7.146450   -1.500520    0.393720
  C      6.751690   -0.274220    0.159560
  C      7.518290   -3.738040   -0.406490
  N      7.566120   -4.381290    0.800490
  C      7.075190   -3.891160    2.066520
  C      5.549900   -3.893970    2.113930
  C      8.035680   -5.703130    0.663000
  O      8.157710   -6.470890    1.595410
  C      8.314490   -5.837010   -0.749390
  C      7.976280   -4.609110   -1.380580
  C      8.304130   -4.724310   -2.791580
  O      8.240430   -3.954690   -3.720590
  N      8.784820   -6.048130   -2.917610
  C      9.284060   -6.540100   -4.179130
  C     10.807680   -6.476730   -4.246420
  C      8.806400   -6.708140   -1.715520
  C      9.255380   -8.052510   -1.579170
  C      9.334730   -8.711790   -0.404870
  C      9.800710  -10.083690   -0.361640
  N      9.897320  -10.676400    0.832520
  C     10.321260  -11.924410    0.853390
  C     10.657060  -12.623240   -0.299260
  C     10.525500  -11.926750   -1.507050
  N     10.102450  -10.665560   -1.517050
  C     10.831820  -12.522560   -2.794000
  C     10.681940  -11.816290   -3.932970
  C     10.956870  -12.333290   -5.228730
  C     10.802840  -11.622350   -6.376240
  C     11.077200  -12.096690   -7.731860
  C     11.500850  -13.333100   -8.142330
  C     11.708210  -13.600990   -9.513090
  N     11.880530  -13.826500  -10.624470
  C     11.764300  -14.435790   -7.307150
  N     11.999960  -15.369390   -6.681910
  C     10.806170  -10.989090   -8.603690
  C     10.375220   -9.875770   -7.892900
  C     10.100580   -8.771730   -8.716850
  C     10.329330   -9.073640  -10.027170
  S     10.876720  -10.690090  -10.289640
  C     10.333620  -10.201330   -6.463710
  O      9.989840   -9.475110   -5.556700
  H      4.413320    6.547960    0.415270
  H      3.552290    6.390320    2.890070
  H      6.038770    1.907290   -2.284690
  H      5.941560   -0.644090   -3.086480
  H      6.878630    0.430690    0.973460
  H      7.459560   -2.883660    2.232390
  H      7.473310   -4.571880    2.824280
  H      5.137350   -3.232770    1.354860
  H      5.212530   -3.553240    3.088870
  H      5.170320   -4.899040    1.945810
  H      8.854400   -5.891000   -4.946900
  H      8.942710   -7.563510   -4.345950
  H     11.146730   -5.446080   -4.173870
  H     11.145100   -6.895440   -5.189920
  H     11.252470   -7.049590   -3.436030
  H      9.548460   -8.577190   -2.477630
  H      9.063960   -8.258340    0.537470
  H     10.393440  -12.381500    1.832380
  H     10.999330  -13.644710   -0.267940
  H     11.177510  -13.547770   -2.800020
  H     10.330350  -10.798430   -3.854440
  H     11.311960  -13.355220   -5.283810
  H      9.756070   -7.817200   -8.364470
  H     10.206170   -8.430170  -10.876490

 Total Charge           Charge          ....    0
 Multiplicity           Mult            ....    1
 Number of Electrons    NEL             ....  422
 Basis Dimension        Dim             ....  968

ORBITAL ENERGIES
----------------

  NO   OCC          E(Eh)            E(eV)
   0   2.0000     -88.998449     -2421.7709
   1   2.0000     -88.996969     -2421.7306
   2   2.0000     -19.234365      -523.3937
   3   2.0000     -19.229191      -523.2529
   4   2.0000     -19.180135      -521.9180
   5   2.0000     -19.176099      -521.8082
   6   2.0000     -14.441497      -392.9731
   7   2.0000     -14.439223      -392.9112
   8   2.0000     -14.428060      -392.6075
   9   2.0000     -14.427267      -392.5859
  10   2.0000     -14.427222      -392.5847
  11   2.0000     -14.425062      -392.5259
  12   2.0000     -14.423317      -392.4784
  13   2.0000     -14.416562      -392.2946
  14   2.0000     -14.414894      -392.2492
  15   2.0000     -14.412168      -392.1750
  16   2.0000     -10.387719      -282.6642
  17   2.0000     -10.383376      -282.5460
  18   2.0000     -10.364302      -282.0270
  19   2.0000     -10.362888      -281.9885
  20   2.0000     -10.359417      -281.8941
  21   2.0000     -10.358671      -281.8738
  22   2.0000     -10.358463      -281.8681
  23   2.0000     -10.358317      -281.8641
  24   2.0000     -10.355829      -281.7964
  25   2.0000     -10.345904      -281.5264
  26   2.0000     -10.339711      -281.3578
  27   2.0000     -10.337378      -281.2944
  28   2.0000     -10.337214      -281.2899
  29   2.0000     -10.337103      -281.2869
  30   2.0000     -10.333160      -281.1796
  31   2.0000     -10.332809      -281.1700
  32   2.0000     -10.331181      -281.1257
  33   2.0000     -10.330361      -281.1034
  34   2.0000     -10.329539      -281.0810
  35   2.0000     -10.329420      -281.0778
  36   2.0000     -10.327937      -281.0374
  37   2.0000     -10.327737      -281.0320
  38   2.0000     -10.326021      -280.9853
  39   2.0000     -10.325849      -280.9806
  40   2.0000     -10.323354      -280.9127
  41   2.0000     -10.322632      -280.8931
  42   2.0000     -10.315561      -280.7007
  43   2.0000     -10.314352      -280.6678
  44   2.0000     -10.310224      -280.5555
  45   2.0000     -10.309171      -280.5268
  46   2.0000     -10.308214      -280.5008
  47   2.0000     -10.307887      -280.4919
  48   2.0000     -10.307832      -280.4904
  49   2.0000     -10.303921      -280.3840
  50   2.0000     -10.294467      -280.1267
  51   2.0000     -10.291905      -280.0570
  52   2.0000     -10.290651      -280.0229
  53   2.0000     -10.281812      -279.7823
  54   2.0000     -10.279477      -279.7188
  55   2.0000     -10.277176      -279.6562
  56   2.0000     -10.257180      -279.1120
  57   2.0000     -10.250722      -278.9363
  58   2.0000     -10.250590      -278.9327
  59   2.0000     -10.237583      -278.5788
  60   2.0000      -8.093102      -220.2245
  61   2.0000      -8.091513      -220.1813
  62   2.0000      -6.062416      -164.9667
  63   2.0000      -6.060791      -164.9225
  64   2.0000      -6.057792      -164.8409
  65   2.0000      -6.056210      -164.7979
  66   2.0000      -6.055681      -164.7834
  67   2.0000      -6.054122      -164.7410
  68   2.0000      -1.148790       -31.2602
  69   2.0000      -1.145000       -31.1570
  70   2.0000      -1.122233       -30.5375
  71   2.0000      -1.114348       -30.3229
  72   2.0000      -1.096901       -29.8482
  73   2.0000      -1.088329       -29.6149
  74   2.0000      -1.052017       -28.6269
  75   2.0000      -1.041699       -28.3461
  76   2.0000      -1.040567       -28.3153
  77   2.0000      -1.038832       -28.2681
  78   2.0000      -1.019348       -27.7379
  79   2.0000      -1.017625       -27.6910
  80   2.0000      -1.005827       -27.3699
  81   2.0000      -1.004158       -27.3245
  82   2.0000      -0.990353       -26.9489
  83   2.0000      -0.988405       -26.8959
  84   2.0000      -0.975986       -26.5579
  85   2.0000      -0.972778       -26.4706
  86   2.0000      -0.933850       -25.4113
  87   2.0000      -0.931061       -25.3355
  88   2.0000      -0.917916       -24.9778
  89   2.0000      -0.914532       -24.8857
  90   2.0000      -0.912903       -24.8413
  91   2.0000      -0.905021       -24.6269
  92   2.0000      -0.877656       -23.8822
  93   2.0000      -0.869380       -23.6570
  94   2.0000      -0.864298       -23.5187
  95   2.0000      -0.863523       -23.4976
  96   2.0000      -0.853640       -23.2287
  97   2.0000      -0.848764       -23.0960
  98   2.0000      -0.816365       -22.2144
  99   2.0000      -0.803693       -21.8696
 100   2.0000      -0.796676       -21.6787
 101   2.0000      -0.788472       -21.4554
 102   2.0000      -0.782723       -21.2990
 103   2.0000      -0.771231       -20.9863
 104   2.0000      -0.762971       -20.7615
 105   2.0000      -0.756121       -20.5751
 106   2.0000      -0.745714       -20.2919
 107   2.0000      -0.743768       -20.2390
 108   2.0000      -0.731536       -19.9061
 109   2.0000      -0.722557       -19.6618
 110   2.0000      -0.703954       -19.1556
 111   2.0000      -0.702417       -19.1137
 112   2.0000      -0.691965       -18.8293
 113   2.0000      -0.684134       -18.6162
 114   2.0000      -0.680180       -18.5087
 115   2.0000      -0.679706       -18.4957
 116   2.0000      -0.674636       -18.3578
 117   2.0000      -0.664612       -18.0850
 118   2.0000      -0.662083       -18.0162
 119   2.0000      -0.652219       -17.7478
 120   2.0000      -0.642187       -17.4748
 121   2.0000      -0.633703       -17.2439
 122   2.0000      -0.630877       -17.1670
 123   2.0000      -0.627467       -17.0742
 124   2.0000      -0.626506       -17.0481
 125   2.0000      -0.617416       -16.8007
 126   2.0000      -0.610726       -16.6187
 127   2.0000      -0.603210       -16.4142
 128   2.0000      -0.600276       -16.3343
 129   2.0000      -0.581912       -15.8346
 130   2.0000      -0.573252       -15.5990
 131   2.0000      -0.571345       -15.5471
 132   2.0000      -0.566162       -15.4061
 133   2.0000      -0.563981       -15.3467
 134   2.0000      -0.559759       -15.2318
 135   2.0000      -0.554641       -15.0926
 136   2.0000      -0.554050       -15.0765
 137   2.0000      -0.552857       -15.0440
 138   2.0000      -0.549778       -14.9602
 139   2.0000      -0.542414       -14.7598
 140   2.0000      -0.540526       -14.7085
 141   2.0000      -0.536875       -14.6091
 142   2.0000      -0.534028       -14.5317
 143   2.0000      -0.532162       -14.4809
 144   2.0000      -0.530323       -14.4308
 145   2.0000      -0.523395       -14.2423
 146   2.0000      -0.518342       -14.1048
 147   2.0000      -0.516862       -14.0645
 148   2.0000      -0.515989       -14.0408
 149   2.0000      -0.512609       -13.9488
 150   2.0000      -0.511597       -13.9213
 151   2.0000      -0.508027       -13.8241
 152   2.0000      -0.507143       -13.8001
 153   2.0000      -0.502905       -13.6848
 154   2.0000      -0.497432       -13.5358
 155   2.0000      -0.496395       -13.5076
 156   2.0000      -0.493206       -13.4208
 157   2.0000      -0.492157       -13.3923
 158   2.0000      -0.489966       -13.3326
 159   2.0000      -0.488877       -13.3030
 160   2.0000      -0.485157       -13.2018
 161   2.0000      -0.484128       -13.1738
 162   2.0000      -0.483941       -13.1687
 163   2.0000      -0.481440       -13.1007
 164   2.0000      -0.472117       -12.8470
 165   2.0000      -0.467372       -12.7178
 166   2.0000      -0.463927       -12.6241
 167   2.0000      -0.461895       -12.5688
 168   2.0000      -0.459116       -12.4932
 169   2.0000      -0.457619       -12.4525
 170   2.0000      -0.455102       -12.3840
 171   2.0000      -0.452928       -12.3248
 172   2.0000      -0.451681       -12.2909
 173   2.0000      -0.450354       -12.2548
 174   2.0000      -0.448683       -12.2093
 175   2.0000      -0.444913       -12.1067
 176   2.0000      -0.441280       -12.0078
 177   2.0000      -0.440189       -11.9782
 178   2.0000      -0.437166       -11.8959
 179   2.0000      -0.435194       -11.8422
 180   2.0000      -0.434497       -11.8233
 181   2.0000      -0.431857       -11.7514
 182   2.0000      -0.430082       -11.7031
 183   2.0000      -0.425581       -11.5806
 184   2.0000      -0.423749       -11.5308
 185   2.0000      -0.420866       -11.4523
 186   2.0000      -0.420129       -11.4323
 187   2.0000      -0.411427       -11.1955
 188   2.0000      -0.408175       -11.1070
 189   2.0000      -0.403445       -10.9783
 190   2.0000      -0.398720       -10.8497
 191   2.0000      -0.389412       -10.5964
 192   2.0000      -0.383687       -10.4407
 193   2.0000      -0.383040       -10.4231
 194   2.0000      -0.382597       -10.4110
 195   2.0000      -0.376750       -10.2519
 196   2.0000      -0.356669        -9.7055
 197   2.0000      -0.355828        -9.6826
 198   2.0000      -0.351681        -9.5697
 199   2.0000      -0.351342        -9.5605
 200   2.0000      -0.336857        -9.1664
 201   2.0000      -0.331347        -9.0164
 202   2.0000      -0.327533        -8.9126
 203   2.0000      -0.324905        -8.8411
 204   2.0000      -0.323971        -8.8157
 205   2.0000      -0.317774        -8.6471
 206   2.0000      -0.317077        -8.6281
 207   2.0000      -0.312368        -8.5000
 208   2.0000      -0.303990        -8.2720
 209   2.0000      -0.301608        -8.2072
 210   2.0000      -0.236738        -6.4420
 211   0.0000      -0.100647        -2.7387
 212   0.0000      -0.100044        -2.7223
 213   0.0000      -0.081015        -2.2045
 214   0.0000      -0.077427        -2.1069
 215   0.0000      -0.056519        -1.5380

MULLIKEN ATOMIC CHARGES
-----------------------
   0 C :    0.018563
   1 C :   -0.048950
   2 S :    0.226708
   3 C :   -0.174040
   4 C :    0.025685
   5 C :    0.144034
   6 O :   -0.126695
   7 C :   -0.117353
   8 C :    0.239206
   9 C :   -0.334892
  10 C :   -0.202455
  11 N :    0.170826
  12 C :   -0.155961
  13 N :    0.168163
  14 C :    0.038083
  15 C :   -0.029024
  16 C :    0.069796
  17 N :    0.004085
  18 C :   -0.172645
  19 N :   -0.036639
  20 C :    0.044587
  21 C :    0.182348
  22 N :   -0.254522
  23 C :    0.125038
  24 C :   -0.007163
  25 C :    0.155845
  26 O :   -0.200820
  27 C :   -0.078099
  28 C :   -0.032789
  29 C :    0.145174
  30 O :   -0.163074
  31 N :   -0.265588
  32 C :    0.101279
  33 C :    0.013274
  34 C :    0.159878
  35 C :    0.000418
  36 C :    0.044386
  37 C :   -0.072009
  38 N :   -0.045890
  39 C :    0.081367
  40 C :   -0.034893
  41 C :    0.044389
  42 N :   -0.063380
  43 C :    0.028584
  44 C :    0.023414
  45 C :   -0.023620
  46 C :   -0.071020
  47 C :    0.260953
  48 C :   -0.327702
  49 C :   -0.208111
  50 N :    0.170147
  51 C :   -0.184014
  52 N :    0.157784
  53 C :   -0.156192
  54 C :    0.021646
  55 C :    0.017380
  56 C :   -0.049562
  57 S :    0.227816
  58 C :    0.169898
  59 O :   -0.141872
  60 H :    0.010974
  61 H :    0.047808
  62 H :    0.036457
  63 H :    0.013350
  64 H :    0.016724
  65 H :    0.024685
  66 H :    0.031156
  67 H :    0.025037
  68 H :    0.012909
  69 H :    0.016691
  70 H :    0.029901
  71 H :    0.034009
  72 H :    0.019907
  73 H :    0.011665
  74 H :    0.013365
  75 H :    0.005335
  76 H :    0.018895
  77 H :    0.013488
  78 H :   -0.001123
  79 H :   -0.003363
  80 H :    0.050667
  81 H :    0.011755
  82 H :    0.009485
  83 H :    0.048441
Sum of atomic charges:   -0.0000000

LOEWDIN ATOMIC CHARGES
----------------------
   0 C :   -0.033901
   1 C :   -0.148117
   2 S :    0.513927
   3 C :   -0.173816
   4 C :   -0.068952
   5 C :    0.082859
   6 O :   -0.128309
   7 C :   -0.076142
   8 C :    0.053572
   9 C :   -0.135890
  10 C :   -0.034920
  11 N :   -0.036598
  12 C :   -0.013760
  13 N :   -0.034666
  14 C :    0.068021
  15 C :   -0.090022
  16 C :    0.075435
  17 N :   -0.037616
  18 C :    0.035080
  19 N :   -0.064682
  20 C :    0.060980
  21 C :    0.051103
  22 N :    0.010598
  23 C :    0.032229
  24 C :   -0.064626
  25 C :    0.077848
  26 O :   -0.196183
  27 C :   -0.123832
  28 C :   -0.091789
  29 C :    0.084254
  30 O :   -0.170817
  31 N :   -0.003067
  32 C :    0.034478
  33 C :   -0.060104
  34 C :    0.088076
  35 C :   -0.017152
  36 C :    0.019858
  37 C :    0.028963
  38 N :   -0.074969
  39 C :    0.055130
  40 C :   -0.056319
  41 C :    0.027175
  42 N :   -0.072464
  43 C :    0.010110
  44 C :    0.000098
  45 C :    0.063245
  46 C :   -0.076380
  47 C :    0.059690
  48 C :   -0.134853
  49 C :   -0.034536
  50 N :   -0.039019
  51 C :   -0.021957
  52 N :   -0.043206
  53 C :   -0.174197
  54 C :   -0.068714
  55 C :   -0.034236
  56 C :   -0.148116
  57 S :    0.515582
  58 C :    0.091966
  59 O :   -0.131066
  60 H :    0.044429
  61 H :    0.032584
  62 H :    0.051471
  63 H :    0.031790
  64 H :    0.026763
  65 H :    0.020597
  66 H :    0.030143
  67 H :    0.019718
  68 H :    0.027659
  69 H :    0.026773
  70 H :    0.032934
  71 H :    0.023252
  72 H :    0.027155
  73 H :    0.025067
  74 H :    0.022591
  75 H :    0.035891
  76 H :    0.042046
  77 H :    0.029399
  78 H :    0.035361
  79 H :    0.033590
  80 H :    0.036405
  81 H :    0.042705
  82 H :    0.043655
  83 H :    0.032739

  Mayer bond orders larger than 0.100000
B(  0-C ,  1-C ) :   1.5470 B(  0-C ,  4-C ) :   1.2749 B(  0-C , 60-H ) :   1.0073
B(  1-C ,  2-S ) :   1.1676 B(  1-C , 61-H ) :   0.9680 B(  2-S ,  3-C ) :   1.1546
B(  3-C ,  4-C ) :   1.4302 B(  3-C ,  8-C ) :   1.1036 B(  4-C ,  5-C ) :   0.9425
B(  5-C ,  6-O ) :   2.2760 B(  5-C ,  7-C ) :   0.9182 B(  7-C ,  8-C ) :   1.0021
B(  7-C , 14-C ) :   1.7837 B(  8-C ,  9-C ) :   1.6612 B(  9-C , 10-C ) :   1.1271
B(  9-C , 12-C ) :   1.1739 B( 10-C , 11-N ) :   3.0102 B( 12-C , 13-N ) :   2.9135
B( 14-C , 15-C ) :   1.0102 B( 14-C , 62-H ) :   0.9424 B( 15-C , 16-C ) :   1.2817
B( 15-C , 20-C ) :   1.3072 B( 16-C , 17-N ) :   1.5990 B( 16-C , 63-H ) :   0.9934
B( 17-N , 18-C ) :   1.5902 B( 17-N , 21-C ) :  -0.1024 B( 18-C , 19-N ) :   1.5050
B( 18-C , 21-C ) :   0.9730 B( 19-N , 20-C ) :   1.5783 B( 20-C , 64-H ) :   0.9862
B( 21-C , 22-N ) :   1.2115 B( 21-C , 28-C ) :   1.4245 B( 22-N , 23-C ) :   0.9408
B( 22-N , 25-C ) :   1.0525 B( 23-C , 24-C ) :   1.1204 B( 23-C , 65-H ) :   0.9337
B( 23-C , 66-H ) :   0.9270 B( 24-C , 67-H ) :   0.9621 B( 24-C , 68-H ) :   0.9661
B( 24-C , 69-H ) :   0.9623 B( 25-C , 26-O ) :   2.0591 B( 25-C , 27-C ) :   0.9836
B( 27-C , 28-C ) :   1.2336 B( 27-C , 34-C ) :   1.3477 B( 28-C , 29-C ) :   0.9395
B( 29-C , 30-O ) :   2.1840 B( 29-C , 31-N ) :   1.0188 B( 31-N , 32-C ) :   0.9403
B( 31-N , 34-C ) :   1.1856 B( 32-C , 33-C ) :   1.1214 B( 32-C , 70-H ) :   0.9260
B( 32-C , 71-H ) :   0.9438 B( 33-C , 72-H ) :   0.9632 B( 33-C , 73-H ) :   0.9663
B( 33-C , 74-H ) :   0.9680 B( 34-C , 35-C ) :   1.1066 B( 35-C , 36-C ) :   1.6492
B( 35-C , 75-H ) :   0.9629 B( 36-C , 37-C ) :   1.0167 B( 36-C , 76-H ) :   0.9626
B( 37-C , 38-N ) :   1.5280 B( 37-C , 42-N ) :   1.5363 B( 38-N , 39-C ) :   1.5568
B( 39-C , 40-C ) :   1.3607 B( 39-C , 77-H ) :   0.9800 B( 40-C , 41-C ) :   1.3338
B( 40-C , 78-H ) :   0.9765 B( 41-C , 42-N ) :   1.5291 B( 41-C , 43-C ) :   1.0346
B( 43-C , 44-C ) :   1.6666 B( 43-C , 79-H ) :   0.9858 B( 44-C , 45-C ) :   1.0936
B( 44-C , 80-H ) :   0.9755 B( 45-C , 46-C ) :   1.6315 B( 45-C , 81-H ) :   0.9624
B( 46-C , 47-C ) :   1.0464 B( 46-C , 58-C ) :   0.9301 B( 47-C , 48-C ) :   1.6510
B( 47-C , 53-C ) :   1.1009 B( 48-C , 49-C ) :   1.1388 B( 48-C , 51-C ) :   1.1470
B( 49-C , 50-N ) :   3.0067 B( 51-C , 52-N ) :   2.9677 B( 53-C , 54-C ) :   1.4313
B( 53-C , 57-S ) :   1.1473 B( 54-C , 55-C ) :   1.2703 B( 54-C , 58-C ) :   0.9731
B( 55-C , 56-C ) :   1.5458 B( 55-C , 82-H ) :   1.0072 B( 56-C , 57-S ) :   1.1684
B( 56-C , 83-H ) :   0.9675 B( 58-C , 59-O ) :   2.1453

-----------------------------------------------------------------------------
         ABSORPTION SPECTRUM VIA TRANSITION ELECTRIC DIPOLE MOMENTS
-----------------------------------------------------------------------------
State   Energy  Wavelength   fosc         T2         TX        TY        TZ
        (cm-1)    (nm)                  (au**2)     (au)      (au)      (au)
-----------------------------------------------------------------------------
   0   15117.6    661.5   0.478974966  10.43054  -1.33456   2.73090   1.09164
   1   17729.3    564.0   0.003600012   0.06685   0.02369  -0.15224   0.20763
   2   19010.6    526.0   0.205897154   3.56557   0.57625  -1.58485  -0.84957
   3   22166.2    451.1   0.001072666   0.01593   0.01404  -0.01366  -0.12469
   4   24413.4    409.6   0.021362401   0.28807  -0.07676   0.16617  -0.50454
   5   24907.5    401.5   0.023627687   0.31230   0.28516  -0.27531  -0.39394
   6   26132.2    382.7   0.003945151   0.04970  -0.19719   0.08641  -0.05787
   7   27178.6    367.9   0.435753388   5.27824  -0.45077   0.67298   2.14992
   8   27388.7    365.1   0.022473092   0.27013   0.46636  -0.22753   0.02947
   9   28237.2    354.1   0.003698408   0.04312  -0.19519  -0.06453  -0.02924
  10   29331.7    340.9   0.110632983   1.24172   0.72188  -0.57191  -0.62731
  11   29549.6    338.4   0.158013264   1.76042   0.31891  -0.87970  -0.94066
  12   29576.9    338.1   0.050943609   0.56704   0.02078  -0.64941  -0.38063
  13   30358.2    329.4   0.000672261   0.00729   0.04139  -0.04820   0.05704
  14   30654.3    326.2   0.031828941   0.34183  -0.00632   0.58162   0.05917
  15   30800.5    324.7   0.089521060   0.95685   0.33047   0.92065   0.00650
  16   30959.2    323.0   0.043591338   0.46354  -0.11227  -0.65788   0.13466
  17   31116.7    321.4   0.019065146   0.20171   0.13877  -0.07206   0.42102
  18   31395.0    318.5   0.035070708   0.36776   0.13744  -0.10053   0.58203
  19   31549.5    317.0   0.001831718   0.01911   0.02913   0.03743  -0.12986
  20   31591.6    316.5   0.048223468   0.50253  -0.19311  -0.31179   0.60665
  21   31877.0    313.7   0.030703872   0.31710  -0.11532   0.53320   0.13965
  22   32210.0    310.5   0.031217378   0.31907  -0.06877   0.25426   0.49969
  23   32837.9    304.5   0.330284818   3.31122   0.28556  -1.79477   0.09210
  24   33035.0    302.7   0.040669937   0.40530   0.20122   0.59986  -0.07057
  25   33259.2    300.7   0.276040101   2.73235   0.49151  -1.52401   0.41007
  26   33619.5    297.4   0.342405330   3.35293  -0.39369   0.99517   1.48579
  27   33998.6    294.1   0.695107795   6.73080  -0.43411   1.97743  -1.62238
  28   34704.4    288.1   0.240001798   2.27670   0.08597   1.48616  -0.24624
  29   35354.0    282.9   0.000891511   0.00830  -0.04629   0.07817   0.00688
  30   35469.0    281.9   0.055792470   0.51785  -0.24687   0.65390  -0.17124
  31   35629.9    280.7   0.066305836   0.61265   0.14166  -0.63729   0.43180
  32   35977.1    278.0   0.040323397   0.36898  -0.11375   0.47086  -0.36651
  33   36114.8    276.9   0.521060214   4.74983   0.57641  -1.99481   0.66206
  34   37139.5    269.3   0.168934029   1.49746   0.28148  -0.99238  -0.65835
  35   37300.9    268.1   0.077640995   0.68525   0.26354  -0.57281  -0.53636
  36   37420.5    267.2   0.025863350   0.22754   0.30195  -0.36927   0.00092
  37   37631.4    265.7   0.095664114   0.83690  -0.38479  -0.51076   0.65418
  38   37945.6    263.5   0.006469079   0.05612  -0.21642   0.07015   0.06608
  39   38098.7    262.5   0.141187400   1.22000   0.11021   0.32240  -1.05067
  40   38208.9    261.7   0.006517277   0.05615   0.06909  -0.12197  -0.19106
  41   38350.9    260.8   0.002367380   0.02032  -0.04746   0.12207   0.05629
  42   38762.2    258.0   0.000460135   0.00391  -0.04722  -0.04078  -0.00382
  43   38882.7    257.2   0.049734160   0.42109  -0.19441   0.61866  -0.02361
  44   39083.5    255.9   0.032342512   0.27243   0.22751  -0.45473  -0.11783
  45   39426.1    253.6   0.000476835   0.00398   0.02880  -0.05596  -0.00452
  46   39528.9    253.0   0.029057890   0.24201   0.07864  -0.34170   0.34506
  47   39723.4    251.7   0.000160625   0.00133   0.00758  -0.00653   0.03509

FINAL SINGLE POINT ENERGY     -3332.400326822012

DIPOLE MOMENT
-------------
                                X             Y             Z
Electronic contribution:     -7.52606       7.94542     -12.17529
Nuclear contribution   :      7.81449      -5.48765      11.92545
                        -----------------------------------------
Total Dipole Moment    :      0.28843       2.45777      -0.24984
                        -----------------------------------------
Magnitude (a.u.)       :      2.48721
Magnitude (Debye)      :      6.32199

Rotational constants in cm-1:     0.002836     0.000395     0.000352
Rotational constants in MHz :    85.024117    11.831482    10.547240

                             ****ORCA TERMINATED NORMALLY****
TOTAL RUN TIME: 0 days 0 hours 7 minutes 4 seconds 431 msec
