                         Program Version 4.2.0 -  RELEASE  -
|  1> # ORCA input file
|  2> # SCF done       -168.586477256646          0.000406684217
|  3> ! CAM-B3LYP def2-SVP def2/J RIJCOSX Grid4 TightSCF
|  4> %maxcore 5000
|  5> %tddft
|  6>     Mode sTDDFT
|  7>     Ethresh 5.0
|  8>     maxcore 5000
|  9> end
| 10>
| 11> %pal
| 12>   nprocs 6
| 13>   end
| 14> * xyz 0 1
| 15>    C        0.02200        -3.06236        -4.94080
| 16>    N        0.97131        -3.65999        -5.57868
| 17>    C        1.97338        -3.85319        -4.68503
| 18>    C        1.63379        -3.33459        -3.45648
| 19>    N        0.34352        -2.83519        -3.61562
| 20>    C       -0.36407        -1.98783        -2.75284
| 21>    O        0.16078        -1.19251        -2.02644
| 22>    N       -1.74075        -2.14362        -2.84190
| 23>    C       -2.66675        -1.22674        -2.37181
| 24>    C       -3.88423        -1.78983        -2.56440
| 25>    N       -3.74575        -3.03857        -3.11061
| 26>    C       -2.48305        -3.23048        -3.26880
| 27>    C        2.38366        -3.37290        -2.23852
| 28>    S        4.08994        -3.69061        -2.33568
| 29>    C        4.26134        -3.64599        -0.60737
| 30>    C        3.02476        -3.39378        -0.00798
| 31>    C        1.97442        -3.24637        -0.93391
| 32>    C        2.79887        -3.29981         1.37452
| 33>    N        2.57415        -3.22034         2.49760
| 34>    C        5.54124        -3.86690        -0.04599
| 35>    C        5.83535        -3.84190         1.28249
| 36>    C        7.13895        -4.09771         1.76645
| 37>    N        7.47811        -4.07265         3.09668
| 38>    C        6.61727        -3.71791         4.20009
| 39>    C        6.41774        -2.20835         4.30455
| 40>    C        8.83663        -4.39128         3.30232
| 41>    O        9.36311        -4.43632         4.39295
| 42>    C        9.34415        -4.63221         1.96862
| 43>    C        8.29195        -4.44341         1.05148
| 44>    C        8.81627        -4.71127        -0.26873
| 45>    O        8.29751        -4.68003        -1.36835
| 46>    N       10.16320        -5.05988        -0.05792
| 47>    C       11.00788        -5.33688        -1.19571
| 48>    C       11.91923        -4.15886        -1.53058
| 49>    C       10.49871        -5.01592         1.27855
| 50>    C       11.70926        -5.31270         1.94130
| 51>    C       12.89944        -5.74835         1.43941
| 52>    C       14.03218        -6.04297         2.23288
| 53>    C       15.23847        -6.51357         1.75002
| 54>    C       16.13811        -6.71130         2.83140
| 55>    C       15.39919        -6.31639         4.04777
| 56>    C       14.15204        -5.92529         3.68138
| 57>    C       15.87690        -6.34343         5.36327
| 58>    N       16.23753        -6.35376         6.45379
| 59>    C       17.42969        -7.18326         2.77453
| 60>    C       18.34534        -7.35951         3.85457
| 61>    C       19.53688        -7.82832         3.36092
| 62>    C       19.40056        -7.99352         1.92509
| 63>    C       18.14659        -7.61084         1.56137
| 64>    C       17.64751        -7.65311         0.25665
| 65>    N       17.26410        -7.70275        -0.82585
| 66>    C       20.68864        -8.15099         4.14288
| 67>    C       20.76969        -8.55749         5.45633
| 68>    N       22.05443        -8.83773         5.78980
| 69>    C       22.76335        -8.63415         4.72917
| 70>    N       21.99344        -8.22382         3.65913
| 71>    C       22.47841        -7.65342         2.47660
| 72>    O       22.00865        -6.67380         1.97136
| 73>    N       23.58005        -8.32182         1.95419
| 74>    C       24.43874        -7.79295         1.00539
| 75>    C       25.31339        -8.78151         0.69774
| 76>    N       25.01020        -9.91622         1.40253
| 77>    C       23.99127        -9.62886         2.13573
| 78>    H       -0.89895        -2.73176        -5.37721
| 79>    H        2.87812        -4.35514        -4.96313
| 80>    H       -2.35469        -0.28547        -1.97115
| 81>    H       -4.85520        -1.39482        -2.34670
| 82>    H       -2.04034        -4.12967        -3.64749
| 83>    H        0.96195        -3.05981        -0.62566
| 84>    H        6.33321        -4.07348        -0.75520
| 85>    H        5.06239        -3.63049         2.00493
| 86>    H        7.11690        -4.08574         5.10062
| 87>    H        5.65567        -4.22740         4.09519
| 88>    H        7.37648        -1.71345         4.43975
| 89>    H        5.78529        -1.98298         5.15817
| 90>    H        5.94422        -1.81402         3.40836
| 91>    H       10.32521        -5.51481        -2.03239
| 92>    H       11.57925        -6.25098        -1.01777
| 93>    H       11.31851        -3.29225        -1.79592
| 94>    H       12.55299        -4.41340        -2.37549
| 95>    H       12.55054        -3.89412        -0.68535
| 96>    H       11.62477        -5.17355         3.01155
| 97>    H       13.03833        -5.90454         0.38069
| 98>    H       15.46806        -6.70554         0.72023
| 99>    H       13.38003        -5.58484         4.34567
|100>    H       18.13733        -7.12719         4.87963
|101>    H       20.15253        -8.38191         1.26351
|102>    H       19.97450        -8.67644         6.16354
|103>    H       23.82988        -8.72425         4.67575
|104>    H       24.33466        -6.78202         0.67198
|105>    H       26.13928        -8.76691         0.01657
|106>    H       23.48800       -10.31670         2.78509
|107> *
|108>
|109>                          ****END OF INPUT****

CARTESIAN COORDINATES (ANGSTROEM)
---------------------------------
  C      0.022000   -3.062360   -4.940800
  N      0.971310   -3.659990   -5.578680
  C      1.973380   -3.853190   -4.685030
  C      1.633790   -3.334590   -3.456480
  N      0.343520   -2.835190   -3.615620
  C     -0.364070   -1.987830   -2.752840
  O      0.160780   -1.192510   -2.026440
  N     -1.740750   -2.143620   -2.841900
  C     -2.666750   -1.226740   -2.371810
  C     -3.884230   -1.789830   -2.564400
  N     -3.745750   -3.038570   -3.110610
  C     -2.483050   -3.230480   -3.268800
  C      2.383660   -3.372900   -2.238520
  S      4.089940   -3.690610   -2.335680
  C      4.261340   -3.645990   -0.607370
  C      3.024760   -3.393780   -0.007980
  C      1.974420   -3.246370   -0.933910
  C      2.798870   -3.299810    1.374520
  N      2.574150   -3.220340    2.497600
  C      5.541240   -3.866900   -0.045990
  C      5.835350   -3.841900    1.282490
  C      7.138950   -4.097710    1.766450
  N      7.478110   -4.072650    3.096680
  C      6.617270   -3.717910    4.200090
  C      6.417740   -2.208350    4.304550
  C      8.836630   -4.391280    3.302320
  O      9.363110   -4.436320    4.392950
  C      9.344150   -4.632210    1.968620
  C      8.291950   -4.443410    1.051480
  C      8.816270   -4.711270   -0.268730
  O      8.297510   -4.680030   -1.368350
  N     10.163200   -5.059880   -0.057920
  C     11.007880   -5.336880   -1.195710
  C     11.919230   -4.158860   -1.530580
  C     10.498710   -5.015920    1.278550
  C     11.709260   -5.312700    1.941300
  C     12.899440   -5.748350    1.439410
  C     14.032180   -6.042970    2.232880
  C     15.238470   -6.513570    1.750020
  C     16.138110   -6.711300    2.831400
  C     15.399190   -6.316390    4.047770
  C     14.152040   -5.925290    3.681380
  C     15.876900   -6.343430    5.363270
  N     16.237530   -6.353760    6.453790
  C     17.429690   -7.183260    2.774530
  C     18.345340   -7.359510    3.854570
  C     19.536880   -7.828320    3.360920
  C     19.400560   -7.993520    1.925090
  C     18.146590   -7.610840    1.561370
  C     17.647510   -7.653110    0.256650
  N     17.264100   -7.702750   -0.825850
  C     20.688640   -8.150990    4.142880
  C     20.769690   -8.557490    5.456330
  N     22.054430   -8.837730    5.789800
  C     22.763350   -8.634150    4.729170
  N     21.993440   -8.223820    3.659130
  C     22.478410   -7.653420    2.476600
  O     22.008650   -6.673800    1.971360
  N     23.580050   -8.321820    1.954190
  C     24.438740   -7.792950    1.005390
  C     25.313390   -8.781510    0.697740
  N     25.010200   -9.916220    1.402530
  C     23.991270   -9.628860    2.135730
  H     -0.898950   -2.731760   -5.377210
  H      2.878120   -4.355140   -4.963130
  H     -2.354690   -0.285470   -1.971150
  H     -4.855200   -1.394820   -2.346700
  H     -2.040340   -4.129670   -3.647490
  H      0.961950   -3.059810   -0.625660
  H      6.333210   -4.073480   -0.755200
  H      5.062390   -3.630490    2.004930
  H      7.116900   -4.085740    5.100620
  H      5.655670   -4.227400    4.095190
  H      7.376480   -1.713450    4.439750
  H      5.785290   -1.982980    5.158170
  H      5.944220   -1.814020    3.408360
  H     10.325210   -5.514810   -2.032390
  H     11.579250   -6.250980   -1.017770
  H     11.318510   -3.292250   -1.795920
  H     12.552990   -4.413400   -2.375490
  H     12.550540   -3.894120   -0.685350
  H     11.624770   -5.173550    3.011550
  H     13.038330   -5.904540    0.380690
  H     15.468060   -6.705540    0.720230
  H     13.380030   -5.584840    4.345670
  H     18.137330   -7.127190    4.879630
  H     20.152530   -8.381910    1.263510
  H     19.974500   -8.676440    6.163540
  H     23.829880   -8.724250    4.675750
  H     24.334660   -6.782020    0.671980
  H     26.139280   -8.766910    0.016570
  H     23.488000  -10.316700    2.785090

 Total Charge           Charge          ....    0
 Multiplicity           Mult            ....    1
 Number of Electrons    NEL             ....  438
 Basis Dimension        Dim             .... 1031

ORBITAL ENERGIES
----------------

  NO   OCC          E(Eh)            E(eV)
   0   2.0000     -88.987406     -2421.4704
   1   2.0000     -19.254491      -523.9413
   2   2.0000     -19.250347      -523.8286
   3   2.0000     -19.198803      -522.4260
   4   2.0000     -19.196463      -522.3623
   5   2.0000     -14.515424      -394.9848
   6   2.0000     -14.510985      -394.8640
   7   2.0000     -14.508210      -394.7885
   8   2.0000     -14.506951      -394.7542
   9   2.0000     -14.459441      -393.4614
  10   2.0000     -14.458912      -393.4470
  11   2.0000     -14.421374      -392.4255
  12   2.0000     -14.420816      -392.4103
  13   2.0000     -14.414570      -392.2404
  14   2.0000     -14.414019      -392.2254
  15   2.0000     -14.410666      -392.1342
  16   2.0000     -14.409435      -392.1007
  17   2.0000     -14.408383      -392.0720
  18   2.0000     -10.470186      -284.9082
  19   2.0000     -10.465268      -284.7744
  20   2.0000     -10.381276      -282.4889
  21   2.0000     -10.379316      -282.4355
  22   2.0000     -10.359959      -281.9088
  23   2.0000     -10.353942      -281.7451
  24   2.0000     -10.353478      -281.7325
  25   2.0000     -10.350120      -281.6411
  26   2.0000     -10.349455      -281.6230
  27   2.0000     -10.345728      -281.5216
  28   2.0000     -10.342225      -281.4263
  29   2.0000     -10.338781      -281.3325
  30   2.0000     -10.338646      -281.3289
  31   2.0000     -10.332472      -281.1609
  32   2.0000     -10.329241      -281.0729
  33   2.0000     -10.323410      -280.9143
  34   2.0000     -10.322570      -280.8914
  35   2.0000     -10.322269      -280.8832
  36   2.0000     -10.321678      -280.8671
  37   2.0000     -10.318529      -280.7814
  38   2.0000     -10.317817      -280.7621
  39   2.0000     -10.315400      -280.6963
  40   2.0000     -10.314319      -280.6669
  41   2.0000     -10.311268      -280.5839
  42   2.0000     -10.310988      -280.5762
  43   2.0000     -10.310940      -280.5750
  44   2.0000     -10.310305      -280.5577
  45   2.0000     -10.310036      -280.5504
  46   2.0000     -10.309784      -280.5435
  47   2.0000     -10.309485      -280.5354
  48   2.0000     -10.309028      -280.5229
  49   2.0000     -10.308779      -280.5161
  50   2.0000     -10.307222      -280.4738
  51   2.0000     -10.305670      -280.4315
  52   2.0000     -10.304308      -280.3945
  53   2.0000     -10.302697      -280.3506
  54   2.0000     -10.301861      -280.3279
  55   2.0000     -10.301767      -280.3253
  56   2.0000     -10.301022      -280.3051
  57   2.0000     -10.284790      -279.8634
  58   2.0000     -10.284297      -279.8500
  59   2.0000     -10.271041      -279.4892
  60   2.0000     -10.267535      -279.3938
  61   2.0000     -10.265515      -279.3389
  62   2.0000     -10.262650      -279.2609
  63   2.0000      -8.082864      -219.9459
  64   2.0000      -6.052106      -164.6862
  65   2.0000      -6.047913      -164.5721
  66   2.0000      -6.045044      -164.4940
  67   2.0000      -1.214434       -33.0464
  68   2.0000      -1.209862       -32.9220
  69   2.0000      -1.144451       -31.1421
  70   2.0000      -1.139808       -31.0158
  71   2.0000      -1.138524       -30.9808
  72   2.0000      -1.137537       -30.9540
  73   2.0000      -1.134513       -30.8717
  74   2.0000      -1.133031       -30.8313
  75   2.0000      -1.069893       -29.1133
  76   2.0000      -1.060047       -28.8453
  77   2.0000      -1.025435       -27.9035
  78   2.0000      -1.024409       -27.8756
  79   2.0000      -1.019317       -27.7370
  80   2.0000      -1.016684       -27.6654
  81   2.0000      -1.001271       -27.2460
  82   2.0000      -1.000849       -27.2345
  83   2.0000      -0.994948       -27.0739
  84   2.0000      -0.991534       -26.9810
  85   2.0000      -0.985809       -26.8252
  86   2.0000      -0.981020       -26.6949
  87   2.0000      -0.935773       -25.4637
  88   2.0000      -0.928744       -25.2724
  89   2.0000      -0.917067       -24.9547
  90   2.0000      -0.902020       -24.5452
  91   2.0000      -0.897068       -24.4105
  92   2.0000      -0.879000       -23.9188
  93   2.0000      -0.874882       -23.8067
  94   2.0000      -0.863789       -23.5049
  95   2.0000      -0.863410       -23.4946
  96   2.0000      -0.859043       -23.3757
  97   2.0000      -0.852059       -23.1857
  98   2.0000      -0.843739       -22.9593
  99   2.0000      -0.834861       -22.7177
 100   2.0000      -0.823622       -22.4119
 101   2.0000      -0.808025       -21.9875
 102   2.0000      -0.804010       -21.8782
 103   2.0000      -0.798784       -21.7360
 104   2.0000      -0.790560       -21.5122
 105   2.0000      -0.770279       -20.9604
 106   2.0000      -0.763364       -20.7722
 107   2.0000      -0.754361       -20.5272
 108   2.0000      -0.748052       -20.3555
 109   2.0000      -0.736466       -20.0403
 110   2.0000      -0.730716       -19.8838
 111   2.0000      -0.726163       -19.7599
 112   2.0000      -0.723907       -19.6985
 113   2.0000      -0.718368       -19.5478
 114   2.0000      -0.714931       -19.4543
 115   2.0000      -0.709555       -19.3080
 116   2.0000      -0.702983       -19.1291
 117   2.0000      -0.700209       -19.0537
 118   2.0000      -0.695356       -18.9216
 119   2.0000      -0.690485       -18.7890
 120   2.0000      -0.679749       -18.4969
 121   2.0000      -0.674925       -18.3656
 122   2.0000      -0.673802       -18.3351
 123   2.0000      -0.669595       -18.2206
 124   2.0000      -0.655427       -17.8351
 125   2.0000      -0.650349       -17.6969
 126   2.0000      -0.639971       -17.4145
 127   2.0000      -0.635693       -17.2981
 128   2.0000      -0.623205       -16.9583
 129   2.0000      -0.615176       -16.7398
 130   2.0000      -0.606695       -16.5090
 131   2.0000      -0.602333       -16.3903
 132   2.0000      -0.599837       -16.3224
 133   2.0000      -0.594990       -16.1905
 134   2.0000      -0.590966       -16.0810
 135   2.0000      -0.583717       -15.8838
 136   2.0000      -0.582384       -15.8475
 137   2.0000      -0.580901       -15.8071
 138   2.0000      -0.577322       -15.7097
 139   2.0000      -0.570864       -15.5340
 140   2.0000      -0.562394       -15.3035
 141   2.0000      -0.560477       -15.2514
 142   2.0000      -0.554594       -15.0913
 143   2.0000      -0.553796       -15.0695
 144   2.0000      -0.553019       -15.0484
 145   2.0000      -0.551798       -15.0152
 146   2.0000      -0.547158       -14.8889
 147   2.0000      -0.545134       -14.8339
 148   2.0000      -0.542439       -14.7605
 149   2.0000      -0.538259       -14.6468
 150   2.0000      -0.535878       -14.5820
 151   2.0000      -0.534715       -14.5503
 152   2.0000      -0.534017       -14.5313
 153   2.0000      -0.529869       -14.4185
 154   2.0000      -0.527753       -14.3609
 155   2.0000      -0.525909       -14.3107
 156   2.0000      -0.521796       -14.1988
 157   2.0000      -0.520553       -14.1650
 158   2.0000      -0.520016       -14.1503
 159   2.0000      -0.519151       -14.1268
 160   2.0000      -0.516306       -14.0494
 161   2.0000      -0.512512       -13.9462
 162   2.0000      -0.511861       -13.9284
 163   2.0000      -0.509398       -13.8614
 164   2.0000      -0.506850       -13.7921
 165   2.0000      -0.503181       -13.6922
 166   2.0000      -0.502097       -13.6628
 167   2.0000      -0.499560       -13.5937
 168   2.0000      -0.498213       -13.5571
 169   2.0000      -0.490373       -13.3437
 170   2.0000      -0.487423       -13.2634
 171   2.0000      -0.483727       -13.1629
 172   2.0000      -0.479354       -13.0439
 173   2.0000      -0.478202       -13.0125
 174   2.0000      -0.472319       -12.8524
 175   2.0000      -0.468048       -12.7362
 176   2.0000      -0.464762       -12.6468
 177   2.0000      -0.456654       -12.4262
 178   2.0000      -0.455772       -12.4022
 179   2.0000      -0.452960       -12.3257
 180   2.0000      -0.451623       -12.2893
 181   2.0000      -0.450047       -12.2464
 182   2.0000      -0.449094       -12.2205
 183   2.0000      -0.446367       -12.1463
 184   2.0000      -0.443888       -12.0788
 185   2.0000      -0.439659       -11.9637
 186   2.0000      -0.438091       -11.9211
 187   2.0000      -0.435531       -11.8514
 188   2.0000      -0.431032       -11.7290
 189   2.0000      -0.429614       -11.6904
 190   2.0000      -0.426074       -11.5941
 191   2.0000      -0.423090       -11.5129
 192   2.0000      -0.419020       -11.4021
 193   2.0000      -0.416210       -11.3257
 194   2.0000      -0.415852       -11.3159
 195   2.0000      -0.402290       -10.9469
 196   2.0000      -0.398050       -10.8315
 197   2.0000      -0.393651       -10.7118
 198   2.0000      -0.390207       -10.6181
 199   2.0000      -0.388444       -10.5701
 200   2.0000      -0.384878       -10.4731
 201   2.0000      -0.380622       -10.3572
 202   2.0000      -0.373825       -10.1723
 203   2.0000      -0.366814        -9.9815
 204   2.0000      -0.365327        -9.9410
 205   2.0000      -0.361098        -9.8260
 206   2.0000      -0.355055        -9.6615
 207   2.0000      -0.351945        -9.5769
 208   2.0000      -0.349155        -9.5010
 209   2.0000      -0.344555        -9.3758
 210   2.0000      -0.338655        -9.2153
 211   2.0000      -0.332893        -9.0585
 212   2.0000      -0.329063        -8.9543
 213   2.0000      -0.325161        -8.8481
 214   2.0000      -0.322166        -8.7666
 215   2.0000      -0.305481        -8.3126
 216   2.0000      -0.292794        -7.9673
 217   2.0000      -0.284078        -7.7302
 218   2.0000      -0.237681        -6.4676
 219   0.0000      -0.127388        -3.4664
 220   0.0000      -0.091207        -2.4819
 221   0.0000      -0.047663        -1.2970
 222   0.0000      -0.036470        -0.9924
 223   0.0000      -0.034766        -0.9460

MULLIKEN ATOMIC CHARGES
-----------------------
   0 C :    0.092135
   1 N :   -0.078936
   2 C :   -0.039433
   3 C :    0.146809
   4 N :   -0.205010
   5 C :    0.230061
   6 O :   -0.140735
   7 N :   -0.191945
   8 C :    0.083016
   9 C :    0.022422
  10 N :   -0.108827
  11 C :    0.084629
  12 C :   -0.068415
  13 S :    0.186761
  14 C :   -0.064992
  15 C :   -0.081422
  16 C :    0.024720
  17 C :   -0.170262
  18 N :    0.119807
  19 C :    0.069570
  20 C :   -0.042848
  21 C :    0.145294
  22 N :   -0.262067
  23 C :    0.097283
  24 C :    0.006468
  25 C :    0.153087
  26 O :   -0.186882
  27 C :   -0.035488
  28 C :   -0.065143
  29 C :    0.166571
  30 O :   -0.220191
  31 N :   -0.264534
  32 C :    0.101456
  33 C :    0.000889
  34 C :    0.122850
  35 C :   -0.039330
  36 C :    0.006543
  37 C :    0.110284
  38 C :   -0.117621
  39 C :    0.125546
  40 C :   -0.100343
  41 C :   -0.003377
  42 C :   -0.171415
  43 N :    0.134584
  44 C :    0.116241
  45 C :   -0.120921
  46 C :    0.121527
  47 C :    0.009504
  48 C :   -0.113503
  49 C :   -0.174278
  50 N :    0.126774
  51 C :    0.094867
  52 C :   -0.021388
  53 N :   -0.082275
  54 C :    0.090928
  55 N :   -0.201450
  56 C :    0.224917
  57 O :   -0.139399
  58 N :   -0.191128
  59 C :    0.081025
  60 C :    0.021272
  61 N :   -0.111035
  62 C :    0.082690
  63 H :    0.049379
  64 H :    0.010592
  65 H :    0.032449
  66 H :    0.015844
  67 H :    0.046890
  68 H :    0.000194
  69 H :    0.006667
  70 H :   -0.012481
  71 H :    0.042652
  72 H :    0.036589
  73 H :    0.025604
  74 H :    0.029784
  75 H :    0.018179
  76 H :    0.043976
  77 H :    0.027884
  78 H :    0.025979
  79 H :    0.027137
  80 H :    0.022377
  81 H :    0.005545
  82 H :   -0.014295
  83 H :   -0.000095
  84 H :    0.015414
  85 H :    0.002513
  86 H :   -0.000697
  87 H :    0.010814
  88 H :    0.049282
  89 H :    0.032916
  90 H :    0.015995
  91 H :    0.046979
Sum of atomic charges:   -0.0000000

LOEWDIN ATOMIC CHARGES
----------------------
   0 C :    0.039112
   1 N :   -0.080790
   2 C :   -0.017811
   3 C :   -0.031063
   4 N :    0.020978
   5 C :    0.115429
   6 O :   -0.125080
   7 N :    0.023693
   8 C :   -0.001476
   9 C :   -0.018818
  10 N :   -0.087413
  11 C :    0.026779
  12 C :   -0.166035
  13 S :    0.494972
  14 C :   -0.144692
  15 C :   -0.096948
  16 C :   -0.023163
  17 C :   -0.024500
  18 N :   -0.057256
  19 C :    0.007934
  20 C :   -0.036738
  21 C :    0.087103
  22 N :   -0.000032
  23 C :    0.037144
  24 C :   -0.058822
  25 C :    0.081526
  26 O :   -0.187651
  27 C :   -0.099270
  28 C :   -0.126567
  29 C :    0.080905
  30 O :   -0.206159
  31 N :   -0.001038
  32 C :    0.035512
  33 C :   -0.062265
  34 C :    0.061110
  35 C :   -0.017627
  36 C :   -0.007250
  37 C :   -0.012703
  38 C :   -0.026460
  39 C :    0.037762
  40 C :   -0.075486
  41 C :    0.056814
  42 C :   -0.029343
  43 N :   -0.060718
  44 C :    0.034126
  45 C :   -0.021022
  46 C :   -0.020201
  47 C :    0.050510
  48 C :   -0.082553
  49 C :   -0.028489
  50 N :   -0.068613
  51 C :   -0.011802
  52 C :   -0.001179
  53 N :   -0.081559
  54 C :    0.037634
  55 N :    0.020622
  56 C :    0.114649
  57 O :   -0.124891
  58 N :    0.024049
  59 C :   -0.002360
  60 C :   -0.020199
  61 N :   -0.088713
  62 C :    0.025349
  63 H :    0.027326
  64 H :    0.025317
  65 H :    0.035171
  66 H :    0.027344
  67 H :    0.025159
  68 H :    0.036972
  69 H :    0.037793
  70 H :    0.036193
  71 H :    0.038086
  72 H :    0.028300
  73 H :    0.030292
  74 H :    0.034206
  75 H :    0.023290
  76 H :    0.037757
  77 H :    0.022268
  78 H :    0.031935
  79 H :    0.032879
  80 H :    0.022706
  81 H :    0.044970
  82 H :    0.035055
  83 H :    0.034512
  84 H :    0.041073
  85 H :    0.035214
  86 H :    0.032733
  87 H :    0.030592
  88 H :    0.026690
  89 H :    0.035160
  90 H :    0.027019
  91 H :    0.025033

  Mayer bond orders larger than 0.100000
B(  0-C ,  1-N ) :   1.7418 B(  0-C ,  4-N ) :   1.0831 B(  0-C , 63-H ) :   0.9732
B(  1-N ,  2-C ) :   1.3722 B(  2-C ,  3-C ) :   1.5345 B(  2-C , 64-H ) :   0.9971
B(  3-C ,  4-N ) :   1.1108 B(  3-C , 12-C ) :   1.0475 B(  4-N ,  5-C ) :   0.9669
B(  5-C ,  6-O ) :   2.1974 B(  5-C ,  7-N ) :   1.0127 B(  7-N ,  8-C ) :   1.0927
B(  7-N , 11-C ) :   1.0822 B(  8-C ,  9-C ) :   1.5909 B(  8-C , 65-H ) :   0.9947
B(  9-C , 10-N ) :   1.3154 B(  9-C , 66-H ) :   1.0006 B( 10-N , 11-C ) :   1.7726
B( 11-C , 67-H ) :   0.9751 B( 12-C , 13-S ) :   1.1490 B( 12-C , 16-C ) :   1.4934
B( 13-S , 14-C ) :   1.1405 B( 14-C , 15-C ) :   1.4355 B( 14-C , 19-C ) :   1.1610
B( 15-C , 16-C ) :   1.2917 B( 15-C , 17-C ) :   1.1193 B( 16-C , 68-H ) :   1.0009
B( 17-C , 18-N ) :   2.9655 B( 19-C , 20-C ) :   1.6029 B( 19-C , 69-H ) :   0.9179
B( 20-C , 21-C ) :   1.1800 B( 20-C , 70-H ) :   0.9493 B( 21-C , 22-N ) :   1.1788
B( 21-C , 28-C ) :   1.2989 B( 22-N , 23-C ) :   0.9368 B( 22-N , 25-C ) :   1.0344
B( 23-C , 24-C ) :   1.1221 B( 23-C , 71-H ) :   0.9279 B( 23-C , 72-H ) :   0.9480
B( 24-C , 73-H ) :   0.9638 B( 24-C , 74-H ) :   0.9680 B( 24-C , 75-H ) :   0.9680
B( 25-C , 26-O ) :   2.1302 B( 25-C , 27-C ) :   0.9706 B( 27-C , 28-C ) :   1.2649
B( 27-C , 34-C ) :   1.3332 B( 28-C , 29-C ) :   0.9928 B( 29-C , 30-O ) :   2.0030
B( 29-C , 31-N ) :   1.0704 B( 30-O , 69-H ) :   0.1202 B( 31-N , 32-C ) :   0.9409
B( 31-N , 34-C ) :   1.1578 B( 32-C , 33-C ) :   1.1163 B( 32-C , 76-H ) :   0.9235
B( 32-C , 77-H ) :   0.9508 B( 33-C , 78-H ) :   0.9615 B( 33-C , 79-H ) :   0.9686
B( 33-C , 80-H ) :   0.9687 B( 34-C , 35-C ) :   1.1931 B( 35-C , 36-C ) :   1.5221
B( 35-C , 81-H ) :   0.9492 B( 36-C , 37-C ) :   1.1380 B( 36-C , 82-H ) :   0.9819
B( 37-C , 38-C ) :   1.4936 B( 37-C , 41-C ) :   1.0402 B( 38-C , 39-C ) :   1.1261
B( 38-C , 83-H ) :   1.0083 B( 39-C , 40-C ) :   1.1007 B( 39-C , 44-C ) :   1.3973
B( 40-C , 41-C ) :   1.6882 B( 40-C , 42-C ) :   1.0907 B( 41-C , 84-H ) :   1.0146
B( 42-C , 43-N ) :   2.9663 B( 44-C , 45-C ) :   1.1101 B( 44-C , 48-C ) :   1.1136
B( 45-C , 46-C ) :   1.5947 B( 45-C , 85-H ) :   1.0061 B( 46-C , 47-C ) :   1.0498
B( 46-C , 51-C ) :   0.9801 B( 47-C , 48-C ) :   1.6675 B( 47-C , 86-H ) :   1.0117
B( 48-C , 49-C ) :   1.0905 B( 49-C , 50-N ) :   2.9580 B( 51-C , 52-C ) :   1.5395
B( 51-C , 54-C ) :   0.1014 B( 51-C , 55-N ) :   1.0994 B( 52-C , 53-N ) :   1.3706
B( 52-C , 87-H ) :   1.0022 B( 53-N , 54-C ) :   1.7343 B( 54-C , 55-N ) :   1.0856
B( 54-C , 88-H ) :   0.9732 B( 55-N , 56-C ) :   0.9742 B( 56-C , 57-O ) :   2.1956
B( 56-C , 58-N ) :   1.0083 B( 58-N , 59-C ) :   1.0957 B( 58-N , 62-C ) :   1.0859
B( 59-C , 60-C ) :   1.5905 B( 59-C , 89-H ) :   0.9942 B( 60-C , 61-N ) :   1.3169
B( 60-C , 90-H ) :   1.0001 B( 61-N , 62-C ) :   1.7702 B( 62-C , 91-H ) :   0.9751

-----------------------------------------------------------------------------
         ABSORPTION SPECTRUM VIA TRANSITION ELECTRIC DIPOLE MOMENTS
-----------------------------------------------------------------------------
State   Energy  Wavelength   fosc         T2         TX        TY        TZ
        (cm-1)    (nm)                  (au**2)     (au)      (au)      (au)
-----------------------------------------------------------------------------
   0   10557.5    947.2   0.973764323  30.36478   5.26048  -1.53811   0.57123
   1   16775.7    596.1   0.011175387   0.21931  -0.37058  -0.09913  -0.26861
   2   17036.9    587.0   0.256664332   4.95963  -2.14946   0.50140  -0.29670
   3   20206.0    494.9   0.002559533   0.04170  -0.08250   0.04451   0.18143
   4   24152.3    414.0   0.387114865   5.27664  -1.87394   0.29596  -1.29514
   5   25117.3    398.1   0.046670170   0.61171   0.44383  -0.01532   0.64380
   6   26134.1    382.6   0.622993065   7.84786   2.61558  -0.91693   0.40726
   7   27466.5    364.1   0.023120736   0.27712  -0.06184  -0.12664  -0.50721
   8   27640.4    361.8   0.144597322   1.72223  -0.18077  -0.12474  -1.29383
   9   29787.6    335.7   0.005789309   0.06398  -0.22067   0.12365  -0.00052
  10   30076.9    332.5   0.153797180   1.68341   0.87902  -0.14381   0.94343
  11   30418.2    328.8   0.085073651   0.92074   0.72774  -0.07739   0.62060
  12   30812.5    324.5   0.009782761   0.10452   0.18936  -0.02539   0.26081
  13   31457.7    317.9   0.012496906   0.13078  -0.23121   0.12252   0.24962
  14   31737.7    315.1   0.051395215   0.53312   0.59972  -0.27385  -0.31378
  15   32554.8    307.2   0.022909141   0.23167   0.44055  -0.19136  -0.03105
  16   32849.7    304.4   0.089331589   0.89526   0.63953  -0.15325   0.68028
  17   32922.5    303.7   0.046886195   0.46884   0.28268  -0.14460  -0.60665
  18   35206.7    284.0   0.001057308   0.00989  -0.03512   0.03311  -0.08693
  19   35691.8    280.2   0.004135678   0.03815  -0.09832   0.05306  -0.16020
  20   35803.9    279.3   0.065683186   0.60395   0.43621  -0.14789  -0.62594
  21   36093.5    277.1   0.171566677   1.56488  -0.92767   0.22420  -0.80872
  22   36431.2    274.5   0.019307009   0.17447   0.28986  -0.13650   0.26798
  23   36807.3    271.7   0.020475023   0.18313  -0.27871   0.10640  -0.30681
  24   37058.9    269.8   0.254295783   2.25903  -1.14505   0.22935  -0.94620
  25   37319.5    268.0   0.000690652   0.00609  -0.05033   0.05223  -0.02884
  26   37365.7    267.6   0.007638520   0.06730   0.22152   0.06041   0.12074
  27   38254.4    261.4   0.086251844   0.74227  -0.66845   0.13052  -0.52765
  28   38439.8    260.1   0.006814303   0.05836   0.21990  -0.08115  -0.05847
  29   38601.2    259.1   0.024517936   0.20910   0.21191   0.05688   0.40120
  30   39101.6    255.7   0.002524551   0.02126   0.04022  -0.01374  -0.13946
  31   39612.3    252.4   0.100970425   0.83915  -0.46115   0.19857   0.76620
  32   40218.8    248.6   0.022761931   0.18632  -0.40008   0.11523  -0.11391

FINAL SINGLE POINT ENERGY     -3139.490270437152

DIPOLE MOMENT
-------------
                                X             Y             Z
Electronic contribution:      2.06595      -7.36316      -3.42677
Nuclear contribution   :     -3.15095       8.30559       1.87408
                        -----------------------------------------
Total Dipole Moment    :     -1.08500       0.94244      -1.55269
                        -----------------------------------------
Magnitude (a.u.)       :      2.11572
Magnitude (Debye)      :      5.37773

Rotational constants in cm-1:     0.004085     0.000244     0.000232
Rotational constants in MHz :   122.453712     7.312227     6.958459

                             ****ORCA TERMINATED NORMALLY****
TOTAL RUN TIME: 0 days 0 hours 7 minutes 35 seconds 435 msec
