                         Program Version 4.2.0 -  RELEASE  -
|  1> # ORCA input file
|  2> # SCF done       -188.082117897024          0.000886926911
|  3> ! CAM-B3LYP def2-SVP def2/J RIJCOSX Grid4 TightSCF
|  4> %maxcore 5000
|  5> %tddft
|  6>     Mode sTDDFT
|  7>     Ethresh 5.0
|  8>     maxcore 5000
|  9> end
| 10>
| 11> %pal
| 12>   nprocs 6
| 13>   end
| 14> * xyz 0 1
| 15>    C        2.84948        -0.54990        -8.39384
| 16>    O        3.23531        -0.50928        -9.52772
| 17>    N        1.58944        -1.01839        -8.04264
| 18>    C        0.79415        -1.80510        -8.85319
| 19>    N       -0.32932        -2.09158        -8.29471
| 20>    C       -0.32028        -1.47092        -7.07430
| 21>    C        0.84877        -0.80818        -6.89103
| 22>    N        3.62074        -0.09700        -7.31471
| 23>    C        4.38073         1.05019        -7.35688
| 24>    C        4.91361         1.20048        -6.11019
| 25>    N        4.54171         0.17194        -5.31367
| 26>    C        3.77940        -0.61267        -6.02996
| 27>    C        3.26897        -1.87319        -5.58337
| 28>    C        3.01933        -2.21354        -4.27760
| 29>    C        2.50097        -3.54129        -4.24344
| 30>    C        2.51559        -4.02925        -5.63509
| 31>    C        2.98465        -3.02477        -6.42299
| 32>    C        2.24748        -5.33165        -6.06817
| 33>    N        2.07704        -6.40437        -6.44531
| 34>    C        2.08135        -4.27442        -3.15882
| 35>    C        1.48370        -5.55824        -3.21537
| 36>    C        1.45209        -6.10921        -1.95116
| 37>    C        1.96642        -5.10766        -1.02488
| 38>    C        2.30448        -3.99456        -1.72931
| 39>    C        2.80201        -2.80501        -1.18567
| 40>    N        3.18591        -1.83242        -0.71098
| 41>    C        1.07566        -7.46579        -1.76310
| 42>    N        1.42762        -8.31190        -0.74530
| 43>    C        2.21210        -8.00499         0.42820
| 44>    C        3.68101        -7.77481         0.08837
| 45>    C        1.10715        -9.65567        -1.04482
| 46>    O        1.35342       -10.58372        -0.30888
| 47>    C        0.43428        -9.58323        -2.32618
| 48>    C        0.39925        -8.22920        -2.72319
| 49>    C       -0.28575        -8.16030        -3.99606
| 50>    O       -0.64596        -7.23414        -4.68890
| 51>    N       -0.52999        -9.51171        -4.33455
| 52>    C       -1.37545        -9.83267        -5.45786
| 53>    C       -2.69708       -10.45187        -5.01416
| 54>    C       -0.05761       -10.36354        -3.37090
| 55>    C       -0.01991       -11.78725        -3.43762
| 56>    C        0.24285       -12.56227        -4.51541
| 57>    C        0.76023       -12.18171        -5.79701
| 58>    C        1.61788       -11.07847        -6.04719
| 59>    C        2.15022       -10.81074        -7.36229
| 60>    N        3.00687        -9.79169        -7.55004
| 61>    C        3.33166        -9.03488        -6.54176
| 62>    C        2.81152        -9.30284        -5.22759
| 63>    N        1.99106       -10.30049        -5.01863
| 64>    C        3.23567        -8.51649        -4.13108
| 65>    N        3.60434        -7.86820        -3.26044
| 66>    C        4.28633        -7.99784        -6.71485
| 67>    N        5.10264        -7.19852        -6.79319
| 68>    C        1.84191       -11.62727        -8.46432
| 69>    C        1.02474       -12.73865        -8.21890
| 70>    C        0.51523       -13.02379        -6.90204
| 71>    N       -0.24235       -14.12508        -6.89583
| 72>    S       -0.30619       -14.73064        -8.37401
| 73>    N        0.60279       -13.63734        -9.11851
| 74>    C        2.30856       -11.32831        -9.79202
| 75>    N        2.41436       -10.14875       -10.33850
| 76>    C        2.78101       -10.34789       -11.62589
| 77>    C        2.88055       -11.68320       -11.89111
| 78>    N        2.57494       -12.32928       -10.71479
| 79>    C        2.74601       -13.69379       -10.43464
| 80>    O        3.34085       -14.09649        -9.47414
| 81>    N        2.21495       -14.53024       -11.40616
| 82>    C        1.24456       -14.26680       -12.35032
| 83>    N        0.91236       -15.32612       -13.00479
| 84>    C        1.67312       -16.34708       -12.49880
| 85>    C        2.47000       -15.88638       -11.50368
| 86>    H        1.12123        -2.12964        -9.82014
| 87>    H       -1.16102        -1.54768        -6.41534
| 88>    H        1.19247        -0.19206        -6.08696
| 89>    H        4.43824         1.64304        -8.24587
| 90>    H        5.54762         1.98008        -5.73966
| 91>    H        3.14275        -1.57081        -3.42865
| 92>    H        3.18060        -3.09401        -7.47782
| 93>    H        1.14166        -6.02563        -4.11389
| 94>    H        2.03426        -5.20679         0.04160
| 95>    H        2.11793        -8.87760         1.08161
| 96>    H        1.77950        -7.14205         0.93974
| 97>    H        4.10210        -8.67289        -0.35609
| 98>    H        4.23529        -7.53797         0.99253
| 99>    H        3.79711        -6.96087        -0.62249
|100>    H       -0.86083       -10.50571        -6.14989
|101>    H       -1.55361        -8.88046        -5.96773
|102>    H       -2.52978       -11.40439        -4.51595
|103>    H       -3.32999       -10.61846        -5.88095
|104>    H       -3.21449        -9.78391        -4.32973
|105>    H       -0.18411       -12.27636        -2.48535
|106>    H        0.08885       -13.62985        -4.41950
|107>    H        2.94192        -9.51859       -12.28444
|108>    H        3.17214       -12.21548       -12.77324
|109>    H        0.81004       -13.29740       -12.48659
|110>    H        1.58457       -17.33922       -12.89201
|111>    H        3.19159       -16.35873       -10.87097
|112> *
|113>
|114>                          ****END OF INPUT****

CARTESIAN COORDINATES (ANGSTROEM)
---------------------------------
  C      2.849480   -0.549900   -8.393840
  O      3.235310   -0.509280   -9.527720
  N      1.589440   -1.018390   -8.042640
  C      0.794150   -1.805100   -8.853190
  N     -0.329320   -2.091580   -8.294710
  C     -0.320280   -1.470920   -7.074300
  C      0.848770   -0.808180   -6.891030
  N      3.620740   -0.097000   -7.314710
  C      4.380730    1.050190   -7.356880
  C      4.913610    1.200480   -6.110190
  N      4.541710    0.171940   -5.313670
  C      3.779400   -0.612670   -6.029960
  C      3.268970   -1.873190   -5.583370
  C      3.019330   -2.213540   -4.277600
  C      2.500970   -3.541290   -4.243440
  C      2.515590   -4.029250   -5.635090
  C      2.984650   -3.024770   -6.422990
  C      2.247480   -5.331650   -6.068170
  N      2.077040   -6.404370   -6.445310
  C      2.081350   -4.274420   -3.158820
  C      1.483700   -5.558240   -3.215370
  C      1.452090   -6.109210   -1.951160
  C      1.966420   -5.107660   -1.024880
  C      2.304480   -3.994560   -1.729310
  C      2.802010   -2.805010   -1.185670
  N      3.185910   -1.832420   -0.710980
  C      1.075660   -7.465790   -1.763100
  N      1.427620   -8.311900   -0.745300
  C      2.212100   -8.004990    0.428200
  C      3.681010   -7.774810    0.088370
  C      1.107150   -9.655670   -1.044820
  O      1.353420  -10.583720   -0.308880
  C      0.434280   -9.583230   -2.326180
  C      0.399250   -8.229200   -2.723190
  C     -0.285750   -8.160300   -3.996060
  O     -0.645960   -7.234140   -4.688900
  N     -0.529990   -9.511710   -4.334550
  C     -1.375450   -9.832670   -5.457860
  C     -2.697080  -10.451870   -5.014160
  C     -0.057610  -10.363540   -3.370900
  C     -0.019910  -11.787250   -3.437620
  C      0.242850  -12.562270   -4.515410
  C      0.760230  -12.181710   -5.797010
  C      1.617880  -11.078470   -6.047190
  C      2.150220  -10.810740   -7.362290
  N      3.006870   -9.791690   -7.550040
  C      3.331660   -9.034880   -6.541760
  C      2.811520   -9.302840   -5.227590
  N      1.991060  -10.300490   -5.018630
  C      3.235670   -8.516490   -4.131080
  N      3.604340   -7.868200   -3.260440
  C      4.286330   -7.997840   -6.714850
  N      5.102640   -7.198520   -6.793190
  C      1.841910  -11.627270   -8.464320
  C      1.024740  -12.738650   -8.218900
  C      0.515230  -13.023790   -6.902040
  N     -0.242350  -14.125080   -6.895830
  S     -0.306190  -14.730640   -8.374010
  N      0.602790  -13.637340   -9.118510
  C      2.308560  -11.328310   -9.792020
  N      2.414360  -10.148750  -10.338500
  C      2.781010  -10.347890  -11.625890
  C      2.880550  -11.683200  -11.891110
  N      2.574940  -12.329280  -10.714790
  C      2.746010  -13.693790  -10.434640
  O      3.340850  -14.096490   -9.474140
  N      2.214950  -14.530240  -11.406160
  C      1.244560  -14.266800  -12.350320
  N      0.912360  -15.326120  -13.004790
  C      1.673120  -16.347080  -12.498800
  C      2.470000  -15.886380  -11.503680
  H      1.121230   -2.129640   -9.820140
  H     -1.161020   -1.547680   -6.415340
  H      1.192470   -0.192060   -6.086960
  H      4.438240    1.643040   -8.245870
  H      5.547620    1.980080   -5.739660
  H      3.142750   -1.570810   -3.428650
  H      3.180600   -3.094010   -7.477820
  H      1.141660   -6.025630   -4.113890
  H      2.034260   -5.206790    0.041600
  H      2.117930   -8.877600    1.081610
  H      1.779500   -7.142050    0.939740
  H      4.102100   -8.672890   -0.356090
  H      4.235290   -7.537970    0.992530
  H      3.797110   -6.960870   -0.622490
  H     -0.860830  -10.505710   -6.149890
  H     -1.553610   -8.880460   -5.967730
  H     -2.529780  -11.404390   -4.515950
  H     -3.329990  -10.618460   -5.880950
  H     -3.214490   -9.783910   -4.329730
  H     -0.184110  -12.276360   -2.485350
  H      0.088850  -13.629850   -4.419500
  H      2.941920   -9.518590  -12.284440
  H      3.172140  -12.215480  -12.773240
  H      0.810040  -13.297400  -12.486590
  H      1.584570  -17.339220  -12.892010
  H      3.191590  -16.358730  -10.870970

 Total Charge           Charge          ....    0
 Multiplicity           Mult            ....    1
 Number of Electrons    NEL             ....  488
 Basis Dimension        Dim             .... 1128

ORBITAL ENERGIES
----------------

  NO   OCC          E(Eh)            E(eV)
   0   2.0000     -89.057148     -2423.3682
   1   2.0000     -19.247184      -523.7425
   2   2.0000     -19.239917      -523.5447
   3   2.0000     -19.195388      -522.3331
   4   2.0000     -19.192554      -522.2559
   5   2.0000     -14.504432      -394.6857
   6   2.0000     -14.501735      -394.6123
   7   2.0000     -14.498030      -394.5114
   8   2.0000     -14.496913      -394.4811
   9   2.0000     -14.464242      -393.5920
  10   2.0000     -14.463436      -393.5701
  11   2.0000     -14.460232      -393.4829
  12   2.0000     -14.457238      -393.4014
  13   2.0000     -14.455786      -393.3619
  14   2.0000     -14.450461      -393.2170
  15   2.0000     -14.432810      -392.7367
  16   2.0000     -14.417039      -392.3076
  17   2.0000     -14.411794      -392.1649
  18   2.0000     -14.410232      -392.1223
  19   2.0000     -14.406805      -392.0291
  20   2.0000     -14.405535      -391.9945
  21   2.0000     -14.404483      -391.9659
  22   2.0000     -14.404451      -391.9650
  23   2.0000     -10.461818      -284.6806
  24   2.0000     -10.457864      -284.5729
  25   2.0000     -10.378320      -282.4084
  26   2.0000     -10.377631      -282.3897
  27   2.0000     -10.376640      -282.3627
  28   2.0000     -10.376196      -282.3507
  29   2.0000     -10.356072      -281.8030
  30   2.0000     -10.352610      -281.7088
  31   2.0000     -10.351802      -281.6869
  32   2.0000     -10.351403      -281.6760
  33   2.0000     -10.350954      -281.6638
  34   2.0000     -10.349944      -281.6363
  35   2.0000     -10.347711      -281.5755
  36   2.0000     -10.343304      -281.4556
  37   2.0000     -10.341642      -281.4104
  38   2.0000     -10.340538      -281.3803
  39   2.0000     -10.327613      -281.0286
  40   2.0000     -10.326351      -280.9943
  41   2.0000     -10.325945      -280.9832
  42   2.0000     -10.323093      -280.9056
  43   2.0000     -10.323083      -280.9054
  44   2.0000     -10.321760      -280.8694
  45   2.0000     -10.321554      -280.8638
  46   2.0000     -10.317369      -280.7499
  47   2.0000     -10.317024      -280.7405
  48   2.0000     -10.317010      -280.7401
  49   2.0000     -10.315844      -280.7084
  50   2.0000     -10.314899      -280.6827
  51   2.0000     -10.314393      -280.6689
  52   2.0000     -10.313042      -280.6321
  53   2.0000     -10.312701      -280.6229
  54   2.0000     -10.310924      -280.5745
  55   2.0000     -10.308309      -280.5034
  56   2.0000     -10.307266      -280.4750
  57   2.0000     -10.307109      -280.4707
  58   2.0000     -10.305985      -280.4401
  59   2.0000     -10.304041      -280.3872
  60   2.0000     -10.303048      -280.3602
  61   2.0000     -10.300891      -280.3015
  62   2.0000     -10.298292      -280.2308
  63   2.0000     -10.297343      -280.2049
  64   2.0000     -10.296826      -280.1909
  65   2.0000     -10.288841      -279.9736
  66   2.0000     -10.284538      -279.8565
  67   2.0000     -10.267539      -279.3939
  68   2.0000     -10.266642      -279.3695
  69   2.0000     -10.263940      -279.2960
  70   2.0000     -10.255639      -279.0701
  71   2.0000      -8.148109      -221.7213
  72   2.0000      -6.119089      -166.5089
  73   2.0000      -6.111301      -166.2969
  74   2.0000      -6.111137      -166.2925
  75   2.0000      -1.205759       -32.8104
  76   2.0000      -1.200494       -32.6671
  77   2.0000      -1.152055       -31.3490
  78   2.0000      -1.137985       -30.9661
  79   2.0000      -1.133910       -30.8553
  80   2.0000      -1.130941       -30.7745
  81   2.0000      -1.130736       -30.7689
  82   2.0000      -1.129184       -30.7267
  83   2.0000      -1.126494       -30.6535
  84   2.0000      -1.117193       -30.4004
  85   2.0000      -1.068183       -29.0667
  86   2.0000      -1.059645       -28.8344
  87   2.0000      -1.042872       -28.3780
  88   2.0000      -1.018623       -27.7181
  89   2.0000      -1.015291       -27.6275
  90   2.0000      -1.014513       -27.6063
  91   2.0000      -1.012147       -27.5419
  92   2.0000      -1.006261       -27.3818
  93   2.0000      -1.001780       -27.2598
  94   2.0000      -0.996590       -27.1186
  95   2.0000      -0.988153       -26.8890
  96   2.0000      -0.984066       -26.7778
  97   2.0000      -0.982608       -26.7381
  98   2.0000      -0.981312       -26.7029
  99   2.0000      -0.980471       -26.6800
 100   2.0000      -0.931064       -25.3356
 101   2.0000      -0.922988       -25.1158
 102   2.0000      -0.909188       -24.7403
 103   2.0000      -0.897080       -24.4108
 104   2.0000      -0.890623       -24.2351
 105   2.0000      -0.879206       -23.9244
 106   2.0000      -0.868874       -23.6433
 107   2.0000      -0.856824       -23.3154
 108   2.0000      -0.856604       -23.3094
 109   2.0000      -0.855600       -23.2821
 110   2.0000      -0.847783       -23.0694
 111   2.0000      -0.840236       -22.8640
 112   2.0000      -0.835327       -22.7304
 113   2.0000      -0.820902       -22.3379
 114   2.0000      -0.814429       -22.1617
 115   2.0000      -0.808141       -21.9906
 116   2.0000      -0.800464       -21.7817
 117   2.0000      -0.795406       -21.6441
 118   2.0000      -0.783566       -21.3219
 119   2.0000      -0.769100       -20.9283
 120   2.0000      -0.760207       -20.6863
 121   2.0000      -0.749878       -20.4052
 122   2.0000      -0.738559       -20.0972
 123   2.0000      -0.736648       -20.0452
 124   2.0000      -0.729667       -19.8553
 125   2.0000      -0.727262       -19.7898
 126   2.0000      -0.718948       -19.5636
 127   2.0000      -0.714938       -19.4545
 128   2.0000      -0.711559       -19.3625
 129   2.0000      -0.704212       -19.1626
 130   2.0000      -0.702473       -19.1153
 131   2.0000      -0.692335       -18.8394
 132   2.0000      -0.691068       -18.8049
 133   2.0000      -0.690734       -18.7958
 134   2.0000      -0.683899       -18.6098
 135   2.0000      -0.678803       -18.4712
 136   2.0000      -0.674171       -18.3451
 137   2.0000      -0.668168       -18.1818
 138   2.0000      -0.667975       -18.1765
 139   2.0000      -0.663813       -18.0633
 140   2.0000      -0.656311       -17.8591
 141   2.0000      -0.649798       -17.6819
 142   2.0000      -0.643253       -17.5038
 143   2.0000      -0.634014       -17.2524
 144   2.0000      -0.627149       -17.0656
 145   2.0000      -0.615229       -16.7412
 146   2.0000      -0.610682       -16.6175
 147   2.0000      -0.595601       -16.2071
 148   2.0000      -0.591275       -16.0894
 149   2.0000      -0.590277       -16.0623
 150   2.0000      -0.589081       -16.0297
 151   2.0000      -0.586404       -15.9569
 152   2.0000      -0.582540       -15.8517
 153   2.0000      -0.578875       -15.7520
 154   2.0000      -0.576215       -15.6796
 155   2.0000      -0.572531       -15.5794
 156   2.0000      -0.571530       -15.5521
 157   2.0000      -0.563827       -15.3425
 158   2.0000      -0.560314       -15.2469
 159   2.0000      -0.556910       -15.1543
 160   2.0000      -0.556490       -15.1429
 161   2.0000      -0.553325       -15.0567
 162   2.0000      -0.552653       -15.0385
 163   2.0000      -0.551315       -15.0021
 164   2.0000      -0.548213       -14.9176
 165   2.0000      -0.542351       -14.7581
 166   2.0000      -0.539934       -14.6924
 167   2.0000      -0.535709       -14.5774
 168   2.0000      -0.533413       -14.5149
 169   2.0000      -0.532814       -14.4986
 170   2.0000      -0.528775       -14.3887
 171   2.0000      -0.527340       -14.3497
 172   2.0000      -0.524783       -14.2801
 173   2.0000      -0.523506       -14.2453
 174   2.0000      -0.521476       -14.1901
 175   2.0000      -0.519921       -14.1478
 176   2.0000      -0.517335       -14.0774
 177   2.0000      -0.514893       -14.0109
 178   2.0000      -0.512963       -13.9584
 179   2.0000      -0.509486       -13.8638
 180   2.0000      -0.505930       -13.7671
 181   2.0000      -0.504594       -13.7307
 182   2.0000      -0.503846       -13.7104
 183   2.0000      -0.500105       -13.6085
 184   2.0000      -0.494086       -13.4448
 185   2.0000      -0.493925       -13.4404
 186   2.0000      -0.491769       -13.3817
 187   2.0000      -0.489600       -13.3227
 188   2.0000      -0.488403       -13.2901
 189   2.0000      -0.485696       -13.2164
 190   2.0000      -0.481225       -13.0948
 191   2.0000      -0.480124       -13.0648
 192   2.0000      -0.476468       -12.9654
 193   2.0000      -0.474180       -12.9031
 194   2.0000      -0.471119       -12.8198
 195   2.0000      -0.468097       -12.7376
 196   2.0000      -0.465736       -12.6733
 197   2.0000      -0.461227       -12.5506
 198   2.0000      -0.456164       -12.4128
 199   2.0000      -0.448449       -12.2029
 200   2.0000      -0.447767       -12.1844
 201   2.0000      -0.445505       -12.1228
 202   2.0000      -0.445270       -12.1164
 203   2.0000      -0.440365       -11.9829
 204   2.0000      -0.438922       -11.9437
 205   2.0000      -0.437036       -11.8924
 206   2.0000      -0.435615       -11.8537
 207   2.0000      -0.433036       -11.7835
 208   2.0000      -0.430552       -11.7159
 209   2.0000      -0.426307       -11.6004
 210   2.0000      -0.423091       -11.5129
 211   2.0000      -0.419845       -11.4246
 212   2.0000      -0.417570       -11.3627
 213   2.0000      -0.415213       -11.2985
 214   2.0000      -0.413317       -11.2469
 215   2.0000      -0.410776       -11.1778
 216   2.0000      -0.406903       -11.0724
 217   2.0000      -0.403548       -10.9811
 218   2.0000      -0.398843       -10.8531
 219   2.0000      -0.396429       -10.7874
 220   2.0000      -0.393591       -10.7101
 221   2.0000      -0.385717       -10.4959
 222   2.0000      -0.381846       -10.3906
 223   2.0000      -0.381215       -10.3734
 224   2.0000      -0.376640       -10.2489
 225   2.0000      -0.367339        -9.9958
 226   2.0000      -0.362615        -9.8673
 227   2.0000      -0.361962        -9.8495
 228   2.0000      -0.359071        -9.7708
 229   2.0000      -0.356490        -9.7006
 230   2.0000      -0.352120        -9.5817
 231   2.0000      -0.350791        -9.5455
 232   2.0000      -0.349150        -9.5008
 233   2.0000      -0.342218        -9.3122
 234   2.0000      -0.335796        -9.1375
 235   2.0000      -0.334763        -9.1094
 236   2.0000      -0.327620        -8.9150
 237   2.0000      -0.322538        -8.7767
 238   2.0000      -0.321817        -8.7571
 239   2.0000      -0.318576        -8.6689
 240   2.0000      -0.310204        -8.4411
 241   2.0000      -0.290910        -7.9161
 242   2.0000      -0.285883        -7.7793
 243   2.0000      -0.239403        -6.5145
 244   0.0000      -0.131448        -3.5769
 245   0.0000      -0.120655        -3.2832
 246   0.0000      -0.060530        -1.6471
 247   0.0000      -0.049840        -1.3562
 248   0.0000      -0.038707        -1.0533

MULLIKEN ATOMIC CHARGES
-----------------------
   0 C :    0.201477
   1 O :   -0.137222
   2 N :   -0.194904
   3 C :    0.106762
   4 N :   -0.099090
   5 C :    0.010517
   6 C :    0.089078
   7 N :   -0.173856
   8 C :    0.093283
   9 C :    0.036993
  10 N :   -0.067309
  11 C :   -0.008041
  12 C :    0.089897
  13 C :   -0.099161
  14 C :    0.110608
  15 C :   -0.099204
  16 C :    0.009865
  17 C :   -0.114863
  18 N :    0.106443
  19 C :    0.120583
  20 C :   -0.097906
  21 C :    0.057771
  22 C :   -0.022951
  23 C :   -0.097079
  24 C :   -0.188990
  25 N :    0.154172
  26 C :    0.177049
  27 N :   -0.264301
  28 C :    0.093782
  29 C :    0.001273
  30 C :    0.136744
  31 O :   -0.180971
  32 C :    0.000369
  33 C :   -0.090302
  34 C :    0.146431
  35 O :   -0.187775
  36 N :   -0.265128
  37 C :    0.104671
  38 C :    0.003014
  39 C :    0.093889
  40 C :    0.002929
  41 C :   -0.051270
  42 C :    0.038725
  43 C :   -0.059903
  44 C :   -0.029696
  45 N :    0.100528
  46 C :   -0.101539
  47 C :   -0.138821
  48 N :    0.041680
  49 C :   -0.166772
  50 N :    0.215709
  51 C :   -0.200078
  52 N :    0.227746
  53 C :    0.114054
  54 C :    0.043784
  55 C :    0.007204
  56 N :   -0.271352
  57 S :    0.572588
  58 N :   -0.315335
  59 C :   -0.067751
  60 N :   -0.050166
  61 C :    0.029683
  62 C :    0.073835
  63 N :   -0.182720
  64 C :    0.237889
  65 O :   -0.146927
  66 N :   -0.171016
  67 C :    0.088373
  68 N :   -0.117634
  69 C :    0.018045
  70 C :    0.067581
  71 H :    0.038119
  72 H :    0.013698
  73 H :    0.039277
  74 H :    0.027375
  75 H :    0.007646
  76 H :    0.017104
  77 H :    0.012948
  78 H :    0.017730
  79 H :   -0.005484
  80 H :    0.044259
  81 H :    0.018057
  82 H :    0.029060
  83 H :    0.019081
  84 H :    0.043274
  85 H :    0.028021
  86 H :    0.051419
  87 H :    0.020019
  88 H :    0.022468
  89 H :    0.026361
  90 H :    0.030887
  91 H :    0.022018
  92 H :    0.004379
  93 H :    0.028898
  94 H :    0.042448
  95 H :    0.009432
  96 H :    0.026511
Sum of atomic charges:   -0.0000000

LOEWDIN ATOMIC CHARGES
----------------------
   0 C :    0.111618
   1 O :   -0.126763
   2 N :    0.024114
   3 C :    0.046097
   4 N :   -0.083799
   5 C :   -0.019100
   6 C :   -0.018247
   7 N :    0.028167
   8 C :    0.005933
   9 C :   -0.022922
  10 N :   -0.079065
  11 C :    0.007641
  12 C :   -0.033926
  13 C :    0.002365
  14 C :    0.045322
  15 C :   -0.075135
  16 C :    0.047137
  17 C :    0.001406
  18 N :   -0.065586
  19 C :    0.039973
  20 C :    0.026717
  21 C :   -0.029415
  22 C :    0.053734
  23 C :   -0.078524
  24 C :   -0.034396
  25 N :   -0.056046
  26 C :    0.084855
  27 N :    0.002639
  28 C :    0.035779
  29 C :   -0.059939
  30 C :    0.081978
  31 O :   -0.184763
  32 C :   -0.101306
  33 C :   -0.116174
  34 C :    0.077257
  35 O :   -0.178829
  36 N :    0.002393
  37 C :    0.034217
  38 C :   -0.060405
  39 C :    0.071010
  40 C :   -0.002218
  41 C :   -0.004829
  42 C :   -0.024110
  43 C :   -0.006825
  44 C :    0.010930
  45 N :    0.017202
  46 C :   -0.006312
  47 C :   -0.021285
  48 N :    0.009866
  49 C :   -0.014457
  50 N :   -0.017767
  51 C :   -0.028501
  52 N :   -0.019374
  53 C :   -0.031527
  54 C :   -0.035664
  55 C :   -0.041438
  56 N :   -0.278556
  57 S :    0.698293
  58 N :   -0.295460
  59 C :    0.027375
  60 N :   -0.068638
  61 C :   -0.024217
  62 C :   -0.010406
  63 N :    0.033872
  64 C :    0.112545
  65 O :   -0.139497
  66 N :    0.031506
  67 C :    0.030868
  68 N :   -0.096549
  69 C :   -0.027298
  70 C :   -0.008805
  71 H :    0.027792
  72 H :    0.027380
  73 H :    0.033152
  74 H :    0.034703
  75 H :    0.027543
  76 H :    0.042281
  77 H :    0.036098
  78 H :    0.034940
  79 H :    0.036267
  80 H :    0.038348
  81 H :    0.018515
  82 H :    0.033337
  83 H :    0.029385
  84 H :    0.025424
  85 H :    0.019934
  86 H :    0.039728
  87 H :    0.022828
  88 H :    0.031030
  89 H :    0.030017
  90 H :    0.053358
  91 H :    0.045152
  92 H :    0.026840
  93 H :    0.030251
  94 H :    0.024116
  95 H :    0.024268
  96 H :    0.032579

  Mayer bond orders larger than 0.100000
B(  0-C ,  1-O ) :   2.2132 B(  0-C ,  2-N ) :   1.0207 B(  0-C ,  7-N ) :   0.9726
B(  2-N ,  3-C ) :   1.0911 B(  2-N ,  6-C ) :   1.0719 B(  3-C ,  4-N ) :   1.7647
B(  3-C , 71-H ) :   0.9825 B(  4-N ,  5-C ) :   1.3187 B(  5-C ,  6-C ) :   1.5993
B(  5-C , 72-H ) :   1.0042 B(  6-C , 73-H ) :   0.9807 B(  7-N ,  8-C ) :   1.1122
B(  7-N , 11-C ) :   1.1061 B(  8-C ,  9-C ) :   1.5267 B(  8-C , 11-C ) :   0.1014
B(  8-C , 74-H ) :   0.9882 B(  9-C , 10-N ) :   1.3554 B(  9-C , 75-H ) :   0.9970
B( 10-N , 11-C ) :   1.7803 B( 11-C , 12-C ) :   0.9680 B( 12-C , 13-C ) :   1.5796
B( 12-C , 16-C ) :   1.0558 B( 13-C , 14-C ) :   1.0724 B( 13-C , 76-H ) :   1.0309
B( 14-C , 15-C ) :   1.1114 B( 14-C , 19-C ) :   1.4136 B( 15-C , 16-C ) :   1.6637
B( 15-C , 17-C ) :   1.1019 B( 16-C , 77-H ) :   1.0102 B( 17-C , 18-N ) :   2.8847
B( 19-C , 20-C ) :   1.1148 B( 19-C , 23-C ) :   1.1003 B( 20-C , 21-C ) :   1.5676
B( 20-C , 78-H ) :   0.9810 B( 21-C , 22-C ) :   1.0207 B( 21-C , 26-C ) :   1.0502
B( 22-C , 23-C ) :   1.6699 B( 22-C , 79-H ) :   1.0283 B( 23-C , 24-C ) :   1.0850
B( 24-C , 25-N ) :   2.9874 B( 26-C , 27-N ) :   1.2097 B( 26-C , 33-C ) :   1.3546
B( 27-N , 28-C ) :   0.9397 B( 27-N , 30-C ) :   1.0206 B( 28-C , 29-C ) :   1.1206
B( 28-C , 80-H ) :   0.9236 B( 28-C , 81-H ) :   0.9527 B( 29-C , 82-H ) :   0.9591
B( 29-C , 83-H ) :   0.9638 B( 29-C , 84-H ) :   0.9616 B( 30-C , 31-O ) :   2.1588
B( 30-C , 32-C ) :   0.9622 B( 32-C , 33-C ) :   1.2286 B( 32-C , 39-C ) :   1.3923
B( 33-C , 34-C ) :   0.9819 B( 34-C , 35-O ) :   2.0752 B( 34-C , 36-N ) :   1.0253
B( 36-N , 37-C ) :   0.9460 B( 36-N , 39-C ) :   1.1764 B( 37-C , 38-C ) :   1.1210
B( 37-C , 85-H ) :   0.9363 B( 37-C , 86-H ) :   0.9253 B( 38-C , 87-H ) :   0.9644
B( 38-C , 88-H ) :   0.9655 B( 38-C , 89-H ) :   0.9647 B( 39-C , 40-C ) :   1.1097
B( 40-C , 41-C ) :   1.6898 B( 40-C , 90-H ) :   0.9466 B( 41-C , 42-C ) :   1.1458
B( 41-C , 91-H ) :   0.9540 B( 42-C , 43-C ) :   1.2404 B( 42-C , 53-C ) :   0.1480
B( 42-C , 55-C ) :   1.2038 B( 43-C , 44-C ) :   1.1109 B( 43-C , 48-N ) :   1.4215
B( 44-C , 45-N ) :   1.4619 B( 44-C , 53-C ) :   1.3461 B( 45-N , 46-C ) :   1.7719
B( 46-C , 47-C ) :   1.1881 B( 46-C , 51-C ) :   1.1615 B( 47-C , 48-N ) :   1.7387
B( 47-C , 49-C ) :   1.1565 B( 49-C , 50-N ) :   2.9574 B( 51-C , 52-N ) :   3.0242
B( 53-C , 54-C ) :   1.2631 B( 53-C , 59-C ) :   0.9595 B( 54-C , 55-C ) :   1.1157
B( 54-C , 58-N ) :   1.4570 B( 55-C , 56-N ) :   1.5231 B( 56-N , 57-S ) :   1.3064
B( 56-N , 58-N ) :   0.1565 B( 57-S , 58-N ) :   1.2763 B( 59-C , 60-N ) :   1.7630
B( 59-C , 63-N ) :   1.1378 B( 60-N , 61-C ) :   1.3606 B( 61-C , 62-C ) :   1.5229
B( 61-C , 92-H ) :   0.9996 B( 62-C , 63-N ) :   1.1104 B( 62-C , 93-H ) :   0.9814
B( 63-N , 64-C ) :   0.9471 B( 64-C , 65-O ) :   2.2102 B( 64-C , 66-N ) :   1.0129
B( 66-N , 67-C ) :   1.1007 B( 66-N , 70-C ) :   1.1033 B( 67-C , 68-N ) :   1.7639
B( 67-C , 94-H ) :   0.9753 B( 68-N , 69-C ) :   1.3174 B( 69-C , 70-C ) :   1.5855
B( 69-C , 95-H ) :   0.9999 B( 70-C , 96-H ) :   0.9966

-----------------------------------------------------------------------------
         ABSORPTION SPECTRUM VIA TRANSITION ELECTRIC DIPOLE MOMENTS
-----------------------------------------------------------------------------
State   Energy  Wavelength   fosc         T2         TX        TY        TZ
        (cm-1)    (nm)                  (au**2)     (au)      (au)      (au)
-----------------------------------------------------------------------------
   0    7072.2   1414.0   0.152206291   7.08522   0.27985   2.38862   1.14080
   1    9555.6   1046.5   0.106293504   3.66205   0.88775   0.87484  -1.45210
   2   16692.6    599.1   0.096245248   1.89815   0.38554   0.70890  -1.11668
   3   17908.3    558.4   0.215740755   3.96601   0.59089  -0.00155  -1.90180
   4   19581.0    510.7   0.041210818   0.69287   0.35582   0.66746   0.34750
   5   20981.4    476.6   0.080388956   1.26136  -0.19104  -0.87086  -0.68298
   6   21726.9    460.3   0.126633871   1.91879  -0.59041  -0.67688  -1.05453
   7   22380.1    446.8   0.006557757   0.09646   0.07440   0.19660   0.22864
   8   22783.4    438.9   0.014550885   0.21026   0.16299   0.37377   0.20973
   9   23650.8    422.8   0.003395764   0.04727   0.18123  -0.11417   0.03727
  10   24304.4    411.4   0.023452916   0.31768  -0.14046   0.22654  -0.49662
  11   24351.8    410.6   0.001487320   0.02011   0.08708   0.09987  -0.05049
  12   24795.1    403.3   0.008588394   0.11403  -0.17146  -0.28796  -0.04135
  13   25161.2    397.4   0.033192888   0.43430  -0.23586  -0.00499   0.61534
  14   25798.7    387.6   0.480252249   6.12841  -0.59571  -1.65793   1.73920
  15   26157.4    382.3   0.052370860   0.65913   0.40873   0.69828   0.06694
  16   26611.6    375.8   0.019594175   0.24240  -0.08756   0.17312  -0.45250
  17   26827.1    372.8   0.019030378   0.23353   0.02124   0.01426   0.48258
  18   27722.4    360.7   0.023512663   0.27922   0.27632   0.36470   0.26430
  19   27833.6    359.3   0.002372713   0.02806   0.10455   0.04565  -0.12268
  20   29294.0    341.4   0.128749389   1.44691  -0.61600  -0.95006  -0.40601
  21   29661.9    337.1   0.031492594   0.34953  -0.26315  -0.45309  -0.27385
  22   30225.9    330.8   0.000407142   0.00443  -0.00289   0.06255  -0.02268
  23   30951.6    323.1   0.044135097   0.46944  -0.57869  -0.28830   0.22680
  24   30978.0    322.8   0.000804408   0.00855   0.02241   0.06651   0.06019
  25   31368.9    318.8   0.072440711   0.76026  -0.55740  -0.23216   0.62902
  26   31597.5    316.5   0.015920939   0.16588   0.05546  -0.34853   0.20330
  27   31937.7    313.1   0.060334560   0.62193   0.17064  -0.73205   0.23856
  28   32104.7    311.5   0.060749604   0.62295   0.28188   0.47646  -0.56257
  29   32155.3    311.0   0.009992152   0.10230   0.16294   0.00218  -0.27522
  30   32285.8    309.7   0.057418658   0.58549   0.14876   0.20335  -0.72250
  31   32470.5    308.0   0.004140239   0.04198  -0.15241  -0.00041   0.13693
  32   32534.6    307.4   0.003659745   0.03703   0.02874  -0.02256  -0.18894
  33   33024.1    302.8   0.000313577   0.00313  -0.02418  -0.04167  -0.02837
  34   33411.8    299.3   0.040209047   0.39619  -0.06747  -0.62390  -0.04876
  35   33608.1    297.5   0.147690636   1.44672   0.26893   0.29779   1.13390
  36   34020.9    293.9   0.085767043   0.82995   0.65482   0.58000  -0.25447
  37   34232.5    292.1   0.009710141   0.09338   0.14266   0.23583   0.13195
  38   34309.9    291.5   0.022520273   0.21609   0.32068   0.32926   0.06954
  39   34346.1    291.2   0.017075664   0.16367   0.06571   0.06730  -0.39348
  40   34505.4    289.8   0.068516660   0.65371   0.64084   0.48529  -0.08678
  41   34975.1    285.9   0.156184253   1.47013  -0.47726  -1.11410   0.03342
  42   35220.8    283.9   0.011522217   0.10770  -0.09918   0.01002   0.31267
  43   35376.8    282.7   0.010080168   0.09380  -0.12674  -0.17273   0.21887
  44   35760.2    279.6   0.171802753   1.58163   0.08699   1.25273   0.06872
  45   35895.6    278.6   0.041573865   0.38129  -0.29653  -0.54134  -0.01749
  46   36130.3    276.8   0.685868749   6.24951   1.01543   1.79257   1.41602
  47   36288.2    275.6   0.060393618   0.54790   0.32969   0.60907   0.26122
  48   36391.3    274.8   0.039027044   0.35306  -0.14055  -0.14465  -0.55891
  49   36821.5    271.6   0.021258426   0.19007  -0.30413  -0.26960  -0.15776
  50   37073.3    269.7   0.053289495   0.47321   0.22436   0.38378   0.52496
  51   37227.3    268.6   0.227659404   2.01326  -0.26174  -1.39108  -0.09825
  52   37926.7    263.7   0.004160159   0.03611  -0.09597   0.01235  -0.16355
  53   38055.7    262.8   0.045093809   0.39010  -0.36854  -0.37799   0.33375
  54   38235.2    261.5   0.011154513   0.09604   0.24151   0.12914  -0.14504
  55   38378.7    260.6   0.012953422   0.11111  -0.08481   0.14403   0.28841
  56   38594.1    259.1   0.025229619   0.21521  -0.06773   0.41836   0.18867
  57   38673.4    258.6   0.036821304   0.31345   0.21087   0.51863  -0.00058
  58   39142.5    255.5   0.020961305   0.17630   0.09730  -0.02323   0.40779
  59   39452.3    253.5   0.012813843   0.10693  -0.15145  -0.25183  -0.14344
  60   39649.6    252.2   0.008481713   0.07042  -0.16890  -0.03173   0.20221
  61   40210.5    248.7   0.009121154   0.07468   0.04918   0.26499  -0.04513

FINAL SINGLE POINT ENERGY     -3525.225151300725

DIPOLE MOMENT
-------------
                                X             Y             Z
Electronic contribution:      8.78440      -7.69491     -15.57497
Nuclear contribution   :     -9.85270       6.27911      14.46594
                        -----------------------------------------
Total Dipole Moment    :     -1.06830      -1.41580      -1.10903
                        -----------------------------------------
Magnitude (a.u.)       :      2.09182
Magnitude (Debye)      :      5.31698

Rotational constants in cm-1:     0.001532     0.000639     0.000502
Rotational constants in MHz :    45.928312    19.166878    15.051081

                             ****ORCA TERMINATED NORMALLY****
TOTAL RUN TIME: 0 days 0 hours 11 minutes 59 seconds 117 msec
