                         Program Version 4.2.0 -  RELEASE  -
|  1> # ORCA input file
|  2> # SCF done       -138.983412041394          0.000786143412
|  3> ! CAM-B3LYP def2-SVP def2/J RIJCOSX Grid4 TightSCF
|  4> %maxcore 5000
|  5> %tddft
|  6>     Mode sTDDFT
|  7>     Ethresh 5.0
|  8>     maxcore 5000
|  9> end
| 10>
| 11> %pal
| 12>   nprocs 6
| 13>   end
| 14> * xyz 0 1
| 15>    C        0.98106        -2.29908        -1.03849
| 16>    N        0.25950        -1.84383        -2.02054
| 17>    C       -1.02867        -1.73272        -1.69809
| 18>    C       -1.35556        -2.11113        -0.41270
| 19>    S        0.06740        -2.63926         0.42835
| 20>    C       -2.61515        -2.09577         0.18599
| 21>    N       -3.65508        -2.08309         0.67138
| 22>    C        2.38321        -2.50780        -1.11904
| 23>    S        3.30290        -3.11700         0.22379
| 24>    C        4.78301        -3.04728        -0.69160
| 25>    C        4.53235        -2.56797        -1.98021
| 26>    C        3.18171        -2.26765        -2.21441
| 27>    C        5.53040        -2.40207        -2.95864
| 28>    N        6.31109        -2.25946        -3.78538
| 29>    C        6.03272        -3.42523        -0.15263
| 30>    C        6.18512        -3.90103         1.11261
| 31>    C        7.43582        -4.26353         1.66185
| 32>    N        7.59895        -4.75142         2.94430
| 33>    C        6.56608        -4.92427         3.93658
| 34>    C        6.18613        -3.60168         4.59840
| 35>    C        8.93962        -5.01926         3.23629
| 36>    O        9.32516        -5.45787         4.31011
| 37>    C        9.64980        -4.67470         2.03045
| 38>    C        8.69947        -4.21684         1.08186
| 39>    C        9.41266        -3.86298        -0.12534
| 40>    O        9.03650        -3.43618        -1.19707
| 41>    N       10.76230        -4.13189         0.17680
| 42>    C       11.81107        -3.85563        -0.77601
| 43>    C       12.52318        -2.53980        -0.47321
| 44>    C       10.91814        -4.60605         1.45341
| 45>    C       12.17738        -4.93302         2.02648
| 46>    C       12.24214        -5.39977         3.29263
| 47>    N       13.38656        -5.69753         3.98646
| 48>    C       13.37298        -6.20432         5.27562
| 49>    C       12.13584        -6.55246         5.99846
| 50>    C       14.66859        -6.31781         5.69814
| 51>    C       15.54810        -5.86884         4.64587
| 52>    C       14.73185        -5.46883         3.52724
| 53>    O       15.01476        -5.03148         2.43861
| 54>    C       16.84406        -5.96052         5.06620
| 55>    C       18.09073        -5.62261         4.36146
| 56>    N       16.81646        -6.45786         6.36221
| 57>    C       15.48478        -6.70436         6.81163
| 58>    O       15.25117        -7.14095         7.91842
| 59>    C       17.87476        -6.69494         7.19283
| 60>    N       19.11740        -6.48425         6.88755
| 61>    C       19.93178        -6.80232         7.90684
| 62>    C       19.30734        -7.27337         9.03409
| 63>    S       17.57789        -7.31997         8.79908
| 64>    C       19.91264        -7.66976        10.22662
| 65>    N       20.41807        -7.99328        11.20487
| 66>    H       -1.73106        -1.36685        -2.42514
| 67>    H        2.79409        -1.88834        -3.14212
| 68>    H        6.89267        -3.31460        -0.80203
| 69>    H        5.30808        -4.00920         1.73769
| 70>    H        6.97861        -5.60397         4.68758
| 71>    H        5.69254        -5.39576         3.47788
| 72>    H        7.05544        -3.16955         5.08801
| 73>    H        5.41513        -3.77118         5.34478
| 74>    H        5.81371        -2.89026         3.86464
| 75>    H       11.32164        -3.79136        -1.75188
| 76>    H       12.52111        -4.68665        -0.78791
| 77>    H       11.80827        -1.72052        -0.47837
| 78>    H       13.27529        -2.34888        -1.23330
| 79>    H       13.01064        -2.57249         0.49837
| 80>    H       13.06971        -4.78705         1.44120
| 81>    H       11.32881        -5.55073         3.85314
| 82>    H       11.58893        -7.33453         5.47084
| 83>    H       11.46531        -5.69641         6.07620
| 84>    H       12.39185        -6.90350         6.99431
| 85>    H       17.85457        -5.25776         3.36586
| 86>    H       18.73710        -6.49699         4.29743
| 87>    H       18.64476        -4.86687         4.91685
| 88>    H       20.99204        -6.67348         7.78672
| 89> *
| 90>
| 91>                          ****END OF INPUT****

CARTESIAN COORDINATES (ANGSTROEM)
---------------------------------
  C      0.981060   -2.299080   -1.038490
  N      0.259500   -1.843830   -2.020540
  C     -1.028670   -1.732720   -1.698090
  C     -1.355560   -2.111130   -0.412700
  S      0.067400   -2.639260    0.428350
  C     -2.615150   -2.095770    0.185990
  N     -3.655080   -2.083090    0.671380
  C      2.383210   -2.507800   -1.119040
  S      3.302900   -3.117000    0.223790
  C      4.783010   -3.047280   -0.691600
  C      4.532350   -2.567970   -1.980210
  C      3.181710   -2.267650   -2.214410
  C      5.530400   -2.402070   -2.958640
  N      6.311090   -2.259460   -3.785380
  C      6.032720   -3.425230   -0.152630
  C      6.185120   -3.901030    1.112610
  C      7.435820   -4.263530    1.661850
  N      7.598950   -4.751420    2.944300
  C      6.566080   -4.924270    3.936580
  C      6.186130   -3.601680    4.598400
  C      8.939620   -5.019260    3.236290
  O      9.325160   -5.457870    4.310110
  C      9.649800   -4.674700    2.030450
  C      8.699470   -4.216840    1.081860
  C      9.412660   -3.862980   -0.125340
  O      9.036500   -3.436180   -1.197070
  N     10.762300   -4.131890    0.176800
  C     11.811070   -3.855630   -0.776010
  C     12.523180   -2.539800   -0.473210
  C     10.918140   -4.606050    1.453410
  C     12.177380   -4.933020    2.026480
  C     12.242140   -5.399770    3.292630
  N     13.386560   -5.697530    3.986460
  C     13.372980   -6.204320    5.275620
  C     12.135840   -6.552460    5.998460
  C     14.668590   -6.317810    5.698140
  C     15.548100   -5.868840    4.645870
  C     14.731850   -5.468830    3.527240
  O     15.014760   -5.031480    2.438610
  C     16.844060   -5.960520    5.066200
  C     18.090730   -5.622610    4.361460
  N     16.816460   -6.457860    6.362210
  C     15.484780   -6.704360    6.811630
  O     15.251170   -7.140950    7.918420
  C     17.874760   -6.694940    7.192830
  N     19.117400   -6.484250    6.887550
  C     19.931780   -6.802320    7.906840
  C     19.307340   -7.273370    9.034090
  S     17.577890   -7.319970    8.799080
  C     19.912640   -7.669760   10.226620
  N     20.418070   -7.993280   11.204870
  H     -1.731060   -1.366850   -2.425140
  H      2.794090   -1.888340   -3.142120
  H      6.892670   -3.314600   -0.802030
  H      5.308080   -4.009200    1.737690
  H      6.978610   -5.603970    4.687580
  H      5.692540   -5.395760    3.477880
  H      7.055440   -3.169550    5.088010
  H      5.415130   -3.771180    5.344780
  H      5.813710   -2.890260    3.864640
  H     11.321640   -3.791360   -1.751880
  H     12.521110   -4.686650   -0.787910
  H     11.808270   -1.720520   -0.478370
  H     13.275290   -2.348880   -1.233300
  H     13.010640   -2.572490    0.498370
  H     13.069710   -4.787050    1.441200
  H     11.328810   -5.550730    3.853140
  H     11.588930   -7.334530    5.470840
  H     11.465310   -5.696410    6.076200
  H     12.391850   -6.903500    6.994310
  H     17.854570   -5.257760    3.365860
  H     18.737100   -6.496990    4.297430
  H     18.644760   -4.866870    4.916850
  H     20.992040   -6.673480    7.786720

 Total Charge           Charge          ....    0
 Multiplicity           Mult            ....    1
 Number of Electrons    NEL             ....  376
 Basis Dimension        Dim             ....  841

ORBITAL ENERGIES
----------------

  NO   OCC          E(Eh)            E(eV)
   0   2.0000     -88.994470     -2421.6626
   1   2.0000     -88.989793     -2421.5354
   2   2.0000     -88.985942     -2421.4306
   3   2.0000     -19.233594      -523.3727
   4   2.0000     -19.228351      -523.2300
   5   2.0000     -19.202713      -522.5324
   6   2.0000     -19.196557      -522.3649
   7   2.0000     -14.503441      -394.6587
   8   2.0000     -14.500469      -394.5778
   9   2.0000     -14.462059      -393.5326
  10   2.0000     -14.460876      -393.5004
  11   2.0000     -14.433036      -392.7429
  12   2.0000     -14.427447      -392.5908
  13   2.0000     -14.417346      -392.3159
  14   2.0000     -14.408167      -392.0662
  15   2.0000     -14.406067      -392.0090
  16   2.0000     -10.414303      -283.3876
  17   2.0000     -10.412105      -283.3278
  18   2.0000     -10.395674      -282.8807
  19   2.0000     -10.383323      -282.5446
  20   2.0000     -10.379687      -282.4456
  21   2.0000     -10.371497      -282.2228
  22   2.0000     -10.370663      -282.2001
  23   2.0000     -10.369681      -282.1734
  24   2.0000     -10.351881      -281.6890
  25   2.0000     -10.345202      -281.5073
  26   2.0000     -10.342845      -281.4431
  27   2.0000     -10.341710      -281.4122
  28   2.0000     -10.341468      -281.4057
  29   2.0000     -10.336310      -281.2653
  30   2.0000     -10.334751      -281.2229
  31   2.0000     -10.327932      -281.0373
  32   2.0000     -10.327013      -281.0123
  33   2.0000     -10.326059      -280.9864
  34   2.0000     -10.320339      -280.8307
  35   2.0000     -10.317261      -280.7469
  36   2.0000     -10.311683      -280.5952
  37   2.0000     -10.310256      -280.5563
  38   2.0000     -10.309646      -280.5397
  39   2.0000     -10.307649      -280.4854
  40   2.0000     -10.307219      -280.4737
  41   2.0000     -10.304038      -280.3871
  42   2.0000     -10.296811      -280.1905
  43   2.0000     -10.291984      -280.0591
  44   2.0000     -10.291802      -280.0542
  45   2.0000     -10.290510      -280.0190
  46   2.0000     -10.290177      -280.0100
  47   2.0000     -10.272637      -279.5327
  48   2.0000     -10.271020      -279.4887
  49   2.0000     -10.265118      -279.3281
  50   2.0000     -10.264634      -279.3149
  51   2.0000      -8.090413      -220.1513
  52   2.0000      -8.085294      -220.0120
  53   2.0000      -8.079882      -219.8648
  54   2.0000      -6.059643      -164.8913
  55   2.0000      -6.055476      -164.7779
  56   2.0000      -6.054483      -164.7509
  57   2.0000      -6.052495      -164.6968
  58   2.0000      -6.050552      -164.6439
  59   2.0000      -6.049552      -164.6167
  60   2.0000      -6.047382      -164.5576
  61   2.0000      -6.044897      -164.4900
  62   2.0000      -6.041624      -164.4010
  63   2.0000      -1.179589       -32.0982
  64   2.0000      -1.166373       -31.7386
  65   2.0000      -1.142272       -31.0828
  66   2.0000      -1.134047       -30.8590
  67   2.0000      -1.115696       -30.3596
  68   2.0000      -1.100664       -29.9506
  69   2.0000      -1.093898       -29.7665
  70   2.0000      -1.072186       -29.1757
  71   2.0000      -1.071706       -29.1626
  72   2.0000      -1.063037       -28.9267
  73   2.0000      -1.021996       -27.8099
  74   2.0000      -1.001281       -27.2462
  75   2.0000      -0.990698       -26.9583
  76   2.0000      -0.987832       -26.8803
  77   2.0000      -0.964278       -26.2393
  78   2.0000      -0.936962       -25.4960
  79   2.0000      -0.929055       -25.2809
  80   2.0000      -0.927316       -25.2336
  81   2.0000      -0.920334       -25.0436
  82   2.0000      -0.914159       -24.8755
  83   2.0000      -0.899710       -24.4824
  84   2.0000      -0.890204       -24.2237
  85   2.0000      -0.878921       -23.9167
  86   2.0000      -0.875578       -23.8257
  87   2.0000      -0.868548       -23.6344
  88   2.0000      -0.861919       -23.4540
  89   2.0000      -0.847666       -23.0662
  90   2.0000      -0.826735       -22.4966
  91   2.0000      -0.820025       -22.3140
  92   2.0000      -0.799179       -21.7468
  93   2.0000      -0.785902       -21.3855
  94   2.0000      -0.771461       -20.9925
  95   2.0000      -0.767090       -20.8736
  96   2.0000      -0.756904       -20.5964
  97   2.0000      -0.755085       -20.5469
  98   2.0000      -0.736585       -20.0435
  99   2.0000      -0.731637       -19.9089
 100   2.0000      -0.729260       -19.8442
 101   2.0000      -0.718422       -19.5493
 102   2.0000      -0.715116       -19.4593
 103   2.0000      -0.700469       -19.0607
 104   2.0000      -0.685937       -18.6653
 105   2.0000      -0.666389       -18.1334
 106   2.0000      -0.658158       -17.9094
 107   2.0000      -0.655960       -17.8496
 108   2.0000      -0.649102       -17.6630
 109   2.0000      -0.643187       -17.5020
 110   2.0000      -0.633840       -17.2477
 111   2.0000      -0.616076       -16.7643
 112   2.0000      -0.612712       -16.6727
 113   2.0000      -0.610546       -16.6138
 114   2.0000      -0.603431       -16.4202
 115   2.0000      -0.600838       -16.3496
 116   2.0000      -0.594828       -16.1861
 117   2.0000      -0.588585       -16.0162
 118   2.0000      -0.584241       -15.8980
 119   2.0000      -0.575604       -15.6630
 120   2.0000      -0.574634       -15.6366
 121   2.0000      -0.570195       -15.5158
 122   2.0000      -0.562717       -15.3123
 123   2.0000      -0.557238       -15.1632
 124   2.0000      -0.556078       -15.1317
 125   2.0000      -0.548504       -14.9256
 126   2.0000      -0.546633       -14.8746
 127   2.0000      -0.543202       -14.7813
 128   2.0000      -0.539020       -14.6675
 129   2.0000      -0.538136       -14.6434
 130   2.0000      -0.534395       -14.5416
 131   2.0000      -0.530560       -14.4373
 132   2.0000      -0.528208       -14.3733
 133   2.0000      -0.524653       -14.2765
 134   2.0000      -0.522939       -14.2299
 135   2.0000      -0.521793       -14.1987
 136   2.0000      -0.519461       -14.1353
 137   2.0000      -0.516348       -14.0505
 138   2.0000      -0.515780       -14.0351
 139   2.0000      -0.514733       -14.0066
 140   2.0000      -0.511836       -13.9278
 141   2.0000      -0.509434       -13.8624
 142   2.0000      -0.504172       -13.7192
 143   2.0000      -0.496822       -13.5192
 144   2.0000      -0.487370       -13.2620
 145   2.0000      -0.482872       -13.1396
 146   2.0000      -0.481935       -13.1141
 147   2.0000      -0.477152       -12.9840
 148   2.0000      -0.471224       -12.8227
 149   2.0000      -0.470643       -12.8068
 150   2.0000      -0.465731       -12.6732
 151   2.0000      -0.463172       -12.6035
 152   2.0000      -0.462747       -12.5920
 153   2.0000      -0.462622       -12.5886
 154   2.0000      -0.460695       -12.5362
 155   2.0000      -0.459420       -12.5015
 156   2.0000      -0.454140       -12.3578
 157   2.0000      -0.447168       -12.1681
 158   2.0000      -0.446210       -12.1420
 159   2.0000      -0.445089       -12.1115
 160   2.0000      -0.436984       -11.8909
 161   2.0000      -0.436856       -11.8875
 162   2.0000      -0.435995       -11.8640
 163   2.0000      -0.434445       -11.8219
 164   2.0000      -0.432868       -11.7789
 165   2.0000      -0.432119       -11.7585
 166   2.0000      -0.424799       -11.5594
 167   2.0000      -0.421299       -11.4641
 168   2.0000      -0.415250       -11.2995
 169   2.0000      -0.411502       -11.1975
 170   2.0000      -0.401164       -10.9162
 171   2.0000      -0.395228       -10.7547
 172   2.0000      -0.379536       -10.3277
 173   2.0000      -0.378946       -10.3116
 174   2.0000      -0.372539       -10.1373
 175   2.0000      -0.369156       -10.0453
 176   2.0000      -0.367364        -9.9965
 177   2.0000      -0.361812        -9.8454
 178   2.0000      -0.355835        -9.6828
 179   2.0000      -0.348241        -9.4761
 180   2.0000      -0.345733        -9.4079
 181   2.0000      -0.342499        -9.3199
 182   2.0000      -0.340460        -9.2644
 183   2.0000      -0.322635        -8.7793
 184   2.0000      -0.309070        -8.4102
 185   2.0000      -0.297181        -8.0867
 186   2.0000      -0.287608        -7.8262
 187   2.0000      -0.242108        -6.5881
 188   0.0000      -0.100465        -2.7338
 189   0.0000      -0.070762        -1.9255
 190   0.0000      -0.058393        -1.5890
 191   0.0000      -0.036115        -0.9827
 192   0.0000      -0.021660        -0.5894

MULLIKEN ATOMIC CHARGES
-----------------------
   0 C :   -0.088727
   1 N :   -0.050201
   2 C :    0.111844
   3 C :   -0.251870
   4 S :    0.174041
   5 C :   -0.134259
   6 N :    0.130441
   7 C :   -0.017495
   8 S :    0.132274
   9 C :   -0.033467
  10 C :   -0.059787
  11 C :    0.020169
  12 C :   -0.182432
  13 N :    0.155385
  14 C :   -0.009085
  15 C :   -0.030500
  16 C :    0.126527
  17 N :   -0.251160
  18 C :    0.098894
  19 C :    0.003287
  20 C :    0.161458
  21 O :   -0.249124
  22 C :   -0.071264
  23 C :   -0.050632
  24 C :    0.161433
  25 O :   -0.184197
  26 N :   -0.256147
  27 C :    0.095584
  28 C :    0.001429
  29 C :    0.138013
  30 C :   -0.038049
  31 C :    0.077541
  32 N :   -0.189742
  33 C :   -0.095075
  34 C :    0.151015
  35 C :   -0.025570
  36 C :   -0.031641
  37 C :    0.183861
  38 O :   -0.161180
  39 C :   -0.096123
  40 C :    0.200822
  41 N :   -0.194446
  42 C :    0.201602
  43 O :   -0.188831
  44 C :   -0.001262
  45 N :   -0.108824
  46 C :    0.118716
  47 C :   -0.280671
  48 S :    0.223809
  49 C :   -0.136535
  50 N :    0.122583
  51 H :    0.018998
  52 H :    0.015388
  53 H :    0.040797
  54 H :   -0.018745
  55 H :    0.040857
  56 H :    0.023947
  57 H :    0.029434
  58 H :    0.026621
  59 H :    0.015025
  60 H :    0.048583
  61 H :    0.030916
  62 H :    0.028544
  63 H :    0.027872
  64 H :    0.020477
  65 H :    0.008855
  66 H :    0.021010
  67 H :    0.054270
  68 H :    0.066947
  69 H :    0.042608
  70 H :    0.034380
  71 H :    0.043700
  72 H :    0.044818
  73 H :    0.012266
Sum of atomic charges:   -0.0000000

LOEWDIN ATOMIC CHARGES
----------------------
   0 C :   -0.128740
   1 N :   -0.089220
   2 C :    0.019255
   3 C :   -0.242098
   4 S :    0.444020
   5 C :   -0.056689
   6 N :   -0.042048
   7 C :   -0.200744
   8 S :    0.446804
   9 C :   -0.127778
  10 C :   -0.096134
  11 C :    0.010229
  12 C :   -0.033939
  13 N :   -0.035968
  14 C :   -0.005816
  15 C :   -0.035285
  16 C :    0.055746
  17 N :    0.002795
  18 C :    0.036330
  19 C :   -0.061164
  20 C :    0.074867
  21 O :   -0.234272
  22 C :   -0.140520
  23 C :   -0.105641
  24 C :    0.084273
  25 O :   -0.176703
  26 N :    0.003611
  27 C :    0.037386
  28 C :   -0.060141
  29 C :    0.095500
  30 C :   -0.081226
  31 C :    0.078752
  32 N :    0.022388
  33 C :    0.102669
  34 C :   -0.045333
  35 C :   -0.129587
  36 C :   -0.124644
  37 C :    0.106448
  38 O :   -0.155443
  39 C :    0.104792
  40 C :   -0.045018
  41 N :    0.002040
  42 C :    0.095865
  43 O :   -0.177746
  44 C :   -0.086556
  45 N :   -0.120071
  46 C :    0.013696
  47 C :   -0.259397
  48 S :    0.488369
  49 C :   -0.055778
  50 N :   -0.051620
  51 H :    0.037969
  52 H :    0.048968
  53 H :    0.048014
  54 H :    0.022054
  55 H :    0.037146
  56 H :    0.023042
  57 H :    0.032333
  58 H :    0.031502
  59 H :    0.021793
  60 H :    0.039585
  61 H :    0.026985
  62 H :    0.031579
  63 H :    0.033015
  64 H :    0.024162
  65 H :    0.034587
  66 H :    0.036038
  67 H :    0.056406
  68 H :    0.056939
  69 H :    0.052592
  70 H :    0.045385
  71 H :    0.052912
  72 H :    0.052967
  73 H :    0.033509

  Mayer bond orders larger than 0.100000
B(  0-C ,  1-N ) :   1.7277 B(  0-C ,  3-C ) :   0.1169 B(  0-C ,  4-S ) :   1.1198
B(  0-C ,  7-C ) :   1.0650 B(  1-N ,  2-C ) :   1.3983 B(  2-C ,  3-C ) :   1.5016
B(  2-C , 51-H ) :   0.9957 B(  3-C ,  4-S ) :   1.1189 B(  3-C ,  5-C ) :   1.1806
B(  5-C ,  6-N ) :   3.0122 B(  7-C ,  8-S ) :   1.1111 B(  7-C , 11-C ) :   1.5081
B(  8-S ,  9-C ) :   1.1218 B(  9-C , 10-C ) :   1.4318 B(  9-C , 14-C ) :   1.1970
B( 10-C , 11-C ) :   1.2594 B( 10-C , 12-C ) :   1.1046 B( 11-C , 52-H ) :   1.0151
B( 12-C , 13-N ) :   3.0274 B( 14-C , 15-C ) :   1.5710 B( 14-C , 53-H ) :   0.9456
B( 15-C , 16-C ) :   1.1668 B( 15-C , 54-H ) :   0.9589 B( 16-C , 17-N ) :   1.1376
B( 16-C , 23-C ) :   1.3674 B( 17-N , 18-C ) :   0.9483 B( 17-N , 20-C ) :   1.0906
B( 18-C , 19-C ) :   1.1199 B( 18-C , 55-H ) :   0.9282 B( 18-C , 56-H ) :   0.9495
B( 19-C , 57-H ) :   0.9636 B( 19-C , 58-H ) :   0.9680 B( 19-C , 59-H ) :   0.9686
B( 20-C , 21-O ) :   1.9556 B( 20-C , 22-C ) :   1.0130 B( 21-O , 66-H ) :   0.1326
B( 22-C , 23-C ) :   1.2532 B( 22-C , 29-C ) :   1.3027 B( 23-C , 24-C ) :   0.9721
B( 24-C , 25-O ) :   2.0580 B( 24-C , 26-N ) :   1.0477 B( 25-O , 53-H ) :   0.1035
B( 26-N , 27-C ) :   0.9377 B( 26-N , 29-C ) :   1.1879 B( 27-C , 28-C ) :   1.1230
B( 27-C , 60-H ) :   0.9288 B( 27-C , 61-H ) :   0.9498 B( 28-C , 62-H ) :   0.9636
B( 28-C , 63-H ) :   0.9675 B( 28-C , 64-H ) :   0.9683 B( 29-C , 30-C ) :   1.1325
B( 30-C , 31-C ) :   1.6169 B( 30-C , 65-H ) :   0.9623 B( 31-C , 32-N ) :   1.0854
B( 31-C , 66-H ) :   0.9306 B( 32-N , 33-C ) :   1.1309 B( 32-N , 37-C ) :   0.9555
B( 33-C , 34-C ) :   1.1485 B( 33-C , 35-C ) :   1.4714 B( 34-C , 67-H ) :   0.9182
B( 34-C , 68-H ) :   0.9124 B( 34-C , 69-H ) :   0.9278 B( 35-C , 36-C ) :   1.1704
B( 35-C , 42-C ) :   0.9943 B( 36-C , 37-C ) :   0.9775 B( 36-C , 39-C ) :   1.5082
B( 37-C , 38-O ) :   2.1500 B( 39-C , 40-C ) :   1.1648 B( 39-C , 41-N ) :   1.0912
B( 40-C , 70-H ) :   0.9265 B( 40-C , 71-H ) :   0.9094 B( 40-C , 72-H ) :   0.9081
B( 41-N , 42-C ) :   0.9782 B( 41-N , 44-C ) :   1.0589 B( 42-C , 43-O ) :   2.0947
B( 44-C , 45-N ) :   1.6403 B( 44-C , 48-S ) :   1.1594 B( 45-N , 46-C ) :   1.3633
B( 46-C , 47-C ) :   1.5313 B( 46-C , 73-H ) :   0.9984 B( 47-C , 48-S ) :   1.0651
B( 47-C , 49-C ) :   1.2055 B( 49-C , 50-N ) :   3.0144

-----------------------------------------------------------------------------
         ABSORPTION SPECTRUM VIA TRANSITION ELECTRIC DIPOLE MOMENTS
-----------------------------------------------------------------------------
State   Energy  Wavelength   fosc         T2         TX        TY        TZ
        (cm-1)    (nm)                  (au**2)     (au)      (au)      (au)
-----------------------------------------------------------------------------
   0   15258.1    655.4   1.026117728  22.13976   4.43527  -0.97580   1.23123
   1   22370.7    447.0   0.024089500   0.35451   0.14850  -0.16593   0.55220
   2   24987.0    400.2   0.026658796   0.35124   0.57736  -0.02444   0.13150
   3   26949.4    371.1   0.362059683   4.42290   1.92662  -0.57608   0.61577
   4   27520.7    363.4   0.172950936   2.06890   0.83336  -0.38125   1.10863
   5   27632.7    361.9   0.184245975   2.19508  -1.21833   0.42331  -0.72908
   6   29297.4    341.3   0.003472662   0.03902   0.01560  -0.03858   0.19311
   7   29508.4    338.9   0.003718906   0.04149   0.11010   0.03575   0.16760
   8   30913.9    323.5   0.026623456   0.28352   0.41695   0.05241  -0.32700
   9   32275.8    309.8   0.529519873   5.40108   1.73989  -0.51917   1.45063
  10   33296.9    300.3   0.195274613   1.93072   0.75923  -0.42630   1.08285
  11   33820.8    295.7   0.003860569   0.03758  -0.09582   0.07809  -0.14933
  12   34795.8    287.4   0.259399859   2.45425  -0.82666   0.48734  -1.23830
  13   35893.9    278.6   0.023921165   0.21940   0.18979   0.12398  -0.40989
  14   36516.9    273.8   0.170788469   1.53971   0.72139  -0.31807   0.95820
  15   37078.7    269.7   0.001158979   0.01029  -0.03364  -0.08795  -0.03773
  16   37243.3    268.5   0.356229234   3.14889  -1.18875  -0.26687   1.29017
  17   37507.9    266.6   0.000300248   0.00264   0.02550   0.00423  -0.04435
  18   38341.5    260.8   0.028750572   0.24686   0.07047   0.06386  -0.48766
  19   39152.7    255.4   0.372843563   3.13502   0.86152  -0.49319   1.46614
  20   39732.7    251.7   0.108621184   0.90000   0.05662  -0.26290   0.90977
  21   40067.0    249.6   0.041864482   0.34398   0.48159   0.06862  -0.32763
  22   40115.0    249.3   0.052112410   0.42767  -0.22086   0.14613  -0.59795

FINAL SINGLE POINT ENERGY     -3332.794970899035

DIPOLE MOMENT
-------------
                                X             Y             Z
Electronic contribution:    -17.77724      -4.52487       3.81261
Nuclear contribution   :     18.04806       4.53822      -4.12034
                        -----------------------------------------
Total Dipole Moment    :      0.27082       0.01334      -0.30773
                        -----------------------------------------
Magnitude (a.u.)       :      0.41015
Magnitude (Debye)      :      1.04251

Rotational constants in cm-1:     0.005105     0.000413     0.000384
Rotational constants in MHz :   153.047197    12.373636    11.501653

                             ****ORCA TERMINATED NORMALLY****
TOTAL RUN TIME: 0 days 0 hours 5 minutes 16 seconds 692 msec
