                         Program Version 4.2.0 -  RELEASE  -
|  1> # ORCA input file
|  2> # SCF done       -179.715253607244          0.000532298100
|  3> ! CAM-B3LYP def2-SVP def2/J RIJCOSX Grid4 TightSCF
|  4> %maxcore 5000
|  5> %tddft
|  6>     Mode sTDDFT
|  7>     Ethresh 5.0
|  8>     maxcore 5000
|  9> end
| 10>
| 11> %pal
| 12>   nprocs 6
| 13>   end
| 14> * xyz 0 1
| 15>    C        1.65501        -1.03480        -0.25235
| 16>    C        2.01059        -2.18024        -0.90391
| 17>    C        2.72254        -2.20106        -2.12294
| 18>    N        3.29600        -2.26734        -3.11394
| 19>    C        1.81484        -3.47489        -0.37411
| 20>    N        1.75581        -4.53766         0.05381
| 21>    C        2.09145         0.31511        -0.59545
| 22>    C        1.95074         1.14498         0.53414
| 23>    C        2.33495         2.47144         0.51012
| 24>    C        2.86232         2.98467        -0.66787
| 25>    C        2.99216         2.16828        -1.80004
| 26>    C        2.61151         0.83131        -1.77086
| 27>   Cl        3.63209         2.82161        -3.25049
| 28>   Cl        3.35459         4.62658        -0.73596
| 29>    C        1.34928         0.37938         1.64413
| 30>    O        1.12822         0.74113         2.77332
| 31>    C        1.00719        -0.94703         1.04648
| 32>    C        0.11817        -1.75585         1.66710
| 33>    C       -0.58260        -2.85055         1.08953
| 34>    S       -1.31494        -4.11324         2.06227
| 35>    C       -1.86822        -4.78709         0.53345
| 36>    N       -1.51212        -4.05588        -0.48776
| 37>    N       -0.80871        -3.01141        -0.18649
| 38>    C       -2.60166        -6.00232         0.47566
| 39>    C       -3.08146        -6.49228        -0.69355
| 40>    C       -3.81564        -7.68431        -0.92942
| 41>    N       -4.01935        -8.76741        -0.10311
| 42>    C       -3.50944        -9.00474         1.22634
| 43>    C       -4.45318        -8.46364         2.29875
| 44>    C       -4.81890        -9.74972        -0.71769
| 45>    O       -5.11440       -10.79983        -0.18177
| 46>    C       -5.12476        -9.20889        -2.02218
| 47>    C       -4.48170        -7.95421        -2.12370
| 48>    C       -4.79019        -7.39208        -3.42391
| 49>    O       -4.47821        -6.35369        -3.95934
| 50>    N       -5.61883        -8.36553        -4.02637
| 51>    C       -6.10295        -8.20360        -5.37633
| 52>    C       -5.30157        -9.04106        -6.36957
| 53>    C       -5.82539        -9.44574        -3.20661
| 54>    C       -6.64736       -10.55144        -3.54204
| 55>    C       -6.79591       -11.61937        -2.71835
| 56>    C       -7.65351       -12.70402        -3.03485
| 57>    S       -7.82263       -14.09775        -1.98105
| 58>    C       -8.99132       -14.68322        -3.16298
| 59>    N       -9.13878       -13.85724        -4.16522
| 60>    N       -8.41378       -12.78768        -4.09874
| 61>    C       -9.67989       -15.91233        -2.99419
| 62>    C      -10.65693       -16.34311        -3.83166
| 63>    C      -11.32085       -17.57281        -3.59796
| 64>    C      -12.35301       -18.06729        -4.33962
| 65>    C      -13.05847       -19.31998        -4.12121
| 66>    C      -12.78014       -20.27149        -3.17686
| 67>    C      -13.50589       -21.47368        -3.02395
| 68>    N      -14.05043       -22.46690        -2.84101
| 69>    C      -11.73841       -20.21169        -2.22548
| 70>    N      -10.91871       -20.24770        -1.42225
| 71>    C      -14.12943       -19.39940        -5.11119
| 72>    C      -14.08242       -18.25871        -5.93158
| 73>    C      -12.97309       -17.37930        -5.50482
| 74>    O      -12.65548       -16.32495        -6.00434
| 75>    C      -14.98244       -18.06250        -6.95944
| 76>    C      -15.95724       -19.02805        -7.17628
| 77>    C      -16.01249       -20.16791        -6.36388
| 78>    C      -15.10315       -20.36153        -5.33038
| 79>   Cl      -17.22276       -21.35305        -6.64037
| 80>   Cl      -17.09701       -18.82153        -8.44177
| 81>    H        2.22835         3.09099         1.38658
| 82>    H        2.71829         0.23052        -2.65950
| 83>    H       -0.14076        -1.49981         2.68825
| 84>    H       -2.76054        -6.48795         1.42429
| 85>    H       -2.92755        -5.89470        -1.58354
| 86>    H       -2.50765        -8.57951         1.31054
| 87>    H       -3.43856       -10.09148         1.33577
| 88>    H       -4.64965        -7.40293         2.15730
| 89>    H       -4.01983        -8.61532         3.28355
| 90>    H       -5.40049        -8.99479         2.25125
| 91>    H       -5.98665        -7.14200        -5.61171
| 92>    H       -7.16457        -8.46171        -5.41851
| 93>    H       -4.25424        -8.75044        -6.34141
| 94>    H       -5.67988        -8.87837        -7.37472
| 95>    H       -5.37537       -10.10068        -6.13544
| 96>    H       -7.18473       -10.54043        -4.47891
| 97>    H       -6.26500       -11.67035        -1.77758
| 98>    H       -9.39758       -16.50583        -2.13397
| 99>    H      -10.94088       -15.73861        -4.67996
|100>    H      -10.97120       -18.14577        -2.74814
|101>    H      -14.92716       -17.17913        -7.57585
|102>    H      -15.17904       -21.25064        -4.72643
|103> *
|104>
|105>                          ****END OF INPUT****

CARTESIAN COORDINATES (ANGSTROEM)
---------------------------------
  C      1.655010   -1.034800   -0.252350
  C      2.010590   -2.180240   -0.903910
  C      2.722540   -2.201060   -2.122940
  N      3.296000   -2.267340   -3.113940
  C      1.814840   -3.474890   -0.374110
  N      1.755810   -4.537660    0.053810
  C      2.091450    0.315110   -0.595450
  C      1.950740    1.144980    0.534140
  C      2.334950    2.471440    0.510120
  C      2.862320    2.984670   -0.667870
  C      2.992160    2.168280   -1.800040
  C      2.611510    0.831310   -1.770860
  Cl     3.632090    2.821610   -3.250490
  Cl     3.354590    4.626580   -0.735960
  C      1.349280    0.379380    1.644130
  O      1.128220    0.741130    2.773320
  C      1.007190   -0.947030    1.046480
  C      0.118170   -1.755850    1.667100
  C     -0.582600   -2.850550    1.089530
  S     -1.314940   -4.113240    2.062270
  C     -1.868220   -4.787090    0.533450
  N     -1.512120   -4.055880   -0.487760
  N     -0.808710   -3.011410   -0.186490
  C     -2.601660   -6.002320    0.475660
  C     -3.081460   -6.492280   -0.693550
  C     -3.815640   -7.684310   -0.929420
  N     -4.019350   -8.767410   -0.103110
  C     -3.509440   -9.004740    1.226340
  C     -4.453180   -8.463640    2.298750
  C     -4.818900   -9.749720   -0.717690
  O     -5.114400  -10.799830   -0.181770
  C     -5.124760   -9.208890   -2.022180
  C     -4.481700   -7.954210   -2.123700
  C     -4.790190   -7.392080   -3.423910
  O     -4.478210   -6.353690   -3.959340
  N     -5.618830   -8.365530   -4.026370
  C     -6.102950   -8.203600   -5.376330
  C     -5.301570   -9.041060   -6.369570
  C     -5.825390   -9.445740   -3.206610
  C     -6.647360  -10.551440   -3.542040
  C     -6.795910  -11.619370   -2.718350
  C     -7.653510  -12.704020   -3.034850
  S     -7.822630  -14.097750   -1.981050
  C     -8.991320  -14.683220   -3.162980
  N     -9.138780  -13.857240   -4.165220
  N     -8.413780  -12.787680   -4.098740
  C     -9.679890  -15.912330   -2.994190
  C    -10.656930  -16.343110   -3.831660
  C    -11.320850  -17.572810   -3.597960
  C    -12.353010  -18.067290   -4.339620
  C    -13.058470  -19.319980   -4.121210
  C    -12.780140  -20.271490   -3.176860
  C    -13.505890  -21.473680   -3.023950
  N    -14.050430  -22.466900   -2.841010
  C    -11.738410  -20.211690   -2.225480
  N    -10.918710  -20.247700   -1.422250
  C    -14.129430  -19.399400   -5.111190
  C    -14.082420  -18.258710   -5.931580
  C    -12.973090  -17.379300   -5.504820
  O    -12.655480  -16.324950   -6.004340
  C    -14.982440  -18.062500   -6.959440
  C    -15.957240  -19.028050   -7.176280
  C    -16.012490  -20.167910   -6.363880
  C    -15.103150  -20.361530   -5.330380
  Cl   -17.222760  -21.353050   -6.640370
  Cl   -17.097010  -18.821530   -8.441770
  H      2.228350    3.090990    1.386580
  H      2.718290    0.230520   -2.659500
  H     -0.140760   -1.499810    2.688250
  H     -2.760540   -6.487950    1.424290
  H     -2.927550   -5.894700   -1.583540
  H     -2.507650   -8.579510    1.310540
  H     -3.438560  -10.091480    1.335770
  H     -4.649650   -7.402930    2.157300
  H     -4.019830   -8.615320    3.283550
  H     -5.400490   -8.994790    2.251250
  H     -5.986650   -7.142000   -5.611710
  H     -7.164570   -8.461710   -5.418510
  H     -4.254240   -8.750440   -6.341410
  H     -5.679880   -8.878370   -7.374720
  H     -5.375370  -10.100680   -6.135440
  H     -7.184730  -10.540430   -4.478910
  H     -6.265000  -11.670350   -1.777580
  H     -9.397580  -16.505830   -2.133970
  H    -10.940880  -15.738610   -4.679960
  H    -10.971200  -18.145770   -2.748140
  H    -14.927160  -17.179130   -7.575850
  H    -15.179040  -21.250640   -4.726430

 Total Charge           Charge          ....    0
 Multiplicity           Mult            ....    1
 Number of Electrons    NEL             ....  500
 Basis Dimension        Dim             .... 1058

ORBITAL ENERGIES
----------------

  NO   OCC          E(Eh)            E(eV)
   0   2.0000    -101.606102     -2764.8426
   1   2.0000    -101.605216     -2764.8185
   2   2.0000    -101.604615     -2764.8021
   3   2.0000    -101.604423     -2764.7969
   4   2.0000     -88.989238     -2421.5203
   5   2.0000     -88.989002     -2421.5138
   6   2.0000     -19.232054      -523.3308
   7   2.0000     -19.230472      -523.2877
   8   2.0000     -19.202152      -522.5171
   9   2.0000     -19.201424      -522.4973
  10   2.0000     -14.464144      -393.5894
  11   2.0000     -14.463492      -393.5716
  12   2.0000     -14.458348      -393.4317
  13   2.0000     -14.455805      -393.3625
  14   2.0000     -14.454532      -393.3278
  15   2.0000     -14.450235      -393.2109
  16   2.0000     -14.429006      -392.6332
  17   2.0000     -14.425799      -392.5459
  18   2.0000     -14.423958      -392.4958
  19   2.0000     -14.421364      -392.4253
  20   2.0000     -10.384871      -282.5867
  21   2.0000     -10.384200      -282.5685
  22   2.0000     -10.382936      -282.5340
  23   2.0000     -10.381358      -282.4911
  24   2.0000     -10.363235      -281.9980
  25   2.0000     -10.363132      -281.9952
  26   2.0000     -10.362672      -281.9826
  27   2.0000     -10.362004      -281.9645
  28   2.0000     -10.358690      -281.8743
  29   2.0000     -10.357510      -281.8422
  30   2.0000     -10.357270      -281.8356
  31   2.0000     -10.357251      -281.8351
  32   2.0000     -10.356733      -281.8210
  33   2.0000     -10.356054      -281.8026
  34   2.0000     -10.355131      -281.7774
  35   2.0000     -10.354538      -281.7613
  36   2.0000     -10.350866      -281.6614
  37   2.0000     -10.347683      -281.5748
  38   2.0000     -10.333491      -281.1886
  39   2.0000     -10.331104      -281.1236
  40   2.0000     -10.327831      -281.0346
  41   2.0000     -10.326202      -280.9902
  42   2.0000     -10.324954      -280.9563
  43   2.0000     -10.324400      -280.9412
  44   2.0000     -10.323725      -280.9228
  45   2.0000     -10.323598      -280.9194
  46   2.0000     -10.321703      -280.8678
  47   2.0000     -10.318246      -280.7738
  48   2.0000     -10.316993      -280.7396
  49   2.0000     -10.316797      -280.7343
  50   2.0000     -10.315988      -280.7123
  51   2.0000     -10.315824      -280.7078
  52   2.0000     -10.315189      -280.6906
  53   2.0000     -10.314209      -280.6639
  54   2.0000     -10.312822      -280.6262
  55   2.0000     -10.310980      -280.5760
  56   2.0000     -10.310623      -280.5663
  57   2.0000     -10.310196      -280.5547
  58   2.0000     -10.309172      -280.5268
  59   2.0000     -10.308917      -280.5199
  60   2.0000     -10.308315      -280.5035
  61   2.0000     -10.302018      -280.3322
  62   2.0000     -10.276010      -279.6244
  63   2.0000     -10.272841      -279.5382
  64   2.0000     -10.272344      -279.5247
  65   2.0000     -10.267858      -279.4026
  66   2.0000      -9.561154      -260.1722
  67   2.0000      -9.560311      -260.1493
  68   2.0000      -9.559605      -260.1301
  69   2.0000      -9.559475      -260.1265
  70   2.0000      -8.085466      -220.0167
  71   2.0000      -8.085289      -220.0119
  72   2.0000      -7.331525      -199.5009
  73   2.0000      -7.330717      -199.4790
  74   2.0000      -7.330018      -199.4599
  75   2.0000      -7.329871      -199.4559
  76   2.0000      -7.321439      -199.2265
  77   2.0000      -7.320663      -199.2054
  78   2.0000      -7.320547      -199.2022
  79   2.0000      -7.319859      -199.1835
  80   2.0000      -7.319820      -199.1824
  81   2.0000      -7.319746      -199.1804
  82   2.0000      -7.319113      -199.1632
  83   2.0000      -7.318968      -199.1592
  84   2.0000      -6.053973      -164.7370
  85   2.0000      -6.053867      -164.7341
  86   2.0000      -6.050702      -164.6480
  87   2.0000      -6.050583      -164.6447
  88   2.0000      -6.048042      -164.5756
  89   2.0000      -6.047758      -164.5679
  90   2.0000      -1.160244       -31.5718
  91   2.0000      -1.159755       -31.5585
  92   2.0000      -1.147911       -31.2362
  93   2.0000      -1.146046       -31.1855
  94   2.0000      -1.144480       -31.1429
  95   2.0000      -1.137895       -30.9637
  96   2.0000      -1.074515       -29.2391
  97   2.0000      -1.065232       -28.9864
  98   2.0000      -1.038528       -28.2598
  99   2.0000      -1.038199       -28.2508
 100   2.0000      -1.025895       -27.9160
 101   2.0000      -1.022316       -27.8186
 102   2.0000      -1.005626       -27.3645
 103   2.0000      -1.001434       -27.2504
 104   2.0000      -0.999886       -27.2083
 105   2.0000      -0.999070       -27.1861
 106   2.0000      -0.967871       -26.3371
 107   2.0000      -0.967660       -26.3314
 108   2.0000      -0.966009       -26.2864
 109   2.0000      -0.963756       -26.2251
 110   2.0000      -0.949085       -25.8259
 111   2.0000      -0.946002       -25.7420
 112   2.0000      -0.940914       -25.6036
 113   2.0000      -0.937788       -25.5185
 114   2.0000      -0.933669       -25.4064
 115   2.0000      -0.919946       -25.0330
 116   2.0000      -0.906095       -24.6561
 117   2.0000      -0.903317       -24.5805
 118   2.0000      -0.895659       -24.3721
 119   2.0000      -0.890147       -24.2221
 120   2.0000      -0.878225       -23.8977
 121   2.0000      -0.868038       -23.6205
 122   2.0000      -0.867668       -23.6104
 123   2.0000      -0.861567       -23.4444
 124   2.0000      -0.849220       -23.1084
 125   2.0000      -0.829228       -22.5644
 126   2.0000      -0.821213       -22.3463
 127   2.0000      -0.804005       -21.8781
 128   2.0000      -0.793206       -21.5842
 129   2.0000      -0.791365       -21.5341
 130   2.0000      -0.775449       -21.1010
 131   2.0000      -0.774516       -21.0756
 132   2.0000      -0.768825       -20.9208
 133   2.0000      -0.744737       -20.2653
 134   2.0000      -0.739949       -20.1350
 135   2.0000      -0.736509       -20.0414
 136   2.0000      -0.726038       -19.7565
 137   2.0000      -0.717452       -19.5229
 138   2.0000      -0.713062       -19.4034
 139   2.0000      -0.712105       -19.3774
 140   2.0000      -0.704995       -19.1839
 141   2.0000      -0.701479       -19.0882
 142   2.0000      -0.695790       -18.9334
 143   2.0000      -0.689518       -18.7627
 144   2.0000      -0.686208       -18.6727
 145   2.0000      -0.678357       -18.4590
 146   2.0000      -0.663850       -18.0643
 147   2.0000      -0.659605       -17.9488
 148   2.0000      -0.646493       -17.5920
 149   2.0000      -0.632811       -17.2197
 150   2.0000      -0.629809       -17.1380
 151   2.0000      -0.629216       -17.1218
 152   2.0000      -0.620511       -16.8849
 153   2.0000      -0.611254       -16.6331
 154   2.0000      -0.605522       -16.4771
 155   2.0000      -0.602373       -16.3914
 156   2.0000      -0.600886       -16.3509
 157   2.0000      -0.594972       -16.1900
 158   2.0000      -0.589865       -16.0510
 159   2.0000      -0.585207       -15.9243
 160   2.0000      -0.582871       -15.8607
 161   2.0000      -0.578464       -15.7408
 162   2.0000      -0.575305       -15.6548
 163   2.0000      -0.572554       -15.5800
 164   2.0000      -0.562105       -15.2956
 165   2.0000      -0.559298       -15.2193
 166   2.0000      -0.557040       -15.1578
 167   2.0000      -0.556943       -15.1552
 168   2.0000      -0.553622       -15.0648
 169   2.0000      -0.553086       -15.0502
 170   2.0000      -0.551868       -15.0171
 171   2.0000      -0.544643       -14.8205
 172   2.0000      -0.544543       -14.8178
 173   2.0000      -0.542214       -14.7544
 174   2.0000      -0.541149       -14.7254
 175   2.0000      -0.538635       -14.6570
 176   2.0000      -0.536664       -14.6034
 177   2.0000      -0.529469       -14.4076
 178   2.0000      -0.527357       -14.3501
 179   2.0000      -0.524905       -14.2834
 180   2.0000      -0.522574       -14.2200
 181   2.0000      -0.521458       -14.1896
 182   2.0000      -0.516486       -14.0543
 183   2.0000      -0.515953       -14.0398
 184   2.0000      -0.511914       -13.9299
 185   2.0000      -0.510372       -13.8879
 186   2.0000      -0.508929       -13.8487
 187   2.0000      -0.505074       -13.7438
 188   2.0000      -0.504983       -13.7413
 189   2.0000      -0.500895       -13.6300
 190   2.0000      -0.497871       -13.5478
 191   2.0000      -0.488939       -13.3047
 192   2.0000      -0.488278       -13.2867
 193   2.0000      -0.486415       -13.2360
 194   2.0000      -0.484450       -13.1825
 195   2.0000      -0.478514       -13.0210
 196   2.0000      -0.476783       -12.9739
 197   2.0000      -0.475800       -12.9472
 198   2.0000      -0.475068       -12.9272
 199   2.0000      -0.473568       -12.8864
 200   2.0000      -0.467335       -12.7168
 201   2.0000      -0.463521       -12.6130
 202   2.0000      -0.459934       -12.5154
 203   2.0000      -0.459253       -12.4969
 204   2.0000      -0.458810       -12.4848
 205   2.0000      -0.456133       -12.4120
 206   2.0000      -0.453675       -12.3451
 207   2.0000      -0.452387       -12.3101
 208   2.0000      -0.450121       -12.2484
 209   2.0000      -0.446384       -12.1467
 210   2.0000      -0.443917       -12.0796
 211   2.0000      -0.442270       -12.0348
 212   2.0000      -0.438640       -11.9360
 213   2.0000      -0.437747       -11.9117
 214   2.0000      -0.437164       -11.8958
 215   2.0000      -0.435005       -11.8371
 216   2.0000      -0.434613       -11.8264
 217   2.0000      -0.434357       -11.8195
 218   2.0000      -0.432456       -11.7677
 219   2.0000      -0.431333       -11.7372
 220   2.0000      -0.426591       -11.6081
 221   2.0000      -0.420570       -11.4443
 222   2.0000      -0.415975       -11.3193
 223   2.0000      -0.413943       -11.2640
 224   2.0000      -0.413276       -11.2458
 225   2.0000      -0.412479       -11.2241
 226   2.0000      -0.406828       -11.0703
 227   2.0000      -0.404741       -11.0136
 228   2.0000      -0.397137       -10.8066
 229   2.0000      -0.394151       -10.7254
 230   2.0000      -0.387342       -10.5401
 231   2.0000      -0.387050       -10.5322
 232   2.0000      -0.385959       -10.5025
 233   2.0000      -0.378570       -10.3014
 234   2.0000      -0.361692        -9.8421
 235   2.0000      -0.359156        -9.7731
 236   2.0000      -0.352461        -9.5910
 237   2.0000      -0.350922        -9.5491
 238   2.0000      -0.349103        -9.4996
 239   2.0000      -0.345000        -9.3879
 240   2.0000      -0.342603        -9.3227
 241   2.0000      -0.340953        -9.2778
 242   2.0000      -0.337702        -9.1894
 243   2.0000      -0.337168        -9.1748
 244   2.0000      -0.326502        -8.8846
 245   2.0000      -0.319587        -8.6964
 246   2.0000      -0.319121        -8.6837
 247   2.0000      -0.310086        -8.4379
 248   2.0000      -0.298502        -8.1227
 249   2.0000      -0.249830        -6.7982
 250   0.0000      -0.120378        -3.2757
 251   0.0000      -0.105872        -2.8809
 252   0.0000      -0.089831        -2.4444
 253   0.0000      -0.076087        -2.0704
 254   0.0000      -0.070985        -1.9316

MULLIKEN ATOMIC CHARGES
-----------------------
   0 C :    0.277231
   1 C :   -0.279850
   2 C :   -0.187475
   3 N :    0.166204
   4 C :   -0.185043
   5 N :    0.166145
   6 C :    0.022484
   7 C :   -0.005021
   8 C :   -0.029137
   9 C :    0.060186
  10 C :    0.052894
  11 C :   -0.013424
  12 Cl:   -0.029839
  13 Cl:   -0.038591
  14 C :    0.136867
  15 O :   -0.126663
  16 C :   -0.105677
  17 C :    0.096161
  18 C :   -0.117175
  19 S :    0.133023
  20 C :   -0.089657
  21 N :   -0.036929
  22 N :   -0.041682
  23 C :    0.058632
  24 C :   -0.012358
  25 C :    0.103815
  26 N :   -0.263336
  27 C :    0.104555
  28 C :    0.003283
  29 C :    0.164492
  30 O :   -0.215489
  31 C :   -0.057887
  32 C :   -0.023695
  33 C :    0.151456
  34 O :   -0.169000
  35 N :   -0.263040
  36 C :    0.093994
  37 C :    0.000066
  38 C :    0.144842
  39 C :   -0.023462
  40 C :    0.083200
  41 C :   -0.107806
  42 S :    0.141253
  43 C :   -0.107483
  44 N :   -0.024245
  45 N :   -0.042165
  46 C :    0.086090
  47 C :    0.015111
  48 C :   -0.047569
  49 C :   -0.050115
  50 C :    0.325582
  51 C :   -0.340659
  52 C :   -0.192808
  53 N :    0.164788
  54 C :   -0.188481
  55 N :    0.155350
  56 C :    0.028321
  57 C :   -0.015052
  58 C :    0.143352
  59 O :   -0.128317
  60 C :   -0.025780
  61 C :    0.057229
  62 C :    0.047933
  63 C :   -0.009929
  64 Cl:   -0.030837
  65 Cl:   -0.037089
  66 H :    0.002473
  67 H :    0.008773
  68 H :    0.028823
  69 H :   -0.015090
  70 H :    0.043722
  71 H :    0.027944
  72 H :    0.041459
  73 H :    0.018226
  74 H :    0.023514
  75 H :    0.032104
  76 H :    0.047915
  77 H :    0.030680
  78 H :    0.031268
  79 H :    0.028293
  80 H :    0.020161
  81 H :    0.007268
  82 H :    0.015330
  83 H :    0.013230
  84 H :    0.053640
  85 H :    0.014063
  86 H :    0.003315
  87 H :    0.001116
Sum of atomic charges:   -0.0000000

LOEWDIN ATOMIC CHARGES
----------------------
   0 C :    0.066533
   1 C :   -0.103334
   2 C :   -0.018663
   3 N :   -0.035469
   4 C :   -0.015111
   5 N :   -0.045383
   6 C :   -0.006546
   7 C :   -0.049096
   8 C :    0.003612
   9 C :   -0.135132
  10 C :   -0.126716
  11 C :   -0.012793
  12 Cl:    0.168335
  13 Cl:    0.162263
  14 C :    0.084824
  15 O :   -0.127695
  16 C :   -0.054182
  17 C :    0.030379
  18 C :   -0.163562
  19 S :    0.416366
  20 C :   -0.129907
  21 N :   -0.064343
  22 N :   -0.048183
  23 C :   -0.053008
  24 C :    0.020625
  25 C :    0.060973
  26 N :    0.000346
  27 C :    0.036246
  28 C :   -0.063046
  29 C :    0.080682
  30 O :   -0.203161
  31 C :   -0.123277
  32 C :   -0.098657
  33 C :    0.082851
  34 O :   -0.173718
  35 N :   -0.001322
  36 C :    0.036664
  37 C :   -0.059955
  38 C :    0.085109
  39 C :   -0.009751
  40 C :   -0.002940
  41 C :   -0.147892
  42 S :    0.421007
  43 C :   -0.155799
  44 N :   -0.054547
  45 N :   -0.068101
  46 C :   -0.007318
  47 C :    0.008428
  48 C :    0.064823
  49 C :   -0.082743
  50 C :    0.072766
  51 C :   -0.128204
  52 C :   -0.020155
  53 N :   -0.040558
  54 C :   -0.019803
  55 N :   -0.044073
  56 C :   -0.014300
  57 C :   -0.043674
  58 C :    0.084074
  59 O :   -0.125016
  60 C :    0.002619
  61 C :   -0.132909
  62 C :   -0.129318
  63 C :   -0.011775
  64 Cl:    0.165666
  65 Cl:    0.163672
  66 H :    0.047030
  67 H :    0.046231
  68 H :    0.050263
  69 H :    0.030663
  70 H :    0.057805
  71 H :    0.024757
  72 H :    0.037743
  73 H :    0.020351
  74 H :    0.031009
  75 H :    0.034441
  76 H :    0.039220
  77 H :    0.026089
  78 H :    0.032744
  79 H :    0.033155
  80 H :    0.023732
  81 H :    0.039682
  82 H :    0.038918
  83 H :    0.039377
  84 H :    0.044462
  85 H :    0.042556
  86 H :    0.047285
  87 H :    0.044760

  Mayer bond orders larger than 0.100000
B(  0-C ,  1-C ) :   1.7082 B(  0-C ,  6-C ) :   1.0060 B(  0-C , 16-C ) :   1.0122
B(  1-C ,  2-C ) :   1.1304 B(  1-C ,  4-C ) :   1.1520 B(  2-C ,  3-N ) :   2.9912
B(  4-C ,  5-N ) :   3.0087 B(  6-C ,  7-C ) :   1.3264 B(  6-C , 11-C ) :   1.3460
B(  7-C ,  8-C ) :   1.3403 B(  7-C , 14-C ) :   0.9238 B(  8-C ,  9-C ) :   1.3535
B(  8-C , 66-H ) :   1.0170 B(  9-C , 10-C ) :   1.3967 B(  9-C , 13-Cl) :   1.0520
B( 10-C , 11-C ) :   1.3604 B( 10-C , 12-Cl) :   1.0757 B( 11-C , 67-H ) :   0.9896
B( 14-C , 15-O ) :   2.2862 B( 14-C , 16-C ) :   0.9275 B( 16-C , 17-C ) :   1.7440
B( 17-C , 18-C ) :   1.0693 B( 17-C , 68-H ) :   0.9329 B( 18-C , 19-S ) :   1.0947
B( 18-C , 22-N ) :   1.6109 B( 19-S , 20-C ) :   1.1137 B( 19-S , 22-N ) :   0.1037
B( 20-C , 21-N ) :   1.6488 B( 20-C , 23-C ) :   1.1118 B( 21-N , 22-N ) :   1.2659
B( 23-C , 24-C ) :   1.6344 B( 23-C , 69-H ) :   0.9456 B( 24-C , 25-C ) :   1.1565
B( 24-C , 70-H ) :   0.9533 B( 25-C , 26-N ) :   1.1611 B( 25-C , 32-C ) :   1.3572
B( 26-N , 27-C ) :   0.9408 B( 26-N , 29-C ) :   1.0683 B( 27-C , 28-C ) :   1.1178
B( 27-C , 71-H ) :   0.9503 B( 27-C , 72-H ) :   0.9272 B( 28-C , 73-H ) :   0.9664
B( 28-C , 74-H ) :   0.9691 B( 28-C , 75-H ) :   0.9597 B( 29-C , 30-O ) :   2.0124
B( 29-C , 31-C ) :   0.9906 B( 30-O , 82-H ) :   0.1141 B( 31-C , 32-C ) :   1.2558
B( 31-C , 38-C ) :   1.3210 B( 32-C , 33-C ) :   0.9619 B( 33-C , 34-O ) :   2.1608
B( 33-C , 35-N ) :   1.0221 B( 35-N , 36-C ) :   0.9393 B( 35-N , 38-C ) :   1.1809
B( 36-C , 37-C ) :   1.1198 B( 36-C , 76-H ) :   0.9288 B( 36-C , 77-H ) :   0.9502
B( 37-C , 78-H ) :   0.9644 B( 37-C , 79-H ) :   0.9682 B( 37-C , 80-H ) :   0.9687
B( 38-C , 39-C ) :   1.1333 B( 39-C , 40-C ) :   1.6488 B( 39-C , 81-H ) :   0.9737
B( 40-C , 41-C ) :   1.1134 B( 40-C , 82-H ) :   0.9219 B( 41-C , 42-S ) :   1.1170
B( 41-C , 45-N ) :   1.6335 B( 42-S , 43-C ) :   1.0984 B( 43-C , 44-N ) :   1.6487
B( 43-C , 46-C ) :   1.0895 B( 44-N , 45-N ) :   1.2615 B( 46-C , 47-C ) :   1.6315
B( 46-C , 83-H ) :   0.9590 B( 47-C , 48-C ) :   1.1233 B( 47-C , 84-H ) :   0.9871
B( 48-C , 49-C ) :   1.5698 B( 48-C , 85-H ) :   0.9599 B( 49-C , 50-C ) :   1.0582
B( 49-C , 58-C ) :   0.9363 B( 50-C , 51-C ) :   1.6447 B( 50-C , 56-C ) :   0.9958
B( 51-C , 52-C ) :   1.1397 B( 51-C , 54-C ) :   1.1456 B( 52-C , 53-N ) :   2.9734
B( 54-C , 55-N ) :   2.9640 B( 56-C , 57-C ) :   1.3292 B( 56-C , 63-C ) :   1.3391
B( 57-C , 58-C ) :   0.9410 B( 57-C , 60-C ) :   1.3422 B( 58-C , 59-O ) :   2.2318
B( 60-C , 61-C ) :   1.3463 B( 60-C , 86-H ) :   1.0164 B( 61-C , 62-C ) :   1.3998
B( 61-C , 65-Cl) :   1.0525 B( 62-C , 63-C ) :   1.3649 B( 62-C , 64-Cl) :   1.0803
B( 63-C , 87-H ) :   0.9851

-----------------------------------------------------------------------------
         ABSORPTION SPECTRUM VIA TRANSITION ELECTRIC DIPOLE MOMENTS
-----------------------------------------------------------------------------
State   Energy  Wavelength   fosc         T2         TX        TY        TZ
        (cm-1)    (nm)                  (au**2)     (au)      (au)      (au)
-----------------------------------------------------------------------------
   0   14043.6    712.1   1.306950066  30.63766   3.41922   3.85117   2.02856
   1   18945.3    527.8   0.002524015   0.04386  -0.10149   0.15248  -0.10154
   2   22081.5    452.9   0.176622902   2.63326  -0.67864  -1.08866   0.99375
   3   24184.1    413.5   0.907177381  12.34918   1.98572   2.87541   0.37163
   4   24538.6    407.5   0.065004185   0.87210  -0.75956  -0.53407   0.09971
   5   25484.1    392.4   0.002687811   0.03472  -0.11725  -0.13694   0.04715
   6   25576.9    391.0   0.061430337   0.79070  -0.56838  -0.68261   0.04110
   7   26711.2    374.4   0.031513981   0.38841   0.47095   0.30532  -0.27090
   8   27298.9    366.3   0.135391305   1.63276  -1.00774  -0.78509  -0.02916
   9   27532.9    363.2   0.013746551   0.16437  -0.35481   0.02052  -0.19508
  10   27694.2    361.1   0.030336851   0.36063   0.53571   0.18029  -0.20283
  11   27781.9    359.9   0.001394863   0.01653   0.07584  -0.09616  -0.03911
  12   28601.4    349.6   0.544211528   6.26407  -1.45495  -2.01712  -0.28004
  13   28657.7    348.9   0.132429480   1.52131  -0.74752   0.34026  -0.92019
  14   29474.8    339.3   0.014345331   0.16023  -0.06511   0.28516  -0.27326
  15   30070.7    332.5   0.044839288   0.49090   0.21048   0.64018  -0.19173
  16   30333.7    329.7   0.025025058   0.27160  -0.23411   0.45216  -0.11111
  17   30992.0    322.7   0.082875909   0.88035   0.09177   0.76971   0.52865
  18   31153.4    321.0   0.002811387   0.02971   0.00683   0.16901   0.03313
  19   31698.6    315.5   0.000895310   0.00930   0.08114  -0.03478   0.03880
  20   32602.5    306.7   0.066566309   0.67217   0.05375   0.65971   0.48381
  21   32756.2    305.3   0.112053256   1.12618   0.69070  -0.06581   0.80298
  22   32809.2    304.8   0.028718999   0.28817   0.43179  -0.11916   0.29586
  23   33249.9    300.8   0.046856559   0.46393   0.55824   0.23667   0.31030
  24   33805.4    295.8   0.110627011   1.07734   0.04862  -1.00194  -0.26661
  25   34058.0    293.6   0.015190691   0.14684  -0.10060  -0.36349  -0.06778
  26   35070.4    285.1   0.179579813   1.68575   0.39066  -0.97311   0.76563
  27   35194.0    284.1   0.407391992   3.81083  -1.15786  -0.82215  -1.33950
  28   35473.5    281.9   0.604442623   5.60953  -0.30444   2.32579  -0.32796
  29   35684.5    280.2   0.023572202   0.21747  -0.06202  -0.25876  -0.38297
  30   36098.0    277.0   0.125209982   1.14191  -0.33277   0.61264  -0.80984
  31   36163.5    276.5   0.069731810   0.63480   0.03346  -0.29181   0.74063
  32   36817.1    271.6   0.087019380   0.77811   0.24881   0.56820  -0.62718
  33   37454.9    267.0   0.237586335   2.08828  -0.37799  -1.16996   0.75933
  34   37610.6    265.9   0.065907026   0.57689   0.16454   0.55582  -0.49080
  35   37934.2    263.6   0.021316189   0.18499  -0.26480  -0.31581  -0.12304
  36   38243.3    261.5   0.001060459   0.00913  -0.04323   0.08513   0.00358
  37   38585.1    259.2   0.007167670   0.06116   0.04478  -0.09513  -0.22383
  38   38801.5    257.7   0.116661112   0.98981  -0.17349   0.24536   0.94842
  39   39289.3    254.5   0.058613175   0.49113   0.04381  -0.56087  -0.41789
  40   39606.4    252.5   0.048045678   0.39936   0.07915   0.29672   0.55231
  41   39912.5    250.5   0.077654593   0.64052   0.01396   0.27416   0.75177
  42   40143.8    249.1   0.023100486   0.18944  -0.03520  -0.06712   0.42860

FINAL SINGLE POINT ENERGY     -5247.541662933534

DIPOLE MOMENT
-------------
                                X             Y             Z
Electronic contribution:     -6.73112      11.04683     -17.04959
Nuclear contribution   :      5.92314      -9.76932      17.93353
                        -----------------------------------------
Total Dipole Moment    :     -0.80799       1.27751       0.88394
                        -----------------------------------------
Magnitude (a.u.)       :      1.75107
Magnitude (Debye)      :      4.45086

Rotational constants in cm-1:     0.003157     0.000152     0.000148
Rotational constants in MHz :    94.633996     4.569328     4.433633

                             ****ORCA TERMINATED NORMALLY****
TOTAL RUN TIME: 0 days 0 hours 7 minutes 36 seconds 498 msec
