                         Program Version 4.2.0 -  RELEASE  -
|  1> # ORCA input file
|  2> # SCF done       -212.877229103916          0.000576046930
|  3> ! CAM-B3LYP def2-SVP def2/J RIJCOSX Grid4 TightSCF
|  4> %maxcore 5000
|  5> %tddft
|  6>     Mode sTDDFT
|  7>     Ethresh 5.0
|  8>     maxcore 5000
|  9> end
| 10>
| 11> %pal
| 12>   nprocs 6
| 13>   end
| 14> * xyz 0 1
| 15>    C        0.30017        -1.56267        -5.96013
| 16>    C       -0.76963        -0.83505        -6.40600
| 17>    C       -0.67520         0.57822        -6.15182
| 18>    C       -1.59198         1.52932        -6.49784
| 19>    C       -2.80798         1.25656        -7.16257
| 20>    N       -3.81532         1.11032        -7.68833
| 21>    C       -1.37910         2.89509        -6.20066
| 22>    N       -1.21501         4.00312        -5.96029
| 23>    S        0.81685         0.97402        -5.32182
| 24>    C        1.32963        -0.74613        -5.28044
| 25>    O        2.36044        -1.10422        -4.79116
| 26>    C       -1.89758        -1.44774        -6.98963
| 27>    N       -2.79917        -2.02749        -7.39386
| 28>    C        0.52813        -2.96518        -6.14743
| 29>    C        0.46940        -3.69408        -7.32116
| 30>    N        0.17510        -3.22419        -8.62499
| 31>    O        0.03126        -2.02479        -8.78247
| 32>    O        0.11427        -4.05123        -9.50917
| 33>    C        0.92201        -5.03812        -7.07089
| 34>    C        1.32119        -5.12600        -5.77814
| 35>    C        1.09082        -3.85908        -5.13378
| 36>    C        1.23891        -3.54557        -3.79933
| 37>    C        0.45024        -2.61522        -3.05888
| 38>    C        0.74884        -2.74860        -1.73817
| 39>    C        1.78706        -3.72668        -1.57954
| 40>    N        2.28554        -4.00644        -0.29088
| 41>    O        2.97672        -4.99859        -0.11746
| 42>    O        1.97286        -3.23929         0.59900
| 43>    C        2.14717        -4.22002        -2.83858
| 44>    C        3.23318        -4.96917        -3.32333
| 45>    C        4.15135        -5.69925        -2.61081
| 46>    C        5.19258        -6.39262        -3.25179
| 47>    N        6.11376        -7.16111        -2.59101
| 48>    C        6.17030        -7.39980        -1.16575
| 49>    C        5.14691        -8.44102        -0.72271
| 50>    C        7.02411        -7.77948        -3.47058
| 51>    O        7.90857        -8.52544        -3.12572
| 52>    C        6.61123        -7.30768        -4.78368
| 53>    C        5.49848        -6.47027        -4.62796
| 54>    C        5.10115        -6.03350        -5.95209
| 55>    O        4.20020        -5.31536        -6.33299
| 56>    N        6.01688        -6.65908        -6.82939
| 57>    C        5.94419        -6.38644        -8.24672
| 58>    C        7.03279        -5.41338        -8.69154
| 59>    C        6.93129        -7.41053        -6.14337
| 60>    C        8.02216        -8.19843        -6.59913
| 61>    C        8.40240        -8.47716        -7.86560
| 62>    C        9.50511        -9.35179        -8.17227
| 63>    C        9.44327       -10.27348        -9.23807
| 64>    C        8.28084       -10.39859       -10.14464
| 65>    O        7.26257        -9.77112       -10.11982
| 66>    S        8.60369       -11.68052       -11.35101
| 67>    C       10.22619       -12.04491       -10.67923
| 68>    O       10.96829       -12.84966       -11.15349
| 69>    C       10.46540       -11.17950        -9.50390
| 70>    C       11.65096       -11.24121        -8.75113
| 71>    C       11.73704       -10.28068        -7.73340
| 72>    C       10.71385        -9.37989        -7.45621
| 73>    C       11.21447        -8.46872        -6.38911
| 74>    O       10.74060        -7.47337        -5.94297
| 75>    O       12.44120        -8.94546        -5.99960
| 76>    C       12.81716       -10.03694        -6.73543
| 77>    O       13.82926       -10.63049        -6.53873
| 78>    C       12.66297       -12.24337        -9.00080
| 79>    C       13.98233       -11.98308        -9.05592
| 80>    C       14.99364       -12.97708        -9.24182
| 81>    C       16.31952       -12.69652        -9.46276
| 82>    C       17.16594       -13.85573        -9.58951
| 83>    C       18.51510       -13.85855        -9.81045
| 84>    C       19.30212       -12.69482        -9.95206
| 85>    N       19.99853       -11.79379       -10.07899
| 86>    C       19.23712       -15.06999        -9.91488
| 87>    N       19.82945       -16.04658       -10.00150
| 88>    S       16.24556       -15.33341        -9.42223
| 89>    C       14.70984       -14.42397        -9.16777
| 90>    O       13.67114       -14.97691        -8.96230
| 91>    C       16.79788       -11.37601        -9.57552
| 92>    N       17.11040       -10.27753        -9.67029
| 93>    H        0.93446        -5.80433        -7.82174
| 94>    H        1.64123        -6.01534        -5.27282
| 95>    H       -0.33278        -2.00687        -3.46955
| 96>    H        0.29984        -2.23064        -0.91102
| 97>    H        3.35330        -4.93671        -4.39792
| 98>    H        4.07337        -5.77216        -1.53708
| 99>    H        6.01657        -6.45906        -0.63268
|100>    H        7.18002        -7.76526        -0.96098
|101>    H        4.13283        -8.09779        -0.91119
|102>    H        5.25589        -8.62289         0.34214
|103>    H        5.30799        -9.37639        -1.25342
|104>    H        4.96255        -5.93220        -8.41135
|105>    H        5.98535        -7.32457        -8.80492
|106>    H        6.89076        -4.45119        -8.20571
|107>    H        6.97509        -5.26893        -9.76647
|108>    H        8.02367        -5.78250        -8.43728
|109>    H        8.56344        -8.64725        -5.77625
|110>    H        7.83620        -8.13341        -8.71576
|111>    H       12.30160       -13.24743        -9.18181
|112>    H       14.34629       -10.96605        -8.98448
|113> *
|114>
|115>                          ****END OF INPUT****

CARTESIAN COORDINATES (ANGSTROEM)
---------------------------------
  C      0.300170   -1.562670   -5.960130
  C     -0.769630   -0.835050   -6.406000
  C     -0.675200    0.578220   -6.151820
  C     -1.591980    1.529320   -6.497840
  C     -2.807980    1.256560   -7.162570
  N     -3.815320    1.110320   -7.688330
  C     -1.379100    2.895090   -6.200660
  N     -1.215010    4.003120   -5.960290
  S      0.816850    0.974020   -5.321820
  C      1.329630   -0.746130   -5.280440
  O      2.360440   -1.104220   -4.791160
  C     -1.897580   -1.447740   -6.989630
  N     -2.799170   -2.027490   -7.393860
  C      0.528130   -2.965180   -6.147430
  C      0.469400   -3.694080   -7.321160
  N      0.175100   -3.224190   -8.624990
  O      0.031260   -2.024790   -8.782470
  O      0.114270   -4.051230   -9.509170
  C      0.922010   -5.038120   -7.070890
  C      1.321190   -5.126000   -5.778140
  C      1.090820   -3.859080   -5.133780
  C      1.238910   -3.545570   -3.799330
  C      0.450240   -2.615220   -3.058880
  C      0.748840   -2.748600   -1.738170
  C      1.787060   -3.726680   -1.579540
  N      2.285540   -4.006440   -0.290880
  O      2.976720   -4.998590   -0.117460
  O      1.972860   -3.239290    0.599000
  C      2.147170   -4.220020   -2.838580
  C      3.233180   -4.969170   -3.323330
  C      4.151350   -5.699250   -2.610810
  C      5.192580   -6.392620   -3.251790
  N      6.113760   -7.161110   -2.591010
  C      6.170300   -7.399800   -1.165750
  C      5.146910   -8.441020   -0.722710
  C      7.024110   -7.779480   -3.470580
  O      7.908570   -8.525440   -3.125720
  C      6.611230   -7.307680   -4.783680
  C      5.498480   -6.470270   -4.627960
  C      5.101150   -6.033500   -5.952090
  O      4.200200   -5.315360   -6.332990
  N      6.016880   -6.659080   -6.829390
  C      5.944190   -6.386440   -8.246720
  C      7.032790   -5.413380   -8.691540
  C      6.931290   -7.410530   -6.143370
  C      8.022160   -8.198430   -6.599130
  C      8.402400   -8.477160   -7.865600
  C      9.505110   -9.351790   -8.172270
  C      9.443270  -10.273480   -9.238070
  C      8.280840  -10.398590  -10.144640
  O      7.262570   -9.771120  -10.119820
  S      8.603690  -11.680520  -11.351010
  C     10.226190  -12.044910  -10.679230
  O     10.968290  -12.849660  -11.153490
  C     10.465400  -11.179500   -9.503900
  C     11.650960  -11.241210   -8.751130
  C     11.737040  -10.280680   -7.733400
  C     10.713850   -9.379890   -7.456210
  C     11.214470   -8.468720   -6.389110
  O     10.740600   -7.473370   -5.942970
  O     12.441200   -8.945460   -5.999600
  C     12.817160  -10.036940   -6.735430
  O     13.829260  -10.630490   -6.538730
  C     12.662970  -12.243370   -9.000800
  C     13.982330  -11.983080   -9.055920
  C     14.993640  -12.977080   -9.241820
  C     16.319520  -12.696520   -9.462760
  C     17.165940  -13.855730   -9.589510
  C     18.515100  -13.858550   -9.810450
  C     19.302120  -12.694820   -9.952060
  N     19.998530  -11.793790  -10.078990
  C     19.237120  -15.069990   -9.914880
  N     19.829450  -16.046580  -10.001500
  S     16.245560  -15.333410   -9.422230
  C     14.709840  -14.423970   -9.167770
  O     13.671140  -14.976910   -8.962300
  C     16.797880  -11.376010   -9.575520
  N     17.110400  -10.277530   -9.670290
  H      0.934460   -5.804330   -7.821740
  H      1.641230   -6.015340   -5.272820
  H     -0.332780   -2.006870   -3.469550
  H      0.299840   -2.230640   -0.911020
  H      3.353300   -4.936710   -4.397920
  H      4.073370   -5.772160   -1.537080
  H      6.016570   -6.459060   -0.632680
  H      7.180020   -7.765260   -0.960980
  H      4.132830   -8.097790   -0.911190
  H      5.255890   -8.622890    0.342140
  H      5.307990   -9.376390   -1.253420
  H      4.962550   -5.932200   -8.411350
  H      5.985350   -7.324570   -8.804920
  H      6.890760   -4.451190   -8.205710
  H      6.975090   -5.268930   -9.766470
  H      8.023670   -5.782500   -8.437280
  H      8.563440   -8.647250   -5.776250
  H      7.836200   -8.133410   -8.715760
  H     12.301600  -13.247430   -9.181810
  H     14.346290  -10.966050   -8.984480

 Total Charge           Charge          ....    0
 Multiplicity           Mult            ....    1
 Number of Electrons    NEL             ....  554
 Basis Dimension        Dim             .... 1204

ORBITAL ENERGIES
----------------

  NO   OCC          E(Eh)            E(eV)
   0   2.0000     -88.995243     -2421.6837
   1   2.0000     -88.992614     -2421.6121
   2   2.0000     -88.982085     -2421.3256
   3   2.0000     -19.318116      -525.6726
   4   2.0000     -19.275442      -524.5114
   5   2.0000     -19.275063      -524.5011
   6   2.0000     -19.275001      -524.4994
   7   2.0000     -19.268381      -524.3193
   8   2.0000     -19.265219      -524.2333
   9   2.0000     -19.263503      -524.1866
  10   2.0000     -19.263111      -524.1759
  11   2.0000     -19.259816      -524.0862
  12   2.0000     -19.258405      -524.0478
  13   2.0000     -19.257145      -524.0136
  14   2.0000     -19.227527      -523.2076
  15   2.0000     -19.218329      -522.9573
  16   2.0000     -14.669549      -399.1787
  17   2.0000     -14.667264      -399.1165
  18   2.0000     -14.484711      -394.1490
  19   2.0000     -14.479216      -393.9995
  20   2.0000     -14.448129      -393.1536
  21   2.0000     -14.442681      -393.0053
  22   2.0000     -14.439859      -392.9285
  23   2.0000     -14.439180      -392.9101
  24   2.0000     -14.439094      -392.9077
  25   2.0000     -14.435041      -392.7974
  26   2.0000     -10.460873      -284.6548
  27   2.0000     -10.459018      -284.6043
  28   2.0000     -10.437493      -284.0186
  29   2.0000     -10.436505      -283.9917
  30   2.0000     -10.436089      -283.9804
  31   2.0000     -10.431303      -283.8502
  32   2.0000     -10.407393      -283.1996
  33   2.0000     -10.401838      -283.0484
  34   2.0000     -10.395043      -282.8635
  35   2.0000     -10.391028      -282.7542
  36   2.0000     -10.388254      -282.6787
  37   2.0000     -10.384823      -282.5854
  38   2.0000     -10.379630      -282.4441
  39   2.0000     -10.375159      -282.3224
  40   2.0000     -10.370942      -282.2077
  41   2.0000     -10.369052      -282.1563
  42   2.0000     -10.367922      -282.1255
  43   2.0000     -10.366672      -282.0915
  44   2.0000     -10.365674      -282.0643
  45   2.0000     -10.362465      -281.9770
  46   2.0000     -10.361713      -281.9565
  47   2.0000     -10.360549      -281.9249
  48   2.0000     -10.359967      -281.9090
  49   2.0000     -10.359041      -281.8838
  50   2.0000     -10.358329      -281.8645
  51   2.0000     -10.352598      -281.7085
  52   2.0000     -10.351899      -281.6895
  53   2.0000     -10.345215      -281.5076
  54   2.0000     -10.344643      -281.4921
  55   2.0000     -10.344577      -281.4903
  56   2.0000     -10.341148      -281.3969
  57   2.0000     -10.340796      -281.3874
  58   2.0000     -10.338351      -281.3208
  59   2.0000     -10.338123      -281.3146
  60   2.0000     -10.336317      -281.2655
  61   2.0000     -10.334660      -281.2204
  62   2.0000     -10.333946      -281.2010
  63   2.0000     -10.332656      -281.1659
  64   2.0000     -10.328954      -281.0651
  65   2.0000     -10.328846      -281.0622
  66   2.0000     -10.325629      -280.9747
  67   2.0000     -10.324835      -280.9530
  68   2.0000     -10.323461      -280.9157
  69   2.0000     -10.322838      -280.8987
  70   2.0000     -10.320267      -280.8287
  71   2.0000     -10.310193      -280.5546
  72   2.0000     -10.309291      -280.5301
  73   2.0000     -10.307893      -280.4920
  74   2.0000     -10.297704      -280.2148
  75   2.0000     -10.295246      -280.1479
  76   2.0000     -10.281783      -279.7815
  77   2.0000     -10.276546      -279.6390
  78   2.0000      -8.092615      -220.2113
  79   2.0000      -8.089966      -220.1392
  80   2.0000      -8.081213      -219.9010
  81   2.0000      -6.062194      -164.9607
  82   2.0000      -6.059504      -164.8875
  83   2.0000      -6.058168      -164.8511
  84   2.0000      -6.055556      -164.7801
  85   2.0000      -6.053271      -164.7179
  86   2.0000      -6.050626      -164.6459
  87   2.0000      -6.050112      -164.6319
  88   2.0000      -6.046759      -164.5407
  89   2.0000      -6.042261      -164.4183
  90   2.0000      -1.342046       -36.5189
  91   2.0000      -1.338022       -36.4094
  92   2.0000      -1.268961       -34.5302
  93   2.0000      -1.200413       -32.6649
  94   2.0000      -1.197694       -32.5909
  95   2.0000      -1.196339       -32.5540
  96   2.0000      -1.193672       -32.4815
  97   2.0000      -1.191081       -32.4110
  98   2.0000      -1.166090       -31.7309
  99   2.0000      -1.160704       -31.5844
 100   2.0000      -1.157044       -31.4848
 101   2.0000      -1.156186       -31.4614
 102   2.0000      -1.154781       -31.4232
 103   2.0000      -1.094516       -29.7833
 104   2.0000      -1.084712       -29.5165
 105   2.0000      -1.057773       -28.7835
 106   2.0000      -1.054523       -28.6950
 107   2.0000      -1.049247       -28.5515
 108   2.0000      -1.038714       -28.2649
 109   2.0000      -1.031216       -28.0608
 110   2.0000      -1.026466       -27.9316
 111   2.0000      -1.018954       -27.7271
 112   2.0000      -1.017955       -27.7000
 113   2.0000      -1.015898       -27.6440
 114   2.0000      -1.012579       -27.5537
 115   2.0000      -1.010206       -27.4891
 116   2.0000      -0.984370       -26.7861
 117   2.0000      -0.976065       -26.5601
 118   2.0000      -0.958053       -26.0699
 119   2.0000      -0.955855       -26.0101
 120   2.0000      -0.949014       -25.8240
 121   2.0000      -0.937971       -25.5235
 122   2.0000      -0.932121       -25.3643
 123   2.0000      -0.931133       -25.3374
 124   2.0000      -0.913881       -24.8680
 125   2.0000      -0.909221       -24.7412
 126   2.0000      -0.908384       -24.7184
 127   2.0000      -0.900682       -24.5088
 128   2.0000      -0.895139       -24.3580
 129   2.0000      -0.888173       -24.1684
 130   2.0000      -0.870179       -23.6788
 131   2.0000      -0.869560       -23.6619
 132   2.0000      -0.847135       -23.0517
 133   2.0000      -0.842545       -22.9268
 134   2.0000      -0.833472       -22.6799
 135   2.0000      -0.828290       -22.5389
 136   2.0000      -0.823522       -22.4092
 137   2.0000      -0.803389       -21.8613
 138   2.0000      -0.799405       -21.7529
 139   2.0000      -0.788887       -21.4667
 140   2.0000      -0.783903       -21.3311
 141   2.0000      -0.781085       -21.2544
 142   2.0000      -0.761377       -20.7181
 143   2.0000      -0.757863       -20.6225
 144   2.0000      -0.753830       -20.5128
 145   2.0000      -0.750257       -20.4155
 146   2.0000      -0.743228       -20.2243
 147   2.0000      -0.734292       -19.9811
 148   2.0000      -0.728097       -19.8125
 149   2.0000      -0.725280       -19.7359
 150   2.0000      -0.721599       -19.6357
 151   2.0000      -0.707024       -19.2391
 152   2.0000      -0.701399       -19.0860
 153   2.0000      -0.697107       -18.9693
 154   2.0000      -0.691380       -18.8134
 155   2.0000      -0.682337       -18.5673
 156   2.0000      -0.679084       -18.4788
 157   2.0000      -0.675723       -18.3874
 158   2.0000      -0.672552       -18.3011
 159   2.0000      -0.668613       -18.1939
 160   2.0000      -0.665114       -18.0987
 161   2.0000      -0.659826       -17.9548
 162   2.0000      -0.658123       -17.9084
 163   2.0000      -0.656573       -17.8663
 164   2.0000      -0.651012       -17.7149
 165   2.0000      -0.647642       -17.6232
 166   2.0000      -0.642084       -17.4720
 167   2.0000      -0.641068       -17.4444
 168   2.0000      -0.629937       -17.1415
 169   2.0000      -0.627011       -17.0618
 170   2.0000      -0.623600       -16.9690
 171   2.0000      -0.618808       -16.8386
 172   2.0000      -0.618447       -16.8288
 173   2.0000      -0.613331       -16.6896
 174   2.0000      -0.608681       -16.5631
 175   2.0000      -0.606653       -16.5079
 176   2.0000      -0.599592       -16.3157
 177   2.0000      -0.597729       -16.2650
 178   2.0000      -0.596245       -16.2247
 179   2.0000      -0.592952       -16.1351
 180   2.0000      -0.590248       -16.0615
 181   2.0000      -0.588831       -16.0229
 182   2.0000      -0.584807       -15.9134
 183   2.0000      -0.580489       -15.7959
 184   2.0000      -0.578159       -15.7325
 185   2.0000      -0.575159       -15.6509
 186   2.0000      -0.573839       -15.6149
 187   2.0000      -0.570599       -15.5268
 188   2.0000      -0.570248       -15.5172
 189   2.0000      -0.568377       -15.4663
 190   2.0000      -0.563958       -15.3461
 191   2.0000      -0.562447       -15.3049
 192   2.0000      -0.558457       -15.1964
 193   2.0000      -0.556421       -15.1410
 194   2.0000      -0.554543       -15.0899
 195   2.0000      -0.550948       -14.9921
 196   2.0000      -0.549129       -14.9426
 197   2.0000      -0.543796       -14.7974
 198   2.0000      -0.541687       -14.7401
 199   2.0000      -0.537472       -14.6254
 200   2.0000      -0.536474       -14.5982
 201   2.0000      -0.536081       -14.5875
 202   2.0000      -0.532643       -14.4940
 203   2.0000      -0.532176       -14.4813
 204   2.0000      -0.531905       -14.4739
 205   2.0000      -0.527509       -14.3543
 206   2.0000      -0.525726       -14.3057
 207   2.0000      -0.523232       -14.2379
 208   2.0000      -0.521664       -14.1952
 209   2.0000      -0.515360       -14.0237
 210   2.0000      -0.509862       -13.8741
 211   2.0000      -0.508823       -13.8458
 212   2.0000      -0.508324       -13.8322
 213   2.0000      -0.503466       -13.7000
 214   2.0000      -0.499729       -13.5983
 215   2.0000      -0.496716       -13.5163
 216   2.0000      -0.495554       -13.4847
 217   2.0000      -0.493809       -13.4372
 218   2.0000      -0.493365       -13.4251
 219   2.0000      -0.490965       -13.3598
 220   2.0000      -0.490306       -13.3419
 221   2.0000      -0.486898       -13.2492
 222   2.0000      -0.484166       -13.1748
 223   2.0000      -0.477820       -13.0021
 224   2.0000      -0.474847       -12.9212
 225   2.0000      -0.474579       -12.9140
 226   2.0000      -0.472846       -12.8668
 227   2.0000      -0.469673       -12.7804
 228   2.0000      -0.468360       -12.7447
 229   2.0000      -0.466854       -12.7037
 230   2.0000      -0.465722       -12.6729
 231   2.0000      -0.463531       -12.6133
 232   2.0000      -0.463005       -12.5990
 233   2.0000      -0.462326       -12.5805
 234   2.0000      -0.460802       -12.5391
 235   2.0000      -0.458552       -12.4778
 236   2.0000      -0.457492       -12.4490
 237   2.0000      -0.450687       -12.2638
 238   2.0000      -0.446622       -12.1532
 239   2.0000      -0.446057       -12.1378
 240   2.0000      -0.445385       -12.1195
 241   2.0000      -0.444391       -12.0925
 242   2.0000      -0.442419       -12.0388
 243   2.0000      -0.442214       -12.0333
 244   2.0000      -0.441897       -12.0246
 245   2.0000      -0.438861       -11.9420
 246   2.0000      -0.438695       -11.9375
 247   2.0000      -0.426812       -11.6141
 248   2.0000      -0.423329       -11.5194
 249   2.0000      -0.420997       -11.4559
 250   2.0000      -0.419225       -11.4077
 251   2.0000      -0.410560       -11.1719
 252   2.0000      -0.406486       -11.0610
 253   2.0000      -0.406017       -11.0483
 254   2.0000      -0.402796       -10.9606
 255   2.0000      -0.398294       -10.8381
 256   2.0000      -0.398210       -10.8359
 257   2.0000      -0.397098       -10.8056
 258   2.0000      -0.394688       -10.7400
 259   2.0000      -0.391298       -10.6478
 260   2.0000      -0.386905       -10.5282
 261   2.0000      -0.385741       -10.4966
 262   2.0000      -0.383846       -10.4450
 263   2.0000      -0.383529       -10.4363
 264   2.0000      -0.378815       -10.3081
 265   2.0000      -0.376512       -10.2454
 266   2.0000      -0.376161       -10.2359
 267   2.0000      -0.361557        -9.8385
 268   2.0000      -0.360248        -9.8029
 269   2.0000      -0.353461        -9.6182
 270   2.0000      -0.352297        -9.5865
 271   2.0000      -0.346841        -9.4380
 272   2.0000      -0.345581        -9.4037
 273   2.0000      -0.329088        -8.9549
 274   2.0000      -0.323447        -8.8014
 275   2.0000      -0.318814        -8.6754
 276   2.0000      -0.264158        -7.1881
 277   0.0000      -0.164999        -4.4899
 278   0.0000      -0.143061        -3.8929
 279   0.0000      -0.130741        -3.5576
 280   0.0000      -0.122850        -3.3429
 281   0.0000      -0.110012        -2.9936

MULLIKEN ATOMIC CHARGES
-----------------------
   0 C :   -0.021805
   1 C :    0.028521
   2 C :    0.048015
   3 C :   -0.270251
   4 C :   -0.187200
   5 N :    0.228686
   6 C :   -0.201674
   7 N :    0.183161
   8 S :    0.127273
   9 C :    0.049897
  10 O :   -0.106331
  11 C :   -0.290317
  12 N :    0.266646
  13 C :    0.004666
  14 C :    0.100746
  15 N :    0.266819
  16 O :   -0.239325
  17 O :   -0.216497
  18 C :    0.005006
  19 C :    0.062495
  20 C :    0.057225
  21 C :    0.010536
  22 C :    0.015157
  23 C :    0.033956
  24 C :    0.064740
  25 N :    0.279398
  26 O :   -0.255804
  27 O :   -0.236022
  28 C :    0.104487
  29 C :   -0.077931
  30 C :    0.000880
  31 C :    0.143794
  32 N :   -0.260793
  33 C :    0.094574
  34 C :    0.004415
  35 C :    0.167388
  36 O :   -0.173994
  37 C :   -0.041003
  38 C :   -0.059012
  39 C :    0.170454
  40 O :   -0.195798
  41 N :   -0.255014
  42 C :    0.089686
  43 C :   -0.004928
  44 C :    0.087260
  45 C :    0.031986
  46 C :   -0.034726
  47 C :    0.040054
  48 C :    0.035600
  49 C :    0.044305
  50 O :   -0.129465
  51 S :    0.046994
  52 C :    0.040914
  53 O :   -0.116373
  54 C :    0.038388
  55 C :    0.024730
  56 C :   -0.072242
  57 C :   -0.077077
  58 C :    0.232640
  59 O :   -0.084675
  60 O :   -0.214126
  61 C :    0.236553
  62 O :   -0.089840
  63 C :   -0.012475
  64 C :   -0.004787
  65 C :    0.091107
  66 C :   -0.044614
  67 C :    0.079955
  68 C :   -0.272642
  69 C :   -0.185873
  70 N :    0.228091
  71 C :   -0.201395
  72 N :    0.184695
  73 S :    0.128282
  74 C :    0.058373
  75 O :   -0.116587
  76 C :   -0.241543
  77 N :    0.212905
  78 H :    0.006994
  79 H :    0.000549
  80 H :    0.002738
  81 H :    0.015899
  82 H :    0.031351
  83 H :    0.003598
  84 H :    0.041272
  85 H :    0.046020
  86 H :    0.022684
  87 H :    0.033356
  88 H :    0.026068
  89 H :    0.045396
  90 H :    0.043368
  91 H :    0.030660
  92 H :    0.030663
  93 H :    0.027792
  94 H :    0.015345
  95 H :    0.028991
  96 H :    0.061891
  97 H :    0.026053
Sum of atomic charges:   -0.0000000

LOEWDIN ATOMIC CHARGES
----------------------
   0 C :   -0.026729
   1 C :   -0.047222
   2 C :   -0.076432
   3 C :   -0.108643
   4 C :   -0.033022
   5 N :    0.004674
   6 C :   -0.034249
   7 N :   -0.007342
   8 S :    0.392871
   9 C :   -0.043909
  10 O :   -0.103784
  11 C :   -0.043703
  12 N :    0.004134
  13 C :   -0.021856
  14 C :    0.002907
  15 N :    0.284887
  16 O :   -0.197060
  17 O :   -0.180178
  18 C :    0.003617
  19 C :    0.000153
  20 C :    0.036590
  21 C :    0.068248
  22 C :   -0.046123
  23 C :    0.039416
  24 C :   -0.042700
  25 N :    0.286923
  26 O :   -0.216640
  27 O :   -0.199486
  28 C :    0.013013
  29 C :    0.015722
  30 C :   -0.001421
  31 C :    0.080448
  32 N :    0.003576
  33 C :    0.039284
  34 C :   -0.058296
  35 C :    0.083179
  36 O :   -0.175023
  37 C :   -0.095862
  38 C :   -0.107686
  39 C :    0.085568
  40 O :   -0.177509
  41 N :    0.006438
  42 C :    0.035494
  43 C :   -0.061342
  44 C :    0.073304
  45 C :    0.012678
  46 C :   -0.017188
  47 C :    0.033032
  48 C :   -0.050274
  49 C :   -0.041982
  50 O :   -0.112059
  51 S :    0.326940
  52 C :   -0.043667
  53 O :   -0.096750
  54 C :   -0.044271
  55 C :    0.020222
  56 C :   -0.035715
  57 C :   -0.042089
  58 C :    0.106284
  59 O :   -0.082487
  60 O :   -0.044110
  61 C :    0.106446
  62 O :   -0.087322
  63 C :    0.026028
  64 C :    0.001359
  65 C :   -0.009467
  66 C :   -0.058544
  67 C :   -0.078729
  68 C :   -0.109710
  69 C :   -0.033997
  70 N :    0.003781
  71 C :   -0.034793
  72 N :   -0.005627
  73 S :    0.393192
  74 C :   -0.032542
  75 O :   -0.097917
  76 C :   -0.037236
  77 N :    0.004985
  78 H :    0.040575
  79 H :    0.032932
  80 H :    0.030635
  81 H :    0.043315
  82 H :    0.041986
  83 H :    0.030456
  84 H :    0.030762
  85 H :    0.039683
  86 H :    0.024720
  87 H :    0.035995
  88 H :    0.030506
  89 H :    0.038303
  90 H :    0.027941
  91 H :    0.033717
  92 H :    0.034656
  93 H :    0.023839
  94 H :    0.045825
  95 H :    0.035309
  96 H :    0.044745
  97 H :    0.041394

  Mayer bond orders larger than 0.100000
B(  0-C ,  1-C ) :   1.6925 B(  0-C ,  9-C ) :   0.8740 B(  0-C , 13-C ) :   1.0098
B(  1-C ,  2-C ) :   1.0685 B(  1-C , 11-C ) :   1.1672 B(  2-C ,  3-C ) :   1.6947
B(  2-C ,  8-S ) :   1.0636 B(  3-C ,  4-C ) :   1.1624 B(  3-C ,  6-C ) :   1.1228
B(  4-C ,  5-N ) :   3.0179 B(  6-C ,  7-N ) :   3.0361 B(  8-S ,  9-C ) :   1.0004
B(  8-S , 10-O ) :   0.1045 B(  9-C , 10-O ) :   2.1909 B( 11-C , 12-N ) :   3.0191
B( 13-C , 14-C ) :   1.5840 B( 13-C , 20-C ) :   1.0944 B( 14-C , 15-N ) :   0.9227
B( 14-C , 18-C ) :   1.1442 B( 15-N , 16-O ) :   1.5052 B( 15-N , 17-O ) :   1.5516
B( 16-O , 17-O ) :   0.2747 B( 18-C , 19-C ) :   1.5713 B( 18-C , 78-H ) :   1.0129
B( 19-C , 20-C ) :   1.1173 B( 19-C , 79-H ) :   1.0014 B( 20-C , 21-C ) :   1.4789
B( 21-C , 22-C ) :   1.1453 B( 21-C , 28-C ) :   1.0086 B( 22-C , 23-C ) :   1.5506
B( 22-C , 80-H ) :   0.9934 B( 23-C , 24-C ) :   1.1521 B( 23-C , 81-H ) :   1.0072
B( 24-C , 25-N ) :   0.9563 B( 24-C , 28-C ) :   1.4361 B( 25-N , 26-O ) :   1.4616
B( 25-N , 27-O ) :   1.5456 B( 26-O , 27-O ) :   0.2524 B( 26-O , 83-H ) :   0.1063
B( 28-C , 29-C ) :   1.2048 B( 29-C , 30-C ) :   1.5103 B( 29-C , 82-H ) :   0.9412
B( 30-C , 31-C ) :   1.1841 B( 30-C , 83-H ) :   0.9456 B( 31-C , 32-N ) :   1.1828
B( 31-C , 38-C ) :   1.2618 B( 32-N , 33-C ) :   0.9308 B( 32-N , 35-C ) :   1.0365
B( 33-C , 34-C ) :   1.1230 B( 33-C , 84-H ) :   0.9487 B( 33-C , 85-H ) :   0.9288
B( 34-C , 86-H ) :   0.9680 B( 34-C , 87-H ) :   0.9675 B( 34-C , 88-H ) :   0.9636
B( 35-C , 36-O ) :   2.1436 B( 35-C , 37-C ) :   0.9604 B( 37-C , 38-C ) :   1.2953
B( 37-C , 44-C ) :   1.3311 B( 38-C , 39-C ) :   0.9876 B( 39-C , 40-O ) :   2.0069
B( 39-C , 41-N ) :   1.0600 B( 40-O , 82-H ) :   0.1021 B( 41-N , 42-C ) :   0.9315
B( 41-N , 44-C ) :   1.1815 B( 42-C , 43-C ) :   1.1136 B( 42-C , 89-H ) :   0.9245
B( 42-C , 90-H ) :   0.9495 B( 43-C , 91-H ) :   0.9615 B( 43-C , 92-H ) :   0.9682
B( 43-C , 93-H ) :   0.9693 B( 44-C , 45-C ) :   1.2169 B( 45-C , 46-C ) :   1.6138
B( 45-C , 94-H ) :   0.9324 B( 46-C , 47-C ) :   1.0999 B( 46-C , 95-H ) :   0.9434
B( 47-C , 48-C ) :   1.3612 B( 47-C , 57-C ) :   1.3216 B( 48-C , 49-C ) :   0.8501
B( 48-C , 54-C ) :   1.3183 B( 49-C , 50-O ) :   2.1477 B( 49-C , 51-S ) :   1.0429
B( 50-O , 51-S ) :   0.1062 B( 51-S , 52-C ) :   1.0321 B( 51-S , 53-O ) :   0.1072
B( 52-C , 53-O ) :   2.1710 B( 52-C , 54-C ) :   0.8433 B( 54-C , 55-C ) :   1.3791
B( 55-C , 56-C ) :   1.3502 B( 55-C , 63-C ) :   1.0447 B( 56-C , 57-C ) :   1.3771
B( 56-C , 61-C ) :   0.8913 B( 57-C , 58-C ) :   0.8957 B( 58-C , 59-O ) :   2.2716
B( 58-C , 60-O ) :   1.0508 B( 60-O , 61-C ) :   1.0649 B( 61-C , 62-O ) :   2.2610
B( 63-C , 64-C ) :   1.7063 B( 63-C , 96-H ) :   0.9292 B( 64-C , 65-C ) :   1.1910
B( 64-C , 97-H ) :   0.9498 B( 65-C , 66-C ) :   1.6186 B( 65-C , 74-C ) :   0.8535
B( 66-C , 67-C ) :   1.0777 B( 66-C , 76-C ) :   1.1528 B( 67-C , 68-C ) :   1.6898
B( 67-C , 73-S ) :   1.0638 B( 68-C , 69-C ) :   1.1617 B( 68-C , 71-C ) :   1.1264
B( 69-C , 70-N ) :   3.0190 B( 71-C , 72-N ) :   3.0350 B( 73-S , 74-C ) :   1.0078
B( 73-S , 75-O ) :   0.1067 B( 74-C , 75-O ) :   2.1508 B( 76-C , 77-N ) :   2.9878

-----------------------------------------------------------------------------
         ABSORPTION SPECTRUM VIA TRANSITION ELECTRIC DIPOLE MOMENTS
-----------------------------------------------------------------------------
State   Energy  Wavelength   fosc         T2         TX        TY        TZ
        (cm-1)    (nm)                  (au**2)     (au)      (au)      (au)
-----------------------------------------------------------------------------
   0    5926.8   1687.3   0.237144131  13.17254   2.90730  -1.97639  -0.90224
   1   14500.0    689.7   0.029559395   0.67112   0.06075  -0.52346   0.62723
   2   14732.6    678.8   0.251462769   5.61912  -1.25963   0.47709   1.95060
   3   16018.2    624.3   0.067657044   1.39051   1.05091  -0.48522  -0.22510
   4   16208.4    617.0   0.159462399   3.23887  -1.09776   0.99107   1.02546
   5   16316.0    612.9   0.025167566   0.50781  -0.45101   0.32945  -0.44257
   6   18840.2    530.8   0.066357640   1.15953  -0.19928   0.20614   1.03794
   7   21549.7    464.0   0.007135342   0.10901   0.27378  -0.18441   0.00632
   8   22052.2    453.5   0.284252861   4.24353  -1.04445   1.37187  -1.12722
   9   22441.0    445.6   0.037749556   0.55379  -0.03777  -0.25391  -0.69849
  10   23026.1    434.3   0.086220539   1.23272  -0.79141   0.77809   0.03116
  11   23790.4    420.3   0.166345883   2.30189   0.41839  -0.77818  -1.23340
  12   24129.1    414.4   0.783778087  10.69368  -3.05922   0.96431   0.63638
  13   24892.5    401.7   0.036652867   0.48475  -0.47363   0.00319  -0.51030
  14   25088.1    398.6   0.083539419   1.09622  -0.73229   0.21534  -0.71666
  15   25283.7    395.5   0.017694837   0.23040  -0.06800   0.15741   0.44833
  16   25562.4    391.2   0.013605624   0.17522  -0.26642   0.01375  -0.32257
  17   25804.4    387.5   0.022756189   0.29032   0.25017   0.28376   0.38369
  18   25861.1    386.7   0.310488330   3.95252  -1.89352   0.45025   0.40544
  19   26788.7    373.3   0.027425398   0.33704  -0.26308   0.44681   0.26113
  20   27145.7    368.4   0.059964916   0.72723   0.66583   0.39035   0.36266
  21   27382.4    365.2   0.125781158   1.51224   0.71805  -0.85870   0.50920
  22   27586.0    362.5   0.036047042   0.43019  -0.33378   0.53516  -0.17995
  23   28070.7    356.2   0.147562460   1.73061   0.15129   0.16194   1.29672
  24   28549.7    350.3   0.094769995   1.09281   0.70294  -0.75195   0.18240
  25   28584.4    349.8   0.032951393   0.37951   0.23488   0.35298   0.44693
  26   28737.7    348.0   0.063597233   0.72855  -0.59484   0.60983  -0.05309
  27   29404.0    340.1   0.139009181   1.55637  -0.94029   0.59622   0.56280
  28   29641.4    337.4   0.198158333   2.20084  -0.95118   1.02538   0.49468
  29   29790.1    335.7   0.007354829   0.08128   0.23930  -0.09741  -0.12052
  30   29995.1    333.4   0.118621128   1.30193  -0.41261   0.41864   0.97797
  31   30537.9    327.5   0.069969532   0.75430   0.46506  -0.56399  -0.46898
  32   30687.5    325.9   0.074041688   0.79431   0.39911  -0.37598  -0.70261
  33   30980.0    322.8   0.024367131   0.25894  -0.30970   0.40344  -0.01605
  34   31162.9    320.9   0.019056197   0.20131   0.02874   0.13607   0.42658
  35   31597.5    316.5   0.000689680   0.00719  -0.06019  -0.02263  -0.05524
  36   31753.0    314.9   0.017731020   0.18383   0.27062  -0.21966  -0.24969
  37   31951.2    313.0   0.004437490   0.04572  -0.04453  -0.04290   0.20469
  38   32198.1    310.6   0.059987774   0.61335   0.47318  -0.58692  -0.21208
  39   32270.4    309.9   0.010093846   0.10297   0.03403  -0.04655   0.31567
  40   32412.4    308.5   0.006790040   0.06897   0.06804  -0.15253   0.20266
  41   32639.7    306.4   0.003485884   0.03516   0.10156  -0.04760  -0.15026
  42   32814.9    304.7   0.069232057   0.69456  -0.12300   0.02461  -0.82391
  43   33118.6    301.9   0.016108199   0.16012   0.29447   0.01962   0.27023
  44   33125.7    301.9   0.020811546   0.20683  -0.37384   0.09820  -0.23965
  45   33143.0    301.7   0.004690429   0.04659   0.14840  -0.13019   0.08727
  46   33224.5    301.0   0.010743201   0.10645  -0.12454   0.22774   0.19767
  47   33665.6    297.0   0.001867263   0.01826  -0.13004  -0.03346   0.01516
  48   33703.9    296.7   0.054967627   0.53691  -0.46284   0.54685   0.15377
  49   33968.3    294.4   0.071952529   0.69735   0.57706  -0.46041   0.39034
  50   34147.9    292.8   0.000491580   0.00474  -0.04802  -0.03599   0.03373
  51   34324.8    291.3   0.004700231   0.04508   0.11873   0.08986   0.15136
  52   34584.1    289.2   0.011666130   0.11105   0.06775   0.25484   0.20376
  53   34678.3    288.4   0.002157985   0.02049   0.01911  -0.03593  -0.13722
  54   34872.7    286.8   0.000679379   0.00641  -0.03801   0.07045   0.00219
  55   35283.8    283.4   0.014985360   0.13982   0.12674  -0.09580  -0.33849
  56   35470.3    281.9   0.004674328   0.04338   0.05851   0.18592  -0.07344
  57   35660.1    280.4   0.043157530   0.39843   0.46307   0.13072   0.40855
  58   35887.0    278.7   0.001118140   0.01026  -0.06502   0.05976  -0.04958
  59   36183.4    276.4   0.043638294   0.39704  -0.51360   0.28664  -0.22604
  60   36326.8    275.3   0.017252675   0.15635   0.07604   0.08241  -0.37918
  61   36432.6    274.5   0.026616436   0.24051   0.17706   0.29521   0.34930
  62   36494.8    274.0   0.062953117   0.56789  -0.01241  -0.07910  -0.74932
  63   36664.1    272.7   0.032694968   0.29357   0.37076  -0.30892  -0.24633
  64   36874.7    271.2   0.000299955   0.00268   0.03196   0.04070   0.00046
  65   36929.5    270.8   0.043300662   0.38601  -0.43070   0.42203  -0.14968
  66   37292.9    268.1   0.071923843   0.63492   0.26663  -0.16884   0.73166
  67   37423.1    267.2   0.047265696   0.41580  -0.14305   0.15209   0.61008
  68   37450.0    267.0   0.007126593   0.06265   0.10748  -0.00105   0.22604
  69   37512.8    266.6   0.009668877   0.08485   0.01162  -0.09803  -0.27406
  70   37655.8    265.6   0.020263829   0.17716   0.08208  -0.00085   0.41282
  71   37933.2    263.6   0.015721315   0.13644  -0.24020   0.09406  -0.26438
  72   38081.1    262.6   0.013950360   0.12060   0.22788  -0.16832  -0.20085
  73   38182.0    261.9   0.043786342   0.37753   0.39804  -0.26275   0.38738
  74   38376.5    260.6   0.004730346   0.04058   0.05280   0.02663   0.19257
  75   38554.2    259.4   0.132016252   1.12728  -0.23910   0.10777  -1.02883
  76   38834.1    257.5   0.006726358   0.05702   0.16390  -0.17276   0.01766
  77   39144.1    255.5   0.006619860   0.05567   0.15453   0.03231   0.17536
  78   39172.6    255.3   0.007740149   0.06505   0.01414  -0.24955  -0.05071
  79   39398.8    253.8   0.012773586   0.10673  -0.16887   0.07864   0.26839
  80   39416.1    253.7   0.008412166   0.07026   0.21201  -0.08770  -0.13274
  81   39754.3    251.5   0.017631689   0.14601   0.24405  -0.29366  -0.01466
  82   39789.9    251.3   0.044215363   0.36583  -0.54999   0.01784  -0.25105
  83   39902.0    250.6   0.007550320   0.06229   0.14859  -0.20047   0.00519
  84   40105.7    249.3   0.017220181   0.14135  -0.37380   0.02110  -0.03439
  85   40212.0    248.7   0.020151431   0.16498  -0.19545   0.27830  -0.22210
  86   40276.5    248.3   0.037133758   0.30352   0.10449   0.14824   0.52022

FINAL SINGLE POINT ENERGY     -4708.536729118589

DIPOLE MOMENT
-------------
                                X             Y             Z
Electronic contribution:     23.03828      -6.10727     -28.68056
Nuclear contribution   :    -23.36690       3.75127      29.48905
                        -----------------------------------------
Total Dipole Moment    :     -0.32862      -2.35601       0.80849
                        -----------------------------------------
Magnitude (a.u.)       :      2.51245
Magnitude (Debye)      :      6.38615

Rotational constants in cm-1:     0.001812     0.000230     0.000218
Rotational constants in MHz :    54.325048     6.893048     6.532928

                             ****ORCA TERMINATED NORMALLY****
TOTAL RUN TIME: 0 days 0 hours 12 minutes 17 seconds 607 msec
