                         Program Version 4.2.0 -  RELEASE  -
|  1> # ORCA input file
|  2> # SCF done       -171.000824942684          0.000652108584
|  3> ! CAM-B3LYP def2-SVP def2/J RIJCOSX Grid4 TightSCF
|  4> %maxcore 5000
|  5> %tddft
|  6>     Mode sTDDFT
|  7>     Ethresh 5.0
|  8>     maxcore 5000
|  9> end
| 10>
| 11> %pal
| 12>   nprocs 6
| 13>   end
| 14> * xyz 0 1
| 15>    C        3.81919        -3.69805        -1.45348
| 16>    C        3.87377        -2.55437        -0.65764
| 17>    N        5.08571        -1.78609        -0.73089
| 18>    O        6.07618        -2.34356        -1.15200
| 19>    O        5.06122        -0.62210        -0.37547
| 20>    C        2.79884        -2.20425         0.17082
| 21>    C        2.77941        -0.97444         1.05517
| 22>    O        2.55560         0.20136         0.32536
| 23>    C        1.68873        -3.03715         0.16273
| 24>    C        1.61734        -4.17944        -0.63112
| 25>    C        2.70359        -4.50186        -1.44738
| 26>    C        0.42227        -5.02972        -0.60619
| 27>    C       -0.84866        -4.47164        -0.52013
| 28>    C       -1.97374        -5.28050        -0.50428
| 29>    N       -3.25267        -4.61425        -0.57984
| 30>    O       -3.35866        -3.55129        -0.01228
| 31>    O       -4.11822        -5.13733        -1.24969
| 32>    C       -1.87563        -6.67938        -0.53028
| 33>    C       -0.59290        -7.22171        -0.64961
| 34>    C        0.52762        -6.42109        -0.68914
| 35>    C       -3.01930        -7.56236        -0.39152
| 36>    C       -3.99263        -7.37853         0.51782
| 37>    C       -5.13193        -8.20270         0.77260
| 38>    N       -5.74677        -9.10951        -0.06077
| 39>    C       -5.53091        -9.32006        -1.47299
| 40>    C       -5.85339        -8.07672        -2.29653
| 41>    C       -6.85454        -9.72422         0.57094
| 42>    O       -7.55864       -10.55277         0.02963
| 43>    C       -6.87746        -9.14876         1.89149
| 44>    C       -5.81642        -8.21501         1.97871
| 45>    C       -5.84387        -7.64528         3.30640
| 46>    O       -5.13473        -6.82952         3.85536
| 47>    N       -6.95657        -8.25868         3.93139
| 48>    C       -7.24159        -7.96290         5.31544
| 49>    C       -6.82113        -9.10130         6.24129
| 50>    C       -7.57359        -9.16009         3.09504
| 51>    C       -8.72597        -9.97379         3.29509
| 52>    C       -9.57967       -10.00101         4.33965
| 53>    C      -10.74402       -10.84424         4.40910
| 54>    C      -11.04188       -11.86918         3.54759
| 55>    S      -12.50612       -12.66667         3.93167
| 56>    C      -12.76665       -11.63132         5.26265
| 57>    C      -11.76501       -10.71130         5.41828
| 58>    C      -11.76788        -9.70327         6.48816
| 59>    O      -10.87800        -8.92186         6.72056
| 60>    O      -12.92622        -9.77420         7.18645
| 61>    C      -13.25316        -8.96059         8.23296
| 62>    C      -12.54610        -7.96574         8.77413
| 63>    C      -12.98305        -7.14533         9.88825
| 64>    C      -14.20993        -7.30476        10.54425
| 65>    C      -14.54157        -6.48014        11.59098
| 66>    C      -13.67283        -5.47431        12.02059
| 67>    C      -12.43689        -5.29126        11.38182
| 68>    C      -12.12514        -6.13660        10.32854
| 69>    C      -11.44874        -4.23356        11.78419
| 70>    O      -10.29844        -4.30617        10.97234
| 71>    N      -14.10841        -4.66692        13.11995
| 72>    O      -15.18944        -4.91889        13.61492
| 73>    O      -13.38266        -3.76954        13.50833
| 74>    H        4.66801        -3.92932        -2.07928
| 75>    H        3.71523        -0.90978         1.62796
| 76>    H        1.94668        -1.05642         1.75803
| 77>    H        3.38039         0.42493        -0.13225
| 78>    H        0.85986        -2.79367         0.80976
| 79>    H        2.66116        -5.36575        -2.09185
| 80>    H       -0.98397        -3.40019        -0.51165
| 81>    H       -0.48558        -8.29543        -0.68300
| 82>    H        1.50336        -6.87765        -0.75466
| 83>    H       -2.99601        -8.44439        -1.01264
| 84>    H       -3.91439        -6.55720         1.22117
| 85>    H       -6.21198       -10.13255        -1.74669
| 86>    H       -4.50835        -9.66063        -1.65574
| 87>    H       -6.89608        -7.80221        -2.15686
| 88>    H       -5.68940        -8.28506        -3.35021
| 89>    H       -5.23478        -7.23138        -2.00604
| 90>    H       -8.29973        -7.72241         5.43899
| 91>    H       -6.65476        -7.06909         5.54911
| 92>    H       -7.32854       -10.02726         5.98090
| 93>    H       -7.06811        -8.84594         7.26769
| 94>    H       -5.74798        -9.26221         6.16941
| 95>    H       -8.91494       -10.60900         2.43921
| 96>    H       -9.45048        -9.35406         5.18997
| 97>    H      -10.46878       -12.20964         2.70896
| 98>    H      -13.64078       -11.75019         5.87084
| 99>    H      -14.23446        -9.24800         8.58724
|100>    H      -11.57252        -7.72322         8.37748
|101>    H      -14.90320        -8.07052        10.23792
|102>    H      -15.48360        -6.59041        12.10664
|103>    H      -11.17459        -5.99327         9.84015
|104>    H      -11.18667        -4.37101        12.84362
|105>    H      -11.92598        -3.24645        11.69701
|106>    H       -9.69166        -3.61116        11.24470
|107> *
|108>
|109>                          ****END OF INPUT****

CARTESIAN COORDINATES (ANGSTROEM)
---------------------------------
  C      3.819190   -3.698050   -1.453480
  C      3.873770   -2.554370   -0.657640
  N      5.085710   -1.786090   -0.730890
  O      6.076180   -2.343560   -1.152000
  O      5.061220   -0.622100   -0.375470
  C      2.798840   -2.204250    0.170820
  C      2.779410   -0.974440    1.055170
  O      2.555600    0.201360    0.325360
  C      1.688730   -3.037150    0.162730
  C      1.617340   -4.179440   -0.631120
  C      2.703590   -4.501860   -1.447380
  C      0.422270   -5.029720   -0.606190
  C     -0.848660   -4.471640   -0.520130
  C     -1.973740   -5.280500   -0.504280
  N     -3.252670   -4.614250   -0.579840
  O     -3.358660   -3.551290   -0.012280
  O     -4.118220   -5.137330   -1.249690
  C     -1.875630   -6.679380   -0.530280
  C     -0.592900   -7.221710   -0.649610
  C      0.527620   -6.421090   -0.689140
  C     -3.019300   -7.562360   -0.391520
  C     -3.992630   -7.378530    0.517820
  C     -5.131930   -8.202700    0.772600
  N     -5.746770   -9.109510   -0.060770
  C     -5.530910   -9.320060   -1.472990
  C     -5.853390   -8.076720   -2.296530
  C     -6.854540   -9.724220    0.570940
  O     -7.558640  -10.552770    0.029630
  C     -6.877460   -9.148760    1.891490
  C     -5.816420   -8.215010    1.978710
  C     -5.843870   -7.645280    3.306400
  O     -5.134730   -6.829520    3.855360
  N     -6.956570   -8.258680    3.931390
  C     -7.241590   -7.962900    5.315440
  C     -6.821130   -9.101300    6.241290
  C     -7.573590   -9.160090    3.095040
  C     -8.725970   -9.973790    3.295090
  C     -9.579670  -10.001010    4.339650
  C    -10.744020  -10.844240    4.409100
  C    -11.041880  -11.869180    3.547590
  S    -12.506120  -12.666670    3.931670
  C    -12.766650  -11.631320    5.262650
  C    -11.765010  -10.711300    5.418280
  C    -11.767880   -9.703270    6.488160
  O    -10.878000   -8.921860    6.720560
  O    -12.926220   -9.774200    7.186450
  C    -13.253160   -8.960590    8.232960
  C    -12.546100   -7.965740    8.774130
  C    -12.983050   -7.145330    9.888250
  C    -14.209930   -7.304760   10.544250
  C    -14.541570   -6.480140   11.590980
  C    -13.672830   -5.474310   12.020590
  C    -12.436890   -5.291260   11.381820
  C    -12.125140   -6.136600   10.328540
  C    -11.448740   -4.233560   11.784190
  O    -10.298440   -4.306170   10.972340
  N    -14.108410   -4.666920   13.119950
  O    -15.189440   -4.918890   13.614920
  O    -13.382660   -3.769540   13.508330
  H      4.668010   -3.929320   -2.079280
  H      3.715230   -0.909780    1.627960
  H      1.946680   -1.056420    1.758030
  H      3.380390    0.424930   -0.132250
  H      0.859860   -2.793670    0.809760
  H      2.661160   -5.365750   -2.091850
  H     -0.983970   -3.400190   -0.511650
  H     -0.485580   -8.295430   -0.683000
  H      1.503360   -6.877650   -0.754660
  H     -2.996010   -8.444390   -1.012640
  H     -3.914390   -6.557200    1.221170
  H     -6.211980  -10.132550   -1.746690
  H     -4.508350   -9.660630   -1.655740
  H     -6.896080   -7.802210   -2.156860
  H     -5.689400   -8.285060   -3.350210
  H     -5.234780   -7.231380   -2.006040
  H     -8.299730   -7.722410    5.438990
  H     -6.654760   -7.069090    5.549110
  H     -7.328540  -10.027260    5.980900
  H     -7.068110   -8.845940    7.267690
  H     -5.747980   -9.262210    6.169410
  H     -8.914940  -10.609000    2.439210
  H     -9.450480   -9.354060    5.189970
  H    -10.468780  -12.209640    2.708960
  H    -13.640780  -11.750190    5.870840
  H    -14.234460   -9.248000    8.587240
  H    -11.572520   -7.723220    8.377480
  H    -14.903200   -8.070520   10.237920
  H    -15.483600   -6.590410   12.106640
  H    -11.174590   -5.993270    9.840150
  H    -11.186670   -4.371010   12.843620
  H    -11.925980   -3.246450   11.697010
  H     -9.691660   -3.611160   11.244700

 Total Charge           Charge          ....    0
 Multiplicity           Mult            ....    1
 Number of Electrons    NEL             ....  426
 Basis Dimension        Dim             ....  995

ORBITAL ENERGIES
----------------

  NO   OCC          E(Eh)            E(eV)
   0   2.0000     -88.979991     -2421.2687
   1   2.0000     -19.295175      -525.0484
   2   2.0000     -19.256588      -523.9984
   3   2.0000     -19.254355      -523.9376
   4   2.0000     -19.250216      -523.8250
   5   2.0000     -19.248422      -523.7762
   6   2.0000     -19.235801      -523.4328
   7   2.0000     -19.233239      -523.3630
   8   2.0000     -19.230741      -523.2951
   9   2.0000     -19.213152      -522.8165
  10   2.0000     -19.195616      -522.3393
  11   2.0000     -19.186509      -522.0915
  12   2.0000     -19.183180      -522.0009
  13   2.0000     -14.660243      -398.9255
  14   2.0000     -14.654294      -398.7636
  15   2.0000     -14.641389      -398.4125
  16   2.0000     -14.448138      -393.1538
  17   2.0000     -14.447337      -393.1320
  18   2.0000     -10.430118      -283.8179
  19   2.0000     -10.369973      -282.1813
  20   2.0000     -10.367074      -282.1024
  21   2.0000     -10.350769      -281.6587
  22   2.0000     -10.339923      -281.3636
  23   2.0000     -10.337331      -281.2931
  24   2.0000     -10.336424      -281.2684
  25   2.0000     -10.334104      -281.2053
  26   2.0000     -10.321719      -280.8682
  27   2.0000     -10.319627      -280.8113
  28   2.0000     -10.319456      -280.8067
  29   2.0000     -10.319386      -280.8048
  30   2.0000     -10.318539      -280.7817
  31   2.0000     -10.312991      -280.6307
  32   2.0000     -10.310506      -280.5631
  33   2.0000     -10.309847      -280.5452
  34   2.0000     -10.308888      -280.5191
  35   2.0000     -10.308109      -280.4979
  36   2.0000     -10.304968      -280.4124
  37   2.0000     -10.304824      -280.4085
  38   2.0000     -10.302393      -280.3424
  39   2.0000     -10.302172      -280.3363
  40   2.0000     -10.301780      -280.3257
  41   2.0000     -10.300649      -280.2949
  42   2.0000     -10.300247      -280.2840
  43   2.0000     -10.299077      -280.2521
  44   2.0000     -10.299008      -280.2503
  45   2.0000     -10.298650      -280.2405
  46   2.0000     -10.297484      -280.2088
  47   2.0000     -10.296282      -280.1761
  48   2.0000     -10.295109      -280.1442
  49   2.0000     -10.289630      -279.9951
  50   2.0000     -10.289175      -279.9827
  51   2.0000     -10.286431      -279.9080
  52   2.0000     -10.283422      -279.8261
  53   2.0000     -10.280068      -279.7349
  54   2.0000     -10.275563      -279.6123
  55   2.0000     -10.257132      -279.1108
  56   2.0000     -10.255958      -279.0788
  57   2.0000     -10.253969      -279.0247
  58   2.0000     -10.251205      -278.9495
  59   2.0000      -8.076249      -219.7659
  60   2.0000      -6.045270      -164.5002
  61   2.0000      -6.040802      -164.3786
  62   2.0000      -6.039131      -164.3331
  63   2.0000      -1.335316       -36.3358
  64   2.0000      -1.330652       -36.2089
  65   2.0000      -1.315015       -35.7834
  66   2.0000      -1.221459       -33.2376
  67   2.0000      -1.153959       -31.4008
  68   2.0000      -1.149753       -31.2864
  69   2.0000      -1.132357       -30.8130
  70   2.0000      -1.130565       -30.7643
  71   2.0000      -1.127221       -30.6732
  72   2.0000      -1.120008       -30.4770
  73   2.0000      -1.102727       -30.0067
  74   2.0000      -1.088668       -29.6241
  75   2.0000      -1.056685       -28.7539
  76   2.0000      -1.047540       -28.5050
  77   2.0000      -1.004805       -27.3421
  78   2.0000      -1.004519       -27.3343
  79   2.0000      -0.989656       -26.9299
  80   2.0000      -0.979691       -26.6588
  81   2.0000      -0.936702       -25.4890
  82   2.0000      -0.922847       -25.1120
  83   2.0000      -0.920207       -25.0401
  84   2.0000      -0.909496       -24.7486
  85   2.0000      -0.907118       -24.6839
  86   2.0000      -0.901571       -24.5330
  87   2.0000      -0.886844       -24.1323
  88   2.0000      -0.877310       -23.8728
  89   2.0000      -0.873074       -23.7575
  90   2.0000      -0.865837       -23.5606
  91   2.0000      -0.861431       -23.4407
  92   2.0000      -0.852001       -23.1841
  93   2.0000      -0.840118       -22.8608
  94   2.0000      -0.816139       -22.2083
  95   2.0000      -0.812526       -22.1100
  96   2.0000      -0.804511       -21.8918
  97   2.0000      -0.801526       -21.8106
  98   2.0000      -0.786135       -21.3918
  99   2.0000      -0.773697       -21.0534
 100   2.0000      -0.769826       -20.9480
 101   2.0000      -0.756189       -20.5769
 102   2.0000      -0.752877       -20.4868
 103   2.0000      -0.740345       -20.1458
 104   2.0000      -0.723733       -19.6938
 105   2.0000      -0.713897       -19.4261
 106   2.0000      -0.707580       -19.2542
 107   2.0000      -0.704528       -19.1712
 108   2.0000      -0.702540       -19.1171
 109   2.0000      -0.696927       -18.9644
 110   2.0000      -0.690585       -18.7918
 111   2.0000      -0.681063       -18.5327
 112   2.0000      -0.676395       -18.4057
 113   2.0000      -0.672770       -18.3070
 114   2.0000      -0.661337       -17.9959
 115   2.0000      -0.661101       -17.9895
 116   2.0000      -0.652446       -17.7540
 117   2.0000      -0.645250       -17.5581
 118   2.0000      -0.642161       -17.4741
 119   2.0000      -0.639571       -17.4036
 120   2.0000      -0.632946       -17.2233
 121   2.0000      -0.626102       -17.0371
 122   2.0000      -0.624697       -16.9989
 123   2.0000      -0.619767       -16.8647
 124   2.0000      -0.612703       -16.6725
 125   2.0000      -0.608832       -16.5672
 126   2.0000      -0.603998       -16.4356
 127   2.0000      -0.603284       -16.4162
 128   2.0000      -0.600199       -16.3322
 129   2.0000      -0.591274       -16.0894
 130   2.0000      -0.589621       -16.0444
 131   2.0000      -0.587684       -15.9917
 132   2.0000      -0.584232       -15.8978
 133   2.0000      -0.578256       -15.7351
 134   2.0000      -0.577726       -15.7207
 135   2.0000      -0.577110       -15.7040
 136   2.0000      -0.572854       -15.5881
 137   2.0000      -0.566924       -15.4268
 138   2.0000      -0.564680       -15.3657
 139   2.0000      -0.560699       -15.2574
 140   2.0000      -0.557739       -15.1768
 141   2.0000      -0.553654       -15.0657
 142   2.0000      -0.545318       -14.8389
 143   2.0000      -0.544110       -14.8060
 144   2.0000      -0.539472       -14.6798
 145   2.0000      -0.538881       -14.6637
 146   2.0000      -0.537349       -14.6220
 147   2.0000      -0.527983       -14.3671
 148   2.0000      -0.525602       -14.3024
 149   2.0000      -0.524171       -14.2634
 150   2.0000      -0.521674       -14.1955
 151   2.0000      -0.514517       -14.0007
 152   2.0000      -0.513993       -13.9865
 153   2.0000      -0.512397       -13.9430
 154   2.0000      -0.509702       -13.8697
 155   2.0000      -0.503175       -13.6921
 156   2.0000      -0.500786       -13.6271
 157   2.0000      -0.499272       -13.5859
 158   2.0000      -0.496602       -13.5132
 159   2.0000      -0.495365       -13.4796
 160   2.0000      -0.492419       -13.3994
 161   2.0000      -0.488554       -13.2942
 162   2.0000      -0.484168       -13.1749
 163   2.0000      -0.482165       -13.1204
 164   2.0000      -0.480613       -13.0781
 165   2.0000      -0.473469       -12.8838
 166   2.0000      -0.470929       -12.8146
 167   2.0000      -0.468782       -12.7562
 168   2.0000      -0.466454       -12.6929
 169   2.0000      -0.463091       -12.6014
 170   2.0000      -0.460274       -12.5247
 171   2.0000      -0.455464       -12.3938
 172   2.0000      -0.453694       -12.3456
 173   2.0000      -0.451141       -12.2762
 174   2.0000      -0.450436       -12.2570
 175   2.0000      -0.447513       -12.1774
 176   2.0000      -0.444370       -12.0919
 177   2.0000      -0.443856       -12.0779
 178   2.0000      -0.435840       -11.8598
 179   2.0000      -0.433266       -11.7898
 180   2.0000      -0.430589       -11.7169
 181   2.0000      -0.427266       -11.6265
 182   2.0000      -0.419424       -11.4131
 183   2.0000      -0.414195       -11.2708
 184   2.0000      -0.412126       -11.2145
 185   2.0000      -0.410413       -11.1679
 186   2.0000      -0.399725       -10.8771
 187   2.0000      -0.398482       -10.8432
 188   2.0000      -0.391804       -10.6615
 189   2.0000      -0.388397       -10.5688
 190   2.0000      -0.387551       -10.5458
 191   2.0000      -0.384593       -10.4653
 192   2.0000      -0.380488       -10.3536
 193   2.0000      -0.379972       -10.3396
 194   2.0000      -0.377951       -10.2846
 195   2.0000      -0.377484       -10.2719
 196   2.0000      -0.373767       -10.1707
 197   2.0000      -0.368369       -10.0238
 198   2.0000      -0.358767        -9.7625
 199   2.0000      -0.352817        -9.6006
 200   2.0000      -0.352786        -9.5998
 201   2.0000      -0.350167        -9.5285
 202   2.0000      -0.345738        -9.4080
 203   2.0000      -0.342532        -9.3208
 204   2.0000      -0.338781        -9.2187
 205   2.0000      -0.337668        -9.1884
 206   2.0000      -0.326616        -8.8877
 207   2.0000      -0.325961        -8.8698
 208   2.0000      -0.312603        -8.5064
 209   2.0000      -0.310741        -8.4557
 210   2.0000      -0.306912        -8.3515
 211   2.0000      -0.296338        -8.0638
 212   2.0000      -0.237202        -6.4546
 213   0.0000      -0.083949        -2.2844
 214   0.0000      -0.063823        -1.7367
 215   0.0000      -0.055182        -1.5016
 216   0.0000      -0.049250        -1.3402
 217   0.0000      -0.023606        -0.6423

MULLIKEN ATOMIC CHARGES
-----------------------
   0 C :   -0.000720
   1 C :    0.115822
   2 N :    0.259850
   3 O :   -0.222434
   4 O :   -0.261115
   5 C :   -0.085786
   6 C :    0.322807
   7 O :   -0.321704
   8 C :   -0.088951
   9 C :    0.126999
  10 C :   -0.022667
  11 C :    0.075569
  12 C :   -0.039077
  13 C :    0.113986
  14 N :    0.237813
  15 O :   -0.222265
  16 O :   -0.219994
  17 C :    0.079752
  18 C :   -0.022899
  19 C :    0.015238
  20 C :   -0.013063
  21 C :    0.002763
  22 C :    0.079940
  23 N :   -0.272584
  24 C :    0.098605
  25 C :   -0.009532
  26 C :    0.151088
  27 O :   -0.204938
  28 C :   -0.057800
  29 C :   -0.021317
  30 C :    0.146744
  31 O :   -0.191659
  32 N :   -0.275130
  33 C :    0.098354
  34 C :    0.003841
  35 C :    0.128483
  36 C :   -0.023034
  37 C :    0.004508
  38 C :    0.094425
  39 C :   -0.140803
  40 S :    0.159721
  41 C :   -0.085025
  42 C :   -0.012987
  43 C :    0.241574
  44 O :   -0.192995
  45 O :   -0.247204
  46 C :    0.137077
  47 C :   -0.008323
  48 C :    0.170303
  49 C :   -0.015725
  50 C :   -0.011671
  51 C :    0.116188
  52 C :   -0.126973
  53 C :   -0.100406
  54 C :    0.297130
  55 O :   -0.293181
  56 N :    0.252143
  57 O :   -0.241076
  58 O :   -0.253302
  59 H :    0.010903
  60 H :    0.006867
  61 H :   -0.001672
  62 H :    0.172102
  63 H :   -0.008951
  64 H :   -0.008518
  65 H :    0.008661
  66 H :   -0.009890
  67 H :   -0.007440
  68 H :   -0.002249
  69 H :    0.021908
  70 H :    0.042247
  71 H :    0.013978
  72 H :    0.022310
  73 H :    0.015346
  74 H :    0.044087
  75 H :    0.036792
  76 H :    0.040952
  77 H :    0.018493
  78 H :    0.023171
  79 H :    0.021780
  80 H :   -0.004783
  81 H :    0.009102
  82 H :    0.046548
  83 H :    0.037563
  84 H :    0.013075
  85 H :    0.025856
  86 H :   -0.025861
  87 H :    0.005928
  88 H :   -0.004845
  89 H :    0.018548
  90 H :    0.019104
  91 H :    0.174502
Sum of atomic charges:   -0.0000000

LOEWDIN ATOMIC CHARGES
----------------------
   0 C :    0.009764
   1 C :   -0.036600
   2 N :    0.291346
   3 O :   -0.188448
   4 O :   -0.202578
   5 C :   -0.010025
   6 C :    0.074338
   7 O :   -0.137968
   8 C :   -0.009090
   9 C :    0.007462
  10 C :   -0.017700
  11 C :   -0.018829
  12 C :    0.011004
  13 C :   -0.021695
  14 N :    0.284170
  15 O :   -0.189491
  16 O :   -0.191675
  17 C :   -0.002461
  18 C :   -0.004297
  19 C :    0.006209
  20 C :   -0.012882
  21 C :   -0.010434
  22 C :    0.069893
  23 N :   -0.007403
  24 C :    0.033913
  25 C :   -0.064917
  26 C :    0.079612
  27 O :   -0.204800
  28 C :   -0.123526
  29 C :   -0.112258
  30 C :    0.083684
  31 O :   -0.191129
  32 N :   -0.006889
  33 C :    0.035011
  34 C :   -0.061908
  35 C :    0.082915
  36 C :   -0.029318
  37 C :    0.002278
  38 C :   -0.048385
  39 C :   -0.171020
  40 S :    0.488348
  41 C :   -0.150619
  42 C :   -0.109132
  43 C :    0.120703
  44 O :   -0.153482
  45 O :   -0.041503
  46 C :    0.069694
  47 C :   -0.058613
  48 C :    0.006800
  49 C :   -0.024910
  50 C :    0.006662
  51 C :   -0.046469
  52 C :   -0.002365
  53 C :   -0.013358
  54 C :    0.069162
  55 O :   -0.137141
  56 N :    0.286745
  57 O :   -0.208848
  58 O :   -0.205996
  59 H :    0.042363
  60 H :    0.014057
  61 H :    0.024153
  62 H :    0.059974
  63 H :    0.035742
  64 H :    0.033746
  65 H :    0.042874
  66 H :    0.036340
  67 H :    0.034699
  68 H :    0.031936
  69 H :    0.044833
  70 H :    0.035824
  71 H :    0.015088
  72 H :    0.030266
  73 H :    0.028511
  74 H :    0.026075
  75 H :    0.025468
  76 H :    0.036691
  77 H :    0.021597
  78 H :    0.031803
  79 H :    0.029334
  80 H :    0.040719
  81 H :    0.030432
  82 H :    0.030467
  83 H :    0.029809
  84 H :    0.025374
  85 H :    0.038522
  86 H :    0.027136
  87 H :    0.040170
  88 H :    0.034869
  89 H :    0.022316
  90 H :    0.022837
  91 H :    0.084429

  Mayer bond orders larger than 0.100000
B(  0-C ,  1-C ) :   1.3726 B(  0-C , 10-C ) :   1.3678 B(  0-C , 59-H ) :   0.9877
B(  1-C ,  2-N ) :   0.8963 B(  1-C ,  5-C ) :   1.3882 B(  2-N ,  3-O ) :   1.5809
B(  2-N ,  4-O ) :   1.4883 B(  3-O ,  4-O ) :   0.2569 B(  5-C ,  6-C ) :   1.0016
B(  5-C ,  8-C ) :   1.4006 B(  6-C ,  7-O ) :   1.0903 B(  6-C , 60-H ) :   0.9307
B(  6-C , 61-H ) :   0.9258 B(  7-O , 62-H ) :   0.9646 B(  8-C ,  9-C ) :   1.3545
B(  8-C , 63-H ) :   0.9940 B(  9-C , 10-C ) :   1.3538 B(  9-C , 11-C ) :   0.9642
B( 10-C , 64-H ) :   0.9961 B( 11-C , 12-C ) :   1.3419 B( 11-C , 19-C ) :   1.3611
B( 12-C , 13-C ) :   1.3853 B( 12-C , 65-H ) :   0.9934 B( 13-C , 14-N ) :   0.8631
B( 13-C , 17-C ) :   1.3747 B( 14-N , 15-O ) :   1.5510 B( 14-N , 16-O ) :   1.5273
B( 15-O , 16-O ) :   0.2715 B( 17-C , 18-C ) :   1.3500 B( 17-C , 20-C ) :   1.0309
B( 18-C , 19-C ) :   1.3852 B( 18-C , 66-H ) :   0.9960 B( 19-C , 67-H ) :   0.9954
B( 20-C , 21-C ) :   1.6980 B( 20-C , 68-H ) :   0.9628 B( 21-C , 22-C ) :   1.1794
B( 21-C , 69-H ) :   0.9423 B( 22-C , 23-N ) :   1.1745 B( 22-C , 29-C ) :   1.3859
B( 23-N , 24-C ) :   0.9436 B( 23-N , 26-C ) :   1.0339 B( 24-C , 25-C ) :   1.1160
B( 24-C , 70-H ) :   0.9238 B( 24-C , 71-H ) :   0.9499 B( 25-C , 72-H ) :   0.9612
B( 25-C , 73-H ) :   0.9646 B( 25-C , 74-H ) :   0.9629 B( 26-C , 27-O ) :   2.1091
B( 26-C , 28-C ) :   0.9943 B( 28-C , 29-C ) :   1.2128 B( 28-C , 35-C ) :   1.3544
B( 29-C , 30-C ) :   0.9704 B( 30-C , 31-O ) :   2.1356 B( 30-C , 32-N ) :   1.0307
B( 32-N , 33-C ) :   0.9388 B( 32-N , 35-C ) :   1.1734 B( 33-C , 34-C ) :   1.1181
B( 33-C , 75-H ) :   0.9510 B( 33-C , 76-H ) :   0.9226 B( 34-C , 77-H ) :   0.9676
B( 34-C , 78-H ) :   0.9681 B( 34-C , 79-H ) :   0.9622 B( 35-C , 36-C ) :   1.1649
B( 36-C , 37-C ) :   1.6109 B( 36-C , 80-H ) :   0.9482 B( 37-C , 38-C ) :   1.0939
B( 37-C , 81-H ) :   0.9639 B( 38-C , 39-C ) :   1.5408 B( 38-C , 42-C ) :   1.2151
B( 39-C , 40-S ) :   1.1767 B( 39-C , 82-H ) :   0.9536 B( 40-S , 41-C ) :   1.2168
B( 41-C , 42-C ) :   1.5234 B( 41-C , 83-H ) :   0.9609 B( 42-C , 43-C ) :   0.9673
B( 43-C , 44-O ) :   2.0372 B( 43-C , 45-O ) :   1.1469 B( 45-O , 46-C ) :   1.0340
B( 46-C , 47-C ) :   1.7516 B( 46-C , 84-H ) :   0.9815 B( 47-C , 48-C ) :   1.0512
B( 47-C , 85-H ) :   0.9678 B( 48-C , 49-C ) :   1.3103 B( 48-C , 53-C ) :   1.2902
B( 49-C , 50-C ) :   1.3962 B( 49-C , 86-H ) :   0.9918 B( 50-C , 51-C ) :   1.3554
B( 50-C , 87-H ) :   0.9805 B( 51-C , 52-C ) :   1.3761 B( 51-C , 56-N ) :   0.9105
B( 52-C , 53-C ) :   1.3933 B( 52-C , 54-C ) :   1.0243 B( 53-C , 88-H ) :   1.0018
B( 54-C , 55-O ) :   1.0912 B( 54-C , 89-H ) :   0.9167 B( 54-C , 90-H ) :   0.9168
B( 55-O , 91-H ) :   0.9708 B( 56-N , 57-O ) :   1.5634 B( 56-N , 58-O ) :   1.5119
B( 57-O , 58-O ) :   0.2566

-----------------------------------------------------------------------------
         ABSORPTION SPECTRUM VIA TRANSITION ELECTRIC DIPOLE MOMENTS
-----------------------------------------------------------------------------
State   Energy  Wavelength   fosc         T2         TX        TY        TZ
        (cm-1)    (nm)                  (au**2)     (au)      (au)      (au)
-----------------------------------------------------------------------------
   0   17773.4    562.6   0.762985485  14.13262   2.73767   0.99236  -2.37760
   1   23997.6    416.7   0.096594209   1.32513  -0.57223   0.28019   0.95874
   2   26750.2    373.8   0.033058102   0.40684  -0.50220  -0.32069  -0.22758
   3   27406.8    364.9   0.019864456   0.23861   0.34467   0.28686   0.19372
   4   28962.2    345.3   0.019295555   0.21933  -0.36320   0.07963   0.28475
   5   29534.9    338.6   0.002371240   0.02643   0.15682   0.04244  -0.00617
   6   31121.5    321.3   0.046470685   0.49158   0.50914   0.01999  -0.48162
   7   32093.5    311.6   0.843075940   8.64820  -2.43791  -1.44364   0.78783
   8   33181.9    301.4   0.001259185   0.01249  -0.01065  -0.08428  -0.07264
   9   33389.1    299.5   0.035038131   0.34547  -0.45969  -0.36625  -0.00435
  10   33440.8    299.0   0.002554459   0.02515  -0.00444   0.13290   0.08640
  11   33816.0    295.7   0.091932358   0.89500   0.01892   0.74241   0.58606
  12   34442.4    290.3   0.141213046   1.34976   0.44876  -0.75316  -0.76232
  13   34489.6    289.9   0.548664975   5.23715  -0.34326   1.43354   1.75051
  14   35977.8    277.9   0.275386344   2.51990   0.20918  -1.05266  -1.16964
  15   36548.2    273.6   0.326024594   2.93670  -1.40174  -0.98573  -0.01342
  16   36981.5    270.4   0.036303487   0.32318   0.16226   0.46948   0.27647
  17   37205.0    268.8   0.239082060   2.11554  -1.40493  -0.37049  -0.06678
  18   38237.2    261.5   0.095828687   0.82506   0.31397   0.80820   0.27072
  19   38378.1    260.6   0.173242945   1.48610  -0.84840  -0.85136  -0.20369
  20   38838.6    257.5   0.037576016   0.31851   0.20427  -0.30810  -0.42645
  21   39121.3    255.6   0.020358871   0.17132  -0.31695   0.00744   0.26610

FINAL SINGLE POINT ENERGY     -3153.116100720874

DIPOLE MOMENT
-------------
                                X             Y             Z
Electronic contribution:     -7.05906       0.59640       1.22830
Nuclear contribution   :      7.11018      -3.78507      -2.04250
                        -----------------------------------------
Total Dipole Moment    :      0.05112      -3.18867      -0.81420
                        -----------------------------------------
Magnitude (a.u.)       :      3.29138
Magnitude (Debye)      :      8.36601

Rotational constants in cm-1:     0.001623     0.000353     0.000297
Rotational constants in MHz :    48.661508    10.584381     8.903036

                             ****ORCA TERMINATED NORMALLY****
TOTAL RUN TIME: 0 days 0 hours 6 minutes 45 seconds 938 msec
