                         Program Version 4.2.0 -  RELEASE  -
|  1> # ORCA input file
|  2> # SCF done       -128.880055447774          0.000969327211
|  3> ! CAM-B3LYP def2-SVP def2/J RIJCOSX Grid4 TightSCF
|  4> %maxcore 5000
|  5> %tddft
|  6>     Mode sTDDFT
|  7>     Ethresh 5.0
|  8>     maxcore 5000
|  9> end
| 10>
| 11> %pal
| 12>   nprocs 6
| 13>   end
| 14> * xyz 0 1
| 15>    C       -1.59500         0.61270        -0.87067
| 16>    C       -0.22873         0.88567        -0.97460
| 17>    N        0.13279         2.26741        -1.10085
| 18>    O       -0.69278         3.09630        -0.77940
| 19>    O        1.23892         2.54632        -1.53029
| 20>    C        0.71929        -0.14981        -0.93885
| 21>    C        2.21512         0.06737        -1.04242
| 22>    O        2.62612         0.35470        -2.35145
| 23>    C        0.24707        -1.44487        -0.80499
| 24>    C       -1.11928        -1.72771        -0.71171
| 25>    C       -2.04657        -0.67756        -0.74581
| 26>    C       -1.55002        -3.05448        -0.58122
| 27>    C       -1.90438        -4.21211        -0.46212
| 28>    C       -2.29117        -5.48919        -0.31761
| 29>    C       -2.63981        -6.64783        -0.17278
| 30>    C       -3.00043        -7.97232         0.00190
| 31>    N       -4.29248        -8.37879         0.23970
| 32>    C       -5.44591        -7.51516         0.26628
| 33>    C       -5.86295        -7.08794        -1.13852
| 34>    C       -4.37576        -9.77506         0.41079
| 35>    O       -5.41265       -10.36366         0.63542
| 36>    C       -3.00959       -10.22491         0.26196
| 37>    C       -2.18837        -9.09632         0.00740
| 38>    C       -0.82895        -9.56121        -0.14182
| 39>    O        0.21234        -8.98942        -0.37618
| 40>    N       -0.91963       -10.96341         0.03847
| 41>    C        0.28360       -11.75647        -0.02352
| 42>    C        0.84941       -12.04589         1.36570
| 43>    C       -2.21265       -11.36470         0.29215
| 44>    C       -2.74204       -12.65783         0.55595
| 45>    C       -2.10549       -13.84599         0.69015
| 46>    C       -2.79006       -15.01650         0.99086
| 47>    C       -3.35685       -16.05701         1.27424
| 48>    C       -3.98255       -17.19959         1.60623
| 49>    C       -4.54288       -18.23172         1.92115
| 50>    C       -5.18948       -19.41687         2.30336
| 51>    C       -5.32526       -19.73885         3.65997
| 52>    C       -5.94794       -20.91091         4.01263
| 53>    C       -6.44307       -21.78007         3.03842
| 54>    C       -6.33067       -21.46915         1.67461
| 55>    C       -5.69866       -20.28301         1.33460
| 56>    C       -6.86967       -22.34579         0.56986
| 57>    O       -6.88351       -21.71745        -0.68607
| 58>    N       -7.05770       -22.98882         3.50561
| 59>    O       -7.35636       -23.04786         4.68144
| 60>    O       -7.24337       -23.88950         2.71021
| 61>    H       -2.28545         1.44234        -0.89901
| 62>    H        2.72625        -0.85708        -0.76167
| 63>    H        2.52517         0.86232        -0.34943
| 64>    H        2.38143         1.27399        -2.53889
| 65>    H        0.95077        -2.26305        -0.77430
| 66>    H       -3.10229        -0.88869        -0.67573
| 67>    H       -5.22151        -6.63607         0.87915
| 68>    H       -6.24801        -8.09023         0.73691
| 69>    H       -5.06396        -6.52907        -1.62167
| 70>    H       -6.74623        -6.45795        -1.08458
| 71>    H       -6.09504        -7.96215        -1.74215
| 72>    H        1.00684       -11.15507        -0.58352
| 73>    H        0.09168       -12.67443        -0.58457
| 74>    H        1.13063       -11.11211         1.84622
| 75>    H        1.73383       -12.67179         1.28163
| 76>    H        0.11946       -12.54869         1.99682
| 77>    H       -3.81833       -12.64324         0.68223
| 78>    H       -1.03517       -13.95536         0.59220
| 79>    H       -4.93598       -19.07129         4.41270
| 80>    H       -6.06139       -21.18951         5.04940
| 81>    H       -5.58438       -20.03536         0.28955
| 82>    H       -7.86789       -22.71907         0.83446
| 83>    H       -6.22113       -23.22138         0.46116
| 84>    H       -7.56197       -21.03322        -0.69254
| 85> *
| 86>
| 87>                          ****END OF INPUT****

CARTESIAN COORDINATES (ANGSTROEM)
---------------------------------
  C     -1.595000    0.612700   -0.870670
  C     -0.228730    0.885670   -0.974600
  N      0.132790    2.267410   -1.100850
  O     -0.692780    3.096300   -0.779400
  O      1.238920    2.546320   -1.530290
  C      0.719290   -0.149810   -0.938850
  C      2.215120    0.067370   -1.042420
  O      2.626120    0.354700   -2.351450
  C      0.247070   -1.444870   -0.804990
  C     -1.119280   -1.727710   -0.711710
  C     -2.046570   -0.677560   -0.745810
  C     -1.550020   -3.054480   -0.581220
  C     -1.904380   -4.212110   -0.462120
  C     -2.291170   -5.489190   -0.317610
  C     -2.639810   -6.647830   -0.172780
  C     -3.000430   -7.972320    0.001900
  N     -4.292480   -8.378790    0.239700
  C     -5.445910   -7.515160    0.266280
  C     -5.862950   -7.087940   -1.138520
  C     -4.375760   -9.775060    0.410790
  O     -5.412650  -10.363660    0.635420
  C     -3.009590  -10.224910    0.261960
  C     -2.188370   -9.096320    0.007400
  C     -0.828950   -9.561210   -0.141820
  O      0.212340   -8.989420   -0.376180
  N     -0.919630  -10.963410    0.038470
  C      0.283600  -11.756470   -0.023520
  C      0.849410  -12.045890    1.365700
  C     -2.212650  -11.364700    0.292150
  C     -2.742040  -12.657830    0.555950
  C     -2.105490  -13.845990    0.690150
  C     -2.790060  -15.016500    0.990860
  C     -3.356850  -16.057010    1.274240
  C     -3.982550  -17.199590    1.606230
  C     -4.542880  -18.231720    1.921150
  C     -5.189480  -19.416870    2.303360
  C     -5.325260  -19.738850    3.659970
  C     -5.947940  -20.910910    4.012630
  C     -6.443070  -21.780070    3.038420
  C     -6.330670  -21.469150    1.674610
  C     -5.698660  -20.283010    1.334600
  C     -6.869670  -22.345790    0.569860
  O     -6.883510  -21.717450   -0.686070
  N     -7.057700  -22.988820    3.505610
  O     -7.356360  -23.047860    4.681440
  O     -7.243370  -23.889500    2.710210
  H     -2.285450    1.442340   -0.899010
  H      2.726250   -0.857080   -0.761670
  H      2.525170    0.862320   -0.349430
  H      2.381430    1.273990   -2.538890
  H      0.950770   -2.263050   -0.774300
  H     -3.102290   -0.888690   -0.675730
  H     -5.221510   -6.636070    0.879150
  H     -6.248010   -8.090230    0.736910
  H     -5.063960   -6.529070   -1.621670
  H     -6.746230   -6.457950   -1.084580
  H     -6.095040   -7.962150   -1.742150
  H      1.006840  -11.155070   -0.583520
  H      0.091680  -12.674430   -0.584570
  H      1.130630  -11.112110    1.846220
  H      1.733830  -12.671790    1.281630
  H      0.119460  -12.548690    1.996820
  H     -3.818330  -12.643240    0.682230
  H     -1.035170  -13.955360    0.592200
  H     -4.935980  -19.071290    4.412700
  H     -6.061390  -21.189510    5.049400
  H     -5.584380  -20.035360    0.289550
  H     -7.867890  -22.719070    0.834460
  H     -6.221130  -23.221380    0.461160
  H     -7.561970  -21.033220   -0.692540

 Total Charge           Charge          ....    0
 Multiplicity           Mult            ....    1
 Number of Electrons    NEL             ....  320
 Basis Dimension        Dim             ....  764

ORBITAL ENERGIES
----------------

  NO   OCC          E(Eh)            E(eV)
   0   2.0000     -19.259679      -524.0825
   1   2.0000     -19.257497      -524.0231
   2   2.0000     -19.246263      -523.7174
   3   2.0000     -19.243668      -523.6468
   4   2.0000     -19.220588      -523.0188
   5   2.0000     -19.198204      -522.4097
   6   2.0000     -19.197383      -522.3873
   7   2.0000     -19.194867      -522.3189
   8   2.0000     -14.663661      -399.0185
   9   2.0000     -14.651191      -398.6792
  10   2.0000     -14.460917      -393.5016
  11   2.0000     -14.460640      -393.4940
  12   2.0000     -10.382101      -282.5113
  13   2.0000     -10.380622      -282.4711
  14   2.0000     -10.360130      -281.9135
  15   2.0000     -10.351074      -281.6670
  16   2.0000     -10.344039      -281.4756
  17   2.0000     -10.335846      -281.2527
  18   2.0000     -10.330436      -281.1055
  19   2.0000     -10.325509      -280.9714
  20   2.0000     -10.323069      -280.9050
  21   2.0000     -10.322358      -280.8856
  22   2.0000     -10.319935      -280.8197
  23   2.0000     -10.318091      -280.7695
  24   2.0000     -10.314550      -280.6732
  25   2.0000     -10.313912      -280.6558
  26   2.0000     -10.312483      -280.6169
  27   2.0000     -10.312214      -280.6096
  28   2.0000     -10.310747      -280.5697
  29   2.0000     -10.309979      -280.5488
  30   2.0000     -10.309657      -280.5400
  31   2.0000     -10.309550      -280.5371
  32   2.0000     -10.308932      -280.5203
  33   2.0000     -10.307182      -280.4727
  34   2.0000     -10.305057      -280.4149
  35   2.0000     -10.304375      -280.3963
  36   2.0000     -10.303817      -280.3811
  37   2.0000     -10.301850      -280.3276
  38   2.0000     -10.300482      -280.2904
  39   2.0000     -10.299496      -280.2635
  40   2.0000     -10.298760      -280.2435
  41   2.0000     -10.295572      -280.1567
  42   2.0000     -10.276879      -279.6481
  43   2.0000     -10.272152      -279.5195
  44   2.0000     -10.268954      -279.4324
  45   2.0000     -10.264584      -279.3135
  46   2.0000      -1.337857       -36.4050
  47   2.0000      -1.325658       -36.0730
  48   2.0000      -1.156205       -31.4619
  49   2.0000      -1.143543       -31.1174
  50   2.0000      -1.139793       -31.0154
  51   2.0000      -1.132446       -30.8154
  52   2.0000      -1.110915       -30.2295
  53   2.0000      -1.091276       -29.6951
  54   2.0000      -1.071220       -29.1494
  55   2.0000      -1.062052       -28.8999
  56   2.0000      -1.000106       -27.2143
  57   2.0000      -0.993139       -27.0247
  58   2.0000      -0.937355       -25.5067
  59   2.0000      -0.935521       -25.4568
  60   2.0000      -0.931179       -25.3387
  61   2.0000      -0.925510       -25.1844
  62   2.0000      -0.909487       -24.7484
  63   2.0000      -0.890256       -24.2251
  64   2.0000      -0.883065       -24.0294
  65   2.0000      -0.880870       -23.9697
  66   2.0000      -0.876052       -23.8386
  67   2.0000      -0.867666       -23.6104
  68   2.0000      -0.850589       -23.1457
  69   2.0000      -0.832061       -22.6415
  70   2.0000      -0.826027       -22.4773
  71   2.0000      -0.819323       -22.2949
  72   2.0000      -0.800272       -21.7765
  73   2.0000      -0.790337       -21.5062
  74   2.0000      -0.772830       -21.0298
  75   2.0000      -0.769142       -20.9294
  76   2.0000      -0.766247       -20.8506
  77   2.0000      -0.728608       -19.8264
  78   2.0000      -0.719988       -19.5919
  79   2.0000      -0.719099       -19.5677
  80   2.0000      -0.713637       -19.4190
  81   2.0000      -0.707757       -19.2591
  82   2.0000      -0.698355       -19.0032
  83   2.0000      -0.694087       -18.8871
  84   2.0000      -0.684730       -18.6324
  85   2.0000      -0.676534       -18.4094
  86   2.0000      -0.660107       -17.9624
  87   2.0000      -0.656056       -17.8522
  88   2.0000      -0.646119       -17.5818
  89   2.0000      -0.644233       -17.5305
  90   2.0000      -0.642587       -17.4857
  91   2.0000      -0.635249       -17.2860
  92   2.0000      -0.625221       -17.0131
  93   2.0000      -0.622559       -16.9407
  94   2.0000      -0.611520       -16.6403
  95   2.0000      -0.609016       -16.5722
  96   2.0000      -0.601071       -16.3560
  97   2.0000      -0.599340       -16.3089
  98   2.0000      -0.594435       -16.1754
  99   2.0000      -0.593515       -16.1504
 100   2.0000      -0.586511       -15.9598
 101   2.0000      -0.577295       -15.7090
 102   2.0000      -0.571399       -15.5486
 103   2.0000      -0.566658       -15.4196
 104   2.0000      -0.564721       -15.3668
 105   2.0000      -0.547843       -14.9076
 106   2.0000      -0.538502       -14.6534
 107   2.0000      -0.535517       -14.5721
 108   2.0000      -0.535341       -14.5674
 109   2.0000      -0.534230       -14.5371
 110   2.0000      -0.533921       -14.5287
 111   2.0000      -0.528783       -14.3889
 112   2.0000      -0.522849       -14.2274
 113   2.0000      -0.519925       -14.1479
 114   2.0000      -0.514513       -14.0006
 115   2.0000      -0.512958       -13.9583
 116   2.0000      -0.508399       -13.8342
 117   2.0000      -0.498501       -13.5649
 118   2.0000      -0.493466       -13.4279
 119   2.0000      -0.488961       -13.3053
 120   2.0000      -0.487194       -13.2572
 121   2.0000      -0.485708       -13.2168
 122   2.0000      -0.477382       -12.9902
 123   2.0000      -0.474234       -12.9046
 124   2.0000      -0.473273       -12.8784
 125   2.0000      -0.467718       -12.7272
 126   2.0000      -0.466389       -12.6911
 127   2.0000      -0.463850       -12.6220
 128   2.0000      -0.458560       -12.4780
 129   2.0000      -0.457886       -12.4597
 130   2.0000      -0.455642       -12.3987
 131   2.0000      -0.443862       -12.0781
 132   2.0000      -0.441355       -12.0099
 133   2.0000      -0.436364       -11.8741
 134   2.0000      -0.432463       -11.7679
 135   2.0000      -0.427905       -11.6439
 136   2.0000      -0.423783       -11.5317
 137   2.0000      -0.416886       -11.3440
 138   2.0000      -0.414218       -11.2715
 139   2.0000      -0.402309       -10.9474
 140   2.0000      -0.394430       -10.7330
 141   2.0000      -0.391757       -10.6602
 142   2.0000      -0.387537       -10.5454
 143   2.0000      -0.385438       -10.4883
 144   2.0000      -0.383387       -10.4325
 145   2.0000      -0.379293       -10.3211
 146   2.0000      -0.375271       -10.2116
 147   2.0000      -0.371759       -10.1161
 148   2.0000      -0.359667        -9.7870
 149   2.0000      -0.355217        -9.6660
 150   2.0000      -0.353662        -9.6236
 151   2.0000      -0.344007        -9.3609
 152   2.0000      -0.341050        -9.2804
 153   2.0000      -0.340045        -9.2531
 154   2.0000      -0.332929        -9.0595
 155   2.0000      -0.323871        -8.8130
 156   2.0000      -0.319197        -8.6858
 157   2.0000      -0.313048        -8.5185
 158   2.0000      -0.303887        -8.2692
 159   2.0000      -0.249946        -6.8014
 160   0.0000      -0.105023        -2.8578
 161   0.0000      -0.071065        -1.9338
 162   0.0000      -0.068582        -1.8662
 163   0.0000      -0.029271        -0.7965
 164   0.0000      -0.009152        -0.2490

MULLIKEN ATOMIC CHARGES
-----------------------
   0 C :   -0.002540
   1 C :    0.117768
   2 N :    0.262515
   3 O :   -0.222495
   4 O :   -0.260275
   5 C :   -0.088263
   6 C :    0.328362
   7 O :   -0.320867
   8 C :   -0.048196
   9 C :   -0.018862
  10 C :    0.026036
  11 C :    0.023229
  12 C :   -0.017596
  13 C :   -0.084427
  14 C :    0.123962
  15 C :    0.029339
  16 N :   -0.265491
  17 C :    0.112593
  18 C :   -0.002845
  19 C :    0.159061
  20 O :   -0.189313
  21 C :   -0.064278
  22 C :    0.024168
  23 C :    0.120277
  24 O :   -0.172797
  25 N :   -0.279514
  26 C :    0.097293
  27 C :    0.001065
  28 C :    0.120038
  29 C :   -0.012458
  30 C :   -0.095165
  31 C :    0.038509
  32 C :    0.000954
  33 C :   -0.023066
  34 C :    0.039595
  35 C :    0.019028
  36 C :    0.027413
  37 C :   -0.008956
  38 C :    0.122170
  39 C :   -0.132775
  40 C :   -0.073775
  41 C :    0.318649
  42 O :   -0.300149
  43 N :    0.248091
  44 O :   -0.235315
  45 O :   -0.240832
  46 H :    0.018009
  47 H :   -0.002671
  48 H :    0.008347
  49 H :    0.172372
  50 H :   -0.000059
  51 H :    0.001052
  52 H :    0.025783
  53 H :    0.043831
  54 H :    0.023874
  55 H :    0.023458
  56 H :    0.027245
  57 H :    0.046219
  58 H :    0.024286
  59 H :    0.031370
  60 H :    0.025044
  61 H :    0.020063
  62 H :    0.032126
  63 H :    0.038999
  64 H :   -0.001553
  65 H :    0.015252
  66 H :   -0.005598
  67 H :    0.022316
  68 H :    0.040946
  69 H :    0.169424
Sum of atomic charges:   -0.0000000

LOEWDIN ATOMIC CHARGES
----------------------
   0 C :    0.009015
   1 C :   -0.030889
   2 N :    0.291992
   3 O :   -0.186991
   4 O :   -0.201770
   5 C :   -0.012011
   6 C :    0.074786
   7 O :   -0.137431
   8 C :    0.012124
   9 C :   -0.020937
  10 C :    0.003340
  11 C :    0.022282
  12 C :   -0.036163
  13 C :   -0.009180
  14 C :   -0.003730
  15 C :    0.052123
  16 N :    0.003256
  17 C :    0.038514
  18 C :   -0.061095
  19 C :    0.077807
  20 O :   -0.193430
  21 C :   -0.112166
  22 C :   -0.097469
  23 C :    0.084959
  24 O :   -0.177332
  25 N :   -0.008642
  26 C :    0.033869
  27 C :   -0.063366
  28 C :    0.076177
  29 C :   -0.000547
  30 C :   -0.024651
  31 C :    0.005388
  32 C :   -0.035641
  33 C :   -0.034997
  34 C :    0.011121
  35 C :   -0.019837
  36 C :   -0.001011
  37 C :    0.007951
  38 C :   -0.035478
  39 C :   -0.017015
  40 C :   -0.003621
  41 C :    0.068106
  42 O :   -0.124038
  43 N :    0.284796
  44 O :   -0.202079
  45 O :   -0.196713
  46 H :    0.044434
  47 H :    0.024403
  48 H :    0.014898
  49 H :    0.059870
  50 H :    0.042408
  51 H :    0.041448
  52 H :    0.027619
  53 H :    0.037308
  54 H :    0.025551
  55 H :    0.030867
  56 H :    0.030595
  57 H :    0.038986
  58 H :    0.021836
  59 H :    0.034117
  60 H :    0.031567
  61 H :    0.021569
  62 H :    0.055654
  63 H :    0.046431
  64 H :    0.040364
  65 H :    0.043766
  66 H :    0.036449
  67 H :    0.019648
  68 H :    0.042257
  69 H :    0.078579

  Mayer bond orders larger than 0.100000
B(  0-C ,  1-C ) :   1.3676 B(  0-C , 10-C ) :   1.3635 B(  0-C , 46-H ) :   0.9870
B(  1-C ,  2-N ) :   0.9012 B(  1-C ,  5-C ) :   1.3756 B(  2-N ,  3-O ) :   1.5772
B(  2-N ,  4-O ) :   1.4850 B(  3-O ,  4-O ) :   0.2579 B(  5-C ,  6-C ) :   1.0009
B(  5-C ,  8-C ) :   1.3993 B(  6-C ,  7-O ) :   1.0932 B(  6-C , 47-H ) :   0.9244
B(  6-C , 48-H ) :   0.9306 B(  7-O , 49-H ) :   0.9642 B(  8-C ,  9-C ) :   1.3401
B(  8-C , 50-H ) :   0.9990 B(  9-C , 10-C ) :   1.3252 B(  9-C , 11-C ) :   0.9274
B( 10-C , 51-H ) :   1.0021 B( 11-C , 12-C ) :   2.2384 B( 11-C , 14-C ) :   0.1749
B( 12-C , 13-C ) :   0.8840 B( 13-C , 14-C ) :   2.1101 B( 14-C , 15-C ) :   0.8041
B( 15-C , 16-N ) :   1.2032 B( 15-C , 22-C ) :   1.4304 B( 16-N , 17-C ) :   0.9443
B( 16-N , 19-C ) :   1.0289 B( 17-C , 18-C ) :   1.1212 B( 17-C , 52-H ) :   0.9475
B( 17-C , 53-H ) :   0.9327 B( 18-C , 54-H ) :   0.9691 B( 18-C , 55-H ) :   0.9673
B( 18-C , 56-H ) :   0.9655 B( 19-C , 20-O ) :   2.1358 B( 19-C , 21-C ) :   0.9804
B( 21-C , 22-C ) :   1.2192 B( 21-C , 28-C ) :   1.3657 B( 22-C , 23-C ) :   0.9399
B( 23-C , 24-O ) :   2.1793 B( 23-C , 25-N ) :   1.0282 B( 25-N , 26-C ) :   0.9428
B( 25-N , 28-C ) :   1.1664 B( 26-C , 27-C ) :   1.1175 B( 26-C , 57-H ) :   0.9233
B( 26-C , 58-H ) :   0.9503 B( 27-C , 59-H ) :   0.9604 B( 27-C , 60-H ) :   0.9683
B( 27-C , 61-H ) :   0.9681 B( 28-C , 29-C ) :   1.1765 B( 29-C , 30-C ) :   1.6383
B( 29-C , 62-H ) :   0.9484 B( 30-C , 31-C ) :   1.0011 B( 30-C , 63-H ) :   0.9513
B( 31-C , 32-C ) :   2.1664 B( 31-C , 34-C ) :   0.1779 B( 32-C , 33-C ) :   0.8587
B( 33-C , 34-C ) :   2.2687 B( 34-C , 35-C ) :   0.9131 B( 35-C , 36-C ) :   1.3319
B( 35-C , 40-C ) :   1.3118 B( 36-C , 37-C ) :   1.3601 B( 36-C , 64-H ) :   1.0016
B( 37-C , 38-C ) :   1.3643 B( 37-C , 65-H ) :   0.9877 B( 38-C , 39-C ) :   1.3779
B( 38-C , 43-N ) :   0.8990 B( 39-C , 40-C ) :   1.3824 B( 39-C , 41-C ) :   0.9893
B( 40-C , 66-H ) :   0.9986 B( 41-C , 42-O ) :   1.0562 B( 41-C , 67-H ) :   0.9374
B( 41-C , 68-H ) :   0.9140 B( 42-O , 69-H ) :   0.9782 B( 43-N , 44-O ) :   1.5600
B( 43-N , 45-O ) :   1.5169 B( 44-O , 45-O ) :   0.2637

-----------------------------------------------------------------------------
         ABSORPTION SPECTRUM VIA TRANSITION ELECTRIC DIPOLE MOMENTS
-----------------------------------------------------------------------------
State   Energy  Wavelength   fosc         T2         TX        TY        TZ
        (cm-1)    (nm)                  (au**2)     (au)      (au)      (au)
-----------------------------------------------------------------------------
   0   16890.7    592.0   1.114021180  21.71314  -0.40730   4.61610  -0.48876
   1   25499.2    392.2   0.034219548   0.44180  -0.55485  -0.36523   0.02339
   2   26816.5    372.9   0.063610382   0.78091  -0.58691  -0.65498   0.08626
   3   27124.7    368.7   0.001620689   0.01967  -0.08230  -0.11151   0.02152
   4   27452.5    364.3   0.005382039   0.06454  -0.03999  -0.23348   0.09182
   5   27743.4    360.4   0.003133945   0.03719  -0.01065   0.17721  -0.07532
   6   29665.3    337.1   0.997037276  11.06467  -1.13078  -3.08381   0.52551
   7   29854.1    335.0   0.033763151   0.37232   0.40674   0.45352   0.03471
   8   29950.0    333.9   0.006419928   0.07057  -0.01796   0.24284  -0.10618
   9   31365.3    318.8   0.000111980   0.00118   0.03415   0.00295   0.00054
  10   32251.6    310.1   0.002211569   0.02257  -0.08772  -0.12134   0.01244
  11   32698.6    305.8   0.227026214   2.28572   0.54537   1.33743  -0.44672
  12   32757.7    305.3   0.043440603   0.43657   0.50311   0.33605  -0.26555
  13   33293.1    300.4   0.199979025   1.97745  -0.71130  -1.16193   0.34845
  14   34530.9    289.6   0.818606931   7.80446   1.24761   2.39440  -0.71751
  15   35535.4    281.4   0.003356150   0.03109   0.16663  -0.04407  -0.03721
  16   36253.0    275.8   0.000221710   0.00201  -0.01470  -0.02815   0.03170
  17   37123.2    269.4   0.056376918   0.49996   0.66553  -0.23877  -0.00296
  18   39711.5    251.8   0.175438314   1.45440  -0.13555  -0.11767  -1.19255
  19   39808.2    251.2   0.068397638   0.56564  -0.12212  -0.74166   0.02586
  20   40162.9    249.0   0.006071691   0.04977   0.09052   0.20220   0.02625

FINAL SINGLE POINT ENERGY     -2127.845221674368

DIPOLE MOMENT
-------------
                                X             Y             Z
Electronic contribution:     -4.18077       0.89847       4.55867
Nuclear contribution   :      3.86299      -0.36220      -4.24012
                        -----------------------------------------
Total Dipole Moment    :     -0.31778       0.53627       0.31855
                        -----------------------------------------
Magnitude (a.u.)       :      0.70003
Magnitude (Debye)      :      1.77933

Rotational constants in cm-1:     0.007808     0.000353     0.000344
Rotational constants in MHz :   234.067128    10.576865    10.321247

                             ****ORCA TERMINATED NORMALLY****
TOTAL RUN TIME: 0 days 0 hours 3 minutes 55 seconds 666 msec
