                         Program Version 4.2.0 -  RELEASE  -
|  1> # ORCA input file
|  2> # SCF done       -194.357937419013          0.000787406031
|  3> ! CAM-B3LYP def2-SVP def2/J RIJCOSX Grid4 TightSCF
|  4> %maxcore 5000
|  5> %tddft
|  6>     Mode sTDDFT
|  7>     Ethresh 5.0
|  8>     maxcore 5000
|  9> end
| 10>
| 11> %pal
| 12>   nprocs 6
| 13>   end
| 14> * xyz 0 1
| 15>    C       -2.60224         0.22223        -5.77304
| 16>    C       -1.27074         0.54533        -6.03450
| 17>    N       -1.04735         1.71381        -6.83807
| 18>    O       -1.97209         2.11697        -7.51066
| 19>    O        0.04697         2.24650        -6.80398
| 20>    C       -0.22719        -0.25310        -5.54424
| 21>    C        1.24110         0.04068        -5.76923
| 22>    O        1.70144         1.09706        -4.96903
| 23>    C       -0.57298        -1.36982        -4.79932
| 24>    C       -1.89846        -1.69987        -4.52698
| 25>    C       -2.91891        -0.88086        -5.01722
| 26>    C       -2.22096        -2.87241        -3.73140
| 27>    C       -1.82337        -4.17991        -3.92810
| 28>    N       -1.07892        -4.70271        -5.00050
| 29>    O       -0.73778        -5.86976        -4.93125
| 30>    O       -0.83881        -3.97878        -5.95416
| 31>    C       -2.42338        -5.02195        -2.91748
| 32>    C       -3.25145        -4.25763        -2.16725
| 33>    C       -3.15567        -2.88948        -2.62268
| 34>    C       -3.75393        -1.79277        -2.02372
| 35>    C       -3.19979        -0.49569        -1.87025
| 36>    C       -3.91596         0.17479        -0.91248
| 37>    C       -5.01065        -0.63217        -0.49000
| 38>    N       -5.97587        -0.19798         0.42829
| 39>    O       -6.89701        -0.95258         0.71091
| 40>    O       -5.83776         0.91558         0.90507
| 41>    C       -4.98854        -1.83833        -1.20870
| 42>    C       -6.02371        -2.76799        -1.32723
| 43>    C       -6.18584        -3.61156        -2.40778
| 44>    C       -7.24502        -4.51465        -2.56028
| 45>    C       -8.33566        -4.67826        -1.70311
| 46>    C       -9.26411        -5.56051        -2.28054
| 47>    O      -10.30690        -5.97347        -1.55484
| 48>    C      -10.89739        -7.24155        -1.76027
| 49>    C       -8.80779        -5.92963        -3.57521
| 50>    C       -7.50380        -5.33907        -3.74661
| 51>    C       -6.66070        -5.47795        -4.83350
| 52>    C       -5.25618        -5.31121        -4.84234
| 53>    C       -4.79350        -5.51867        -6.12199
| 54>    O       -3.51581        -5.45476        -6.44352
| 55>    C       -3.10358        -5.73097        -7.76973
| 56>    C       -5.94806        -5.77999        -6.99375
| 57>    C       -7.04809        -5.78857        -6.22727
| 58>    C       -9.43659        -6.75938        -4.53838
| 59>    C      -10.77741        -6.80735        -4.78205
| 60>    C      -11.37115        -7.64724        -5.75281
| 61>    C      -10.76580        -8.52742        -6.62990
| 62>    C      -11.76035        -9.19858        -7.38642
| 63>    C      -13.05934        -8.66834        -6.91764
| 64>    C      -12.81095        -7.73764        -5.96303
| 65>    C      -14.33094        -9.04519        -7.36422
| 66>    N      -15.38897        -9.34071        -7.69935
| 67>    C      -11.56999       -10.16337        -8.34932
| 68>    C      -12.56841       -10.91907        -9.03740
| 69>    C      -11.96163       -11.82124        -9.87568
| 70>    C      -10.52439       -11.63890        -9.75481
| 71>    C      -10.27662       -10.65629        -8.84576
| 72>    C       -9.01083       -10.18446        -8.48776
| 73>    N       -7.96373        -9.79593        -8.21435
| 74>    C      -12.60625       -12.79851       -10.72445
| 75>    C      -11.89696       -13.46697       -11.73120
| 76>    C      -12.52858       -14.40200       -12.51420
| 77>    C      -13.88089       -14.69227       -12.32954
| 78>    C      -14.62299       -14.03720       -11.33466
| 79>    C      -13.96015       -13.10596       -10.55239
| 80>    C      -16.09512       -14.28607       -11.07646
| 81>    O      -16.91581       -13.70037       -12.04986
| 82>    N      -14.44009       -15.69418       -13.19103
| 83>    O      -13.66965       -16.44130       -13.75597
| 84>    O      -15.65039       -15.74871       -13.31698
| 85>    H       -3.37413         0.86207        -6.17351
| 86>    H        1.42200         0.24502        -6.83327
| 87>    H        1.82476        -0.83643        -5.48076
| 88>    H        1.38463         1.92289        -5.36567
| 89>    H        0.21493        -1.99497        -4.40893
| 90>    H       -3.95076        -1.12593        -4.81776
| 91>    H       -2.22563        -6.07286        -2.83079
| 92>    H       -3.82302        -4.56738        -1.31384
| 93>    H       -2.29032        -0.16010        -2.32931
| 94>    H       -3.71098         1.15210        -0.51675
| 95>    H       -6.78903        -2.72739        -0.56425
| 96>    H       -5.49356        -3.52199        -3.23033
| 97>    H       -8.47619        -4.21558        -0.74546
| 98>    H      -11.17196        -7.60429        -0.76886
| 99>    H      -10.20251        -7.94119        -2.22695
|100>    H      -11.80151        -7.16746        -2.36852
|101>    H       -4.62582        -5.20486        -3.98532
|102>    H       -2.02424        -5.58850        -7.77550
|103>    H       -3.56509        -5.03731        -8.47655
|104>    H       -3.34388        -6.75951        -8.04831
|105>    H       -5.89845        -5.92778        -8.05543
|106>    H       -8.06036        -5.87927        -6.56938
|107>    H       -8.78028        -7.34968        -5.16230
|108>    H      -11.44061        -6.14344        -4.24389
|109>    H       -9.71365        -8.70064        -6.73374
|110>    H      -13.54366        -7.16032        -5.42897
|111>    H      -13.62153       -10.77520        -8.90284
|112>    H       -9.77540       -12.19989       -10.28140
|113>    H      -10.85787       -13.24351       -11.91002
|114>    H      -11.99427       -14.92618       -13.29240
|115>    H      -14.51710       -12.60722        -9.77524
|116>    H      -16.37179       -13.81852       -10.12826
|117>    H      -16.28336       -15.36654       -11.00174
|118>    H      -16.86514       -14.25083       -12.84618
|119> *
|120>
|121>                          ****END OF INPUT****

CARTESIAN COORDINATES (ANGSTROEM)
---------------------------------
  C     -2.602240    0.222230   -5.773040
  C     -1.270740    0.545330   -6.034500
  N     -1.047350    1.713810   -6.838070
  O     -1.972090    2.116970   -7.510660
  O      0.046970    2.246500   -6.803980
  C     -0.227190   -0.253100   -5.544240
  C      1.241100    0.040680   -5.769230
  O      1.701440    1.097060   -4.969030
  C     -0.572980   -1.369820   -4.799320
  C     -1.898460   -1.699870   -4.526980
  C     -2.918910   -0.880860   -5.017220
  C     -2.220960   -2.872410   -3.731400
  C     -1.823370   -4.179910   -3.928100
  N     -1.078920   -4.702710   -5.000500
  O     -0.737780   -5.869760   -4.931250
  O     -0.838810   -3.978780   -5.954160
  C     -2.423380   -5.021950   -2.917480
  C     -3.251450   -4.257630   -2.167250
  C     -3.155670   -2.889480   -2.622680
  C     -3.753930   -1.792770   -2.023720
  C     -3.199790   -0.495690   -1.870250
  C     -3.915960    0.174790   -0.912480
  C     -5.010650   -0.632170   -0.490000
  N     -5.975870   -0.197980    0.428290
  O     -6.897010   -0.952580    0.710910
  O     -5.837760    0.915580    0.905070
  C     -4.988540   -1.838330   -1.208700
  C     -6.023710   -2.767990   -1.327230
  C     -6.185840   -3.611560   -2.407780
  C     -7.245020   -4.514650   -2.560280
  C     -8.335660   -4.678260   -1.703110
  C     -9.264110   -5.560510   -2.280540
  O    -10.306900   -5.973470   -1.554840
  C    -10.897390   -7.241550   -1.760270
  C     -8.807790   -5.929630   -3.575210
  C     -7.503800   -5.339070   -3.746610
  C     -6.660700   -5.477950   -4.833500
  C     -5.256180   -5.311210   -4.842340
  C     -4.793500   -5.518670   -6.121990
  O     -3.515810   -5.454760   -6.443520
  C     -3.103580   -5.730970   -7.769730
  C     -5.948060   -5.779990   -6.993750
  C     -7.048090   -5.788570   -6.227270
  C     -9.436590   -6.759380   -4.538380
  C    -10.777410   -6.807350   -4.782050
  C    -11.371150   -7.647240   -5.752810
  C    -10.765800   -8.527420   -6.629900
  C    -11.760350   -9.198580   -7.386420
  C    -13.059340   -8.668340   -6.917640
  C    -12.810950   -7.737640   -5.963030
  C    -14.330940   -9.045190   -7.364220
  N    -15.388970   -9.340710   -7.699350
  C    -11.569990  -10.163370   -8.349320
  C    -12.568410  -10.919070   -9.037400
  C    -11.961630  -11.821240   -9.875680
  C    -10.524390  -11.638900   -9.754810
  C    -10.276620  -10.656290   -8.845760
  C     -9.010830  -10.184460   -8.487760
  N     -7.963730   -9.795930   -8.214350
  C    -12.606250  -12.798510  -10.724450
  C    -11.896960  -13.466970  -11.731200
  C    -12.528580  -14.402000  -12.514200
  C    -13.880890  -14.692270  -12.329540
  C    -14.622990  -14.037200  -11.334660
  C    -13.960150  -13.105960  -10.552390
  C    -16.095120  -14.286070  -11.076460
  O    -16.915810  -13.700370  -12.049860
  N    -14.440090  -15.694180  -13.191030
  O    -13.669650  -16.441300  -13.755970
  O    -15.650390  -15.748710  -13.316980
  H     -3.374130    0.862070   -6.173510
  H      1.422000    0.245020   -6.833270
  H      1.824760   -0.836430   -5.480760
  H      1.384630    1.922890   -5.365670
  H      0.214930   -1.994970   -4.408930
  H     -3.950760   -1.125930   -4.817760
  H     -2.225630   -6.072860   -2.830790
  H     -3.823020   -4.567380   -1.313840
  H     -2.290320   -0.160100   -2.329310
  H     -3.710980    1.152100   -0.516750
  H     -6.789030   -2.727390   -0.564250
  H     -5.493560   -3.521990   -3.230330
  H     -8.476190   -4.215580   -0.745460
  H    -11.171960   -7.604290   -0.768860
  H    -10.202510   -7.941190   -2.226950
  H    -11.801510   -7.167460   -2.368520
  H     -4.625820   -5.204860   -3.985320
  H     -2.024240   -5.588500   -7.775500
  H     -3.565090   -5.037310   -8.476550
  H     -3.343880   -6.759510   -8.048310
  H     -5.898450   -5.927780   -8.055430
  H     -8.060360   -5.879270   -6.569380
  H     -8.780280   -7.349680   -5.162300
  H    -11.440610   -6.143440   -4.243890
  H     -9.713650   -8.700640   -6.733740
  H    -13.543660   -7.160320   -5.428970
  H    -13.621530  -10.775200   -8.902840
  H     -9.775400  -12.199890  -10.281400
  H    -10.857870  -13.243510  -11.910020
  H    -11.994270  -14.926180  -13.292400
  H    -14.517100  -12.607220   -9.775240
  H    -16.371790  -13.818520  -10.128260
  H    -16.283360  -15.366540  -11.001740
  H    -16.865140  -14.250830  -12.846180

 Total Charge           Charge          ....    0
 Multiplicity           Mult            ....    1
 Number of Electrons    NEL             ....  484
 Basis Dimension        Dim             .... 1150

ORBITAL ENERGIES
----------------

  NO   OCC          E(Eh)            E(eV)
   0   2.0000     -19.285655      -524.7893
   1   2.0000     -19.280478      -524.6485
   2   2.0000     -19.255542      -523.9699
   3   2.0000     -19.254520      -523.9421
   4   2.0000     -19.253353      -523.9104
   5   2.0000     -19.252218      -523.8795
   6   2.0000     -19.246454      -523.7226
   7   2.0000     -19.244126      -523.6593
   8   2.0000     -19.229844      -523.2707
   9   2.0000     -19.229387      -523.2582
  10   2.0000     -19.194156      -522.2995
  11   2.0000     -19.193726      -522.2878
  12   2.0000     -14.659471      -398.9045
  13   2.0000     -14.658302      -398.8727
  14   2.0000     -14.652852      -398.7244
  15   2.0000     -14.639995      -398.3745
  16   2.0000     -14.419381      -392.3713
  17   2.0000     -14.418254      -392.3406
  18   2.0000     -10.368720      -282.1472
  19   2.0000     -10.367079      -282.1026
  20   2.0000     -10.345955      -281.5277
  21   2.0000     -10.340713      -281.3851
  22   2.0000     -10.337356      -281.2938
  23   2.0000     -10.335444      -281.2417
  24   2.0000     -10.335169      -281.2342
  25   2.0000     -10.335105      -281.2325
  26   2.0000     -10.333728      -281.1950
  27   2.0000     -10.328365      -281.0491
  28   2.0000     -10.327340      -281.0212
  29   2.0000     -10.326866      -281.0083
  30   2.0000     -10.324891      -280.9546
  31   2.0000     -10.323845      -280.9261
  32   2.0000     -10.321475      -280.8616
  33   2.0000     -10.321140      -280.8525
  34   2.0000     -10.321018      -280.8492
  35   2.0000     -10.320896      -280.8459
  36   2.0000     -10.320573      -280.8371
  37   2.0000     -10.318037      -280.7681
  38   2.0000     -10.317247      -280.7466
  39   2.0000     -10.316389      -280.7232
  40   2.0000     -10.316331      -280.7216
  41   2.0000     -10.315895      -280.7098
  42   2.0000     -10.315108      -280.6884
  43   2.0000     -10.314839      -280.6810
  44   2.0000     -10.314510      -280.6721
  45   2.0000     -10.312720      -280.6234
  46   2.0000     -10.312651      -280.6215
  47   2.0000     -10.309747      -280.5425
  48   2.0000     -10.308921      -280.5200
  49   2.0000     -10.308876      -280.5188
  50   2.0000     -10.307664      -280.4858
  51   2.0000     -10.305441      -280.4253
  52   2.0000     -10.304852      -280.4093
  53   2.0000     -10.304703      -280.4052
  54   2.0000     -10.304544      -280.4009
  55   2.0000     -10.302229      -280.3379
  56   2.0000     -10.301572      -280.3200
  57   2.0000     -10.301379      -280.3148
  58   2.0000     -10.301247      -280.3112
  59   2.0000     -10.300211      -280.2830
  60   2.0000     -10.300134      -280.2809
  61   2.0000     -10.297196      -280.2009
  62   2.0000     -10.295792      -280.1628
  63   2.0000     -10.294252      -280.1208
  64   2.0000     -10.293613      -280.1034
  65   2.0000     -10.293580      -280.1026
  66   2.0000     -10.290505      -280.0189
  67   2.0000     -10.287374      -279.9337
  68   2.0000     -10.286035      -279.8972
  69   2.0000     -10.261721      -279.2356
  70   2.0000      -1.334107       -36.3029
  71   2.0000      -1.333267       -36.2800
  72   2.0000      -1.323524       -36.0149
  73   2.0000      -1.308685       -35.6111
  74   2.0000      -1.191275       -32.4162
  75   2.0000      -1.184621       -32.2352
  76   2.0000      -1.152532       -31.3620
  77   2.0000      -1.151660       -31.3383
  78   2.0000      -1.140165       -31.0255
  79   2.0000      -1.125866       -30.6364
  80   2.0000      -1.087312       -29.5873
  81   2.0000      -1.086454       -29.5639
  82   2.0000      -1.025455       -27.9041
  83   2.0000      -1.022645       -27.8276
  84   2.0000      -1.010690       -27.5023
  85   2.0000      -1.008107       -27.4320
  86   2.0000      -1.001878       -27.2625
  87   2.0000      -0.997723       -27.1494
  88   2.0000      -0.994808       -27.0701
  89   2.0000      -0.986689       -26.8492
  90   2.0000      -0.984968       -26.8023
  91   2.0000      -0.980731       -26.6871
  92   2.0000      -0.931713       -25.3532
  93   2.0000      -0.922372       -25.0990
  94   2.0000      -0.918311       -24.9885
  95   2.0000      -0.914667       -24.8894
  96   2.0000      -0.909813       -24.7573
  97   2.0000      -0.882443       -24.0125
  98   2.0000      -0.879700       -23.9379
  99   2.0000      -0.877048       -23.8657
 100   2.0000      -0.874432       -23.7945
 101   2.0000      -0.873133       -23.7592
 102   2.0000      -0.864317       -23.5193
 103   2.0000      -0.856138       -23.2967
 104   2.0000      -0.851406       -23.1679
 105   2.0000      -0.845554       -23.0087
 106   2.0000      -0.840394       -22.8683
 107   2.0000      -0.826675       -22.4950
 108   2.0000      -0.818346       -22.2683
 109   2.0000      -0.808501       -22.0004
 110   2.0000      -0.796743       -21.6805
 111   2.0000      -0.787018       -21.4159
 112   2.0000      -0.779174       -21.2024
 113   2.0000      -0.775141       -21.0927
 114   2.0000      -0.760191       -20.6858
 115   2.0000      -0.757622       -20.6160
 116   2.0000      -0.753686       -20.5088
 117   2.0000      -0.734761       -19.9939
 118   2.0000      -0.731589       -19.9076
 119   2.0000      -0.728513       -19.8238
 120   2.0000      -0.713359       -19.4115
 121   2.0000      -0.712044       -19.3757
 122   2.0000      -0.709131       -19.2964
 123   2.0000      -0.705501       -19.1977
 124   2.0000      -0.685765       -18.6606
 125   2.0000      -0.684514       -18.6266
 126   2.0000      -0.682988       -18.5850
 127   2.0000      -0.674723       -18.3601
 128   2.0000      -0.668629       -18.1943
 129   2.0000      -0.658960       -17.9312
 130   2.0000      -0.657927       -17.9031
 131   2.0000      -0.654939       -17.8218
 132   2.0000      -0.652828       -17.7643
 133   2.0000      -0.650690       -17.7062
 134   2.0000      -0.650240       -17.6939
 135   2.0000      -0.643773       -17.5180
 136   2.0000      -0.641889       -17.4667
 137   2.0000      -0.639290       -17.3960
 138   2.0000      -0.637922       -17.3587
 139   2.0000      -0.635706       -17.2984
 140   2.0000      -0.631687       -17.1891
 141   2.0000      -0.629139       -17.1197
 142   2.0000      -0.623812       -16.9748
 143   2.0000      -0.621617       -16.9151
 144   2.0000      -0.616454       -16.7746
 145   2.0000      -0.612935       -16.6788
 146   2.0000      -0.611718       -16.6457
 147   2.0000      -0.607177       -16.5221
 148   2.0000      -0.604818       -16.4579
 149   2.0000      -0.591867       -16.1055
 150   2.0000      -0.590223       -16.0608
 151   2.0000      -0.585956       -15.9447
 152   2.0000      -0.585026       -15.9194
 153   2.0000      -0.580277       -15.7901
 154   2.0000      -0.578559       -15.7434
 155   2.0000      -0.575912       -15.6714
 156   2.0000      -0.568453       -15.4684
 157   2.0000      -0.564099       -15.3499
 158   2.0000      -0.563241       -15.3266
 159   2.0000      -0.560769       -15.2593
 160   2.0000      -0.558704       -15.2031
 161   2.0000      -0.555011       -15.1026
 162   2.0000      -0.551412       -15.0047
 163   2.0000      -0.547087       -14.8870
 164   2.0000      -0.545657       -14.8481
 165   2.0000      -0.543369       -14.7858
 166   2.0000      -0.542113       -14.7516
 167   2.0000      -0.539199       -14.6724
 168   2.0000      -0.535945       -14.5838
 169   2.0000      -0.535038       -14.5591
 170   2.0000      -0.533815       -14.5258
 171   2.0000      -0.530699       -14.4411
 172   2.0000      -0.526639       -14.3306
 173   2.0000      -0.526350       -14.3227
 174   2.0000      -0.519247       -14.1294
 175   2.0000      -0.516132       -14.0447
 176   2.0000      -0.512194       -13.9375
 177   2.0000      -0.509512       -13.8645
 178   2.0000      -0.508156       -13.8276
 179   2.0000      -0.505809       -13.7638
 180   2.0000      -0.502935       -13.6856
 181   2.0000      -0.501133       -13.6365
 182   2.0000      -0.497068       -13.5259
 183   2.0000      -0.496196       -13.5022
 184   2.0000      -0.490624       -13.3506
 185   2.0000      -0.489844       -13.3293
 186   2.0000      -0.488511       -13.2931
 187   2.0000      -0.485503       -13.2112
 188   2.0000      -0.484932       -13.1957
 189   2.0000      -0.482454       -13.1282
 190   2.0000      -0.480859       -13.0848
 191   2.0000      -0.478283       -13.0147
 192   2.0000      -0.473378       -12.8813
 193   2.0000      -0.473256       -12.8780
 194   2.0000      -0.471555       -12.8317
 195   2.0000      -0.464824       -12.6485
 196   2.0000      -0.463378       -12.6092
 197   2.0000      -0.454399       -12.3648
 198   2.0000      -0.453202       -12.3323
 199   2.0000      -0.452000       -12.2995
 200   2.0000      -0.451671       -12.2906
 201   2.0000      -0.449505       -12.2317
 202   2.0000      -0.447575       -12.1791
 203   2.0000      -0.444834       -12.1045
 204   2.0000      -0.442803       -12.0493
 205   2.0000      -0.439253       -11.9527
 206   2.0000      -0.429455       -11.6861
 207   2.0000      -0.427135       -11.6229
 208   2.0000      -0.426391       -11.6027
 209   2.0000      -0.420328       -11.4377
 210   2.0000      -0.411217       -11.1898
 211   2.0000      -0.410042       -11.1578
 212   2.0000      -0.406500       -11.0614
 213   2.0000      -0.399238       -10.8638
 214   2.0000      -0.397884       -10.8270
 215   2.0000      -0.397057       -10.8045
 216   2.0000      -0.396022       -10.7763
 217   2.0000      -0.390822       -10.6348
 218   2.0000      -0.388229       -10.5642
 219   2.0000      -0.385804       -10.4983
 220   2.0000      -0.383987       -10.4488
 221   2.0000      -0.379160       -10.3175
 222   2.0000      -0.378613       -10.3026
 223   2.0000      -0.377617       -10.2755
 224   2.0000      -0.373397       -10.1607
 225   2.0000      -0.371061       -10.0971
 226   2.0000      -0.365602        -9.9485
 227   2.0000      -0.358234        -9.7480
 228   2.0000      -0.352834        -9.6011
 229   2.0000      -0.349840        -9.5196
 230   2.0000      -0.346342        -9.4244
 231   2.0000      -0.340813        -9.2740
 232   2.0000      -0.337916        -9.1952
 233   2.0000      -0.335734        -9.1358
 234   2.0000      -0.334136        -9.0923
 235   2.0000      -0.331369        -9.0170
 236   2.0000      -0.322697        -8.7810
 237   2.0000      -0.310054        -8.4370
 238   2.0000      -0.304492        -8.2857
 239   2.0000      -0.289906        -7.8887
 240   2.0000      -0.282546        -7.6885
 241   2.0000      -0.249744        -6.7959
 242   0.0000      -0.147786        -4.0215
 243   0.0000      -0.127316        -3.4645
 244   0.0000      -0.109920        -2.9911
 245   0.0000      -0.065739        -1.7888
 246   0.0000      -0.061625        -1.6769

MULLIKEN ATOMIC CHARGES
-----------------------
   0 C :   -0.014957
   1 C :    0.118424
   2 N :    0.261202
   3 O :   -0.224550
   4 O :   -0.262229
   5 C :   -0.101405
   6 C :    0.329529
   7 O :   -0.325562
   8 C :   -0.022864
   9 C :    0.027974
  10 C :    0.010387
  11 C :    0.064534
  12 C :    0.069657
  13 N :    0.273051
  14 O :   -0.242954
  15 O :   -0.250559
  16 C :    0.009901
  17 C :    0.000842
  18 C :   -0.000938
  19 C :    0.005064
  20 C :    0.004435
  21 C :    0.031290
  22 C :    0.074549
  23 N :    0.277724
  24 O :   -0.270475
  25 O :   -0.257537
  26 C :    0.043176
  27 C :   -0.041682
  28 C :    0.003812
  29 C :    0.075179
  30 C :   -0.059563
  31 C :    0.167079
  32 O :   -0.279762
  33 C :    0.183121
  34 C :   -0.007888
  35 C :    0.110565
  36 C :   -0.006805
  37 C :   -0.110007
  38 C :    0.222646
  39 O :   -0.257886
  40 C :    0.162997
  41 C :   -0.037611
  42 C :    0.017626
  43 C :   -0.066386
  44 C :   -0.037258
  45 C :    0.122105
  46 C :   -0.140317
  47 C :    0.124210
  48 C :   -0.092172
  49 C :   -0.006763
  50 C :   -0.173877
  51 N :    0.142989
  52 C :    0.104643
  53 C :   -0.122261
  54 C :    0.097905
  55 C :   -0.016047
  56 C :   -0.100317
  57 C :   -0.172449
  58 N :    0.123955
  59 C :    0.173324
  60 C :   -0.040348
  61 C :   -0.002082
  62 C :    0.119507
  63 C :   -0.085697
  64 C :   -0.101847
  65 C :    0.326242
  66 O :   -0.321277
  67 N :    0.260230
  68 O :   -0.223631
  69 O :   -0.261885
  70 H :    0.008899
  71 H :    0.006607
  72 H :   -0.003085
  73 H :    0.171152
  74 H :   -0.022415
  75 H :   -0.009323
  76 H :    0.000932
  77 H :   -0.000125
  78 H :    0.002498
  79 H :    0.010188
  80 H :    0.022023
  81 H :    0.017979
  82 H :    0.000971
  83 H :    0.045101
  84 H :    0.043999
  85 H :    0.028755
  86 H :   -0.048703
  87 H :    0.062957
  88 H :    0.034857
  89 H :    0.040369
  90 H :   -0.001111
  91 H :    0.007095
  92 H :    0.029134
  93 H :   -0.003591
  94 H :   -0.003152
  95 H :   -0.001519
  96 H :    0.007337
  97 H :   -0.002978
  98 H :   -0.016002
  99 H :    0.010466
 100 H :   -0.015205
 101 H :   -0.002259
 102 H :    0.006927
 103 H :    0.171193
Sum of atomic charges:   -0.0000000

LOEWDIN ATOMIC CHARGES
----------------------
   0 C :    0.004396
   1 C :   -0.034976
   2 N :    0.291818
   3 O :   -0.189864
   4 O :   -0.203603
   5 C :   -0.013711
   6 C :    0.075429
   7 O :   -0.140866
   8 C :    0.005990
   9 C :   -0.001978
  10 C :   -0.010608
  11 C :   -0.001530
  12 C :   -0.033388
  13 N :    0.289666
  14 O :   -0.205833
  15 O :   -0.214618
  16 C :   -0.014429
  17 C :   -0.035943
  18 C :    0.010144
  19 C :    0.056263
  20 C :   -0.058387
  21 C :    0.047688
  22 C :   -0.080522
  23 N :    0.285888
  24 O :   -0.235077
  25 O :   -0.222230
  26 C :    0.022076
  27 C :   -0.006948
  28 C :    0.033582
  29 C :   -0.023422
  30 C :    0.003633
  31 C :    0.065417
  32 O :   -0.076923
  33 C :    0.089031
  34 C :   -0.079259
  35 C :    0.002461
  36 C :    0.046334
  37 C :   -0.135685
  38 C :    0.087669
  39 O :   -0.050015
  40 C :    0.085425
  41 C :   -0.030059
  42 C :   -0.003801
  43 C :    0.015771
  44 C :   -0.042433
  45 C :   -0.005662
  46 C :   -0.050760
  47 C :    0.046801
  48 C :   -0.074759
  49 C :    0.052545
  50 C :   -0.032220
  51 N :   -0.057686
  52 C :    0.024762
  53 C :   -0.013611
  54 C :   -0.018015
  55 C :    0.046926
  56 C :   -0.086764
  57 C :   -0.026738
  58 N :   -0.075936
  59 C :    0.004230
  60 C :   -0.017522
  61 C :    0.009614
  62 C :   -0.035460
  63 C :   -0.010706
  64 C :    0.000218
  65 C :    0.074475
  66 O :   -0.137597
  67 N :    0.291406
  68 O :   -0.189842
  69 O :   -0.203304
  70 H :    0.041785
  71 H :    0.014435
  72 H :    0.024059
  73 H :    0.059095
  74 H :    0.032246
  75 H :    0.032894
  76 H :    0.036036
  77 H :    0.030644
  78 H :    0.033091
  79 H :    0.041476
  80 H :    0.037584
  81 H :    0.036408
  82 H :    0.037874
  83 H :    0.031025
  84 H :    0.024862
  85 H :    0.017949
  86 H :    0.023758
  87 H :    0.035887
  88 H :    0.021956
  89 H :    0.024314
  90 H :    0.033011
  91 H :    0.031653
  92 H :    0.038678
  93 H :    0.029403
  94 H :    0.029551
  95 H :    0.037148
  96 H :    0.033729
  97 H :    0.034505
  98 H :    0.031704
  99 H :    0.042429
 100 H :    0.036376
 101 H :    0.024358
 102 H :    0.014050
 103 H :    0.059058

  Mayer bond orders larger than 0.100000
B(  0-C ,  1-C ) :   1.3732 B(  0-C , 10-C ) :   1.3568 B(  0-C , 70-H ) :   0.9898
B(  1-C ,  2-N ) :   0.8979 B(  1-C ,  5-C ) :   1.3778 B(  2-N ,  3-O ) :   1.5801
B(  2-N ,  4-O ) :   1.4867 B(  3-O ,  4-O ) :   0.2559 B(  5-C ,  6-C ) :   1.0021
B(  5-C ,  8-C ) :   1.4137 B(  6-C ,  7-O ) :   1.0877 B(  6-C , 71-H ) :   0.9294
B(  6-C , 72-H ) :   0.9252 B(  7-O , 73-H ) :   0.9650 B(  8-C ,  9-C ) :   1.3504
B(  8-C , 74-H ) :   0.9920 B(  9-C , 10-C ) :   1.3575 B(  9-C , 11-C ) :   0.9603
B( 10-C , 75-H ) :   0.9974 B( 11-C , 12-C ) :   1.5727 B( 11-C , 18-C ) :   1.1258
B( 12-C , 13-N ) :   0.9316 B( 12-C , 16-C ) :   1.1406 B( 13-N , 14-O ) :   1.5305
B( 13-N , 15-O ) :   1.5038 B( 14-O , 15-O ) :   0.2608 B( 16-C , 17-C ) :   1.5575
B( 16-C , 76-H ) :   1.0157 B( 17-C , 18-C ) :   1.1244 B( 17-C , 77-H ) :   1.0042
B( 18-C , 19-C ) :   1.4164 B( 19-C , 20-C ) :   1.2169 B( 19-C , 26-C ) :   0.9815
B( 20-C , 21-C ) :   1.4813 B( 20-C , 78-H ) :   1.0065 B( 21-C , 22-C ) :   1.1763
B( 21-C , 79-H ) :   1.0099 B( 22-C , 23-N ) :   0.9732 B( 22-C , 26-C ) :   1.3970
B( 23-N , 24-O ) :   1.4817 B( 23-N , 25-O ) :   1.5261 B( 24-O , 25-O ) :   0.2469
B( 26-C , 27-C ) :   1.2924 B( 27-C , 28-C ) :   1.4292 B( 27-C , 80-H ) :   0.9564
B( 28-C , 29-C ) :   1.2282 B( 28-C , 81-H ) :   0.9529 B( 29-C , 30-C ) :   1.4003
B( 29-C , 35-C ) :   1.0494 B( 30-C , 31-C ) :   1.2124 B( 30-C , 82-H ) :   1.0169
B( 31-C , 32-O ) :   1.2336 B( 31-C , 34-C ) :   1.3163 B( 32-O , 33-C ) :   0.9291
B( 33-C , 83-H ) :   0.9762 B( 33-C , 84-H ) :   0.9685 B( 33-C , 85-H ) :   0.9670
B( 34-C , 35-C ) :   1.1381 B( 34-C , 43-C ) :   1.1170 B( 35-C , 36-C ) :   1.4656
B( 36-C , 37-C ) :   1.1701 B( 36-C , 42-C ) :   1.0174 B( 37-C , 38-C ) :   1.5039
B( 37-C , 86-H ) :   1.0055 B( 38-C , 39-O ) :   1.2377 B( 38-C , 41-C ) :   1.0188
B( 39-O , 40-C ) :   0.9177 B( 40-C , 87-H ) :   0.9725 B( 40-C , 88-H ) :   0.9725
B( 40-C , 89-H ) :   0.9743 B( 41-C , 42-C ) :   1.7065 B( 41-C , 90-H ) :   1.0082
B( 42-C , 91-H ) :   1.0017 B( 43-C , 44-C ) :   1.6179 B( 43-C , 92-H ) :   0.9524
B( 44-C , 45-C ) :   1.1377 B( 44-C , 93-H ) :   0.9732 B( 45-C , 46-C ) :   1.5163
B( 45-C , 49-C ) :   1.0214 B( 46-C , 47-C ) :   1.1563 B( 46-C , 94-H ) :   0.9944
B( 47-C , 48-C ) :   1.0906 B( 47-C , 52-C ) :   1.3983 B( 48-C , 49-C ) :   1.6860
B( 48-C , 50-C ) :   1.0867 B( 49-C , 95-H ) :   1.0243 B( 50-C , 51-N ) :   2.9726
B( 52-C , 53-C ) :   1.1139 B( 52-C , 56-C ) :   1.1206 B( 53-C , 54-C ) :   1.5795
B( 53-C , 96-H ) :   0.9954 B( 54-C , 55-C ) :   1.0744 B( 54-C , 59-C ) :   1.0129
B( 55-C , 56-C ) :   1.6469 B( 55-C , 97-H ) :   1.0137 B( 56-C , 57-C ) :   1.0901
B( 57-C , 58-N ) :   2.9658 B( 59-C , 60-C ) :   1.3225 B( 59-C , 64-C ) :   1.3205
B( 60-C , 61-C ) :   1.3699 B( 60-C , 98-H ) :   0.9971 B( 61-C , 62-C ) :   1.3700
B( 61-C , 99-H ) :   0.9861 B( 62-C , 63-C ) :   1.3710 B( 62-C , 67-N ) :   0.9010
B( 63-C , 64-C ) :   1.4143 B( 63-C , 65-C ) :   1.0026 B( 64-C ,100-H ) :   0.9982
B( 65-C , 66-O ) :   1.0910 B( 65-C ,101-H ) :   0.9239 B( 65-C ,102-H ) :   0.9300
B( 66-O ,103-H ) :   0.9645 B( 67-N , 68-O ) :   1.5808 B( 67-N , 69-O ) :   1.4857
B( 68-O , 69-O ) :   0.2556

-----------------------------------------------------------------------------
         ABSORPTION SPECTRUM VIA TRANSITION ELECTRIC DIPOLE MOMENTS
-----------------------------------------------------------------------------
State   Energy  Wavelength   fosc         T2         TX        TY        TZ
        (cm-1)    (nm)                  (au**2)     (au)      (au)      (au)
-----------------------------------------------------------------------------
   0    6467.4   1546.2   0.313852230  15.97617  -2.53086  -2.49357  -1.83113
   1   11325.2    883.0   0.286192560   8.31932  -1.30520  -2.02318  -1.58825
   2   12587.1    794.5   0.099368708   2.59895   0.25237   1.09983   1.15137
   3   12824.4    779.8   0.122240849   3.13800   0.88338  -0.49574  -1.45323
   4   15143.0    660.4   0.025851066   0.56201   0.45509   0.29342   0.51847
   5   16928.1    590.7   0.016242552   0.31588   0.12111  -0.54862  -0.01498
   6   17722.3    564.3   0.067119214   1.24682   0.61167  -0.33120  -0.87349
   7   18098.5    552.5   0.009932329   0.18067   0.02577   0.18277   0.38288
   8   18759.6    533.1   0.032644126   0.57287   0.70513   0.26810  -0.06151
   9   20751.9    481.9   0.262562633   4.16535  -1.10693  -1.23122  -1.19337
  10   21748.0    459.8   0.053305015   0.80691   0.79094   0.21986  -0.36466
  11   22941.3    435.9   0.089162560   1.27950  -0.98555  -0.06032   0.55187
  12   24265.0    412.1   0.043267026   0.58702  -0.41248   0.14454   0.62928
  13   24299.2    411.5   0.030916888   0.41887   0.62466  -0.00038  -0.16932
  14   25041.1    399.3   0.116002256   1.52507   0.64098   0.98974   0.36690
  15   25197.7    396.9   0.165488092   2.16213   0.19996   0.73003   1.26063
  16   25721.1    388.8   0.066829435   0.85537   0.13614   0.79132   0.45896
  17   25928.7    385.7   0.018639954   0.23667  -0.10327  -0.24471  -0.40758
  18   26164.9    382.2   0.026811245   0.33734   0.17102   0.55142   0.06349
  19   26543.5    376.7   0.024756043   0.30704  -0.50652   0.05595   0.21761
  20   26914.8    371.5   0.143773135   1.75858   0.23736  -0.89650  -0.94790
  21   27269.3    366.7   0.186084687   2.24653   0.15619   1.18392   0.90579
  22   28400.7    352.1   0.068774510   0.79721   0.68710  -0.17499  -0.54267
  23   28675.5    348.7   0.248705762   2.85530   0.76675  -0.91538  -1.19561
  24   28970.8    345.2   0.039756740   0.45178  -0.43362  -0.14627   0.49230
  25   29230.9    342.1   0.227912795   2.56686   0.17826  -1.25074  -0.98526
  26   29344.0    340.8   0.023579641   0.26454  -0.28544  -0.35747   0.23511
  27   29787.6    335.7   0.106786408   1.18020   0.88098   0.34306  -0.53515
  28   30392.5    329.0   0.261203196   2.82936   0.28675   1.34989   0.96174
  29   30676.1    326.0   0.053929766   0.57877   0.40695   0.54250   0.34475
  30   30699.6    325.7   0.007325360   0.07855   0.18740   0.18157   0.10231
  31   30995.6    322.6   0.026944333   0.28618  -0.37484  -0.37569  -0.06733
  32   31053.2    322.0   0.259609282   2.75226   0.44904   1.02698   1.22308
  33   31275.0    319.7   0.058050362   0.61106   0.56490   0.16185  -0.51551
  34   31488.9    317.6   0.044213588   0.46225   0.34833  -0.02227  -0.58345
  35   31983.5    312.7   0.119040154   1.22530   0.92489   0.35472  -0.49402
  36   32112.4    311.4   0.080216283   0.82237   0.31330  -0.53664  -0.66047
  37   32569.3    307.0   0.051151227   0.51704   0.38758   0.02362  -0.60520
  38   32880.6    304.1   0.027318541   0.27352  -0.27264  -0.15251   0.41944
  39   33302.1    300.3   0.336231079   3.32386  -0.45685  -1.73031  -0.34810
  40   33601.0    297.6   0.026113714   0.25585  -0.01144  -0.40346  -0.30487
  41   33840.9    295.5   0.008812833   0.08573  -0.17876   0.22760   0.04449
  42   34303.8    291.5   0.153805801   1.47607   1.06077  -0.50460   0.31017
  43   34483.4    290.0   0.073006389   0.69699   0.31712  -0.76222  -0.12431
  44   34771.9    287.6   0.063985920   0.60580  -0.45145  -0.63363   0.02272
  45   34821.1    287.2   0.022566619   0.21335   0.41698   0.00272   0.19868
  46   34907.9    286.5   0.013959070   0.13165   0.28422  -0.04327   0.22134
  47   35030.7    285.5   0.046405325   0.43611  -0.41350  -0.25264  -0.44867
  48   35083.8    285.0   0.004099794   0.03847   0.06553  -0.06897   0.17152
  49   35330.5    283.0   0.088881420   0.82820   0.16987  -0.52934  -0.72052
  50   35379.3    282.7   0.020760154   0.19318  -0.00182  -0.37817  -0.22397
  51   35598.1    280.9   0.010976320   0.10151  -0.12055   0.24620   0.16237
  52   35999.5    277.8   0.014056256   0.12854   0.00222  -0.33370  -0.13108
  53   36107.2    277.0   0.003072146   0.02801  -0.01046   0.00691  -0.16689
  54   36205.7    276.2   0.226392454   2.05854  -0.41454   1.14820   0.75388
  55   36633.3    273.0   0.025362703   0.22793  -0.42912   0.19626   0.07257
  56   37208.0    268.8   0.007987844   0.07068  -0.23933  -0.00447  -0.11566
  57   37327.2    267.9   0.031081042   0.27412   0.52351  -0.00554   0.00516
  58   37420.8    267.2   0.007187523   0.06323  -0.08664  -0.19170   0.13775
  59   37590.2    266.0   0.106595551   0.93356  -0.45479  -0.71531  -0.46374
  60   37615.2    265.8   0.031672762   0.27720  -0.15464  -0.25613  -0.43323
  61   37881.8    264.0   0.050018750   0.43469   0.48356  -0.38297  -0.23278
  62   38045.6    262.8   0.053189085   0.46025  -0.53574   0.38269   0.16366
  63   38283.9    261.2   0.134512069   1.15670  -0.80037  -0.20898   0.68734
  64   38408.5    260.4   0.015323350   0.13134   0.27807   0.09325  -0.21289
  65   38459.8    260.0   0.057478349   0.49201   0.55489   0.42870  -0.01807
  66   38717.7    258.3   0.018080025   0.15373   0.20495   0.10007  -0.31893
  67   38784.9    257.8   0.001663379   0.01412  -0.02382  -0.01437  -0.11552
  68   38800.6    257.7   0.014324312   0.12154   0.26755  -0.12934   0.18228
  69   38981.5    256.5   0.038503071   0.32517   0.29762   0.27380  -0.40203
  70   39237.2    254.9   0.009649867   0.08097  -0.12828  -0.21083   0.14163
  71   39506.0    253.1   0.111894670   0.93244  -0.55308  -0.11190   0.78360
  72   39572.5    252.7   0.054109138   0.45014  -0.03683   0.15731   0.65119
  73   39791.4    251.3   0.012934716   0.10701  -0.17331   0.20859   0.18293
  74   39975.6    250.2   0.028389546   0.23380  -0.24745  -0.41297   0.04500
  75   40169.4    248.9   0.054939199   0.45026   0.41541  -0.11395  -0.51450
  76   40200.9    248.8   0.009282065   0.07601   0.15014  -0.16467  -0.16234

FINAL SINGLE POINT ENERGY     -3228.554812736951

DIPOLE MOMENT
-------------
                                X             Y             Z
Electronic contribution:      1.07673       6.46932       0.36965
Nuclear contribution   :     -1.05085      -7.99199       0.20002
                        -----------------------------------------
Total Dipole Moment    :      0.02588      -1.52267       0.56967
                        -----------------------------------------
Magnitude (a.u.)       :      1.62595
Magnitude (Debye)      :      4.13284

Rotational constants in cm-1:     0.001808     0.000313     0.000283
Rotational constants in MHz :    54.190075     9.394771     8.491017

                             ****ORCA TERMINATED NORMALLY****
TOTAL RUN TIME: 0 days 0 hours 11 minutes 20 seconds 229 msec
