                         Program Version 4.2.0 -  RELEASE  -
|  1> # ORCA input file
|  2> # SCF done       -194.049805566810          0.000601767736
|  3> ! CAM-B3LYP def2-SVP def2/J RIJCOSX Grid4 TightSCF
|  4> %maxcore 5000
|  5> %tddft
|  6>     Mode sTDDFT
|  7>     Ethresh 5.0
|  8>     maxcore 5000
|  9> end
| 10>
| 11> %pal
| 12>   nprocs 6
| 13>   end
| 14> * xyz 0 1
| 15>    C       -3.83963         1.25446        -8.20385
| 16>    C       -3.91043         2.64217        -8.32356
| 17>    N       -2.81007         3.29179        -8.97847
| 18>    O       -1.81380         2.63183        -9.19239
| 19>    O       -2.92558         4.46329        -9.28280
| 20>    C       -5.01407         3.34761        -7.82288
| 21>    C       -5.14380         4.84193        -7.89553
| 22>    O       -6.22790         5.27370        -7.10400
| 23>    C       -6.03114         2.61680        -7.22677
| 24>    C       -5.97015         1.23262        -7.11346
| 25>    C       -4.85326         0.54917        -7.59920
| 26>    C       -7.07335         0.49755        -6.50555
| 27>    C       -8.35872         0.40557        -6.96980
| 28>    N       -8.89373         0.99256        -8.13877
| 29>    O       -8.13141         1.54219        -8.91193
| 30>    O      -10.09570         0.89770        -8.30460
| 31>    C       -9.13073        -0.46735        -6.10339
| 32>    C       -8.30823        -0.95137        -5.15035
| 33>    C       -6.99094        -0.37799        -5.33209
| 34>    C       -5.89134        -0.52375        -4.51925
| 35>    C       -4.80694         0.40308        -4.38381
| 36>    C       -4.06514         0.04324        -3.30619
| 37>    C       -4.60329        -1.16130        -2.73170
| 38>    N       -3.93476        -1.77875        -1.66139
| 39>    O       -2.82749        -1.35380        -1.38199
| 40>    O       -4.47538        -2.69401        -1.05577
| 41>    C       -5.71222        -1.56690        -3.47958
| 42>    C       -6.45622        -2.76207        -3.53290
| 43>    C       -6.65150        -3.68072        -2.53570
| 44>    C       -7.40558        -4.84910        -2.74165
| 45>    N       -7.65335        -5.77661        -1.75766
| 46>    C       -7.13715        -5.75566        -0.40702
| 47>    C       -5.65631        -6.11853        -0.34867
| 48>    C       -8.45862        -6.82615        -2.21176
| 49>    O       -8.82524        -7.75429        -1.51662
| 50>    C       -8.72018        -6.50628        -3.60251
| 51>    C       -8.06474        -5.29766        -3.90002
| 52>    C       -8.33572        -4.97206        -5.28626
| 53>    O       -7.99543        -4.03771        -5.98384
| 54>    N       -9.15540        -6.01987        -5.73693
| 55>    C       -9.59772        -6.08103        -7.11035
| 56>    C       -8.74619        -7.04002        -7.93828
| 57>    C       -9.39569        -6.94742        -4.75194
| 58>    C      -10.20347        -8.08888        -4.92559
| 59>    C      -10.45598        -8.95205        -3.89658
| 60>    C      -11.26986       -10.10039        -3.91861
| 61>    S      -11.79254       -10.71532        -2.38136
| 62>    C      -12.80143       -11.91561        -3.08621
| 63>    C      -12.68410       -11.91188        -4.48277
| 64>    C      -11.80677       -10.88180        -4.96229
| 65>    C      -11.52443       -10.80545        -6.33453
| 66>    C      -12.11212       -11.69211        -7.20873
| 67>    C      -11.82517       -11.60234        -8.59076
| 68>    N      -11.57437       -11.50078        -9.70386
| 69>    C      -12.98266       -12.71583        -6.73045
| 70>    C      -13.54084       -13.63560        -7.65045
| 71>    N      -13.99731       -14.38347        -8.38757
| 72>    C      -13.24965       -12.83093        -5.38727
| 73>    C      -13.63500       -12.74390        -2.24625
| 74>    C      -13.18747       -13.13753        -0.97844
| 75>    C      -13.98058       -13.93432        -0.18947
| 76>    C      -15.23537       -14.35278        -0.63306
| 77>    C      -15.72747       -13.93732        -1.87730
| 78>    C      -14.91008       -13.13366        -2.65842
| 79>    C      -17.09442       -14.30019        -2.40791
| 80>    O      -17.47907       -13.52547        -3.51446
| 81>    N      -15.98477       -15.20822         0.24689
| 82>    O      -15.62616       -15.26900         1.40395
| 83>    O      -16.92572       -15.82233        -0.21386
| 84>    H       -2.97297         0.75019        -8.60369
| 85>    H       -5.28585         5.12579        -8.94823
| 86>    H       -4.20912         5.31266        -7.55653
| 87>    H       -6.34916         6.21737        -7.24543
| 88>    H       -6.88075         3.15565        -6.84030
| 89>    H       -4.80223        -0.52534        -7.51897
| 90>    H      -10.17636        -0.66115        -6.24432
| 91>    H       -8.59108        -1.57742        -4.32823
| 92>    H       -4.67783         1.28685        -4.97547
| 93>    H       -3.20646         0.54815        -2.90513
| 94>    H       -6.92455        -2.95564        -4.48962
| 95>    H       -6.24181        -3.50866        -1.55395
| 96>    H       -7.72292        -6.49620         0.14473
| 97>    H       -7.30695        -4.76981         0.03327
| 98>    H       -5.48444        -7.07658        -0.83374
| 99>    H       -5.34599        -6.19497         0.68925
|100>    H       -5.04539        -5.36106        -0.83214
|101>    H       -9.49649        -5.06716        -7.50687
|102>    H      -10.65301        -6.36541        -7.14232
|103>    H       -7.71232        -6.70433        -7.94848
|104>    H       -9.11182        -7.06749        -8.96064
|105>    H       -8.77609        -8.04759        -7.52887
|106>    H      -10.66130        -8.23018        -5.89150
|107>    H      -10.03226        -8.71365        -2.92763
|108>    H      -10.82164       -10.08386        -6.71683
|109>    H      -13.86235       -13.64408        -5.03154
|110>    H      -12.21080       -12.83195        -0.63603
|111>    H      -13.64740       -14.26131         0.78379
|112>    H      -15.30252       -12.78735        -3.60226
|113>    H      -17.84302       -14.25024        -1.60806
|114>    H      -17.07197       -15.33812        -2.75694
|115>    H      -17.74967       -12.65071        -3.21509
|116> *
|117>
|118>                          ****END OF INPUT****

CARTESIAN COORDINATES (ANGSTROEM)
---------------------------------
  C     -3.839630    1.254460   -8.203850
  C     -3.910430    2.642170   -8.323560
  N     -2.810070    3.291790   -8.978470
  O     -1.813800    2.631830   -9.192390
  O     -2.925580    4.463290   -9.282800
  C     -5.014070    3.347610   -7.822880
  C     -5.143800    4.841930   -7.895530
  O     -6.227900    5.273700   -7.104000
  C     -6.031140    2.616800   -7.226770
  C     -5.970150    1.232620   -7.113460
  C     -4.853260    0.549170   -7.599200
  C     -7.073350    0.497550   -6.505550
  C     -8.358720    0.405570   -6.969800
  N     -8.893730    0.992560   -8.138770
  O     -8.131410    1.542190   -8.911930
  O    -10.095700    0.897700   -8.304600
  C     -9.130730   -0.467350   -6.103390
  C     -8.308230   -0.951370   -5.150350
  C     -6.990940   -0.377990   -5.332090
  C     -5.891340   -0.523750   -4.519250
  C     -4.806940    0.403080   -4.383810
  C     -4.065140    0.043240   -3.306190
  C     -4.603290   -1.161300   -2.731700
  N     -3.934760   -1.778750   -1.661390
  O     -2.827490   -1.353800   -1.381990
  O     -4.475380   -2.694010   -1.055770
  C     -5.712220   -1.566900   -3.479580
  C     -6.456220   -2.762070   -3.532900
  C     -6.651500   -3.680720   -2.535700
  C     -7.405580   -4.849100   -2.741650
  N     -7.653350   -5.776610   -1.757660
  C     -7.137150   -5.755660   -0.407020
  C     -5.656310   -6.118530   -0.348670
  C     -8.458620   -6.826150   -2.211760
  O     -8.825240   -7.754290   -1.516620
  C     -8.720180   -6.506280   -3.602510
  C     -8.064740   -5.297660   -3.900020
  C     -8.335720   -4.972060   -5.286260
  O     -7.995430   -4.037710   -5.983840
  N     -9.155400   -6.019870   -5.736930
  C     -9.597720   -6.081030   -7.110350
  C     -8.746190   -7.040020   -7.938280
  C     -9.395690   -6.947420   -4.751940
  C    -10.203470   -8.088880   -4.925590
  C    -10.455980   -8.952050   -3.896580
  C    -11.269860  -10.100390   -3.918610
  S    -11.792540  -10.715320   -2.381360
  C    -12.801430  -11.915610   -3.086210
  C    -12.684100  -11.911880   -4.482770
  C    -11.806770  -10.881800   -4.962290
  C    -11.524430  -10.805450   -6.334530
  C    -12.112120  -11.692110   -7.208730
  C    -11.825170  -11.602340   -8.590760
  N    -11.574370  -11.500780   -9.703860
  C    -12.982660  -12.715830   -6.730450
  C    -13.540840  -13.635600   -7.650450
  N    -13.997310  -14.383470   -8.387570
  C    -13.249650  -12.830930   -5.387270
  C    -13.635000  -12.743900   -2.246250
  C    -13.187470  -13.137530   -0.978440
  C    -13.980580  -13.934320   -0.189470
  C    -15.235370  -14.352780   -0.633060
  C    -15.727470  -13.937320   -1.877300
  C    -14.910080  -13.133660   -2.658420
  C    -17.094420  -14.300190   -2.407910
  O    -17.479070  -13.525470   -3.514460
  N    -15.984770  -15.208220    0.246890
  O    -15.626160  -15.269000    1.403950
  O    -16.925720  -15.822330   -0.213860
  H     -2.972970    0.750190   -8.603690
  H     -5.285850    5.125790   -8.948230
  H     -4.209120    5.312660   -7.556530
  H     -6.349160    6.217370   -7.245430
  H     -6.880750    3.155650   -6.840300
  H     -4.802230   -0.525340   -7.518970
  H    -10.176360   -0.661150   -6.244320
  H     -8.591080   -1.577420   -4.328230
  H     -4.677830    1.286850   -4.975470
  H     -3.206460    0.548150   -2.905130
  H     -6.924550   -2.955640   -4.489620
  H     -6.241810   -3.508660   -1.553950
  H     -7.722920   -6.496200    0.144730
  H     -7.306950   -4.769810    0.033270
  H     -5.484440   -7.076580   -0.833740
  H     -5.345990   -6.194970    0.689250
  H     -5.045390   -5.361060   -0.832140
  H     -9.496490   -5.067160   -7.506870
  H    -10.653010   -6.365410   -7.142320
  H     -7.712320   -6.704330   -7.948480
  H     -9.111820   -7.067490   -8.960640
  H     -8.776090   -8.047590   -7.528870
  H    -10.661300   -8.230180   -5.891500
  H    -10.032260   -8.713650   -2.927630
  H    -10.821640  -10.083860   -6.716830
  H    -13.862350  -13.644080   -5.031540
  H    -12.210800  -12.831950   -0.636030
  H    -13.647400  -14.261310    0.783790
  H    -15.302520  -12.787350   -3.602260
  H    -17.843020  -14.250240   -1.608060
  H    -17.071970  -15.338120   -2.756940
  H    -17.749670  -12.650710   -3.215090

 Total Charge           Charge          ....    0
 Multiplicity           Mult            ....    1
 Number of Electrons    NEL             ....  488
 Basis Dimension        Dim             .... 1130

ORBITAL ENERGIES
----------------

  NO   OCC          E(Eh)            E(eV)
   0   2.0000     -89.010420     -2422.0967
   1   2.0000     -19.256913      -524.0072
   2   2.0000     -19.254619      -523.9448
   3   2.0000     -19.245298      -523.6912
   4   2.0000     -19.243304      -523.6369
   5   2.0000     -19.243119      -523.6319
   6   2.0000     -19.242241      -523.6080
   7   2.0000     -19.240816      -523.5692
   8   2.0000     -19.239447      -523.5320
   9   2.0000     -19.233036      -523.3575
  10   2.0000     -19.216546      -522.9088
  11   2.0000     -19.216290      -522.9018
  12   2.0000     -19.207162      -522.6535
  13   2.0000     -14.662020      -398.9738
  14   2.0000     -14.653303      -398.7366
  15   2.0000     -14.650525      -398.6610
  16   2.0000     -14.647131      -398.5687
  17   2.0000     -14.475091      -393.8872
  18   2.0000     -14.468627      -393.7114
  19   2.0000     -14.424588      -392.5130
  20   2.0000     -14.421680      -392.4339
  21   2.0000     -10.397064      -282.9185
  22   2.0000     -10.390485      -282.7395
  23   2.0000     -10.362643      -281.9819
  24   2.0000     -10.352272      -281.6996
  25   2.0000     -10.350904      -281.6624
  26   2.0000     -10.350386      -281.6483
  27   2.0000     -10.348699      -281.6024
  28   2.0000     -10.347673      -281.5745
  29   2.0000     -10.346303      -281.5372
  30   2.0000     -10.337653      -281.3018
  31   2.0000     -10.337329      -281.2930
  32   2.0000     -10.335689      -281.2484
  33   2.0000     -10.333189      -281.1804
  34   2.0000     -10.333010      -281.1755
  35   2.0000     -10.332484      -281.1612
  36   2.0000     -10.331649      -281.1385
  37   2.0000     -10.331601      -281.1372
  38   2.0000     -10.330856      -281.1169
  39   2.0000     -10.330259      -281.1006
  40   2.0000     -10.329947      -281.0922
  41   2.0000     -10.329397      -281.0772
  42   2.0000     -10.326190      -280.9899
  43   2.0000     -10.325286      -280.9653
  44   2.0000     -10.323319      -280.9118
  45   2.0000     -10.323146      -280.9071
  46   2.0000     -10.322443      -280.8880
  47   2.0000     -10.319642      -280.8117
  48   2.0000     -10.319505      -280.8080
  49   2.0000     -10.316101      -280.7154
  50   2.0000     -10.315337      -280.6946
  51   2.0000     -10.315249      -280.6922
  52   2.0000     -10.312055      -280.6053
  53   2.0000     -10.308630      -280.5121
  54   2.0000     -10.308237      -280.5014
  55   2.0000     -10.307046      -280.4690
  56   2.0000     -10.306409      -280.4516
  57   2.0000     -10.305830      -280.4359
  58   2.0000     -10.302665      -280.3498
  59   2.0000     -10.296557      -280.1836
  60   2.0000     -10.295157      -280.1455
  61   2.0000     -10.290976      -280.0317
  62   2.0000     -10.289209      -279.9836
  63   2.0000     -10.288704      -279.9699
  64   2.0000     -10.286018      -279.8968
  65   2.0000     -10.284475      -279.8548
  66   2.0000     -10.281982      -279.7870
  67   2.0000     -10.278941      -279.7042
  68   2.0000     -10.266025      -279.3527
  69   2.0000      -8.105351      -220.5578
  70   2.0000      -6.074075      -165.2840
  71   2.0000      -6.069935      -165.1713
  72   2.0000      -6.068640      -165.1361
  73   2.0000      -1.337123       -36.3850
  74   2.0000      -1.323372       -36.0108
  75   2.0000      -1.322113       -35.9765
  76   2.0000      -1.321740       -35.9664
  77   2.0000      -1.155663       -31.4472
  78   2.0000      -1.155522       -31.4434
  79   2.0000      -1.145627       -31.1741
  80   2.0000      -1.139791       -31.0153
  81   2.0000      -1.139592       -31.0099
  82   2.0000      -1.139498       -31.0073
  83   2.0000      -1.123518       -30.5725
  84   2.0000      -1.106155       -30.1000
  85   2.0000      -1.084732       -29.5170
  86   2.0000      -1.073773       -29.2188
  87   2.0000      -1.045934       -28.4613
  88   2.0000      -1.022417       -27.8214
  89   2.0000      -1.019225       -27.7345
  90   2.0000      -1.004091       -27.3227
  91   2.0000      -1.003456       -27.3054
  92   2.0000      -1.002556       -27.2809
  93   2.0000      -0.982778       -26.7427
  94   2.0000      -0.979638       -26.6573
  95   2.0000      -0.951221       -25.8840
  96   2.0000      -0.944468       -25.7003
  97   2.0000      -0.925289       -25.1784
  98   2.0000      -0.920716       -25.0540
  99   2.0000      -0.915670       -24.9166
 100   2.0000      -0.912026       -24.8175
 101   2.0000      -0.905749       -24.6467
 102   2.0000      -0.895687       -24.3729
 103   2.0000      -0.888271       -24.1711
 104   2.0000      -0.885726       -24.1018
 105   2.0000      -0.884475       -24.0678
 106   2.0000      -0.871767       -23.7220
 107   2.0000      -0.865323       -23.5466
 108   2.0000      -0.853960       -23.2374
 109   2.0000      -0.843138       -22.9430
 110   2.0000      -0.834363       -22.7042
 111   2.0000      -0.827719       -22.5234
 112   2.0000      -0.813400       -22.1337
 113   2.0000      -0.798963       -21.7409
 114   2.0000      -0.788066       -21.4444
 115   2.0000      -0.784808       -21.3557
 116   2.0000      -0.777633       -21.1605
 117   2.0000      -0.774093       -21.0642
 118   2.0000      -0.773077       -21.0365
 119   2.0000      -0.756777       -20.5930
 120   2.0000      -0.752419       -20.4744
 121   2.0000      -0.731867       -19.9151
 122   2.0000      -0.729254       -19.8440
 123   2.0000      -0.725709       -19.7475
 124   2.0000      -0.722655       -19.6644
 125   2.0000      -0.714250       -19.4357
 126   2.0000      -0.702152       -19.1065
 127   2.0000      -0.701254       -19.0821
 128   2.0000      -0.693451       -18.8698
 129   2.0000      -0.684685       -18.6312
 130   2.0000      -0.681696       -18.5499
 131   2.0000      -0.674566       -18.3559
 132   2.0000      -0.666235       -18.1292
 133   2.0000      -0.659119       -17.9355
 134   2.0000      -0.657010       -17.8782
 135   2.0000      -0.649977       -17.6868
 136   2.0000      -0.645335       -17.5605
 137   2.0000      -0.641762       -17.4632
 138   2.0000      -0.635587       -17.2952
 139   2.0000      -0.634133       -17.2556
 140   2.0000      -0.632925       -17.2228
 141   2.0000      -0.632242       -17.2042
 142   2.0000      -0.630710       -17.1625
 143   2.0000      -0.630021       -17.1437
 144   2.0000      -0.629118       -17.1192
 145   2.0000      -0.624877       -17.0038
 146   2.0000      -0.623620       -16.9696
 147   2.0000      -0.611410       -16.6373
 148   2.0000      -0.609811       -16.5938
 149   2.0000      -0.605752       -16.4833
 150   2.0000      -0.603940       -16.4340
 151   2.0000      -0.602235       -16.3877
 152   2.0000      -0.599959       -16.3257
 153   2.0000      -0.595079       -16.1929
 154   2.0000      -0.588807       -16.0223
 155   2.0000      -0.587517       -15.9871
 156   2.0000      -0.585939       -15.9442
 157   2.0000      -0.581240       -15.8163
 158   2.0000      -0.574758       -15.6400
 159   2.0000      -0.567601       -15.4452
 160   2.0000      -0.566705       -15.4208
 161   2.0000      -0.564628       -15.3643
 162   2.0000      -0.557881       -15.1807
 163   2.0000      -0.554001       -15.0751
 164   2.0000      -0.551041       -14.9946
 165   2.0000      -0.549698       -14.9581
 166   2.0000      -0.549151       -14.9432
 167   2.0000      -0.546756       -14.8780
 168   2.0000      -0.545541       -14.8449
 169   2.0000      -0.543716       -14.7953
 170   2.0000      -0.541687       -14.7400
 171   2.0000      -0.538946       -14.6655
 172   2.0000      -0.537233       -14.6189
 173   2.0000      -0.534857       -14.5542
 174   2.0000      -0.532109       -14.4794
 175   2.0000      -0.528562       -14.3829
 176   2.0000      -0.526244       -14.3198
 177   2.0000      -0.520640       -14.1673
 178   2.0000      -0.520189       -14.1551
 179   2.0000      -0.518879       -14.1194
 180   2.0000      -0.513175       -13.9642
 181   2.0000      -0.510884       -13.9019
 182   2.0000      -0.507233       -13.8025
 183   2.0000      -0.502889       -13.6843
 184   2.0000      -0.497322       -13.5328
 185   2.0000      -0.495689       -13.4884
 186   2.0000      -0.493121       -13.4185
 187   2.0000      -0.489753       -13.3269
 188   2.0000      -0.484103       -13.1731
 189   2.0000      -0.480869       -13.0851
 190   2.0000      -0.479451       -13.0465
 191   2.0000      -0.476996       -12.9797
 192   2.0000      -0.476095       -12.9552
 193   2.0000      -0.471583       -12.8324
 194   2.0000      -0.468358       -12.7447
 195   2.0000      -0.467333       -12.7168
 196   2.0000      -0.464486       -12.6393
 197   2.0000      -0.462420       -12.5831
 198   2.0000      -0.461265       -12.5516
 199   2.0000      -0.459575       -12.5057
 200   2.0000      -0.455917       -12.4061
 201   2.0000      -0.453916       -12.3517
 202   2.0000      -0.450505       -12.2589
 203   2.0000      -0.448684       -12.2093
 204   2.0000      -0.447505       -12.1772
 205   2.0000      -0.444864       -12.1054
 206   2.0000      -0.443516       -12.0687
 207   2.0000      -0.439997       -11.9729
 208   2.0000      -0.431706       -11.7473
 209   2.0000      -0.430785       -11.7223
 210   2.0000      -0.428879       -11.6704
 211   2.0000      -0.424482       -11.5507
 212   2.0000      -0.423695       -11.5293
 213   2.0000      -0.423291       -11.5183
 214   2.0000      -0.417530       -11.3616
 215   2.0000      -0.401909       -10.9365
 216   2.0000      -0.394519       -10.7354
 217   2.0000      -0.394156       -10.7255
 218   2.0000      -0.390871       -10.6361
 219   2.0000      -0.389915       -10.6101
 220   2.0000      -0.387340       -10.5401
 221   2.0000      -0.383853       -10.4452
 222   2.0000      -0.382550       -10.4097
 223   2.0000      -0.380807       -10.3623
 224   2.0000      -0.379416       -10.3244
 225   2.0000      -0.373969       -10.1762
 226   2.0000      -0.372777       -10.1438
 227   2.0000      -0.371128       -10.0989
 228   2.0000      -0.369206       -10.0466
 229   2.0000      -0.366527        -9.9737
 230   2.0000      -0.365703        -9.9513
 231   2.0000      -0.364779        -9.9261
 232   2.0000      -0.360285        -9.8039
 233   2.0000      -0.354331        -9.6418
 234   2.0000      -0.351759        -9.5719
 235   2.0000      -0.351112        -9.5542
 236   2.0000      -0.344854        -9.3840
 237   2.0000      -0.341128        -9.2826
 238   2.0000      -0.335171        -9.1205
 239   2.0000      -0.329335        -8.9617
 240   2.0000      -0.312868        -8.5136
 241   2.0000      -0.308212        -8.3869
 242   2.0000      -0.295794        -8.0490
 243   2.0000      -0.246656        -6.7119
 244   0.0000      -0.142394        -3.8747
 245   0.0000      -0.111464        -3.0331
 246   0.0000      -0.079345        -2.1591
 247   0.0000      -0.063947        -1.7401
 248   0.0000      -0.054540        -1.4841

MULLIKEN ATOMIC CHARGES
-----------------------
   0 C :   -0.021658
   1 C :    0.134802
   2 N :    0.249171
   3 O :   -0.236817
   4 O :   -0.245271
   5 C :   -0.145321
   6 C :    0.299268
   7 O :   -0.295655
   8 C :   -0.012174
   9 C :    0.000759
  10 C :    0.031589
  11 C :    0.040851
  12 C :    0.085234
  13 N :    0.259514
  14 O :   -0.230435
  15 O :   -0.241865
  16 C :    0.015606
  17 C :    0.031834
  18 C :    0.045867
  19 C :    0.001526
  20 C :    0.025134
  21 C :    0.020875
  22 C :    0.068587
  23 N :    0.276656
  24 O :   -0.243798
  25 O :   -0.262380
  26 C :    0.085374
  27 C :   -0.101622
  28 C :    0.001838
  29 C :    0.130343
  30 N :   -0.251023
  31 C :    0.096265
  32 C :    0.002381
  33 C :    0.173984
  34 O :   -0.218098
  35 C :   -0.075533
  36 C :   -0.055898
  37 C :    0.165508
  38 O :   -0.197800
  39 N :   -0.256577
  40 C :    0.094789
  41 C :    0.002527
  42 C :    0.140069
  43 C :   -0.043946
  44 C :    0.075415
  45 C :   -0.142930
  46 S :    0.236636
  47 C :   -0.139074
  48 C :    0.134025
  49 C :    0.132490
  50 C :   -0.062147
  51 C :   -0.059232
  52 C :   -0.178926
  53 N :    0.182487
  54 C :   -0.072089
  55 C :   -0.176840
  56 N :    0.185338
  57 C :   -0.053604
  58 C :    0.143051
  59 C :   -0.020501
  60 C :    0.002032
  61 C :    0.113354
  62 C :   -0.135863
  63 C :   -0.108500
  64 C :    0.315696
  65 O :   -0.299930
  66 N :    0.247367
  67 O :   -0.230498
  68 O :   -0.237608
  69 H :    0.009976
  70 H :    0.026813
  71 H :    0.013843
  72 H :    0.175603
  73 H :   -0.008859
  74 H :   -0.007964
  75 H :   -0.001618
  76 H :   -0.005666
  77 H :    0.006897
  78 H :    0.008799
  79 H :    0.039435
  80 H :    0.009233
  81 H :    0.042234
  82 H :    0.031240
  83 H :    0.020370
  84 H :    0.027327
  85 H :    0.030279
  86 H :    0.047974
  87 H :    0.028767
  88 H :    0.032306
  89 H :    0.036160
  90 H :    0.014629
  91 H :   -0.029124
  92 H :    0.010475
  93 H :   -0.010699
  94 H :    0.010275
  95 H :   -0.001985
  96 H :    0.016594
  97 H :   -0.012112
  98 H :    0.026863
  99 H :    0.045220
 100 H :    0.172086
Sum of atomic charges:   -0.0000000

LOEWDIN ATOMIC CHARGES
----------------------
   0 C :    0.005891
   1 C :   -0.036030
   2 N :    0.285882
   3 O :   -0.203137
   4 O :   -0.199659
   5 C :   -0.004234
   6 C :    0.070398
   7 O :   -0.136729
   8 C :    0.002277
   9 C :   -0.008577
  10 C :   -0.013310
  11 C :    0.013125
  12 C :   -0.026195
  13 N :    0.282185
  14 O :   -0.199086
  15 O :   -0.206027
  16 C :    0.007054
  17 C :   -0.025444
  18 C :    0.038438
  19 C :    0.046700
  20 C :   -0.036614
  21 C :    0.020415
  22 C :   -0.047296
  23 N :    0.286982
  24 O :   -0.207995
  25 O :   -0.222097
  26 C :    0.010809
  27 C :    0.001081
  28 C :   -0.004446
  29 C :    0.062901
  30 N :    0.007533
  31 C :    0.038000
  32 C :   -0.059706
  33 C :    0.077742
  34 O :   -0.205417
  35 C :   -0.120633
  36 C :   -0.103222
  37 C :    0.082443
  38 O :   -0.184769
  39 N :    0.002638
  40 C :    0.037111
  41 C :   -0.059494
  42 C :    0.082992
  43 C :   -0.055816
  44 C :    0.010135
  45 C :   -0.173639
  46 S :    0.548145
  47 C :   -0.158901
  48 C :   -0.040452
  49 C :   -0.034167
  50 C :    0.026988
  51 C :   -0.045827
  52 C :   -0.033344
  53 N :   -0.028314
  54 C :   -0.050373
  55 C :   -0.033434
  56 N :   -0.025357
  57 C :    0.035824
  58 C :   -0.023503
  59 C :   -0.022544
  60 C :    0.013075
  61 C :   -0.034910
  62 C :   -0.013832
  63 C :   -0.020369
  64 C :    0.069106
  65 O :   -0.122558
  66 N :    0.283664
  67 O :   -0.197934
  68 O :   -0.193556
  69 H :    0.042351
  70 H :    0.027475
  71 H :    0.018950
  72 H :    0.084783
  73 H :    0.034512
  74 H :    0.034776
  75 H :    0.036932
  76 H :    0.030380
  77 H :    0.035146
  78 H :    0.039499
  79 H :    0.040040
  80 H :    0.030757
  81 H :    0.036614
  82 H :    0.026971
  83 H :    0.028755
  84 H :    0.034004
  85 H :    0.026349
  86 H :    0.039842
  87 H :    0.024622
  88 H :    0.034006
  89 H :    0.036020
  90 H :    0.020250
  91 H :    0.027046
  92 H :    0.038327
  93 H :    0.041124
  94 H :    0.048152
  95 H :    0.030340
  96 H :    0.045411
  97 H :    0.029559
  98 H :    0.021399
  99 H :    0.044211
 100 H :    0.080808

  Mayer bond orders larger than 0.100000
B(  0-C ,  1-C ) :   1.3713 B(  0-C , 10-C ) :   1.3544 B(  0-C , 69-H ) :   0.9871
B(  1-C ,  2-N ) :   0.8979 B(  1-C ,  5-C ) :   1.3776 B(  2-N ,  3-O ) :   1.5630
B(  2-N ,  4-O ) :   1.5179 B(  3-O ,  4-O ) :   0.2614 B(  5-C ,  6-C ) :   1.0267
B(  5-C ,  8-C ) :   1.3993 B(  6-C ,  7-O ) :   1.0925 B(  6-C , 70-H ) :   0.9145
B(  6-C , 71-H ) :   0.9191 B(  7-O , 72-H ) :   0.9709 B(  8-C ,  9-C ) :   1.3200
B(  8-C , 73-H ) :   0.9971 B(  9-C , 10-C ) :   1.3564 B(  9-C , 11-C ) :   0.9512
B( 10-C , 74-H ) :   0.9998 B( 11-C , 12-C ) :   1.6677 B( 11-C , 18-C ) :   1.0747
B( 12-C , 13-N ) :   0.9200 B( 12-C , 16-C ) :   1.0992 B( 13-N , 14-O ) :   1.5329
B( 13-N , 15-O ) :   1.5297 B( 14-O , 15-O ) :   0.2724 B( 16-C , 17-C ) :   1.6279
B( 16-C , 75-H ) :   1.0133 B( 17-C , 18-C ) :   1.0918 B( 17-C , 76-H ) :   0.9992
B( 18-C , 19-C ) :   1.5240 B( 19-C , 20-C ) :   1.1297 B( 19-C , 26-C ) :   1.0067
B( 20-C , 21-C ) :   1.5684 B( 20-C , 77-H ) :   1.0018 B( 21-C , 22-C ) :   1.1318
B( 21-C , 78-H ) :   1.0086 B( 22-C , 23-N ) :   0.9641 B( 22-C , 26-C ) :   1.4666
B( 23-N , 24-O ) :   1.5419 B( 23-N , 25-O ) :   1.4575 B( 24-O , 25-O ) :   0.2477
B( 26-C , 27-C ) :   1.1774 B( 27-C , 28-C ) :   1.5363 B( 27-C , 79-H ) :   0.9330
B( 28-C , 29-C ) :   1.1815 B( 28-C , 80-H ) :   0.9504 B( 29-C , 30-N ) :   1.1572
B( 29-C , 36-C ) :   1.2894 B( 30-N , 31-C ) :   0.9341 B( 30-N , 33-C ) :   1.0820
B( 31-C , 32-C ) :   1.1249 B( 31-C , 81-H ) :   0.9281 B( 31-C , 82-H ) :   0.9486
B( 32-C , 83-H ) :   0.9623 B( 32-C , 84-H ) :   0.9663 B( 32-C , 85-H ) :   0.9648
B( 33-C , 34-O ) :   1.9994 B( 33-C , 35-C ) :   0.9867 B( 34-O , 92-H ) :   0.1321
B( 35-C , 36-C ) :   1.2989 B( 35-C , 42-C ) :   1.2870 B( 36-C , 37-C ) :   0.9769
B( 37-C , 38-O ) :   2.0240 B( 37-C , 39-N ) :   1.0622 B( 38-O , 79-H ) :   0.1066
B( 39-N , 40-C ) :   0.9391 B( 39-N , 42-C ) :   1.1641 B( 40-C , 41-C ) :   1.1200
B( 40-C , 86-H ) :   0.9277 B( 40-C , 87-H ) :   0.9491 B( 41-C , 88-H ) :   0.9626
B( 41-C , 89-H ) :   0.9681 B( 41-C , 90-H ) :   0.9685 B( 42-C , 43-C ) :   1.2073
B( 43-C , 44-C ) :   1.5570 B( 43-C , 91-H ) :   0.9578 B( 44-C , 45-C ) :   1.1921
B( 44-C , 92-H ) :   0.9116 B( 45-C , 46-S ) :   1.1730 B( 45-C , 47-C ) :   0.1104
B( 45-C , 49-C ) :   1.2767 B( 46-S , 47-C ) :   1.2125 B( 47-C , 48-C ) :   1.3387
B( 47-C , 58-C ) :   1.0331 B( 48-C , 49-C ) :   1.2090 B( 48-C , 57-C ) :   1.1895
B( 49-C , 50-C ) :   1.2056 B( 50-C , 51-C ) :   1.5550 B( 50-C , 93-H ) :   0.9964
B( 51-C , 52-C ) :   1.0768 B( 51-C , 54-C ) :   1.2489 B( 52-C , 53-N ) :   3.0458
B( 54-C , 55-C ) :   1.0793 B( 54-C , 57-C ) :   1.5576 B( 55-C , 56-N ) :   3.0456
B( 57-C , 94-H ) :   0.9969 B( 58-C , 59-C ) :   1.3133 B( 58-C , 63-C ) :   1.3066
B( 59-C , 60-C ) :   1.3785 B( 59-C , 95-H ) :   0.9948 B( 60-C , 61-C ) :   1.3667
B( 60-C , 96-H ) :   0.9865 B( 61-C , 62-C ) :   1.3844 B( 61-C , 66-N ) :   0.8944
B( 62-C , 63-C ) :   1.3985 B( 62-C , 64-C ) :   0.9880 B( 63-C , 97-H ) :   0.9872
B( 64-C , 65-O ) :   1.0501 B( 64-C , 98-H ) :   0.9378 B( 64-C , 99-H ) :   0.9139
B( 65-O ,100-H ) :   0.9783 B( 66-N , 67-O ) :   1.5634 B( 66-N , 68-O ) :   1.5190
B( 67-O , 68-O ) :   0.2655

-----------------------------------------------------------------------------
         ABSORPTION SPECTRUM VIA TRANSITION ELECTRIC DIPOLE MOMENTS
-----------------------------------------------------------------------------
State   Energy  Wavelength   fosc         T2         TX        TY        TZ
        (cm-1)    (nm)                  (au**2)     (au)      (au)      (au)
-----------------------------------------------------------------------------
   0    7426.5   1346.5   0.400833396  17.76867  -2.01898  -3.70018   0.03207
   1   14821.7    674.7   0.397719815   8.83398   1.99144   2.08955   0.70845
   2   16536.5    604.7   0.008312517   0.16549  -0.10298  -0.09304  -0.38239
   3   18274.5    547.2   0.021798728   0.39270  -0.38962  -0.16529  -0.46214
   4   20507.1    487.6   0.235825620   3.78585  -1.15436  -1.53890  -0.29169
   5   21870.9    457.2   0.280907380   4.22836   0.83897   1.26354  -1.38851
   6   23453.2    426.4   0.014311057   0.20088   0.23645  -0.27586   0.26245
   7   23826.9    419.7   0.002559177   0.03536  -0.09051  -0.09227   0.13658
   8   24402.2    409.8   0.006227284   0.08401  -0.14371  -0.07798   0.23933
   9   25392.9    393.8   0.040312977   0.52265  -0.47244   0.07340  -0.54227
  10   25895.6    386.2   0.065061790   0.82713   0.74025   0.38827  -0.35835
  11   26356.3    379.4   0.172547091   2.15526  -0.25893   0.59386  -1.31740
  12   26587.4    376.1   0.062314449   0.77159   0.45966   0.11681  -0.73937
  13   27612.1    362.2   0.018426832   0.21970  -0.45805   0.06167   0.07803
  14   27945.3    357.8   0.302559178   3.56433   0.03366  -1.34872   1.32066
  15   28785.2    347.4   0.037387696   0.42760   0.52992   0.38118   0.03851
  16   29081.9    343.9   0.004397546   0.04978   0.11660   0.12212   0.14585
  17   29208.4    342.4   0.042091221   0.47442   0.32786  -0.16234   0.58358
  18   30189.7    331.2   0.236975032   2.58416  -1.22548  -0.76729  -0.70258
  19   30783.1    324.9   0.119700343   1.28014   0.59201  -0.33459   0.90427
  20   30897.0    323.7   0.048066764   0.51216   0.54411  -0.01369   0.46467
  21   31653.2    315.9   0.161884936   1.68370  -1.13641  -0.26319  -0.56834
  22   31711.9    315.3   0.015622864   0.16219  -0.33521   0.21938  -0.04115
  23   32026.9    312.2   0.009689672   0.09960   0.25448   0.13982   0.12368
  24   32677.0    306.0   0.035084285   0.35347   0.17808  -0.48639  -0.29185
  25   32907.0    303.9   0.044400225   0.44419  -0.14231  -0.34151   0.55436
  26   33118.6    301.9   0.009615511   0.09558  -0.17641  -0.13926   0.21230
  27   33200.2    301.2   0.143816560   1.42608  -0.02329  -0.38947  -1.12865
  28   33661.5    297.1   0.077972585   0.76258   0.29278  -0.00059   0.82271
  29   33812.0    295.8   0.003033502   0.02954  -0.04094   0.02625  -0.16483
  30   34274.5    291.8   0.016382410   0.15736   0.10468  -0.29701   0.24121
  31   34748.0    287.8   0.003640646   0.03449  -0.11439   0.14571  -0.01328
  32   34927.1    286.3   0.030881745   0.29108  -0.18245  -0.46408   0.20597
  33   35078.1    285.1   0.041939620   0.39361  -0.45505   0.00595   0.43185
  34   35562.6    281.2   0.002400996   0.02223  -0.11986  -0.08760  -0.01368
  35   35590.5    281.0   0.062670482   0.57970   0.19526   0.62379  -0.39046
  36   35691.8    280.2   0.086935301   0.80187  -0.17011   0.23208   0.84798
  37   35927.8    278.3   0.014138298   0.12955  -0.15073  -0.32363  -0.04573
  38   36252.0    275.8   0.083511092   0.75838   0.33628   0.69002  -0.41129
  39   36406.0    274.7   0.234371387   2.11937  -1.40717  -0.37308  -0.00670
  40   36506.7    273.9   0.057976673   0.52282  -0.24537   0.06222  -0.67731
  41   36773.2    271.9   0.007892430   0.07066  -0.21055   0.16048   0.02394
  42   37539.0    266.4   0.113771777   0.99776  -0.80823  -0.05277  -0.58459
  43   37754.5    264.9   0.078245942   0.68229   0.01838   0.13961  -0.81392
  44   37792.3    264.6   0.018327637   0.15965   0.33621  -0.07200  -0.20356
  45   37980.3    263.3   0.007403662   0.06417  -0.09664   0.03357  -0.23175
  46   38409.1    260.4   0.186701315   1.60025   1.19790   0.32360   0.24611
  47   38418.5    260.3   0.019097029   0.16364   0.40426   0.01387  -0.00537
  48   38542.0    259.5   0.161433750   1.37891  -0.18938   0.22090   1.13765
  49   38686.9    258.5   0.040414870   0.34392   0.27431  -0.49959   0.13814
  50   38918.7    256.9   0.009194566   0.07778   0.26414   0.03356   0.08294
  51   39286.2    254.5   0.027930040   0.23405   0.17025  -0.31650   0.32387
  52   39644.9    252.2   0.004759437   0.03952   0.03767  -0.19348   0.02585
  53   39788.6    251.3   0.079281000   0.65597  -0.46334  -0.63539  -0.19383
  54   39903.2    250.6   0.075559562   0.62339  -0.45828  -0.11577  -0.63243
  55   40218.5    248.6   0.024601968   0.20138  -0.35067   0.25818   0.10841

FINAL SINGLE POINT ENERGY     -3582.778622682901

DIPOLE MOMENT
-------------
                                X             Y             Z
Electronic contribution:     -8.17914      -8.66073      -3.85845
Nuclear contribution   :      7.22557       9.09279       6.59653
                        -----------------------------------------
Total Dipole Moment    :     -0.95357       0.43206       2.73808
                        -----------------------------------------
Magnitude (a.u.)       :      2.93139
Magnitude (Debye)      :      7.45100

Rotational constants in cm-1:     0.002000     0.000311     0.000287
Rotational constants in MHz :    59.960807     9.324845     8.598256

                             ****ORCA TERMINATED NORMALLY****
TOTAL RUN TIME: 0 days 0 hours 11 minutes 42 seconds 572 msec
