                         Program Version 4.2.0 -  RELEASE  -
|  1> # ORCA input file
|  2> # SCF done       -168.087095903878          0.000707313358
|  3> ! CAM-B3LYP def2-SVP def2/J RIJCOSX Grid4 TightSCF
|  4> %maxcore 5000
|  5> %tddft
|  6>     Mode sTDDFT
|  7>     Ethresh 5.0
|  8>     maxcore 5000
|  9> end
| 10>
| 11> %pal
| 12>   nprocs 6
| 13>   end
| 14> * xyz 0 1
| 15>    C        1.58076        -1.27822        -2.56844
| 16>    C        2.30639        -2.15248        -3.37975
| 17>    N        3.35793        -1.58167        -4.17068
| 18>    O        3.56110        -0.38934        -4.06315
| 19>    O        3.99251        -2.31269        -4.90808
| 20>    C        1.99629        -3.52118        -3.39890
| 21>    C        2.72988        -4.52428        -4.24225
| 22>    O        2.20623        -5.81497        -4.02698
| 23>    C        0.96047        -3.95922        -2.58999
| 24>    C        0.23255        -3.09669        -1.76996
| 25>    C        0.55863        -1.73358        -1.77294
| 26>    C       -0.82850        -3.61242        -0.93703
| 27>    S       -1.38814        -5.24955        -1.10714
| 28>    C       -2.54483        -5.06125         0.17114
| 29>    C       -2.47980        -3.76533         0.69504
| 30>    C       -1.51558        -2.96234         0.06147
| 31>    C       -3.26944        -3.26804         1.74418
| 32>    N       -3.89068        -2.81924         2.59927
| 33>    C       -3.35965        -6.16248         0.52724
| 34>    C       -4.26809        -6.16159         1.54066
| 35>    C       -5.04747        -7.29357         1.86925
| 36>    N       -5.93268        -7.32331         2.91900
| 37>    C       -6.17393        -6.26684         3.87381
| 38>    C       -5.05908        -6.17050         4.91157
| 39>    C       -6.57621        -8.56719         3.02960
| 40>    O       -7.39647        -8.82505         3.88752
| 41>    C       -6.03605        -9.34988         1.93667
| 42>    C       -5.10382        -8.54551         1.24724
| 43>    C       -4.57088        -9.32114         0.14615
| 44>    O       -3.75075        -9.05489        -0.71025
| 45>    N       -5.23140       -10.55407         0.23864
| 46>    C       -4.93975       -11.63060        -0.67895
| 47>    C       -3.99285       -12.66035        -0.06851
| 48>    C       -6.10327       -10.59806         1.30341
| 49>    C       -6.88615       -11.72214         1.63146
| 50>    C       -7.72358       -11.75064         2.71050
| 51>    C       -8.50300       -12.86967         3.07864
| 52>    C       -8.60346       -14.10792         2.47290
| 53>    C       -9.49972       -14.92436         3.21373
| 54>    C       -9.96640       -14.09643         4.34685
| 55>    C       -9.36933       -12.88252         4.25285
| 56>    C      -10.86203       -14.48245         5.35054
| 57>    N      -11.59390       -14.77495         6.18617
| 58>    C       -9.86163       -16.22422         2.94432
| 59>    C      -10.76023       -17.05264         3.68752
| 60>    C      -10.85883       -18.27725         3.07794
| 61>    C      -10.00154       -18.26190         1.90583
| 62>    C       -9.39366       -17.04646         1.81861
| 63>    C       -8.48302       -16.67086         0.82724
| 64>    N       -7.73649       -16.38360         0.00125
| 65>    C      -11.66635       -19.40047         3.49982
| 66>    C      -12.04579       -20.39798         2.59298
| 67>    C      -12.82300       -21.44912         3.01404
| 68>    C      -13.22539       -21.54997         4.34673
| 69>    C      -12.85939       -20.56862         5.28123
| 70>    C      -12.08949       -19.51015         4.82758
| 71>    C      -13.24627       -20.60945         6.74537
| 72>    O      -12.49828       -21.54870         7.47010
| 73>    N      -14.03171       -22.68715         4.68257
| 74>    O      -14.58484       -23.27178         3.77481
| 75>    O      -14.11944       -23.01862         5.85177
| 76>    H        1.84506        -0.23170        -2.58466
| 77>    H        3.80013        -4.49023        -3.99103
| 78>    H        2.63919        -4.23673        -5.30000
| 79>    H        2.69121        -6.43503        -4.57995
| 80>    H        0.72828        -5.01275        -2.60371
| 81>    H        0.00810        -1.03624        -1.16350
| 82>    H       -1.33639        -1.94392         0.35592
| 83>    H       -3.22346        -7.06217        -0.05995
| 84>    H       -4.40992        -5.27153         2.13360
| 85>    H       -7.11578        -6.51819         4.36898
| 86>    H       -6.29388        -5.31643         3.34731
| 87>    H       -4.97016        -7.10898         5.45339
| 88>    H       -5.28869        -5.37929         5.61907
| 89>    H       -4.10441        -5.94741         4.44089
| 90>    H       -4.46550       -11.16614        -1.54790
| 91>    H       -5.87340       -12.10167        -0.99742
| 92>    H       -3.04864       -12.18908         0.19342
| 93>    H       -3.79997       -13.45077        -0.78806
| 94>    H       -4.42042       -13.10285         0.82834
| 95>    H       -6.80677       -12.59366         0.99837
| 96>    H       -7.80121       -10.87394         3.34014
| 97>    H       -8.09560       -14.42784         1.58543
| 98>    H       -9.49330       -12.04946         4.91987
| 99>    H      -11.28817       -16.72933         4.56206
|100>    H       -9.84785       -19.08743         1.23611
|101>    H      -11.74917       -20.33550         1.55822
|102>    H      -13.13193       -22.22206         2.32629
|103>    H      -11.79077       -18.75311         5.53567
|104>    H      -14.32324       -20.80667         6.84163
|105>    H      -13.02913       -19.63784         7.19585
|106>    H      -12.84514       -22.42752         7.25241
|107> *
|108>
|109>                          ****END OF INPUT****

CARTESIAN COORDINATES (ANGSTROEM)
---------------------------------
  C      1.580760   -1.278220   -2.568440
  C      2.306390   -2.152480   -3.379750
  N      3.357930   -1.581670   -4.170680
  O      3.561100   -0.389340   -4.063150
  O      3.992510   -2.312690   -4.908080
  C      1.996290   -3.521180   -3.398900
  C      2.729880   -4.524280   -4.242250
  O      2.206230   -5.814970   -4.026980
  C      0.960470   -3.959220   -2.589990
  C      0.232550   -3.096690   -1.769960
  C      0.558630   -1.733580   -1.772940
  C     -0.828500   -3.612420   -0.937030
  S     -1.388140   -5.249550   -1.107140
  C     -2.544830   -5.061250    0.171140
  C     -2.479800   -3.765330    0.695040
  C     -1.515580   -2.962340    0.061470
  C     -3.269440   -3.268040    1.744180
  N     -3.890680   -2.819240    2.599270
  C     -3.359650   -6.162480    0.527240
  C     -4.268090   -6.161590    1.540660
  C     -5.047470   -7.293570    1.869250
  N     -5.932680   -7.323310    2.919000
  C     -6.173930   -6.266840    3.873810
  C     -5.059080   -6.170500    4.911570
  C     -6.576210   -8.567190    3.029600
  O     -7.396470   -8.825050    3.887520
  C     -6.036050   -9.349880    1.936670
  C     -5.103820   -8.545510    1.247240
  C     -4.570880   -9.321140    0.146150
  O     -3.750750   -9.054890   -0.710250
  N     -5.231400  -10.554070    0.238640
  C     -4.939750  -11.630600   -0.678950
  C     -3.992850  -12.660350   -0.068510
  C     -6.103270  -10.598060    1.303410
  C     -6.886150  -11.722140    1.631460
  C     -7.723580  -11.750640    2.710500
  C     -8.503000  -12.869670    3.078640
  C     -8.603460  -14.107920    2.472900
  C     -9.499720  -14.924360    3.213730
  C     -9.966400  -14.096430    4.346850
  C     -9.369330  -12.882520    4.252850
  C    -10.862030  -14.482450    5.350540
  N    -11.593900  -14.774950    6.186170
  C     -9.861630  -16.224220    2.944320
  C    -10.760230  -17.052640    3.687520
  C    -10.858830  -18.277250    3.077940
  C    -10.001540  -18.261900    1.905830
  C     -9.393660  -17.046460    1.818610
  C     -8.483020  -16.670860    0.827240
  N     -7.736490  -16.383600    0.001250
  C    -11.666350  -19.400470    3.499820
  C    -12.045790  -20.397980    2.592980
  C    -12.823000  -21.449120    3.014040
  C    -13.225390  -21.549970    4.346730
  C    -12.859390  -20.568620    5.281230
  C    -12.089490  -19.510150    4.827580
  C    -13.246270  -20.609450    6.745370
  O    -12.498280  -21.548700    7.470100
  N    -14.031710  -22.687150    4.682570
  O    -14.584840  -23.271780    3.774810
  O    -14.119440  -23.018620    5.851770
  H      1.845060   -0.231700   -2.584660
  H      3.800130   -4.490230   -3.991030
  H      2.639190   -4.236730   -5.300000
  H      2.691210   -6.435030   -4.579950
  H      0.728280   -5.012750   -2.603710
  H      0.008100   -1.036240   -1.163500
  H     -1.336390   -1.943920    0.355920
  H     -3.223460   -7.062170   -0.059950
  H     -4.409920   -5.271530    2.133600
  H     -7.115780   -6.518190    4.368980
  H     -6.293880   -5.316430    3.347310
  H     -4.970160   -7.108980    5.453390
  H     -5.288690   -5.379290    5.619070
  H     -4.104410   -5.947410    4.440890
  H     -4.465500  -11.166140   -1.547900
  H     -5.873400  -12.101670   -0.997420
  H     -3.048640  -12.189080    0.193420
  H     -3.799970  -13.450770   -0.788060
  H     -4.420420  -13.102850    0.828340
  H     -6.806770  -12.593660    0.998370
  H     -7.801210  -10.873940    3.340140
  H     -8.095600  -14.427840    1.585430
  H     -9.493300  -12.049460    4.919870
  H    -11.288170  -16.729330    4.562060
  H     -9.847850  -19.087430    1.236110
  H    -11.749170  -20.335500    1.558220
  H    -13.131930  -22.222060    2.326290
  H    -11.790770  -18.753110    5.535670
  H    -14.323240  -20.806670    6.841630
  H    -13.029130  -19.637840    7.195850
  H    -12.845140  -22.427520    7.252410

 Total Charge           Charge          ....    0
 Multiplicity           Mult            ....    1
 Number of Electrons    NEL             ....  430
 Basis Dimension        Dim             .... 1013

ORBITAL ENERGIES
----------------

  NO   OCC          E(Eh)            E(eV)
   0   2.0000     -88.988009     -2421.4868
   1   2.0000     -19.254088      -523.9304
   2   2.0000     -19.251872      -523.8701
   3   2.0000     -19.246616      -523.7270
   4   2.0000     -19.244057      -523.6574
   5   2.0000     -19.223599      -523.1007
   6   2.0000     -19.204495      -522.5809
   7   2.0000     -19.200496      -522.4721
   8   2.0000     -19.192659      -522.2588
   9   2.0000     -14.658048      -398.8658
  10   2.0000     -14.652267      -398.7085
  11   2.0000     -14.463749      -393.5786
  12   2.0000     -14.462561      -393.5463
  13   2.0000     -14.423992      -392.4968
  14   2.0000     -14.415605      -392.2685
  15   2.0000     -14.414067      -392.2267
  16   2.0000     -10.386005      -282.6176
  17   2.0000     -10.383469      -282.5486
  18   2.0000     -10.350808      -281.6598
  19   2.0000     -10.348345      -281.5928
  20   2.0000     -10.341467      -281.4056
  21   2.0000     -10.336110      -281.2598
  22   2.0000     -10.335234      -281.2360
  23   2.0000     -10.332432      -281.1598
  24   2.0000     -10.331364      -281.1307
  25   2.0000     -10.330696      -281.1125
  26   2.0000     -10.330315      -281.1022
  27   2.0000     -10.327339      -281.0212
  28   2.0000     -10.325045      -280.9588
  29   2.0000     -10.321991      -280.8757
  30   2.0000     -10.320211      -280.8272
  31   2.0000     -10.319128      -280.7977
  32   2.0000     -10.318349      -280.7766
  33   2.0000     -10.316191      -280.7178
  34   2.0000     -10.316053      -280.7141
  35   2.0000     -10.316018      -280.7131
  36   2.0000     -10.314600      -280.6745
  37   2.0000     -10.314459      -280.6707
  38   2.0000     -10.314330      -280.6672
  39   2.0000     -10.312634      -280.6211
  40   2.0000     -10.312567      -280.6192
  41   2.0000     -10.311166      -280.5811
  42   2.0000     -10.310617      -280.5661
  43   2.0000     -10.308887      -280.5191
  44   2.0000     -10.307725      -280.4875
  45   2.0000     -10.307450      -280.4800
  46   2.0000     -10.306358      -280.4503
  47   2.0000     -10.303889      -280.3831
  48   2.0000     -10.303271      -280.3663
  49   2.0000     -10.302502      -280.3453
  50   2.0000     -10.300487      -280.2905
  51   2.0000     -10.299020      -280.2506
  52   2.0000     -10.298692      -280.2416
  53   2.0000     -10.294292      -280.1219
  54   2.0000     -10.292949      -280.0854
  55   2.0000     -10.292259      -280.0666
  56   2.0000     -10.289854      -280.0012
  57   2.0000     -10.275815      -279.6191
  58   2.0000     -10.273157      -279.5468
  59   2.0000     -10.268158      -279.4108
  60   2.0000     -10.265787      -279.3463
  61   2.0000      -8.083176      -219.9544
  62   2.0000      -6.052281      -164.6909
  63   2.0000      -6.048108      -164.5774
  64   2.0000      -6.045663      -164.5109
  65   2.0000      -1.332463       -36.2582
  66   2.0000      -1.326213       -36.0881
  67   2.0000      -1.150722       -31.3127
  68   2.0000      -1.144928       -31.1551
  69   2.0000      -1.143881       -31.1266
  70   2.0000      -1.137826       -30.9618
  71   2.0000      -1.113412       -30.2975
  72   2.0000      -1.085540       -29.5390
  73   2.0000      -1.074824       -29.2474
  74   2.0000      -1.066034       -29.0083
  75   2.0000      -1.027205       -27.9517
  76   2.0000      -1.022545       -27.8249
  77   2.0000      -1.006992       -27.4016
  78   2.0000      -1.004129       -27.3237
  79   2.0000      -0.995676       -27.0937
  80   2.0000      -0.990505       -26.9530
  81   2.0000      -0.990222       -26.9453
  82   2.0000      -0.983003       -26.7489
  83   2.0000      -0.939179       -25.5564
  84   2.0000      -0.933630       -25.4054
  85   2.0000      -0.923978       -25.1427
  86   2.0000      -0.917807       -24.9748
  87   2.0000      -0.912306       -24.8251
  88   2.0000      -0.883802       -24.0495
  89   2.0000      -0.881010       -23.9735
  90   2.0000      -0.877013       -23.8647
  91   2.0000      -0.876481       -23.8503
  92   2.0000      -0.871676       -23.7195
  93   2.0000      -0.861225       -23.4351
  94   2.0000      -0.859257       -23.3816
  95   2.0000      -0.850897       -23.1541
  96   2.0000      -0.827023       -22.5044
  97   2.0000      -0.820282       -22.3210
  98   2.0000      -0.814140       -22.1539
  99   2.0000      -0.798618       -21.7315
 100   2.0000      -0.792433       -21.5632
 101   2.0000      -0.776665       -21.1341
 102   2.0000      -0.766791       -20.8654
 103   2.0000      -0.764649       -20.8072
 104   2.0000      -0.757632       -20.6162
 105   2.0000      -0.738429       -20.0937
 106   2.0000      -0.728056       -19.8114
 107   2.0000      -0.720489       -19.6055
 108   2.0000      -0.715588       -19.4721
 109   2.0000      -0.707889       -19.2626
 110   2.0000      -0.705428       -19.1957
 111   2.0000      -0.704362       -19.1667
 112   2.0000      -0.701935       -19.1006
 113   2.0000      -0.696393       -18.9498
 114   2.0000      -0.683096       -18.5880
 115   2.0000      -0.679577       -18.4922
 116   2.0000      -0.660882       -17.9835
 117   2.0000      -0.657037       -17.8789
 118   2.0000      -0.656081       -17.8529
 119   2.0000      -0.652013       -17.7422
 120   2.0000      -0.646140       -17.5824
 121   2.0000      -0.640217       -17.4212
 122   2.0000      -0.637208       -17.3393
 123   2.0000      -0.635614       -17.2959
 124   2.0000      -0.631219       -17.1764
 125   2.0000      -0.618911       -16.8414
 126   2.0000      -0.618338       -16.8258
 127   2.0000      -0.606264       -16.4973
 128   2.0000      -0.605279       -16.4705
 129   2.0000      -0.598564       -16.2878
 130   2.0000      -0.597465       -16.2578
 131   2.0000      -0.593002       -16.1364
 132   2.0000      -0.589284       -16.0352
 133   2.0000      -0.586592       -15.9620
 134   2.0000      -0.577934       -15.7264
 135   2.0000      -0.570269       -15.5178
 136   2.0000      -0.561666       -15.2837
 137   2.0000      -0.558506       -15.1977
 138   2.0000      -0.558219       -15.1899
 139   2.0000      -0.555731       -15.1222
 140   2.0000      -0.553398       -15.0587
 141   2.0000      -0.550129       -14.9698
 142   2.0000      -0.546189       -14.8626
 143   2.0000      -0.544056       -14.8045
 144   2.0000      -0.538712       -14.6591
 145   2.0000      -0.536802       -14.6071
 146   2.0000      -0.533739       -14.5238
 147   2.0000      -0.531375       -14.4594
 148   2.0000      -0.530156       -14.4263
 149   2.0000      -0.529294       -14.4028
 150   2.0000      -0.528445       -14.3797
 151   2.0000      -0.527170       -14.3450
 152   2.0000      -0.523603       -14.2479
 153   2.0000      -0.520911       -14.1747
 154   2.0000      -0.518787       -14.1169
 155   2.0000      -0.515322       -14.0226
 156   2.0000      -0.510952       -13.9037
 157   2.0000      -0.505757       -13.7623
 158   2.0000      -0.502975       -13.6866
 159   2.0000      -0.497651       -13.5418
 160   2.0000      -0.496245       -13.5035
 161   2.0000      -0.487724       -13.2716
 162   2.0000      -0.484655       -13.1881
 163   2.0000      -0.484224       -13.1764
 164   2.0000      -0.483451       -13.1554
 165   2.0000      -0.481303       -13.0969
 166   2.0000      -0.480908       -13.0862
 167   2.0000      -0.476782       -12.9739
 168   2.0000      -0.473336       -12.8801
 169   2.0000      -0.471679       -12.8350
 170   2.0000      -0.468178       -12.7398
 171   2.0000      -0.464399       -12.6369
 172   2.0000      -0.462097       -12.5743
 173   2.0000      -0.457849       -12.4587
 174   2.0000      -0.453294       -12.3347
 175   2.0000      -0.452032       -12.3004
 176   2.0000      -0.450493       -12.2585
 177   2.0000      -0.449389       -12.2285
 178   2.0000      -0.449010       -12.2182
 179   2.0000      -0.445993       -12.1361
 180   2.0000      -0.444033       -12.0828
 181   2.0000      -0.443130       -12.0582
 182   2.0000      -0.438496       -11.9321
 183   2.0000      -0.436393       -11.8748
 184   2.0000      -0.435395       -11.8477
 185   2.0000      -0.431050       -11.7295
 186   2.0000      -0.430604       -11.7173
 187   2.0000      -0.426784       -11.6134
 188   2.0000      -0.422440       -11.4952
 189   2.0000      -0.417321       -11.3559
 190   2.0000      -0.409882       -11.1535
 191   2.0000      -0.404218       -10.9993
 192   2.0000      -0.402871       -10.9627
 193   2.0000      -0.396750       -10.7961
 194   2.0000      -0.391479       -10.6527
 195   2.0000      -0.388455       -10.5704
 196   2.0000      -0.387845       -10.5538
 197   2.0000      -0.383796       -10.4436
 198   2.0000      -0.376230       -10.2377
 199   2.0000      -0.369671       -10.0593
 200   2.0000      -0.367517       -10.0006
 201   2.0000      -0.360361        -9.8059
 202   2.0000      -0.359192        -9.7741
 203   2.0000      -0.355211        -9.6658
 204   2.0000      -0.348299        -9.4777
 205   2.0000      -0.348043        -9.4707
 206   2.0000      -0.343259        -9.3406
 207   2.0000      -0.338389        -9.2080
 208   2.0000      -0.335362        -9.1257
 209   2.0000      -0.332021        -9.0347
 210   2.0000      -0.325988        -8.8706
 211   2.0000      -0.309692        -8.4272
 212   2.0000      -0.301582        -8.2065
 213   2.0000      -0.295419        -8.0387
 214   2.0000      -0.241832        -6.5806
 215   0.0000      -0.137337        -3.7371
 216   0.0000      -0.095430        -2.5968
 217   0.0000      -0.063091        -1.7168
 218   0.0000      -0.059014        -1.6058
 219   0.0000      -0.037871        -1.0305

MULLIKEN ATOMIC CHARGES
-----------------------
   0 C :   -0.013022
   1 C :    0.123817
   2 N :    0.249320
   3 O :   -0.235336
   4 O :   -0.247934
   5 C :   -0.132585
   6 C :    0.295381
   7 O :   -0.292189
   8 C :   -0.123534
   9 C :    0.220463
  10 C :   -0.032040
  11 C :   -0.063219
  12 S :    0.181951
  13 C :   -0.061542
  14 C :   -0.060833
  15 C :    0.005510
  16 C :   -0.170276
  17 N :    0.113762
  18 C :    0.059902
  19 C :   -0.038930
  20 C :    0.139864
  21 N :   -0.253530
  22 C :    0.093095
  23 C :    0.009049
  24 C :    0.170771
  25 O :   -0.204587
  26 C :   -0.061059
  27 C :   -0.068942
  28 C :    0.169100
  29 O :   -0.211799
  30 N :   -0.255775
  31 C :    0.097584
  32 C :    0.004120
  33 C :    0.141372
  34 C :   -0.008512
  35 C :   -0.002406
  36 C :    0.116852
  37 C :   -0.124974
  38 C :    0.119754
  39 C :   -0.085737
  40 C :    0.004225
  41 C :   -0.172413
  42 N :    0.130531
  43 C :    0.104842
  44 C :   -0.113219
  45 C :    0.102460
  46 C :   -0.011592
  47 C :   -0.096550
  48 C :   -0.167706
  49 N :    0.118477
  50 C :    0.154780
  51 C :   -0.034399
  52 C :    0.000788
  53 C :    0.116312
  54 C :   -0.083580
  55 C :   -0.098513
  56 C :    0.325390
  57 O :   -0.322581
  58 N :    0.259622
  59 O :   -0.223611
  60 O :   -0.261659
  61 H :    0.013029
  62 H :    0.022386
  63 H :    0.023296
  64 H :    0.176763
  65 H :    0.008030
  66 H :   -0.014581
  67 H :   -0.001506
  68 H :    0.008427
  69 H :   -0.013556
  70 H :    0.042892
  71 H :    0.038492
  72 H :    0.024271
  73 H :    0.031601
  74 H :    0.017611
  75 H :    0.043199
  76 H :    0.031263
  77 H :    0.027525
  78 H :    0.031492
  79 H :    0.017381
  80 H :   -0.011701
  81 H :    0.005672
  82 H :   -0.000902
  83 H :    0.014081
  84 H :    0.005769
  85 H :   -0.001120
  86 H :   -0.013492
  87 H :    0.011207
  88 H :   -0.010710
  89 H :    0.007294
  90 H :    0.000263
  91 H :    0.171114
Sum of atomic charges:   -0.0000000

LOEWDIN ATOMIC CHARGES
----------------------
   0 C :    0.010029
   1 C :   -0.040524
   2 N :    0.285796
   3 O :   -0.203108
   4 O :   -0.201587
   5 C :   -0.000009
   6 C :    0.069385
   7 O :   -0.136081
   8 C :   -0.020532
   9 C :   -0.012589
  10 C :   -0.016652
  11 C :   -0.157806
  12 S :    0.502296
  13 C :   -0.142007
  14 C :   -0.101219
  15 C :   -0.019099
  16 C :   -0.025971
  17 N :   -0.059054
  18 C :    0.003665
  19 C :   -0.033102
  20 C :    0.079400
  21 N :    0.004854
  22 C :    0.037181
  23 C :   -0.058515
  24 C :    0.082568
  25 O :   -0.192768
  26 C :   -0.107678
  27 C :   -0.117643
  28 C :    0.079193
  29 O :   -0.201896
  30 N :    0.002432
  31 C :    0.037410
  32 C :   -0.059606
  33 C :    0.069203
  34 C :   -0.014825
  35 C :    0.017830
  36 C :   -0.012922
  37 C :   -0.026281
  38 C :    0.045988
  39 C :   -0.081098
  40 C :    0.065347
  41 C :   -0.029443
  42 N :   -0.062213
  43 C :    0.031190
  44 C :   -0.013918
  45 C :   -0.014525
  46 C :    0.048819
  47 C :   -0.084799
  48 C :   -0.027102
  49 N :   -0.072318
  50 C :    0.003513
  51 C :   -0.016731
  52 C :    0.009645
  53 C :   -0.035084
  54 C :   -0.010148
  55 C :    0.000894
  56 C :    0.074853
  57 O :   -0.139108
  58 N :    0.291703
  59 O :   -0.189724
  60 O :   -0.203345
  61 H :    0.043434
  62 H :    0.024005
  63 H :    0.024689
  64 H :    0.086204
  65 H :    0.026650
  66 H :    0.032381
  67 H :    0.039655
  68 H :    0.037992
  69 H :    0.036255
  70 H :    0.038001
  71 H :    0.028906
  72 H :    0.029906
  73 H :    0.034934
  74 H :    0.023204
  75 H :    0.038230
  76 H :    0.026080
  77 H :    0.031280
  78 H :    0.034396
  79 H :    0.022911
  80 H :    0.035406
  81 H :    0.037685
  82 H :    0.031080
  83 H :    0.043602
  84 H :    0.034250
  85 H :    0.035670
  86 H :    0.032570
  87 H :    0.042577
  88 H :    0.037315
  89 H :    0.014534
  90 H :    0.025197
  91 H :    0.058836

  Mayer bond orders larger than 0.100000
B(  0-C ,  1-C ) :   1.3585 B(  0-C , 10-C ) :   1.3828 B(  0-C , 61-H ) :   0.9816
B(  1-C ,  2-N ) :   0.9048 B(  1-C ,  5-C ) :   1.3751 B(  2-N ,  3-O ) :   1.5675
B(  2-N ,  4-O ) :   1.5144 B(  3-O ,  4-O ) :   0.2597 B(  5-C ,  6-C ) :   1.0225
B(  5-C ,  8-C ) :   1.4248 B(  6-C ,  7-O ) :   1.0902 B(  6-C , 62-H ) :   0.9166
B(  6-C , 63-H ) :   0.9155 B(  7-O , 64-H ) :   0.9693 B(  8-C ,  9-C ) :   1.2636
B(  8-C , 65-H ) :   0.9855 B(  9-C , 10-C ) :   1.3233 B(  9-C , 11-C ) :   1.0599
B( 10-C , 66-H ) :   0.9967 B( 11-C , 12-S ) :   1.1334 B( 11-C , 15-C ) :   1.5000
B( 12-S , 13-C ) :   1.1497 B( 13-C , 14-C ) :   1.4226 B( 13-C , 18-C ) :   1.1616
B( 14-C , 15-C ) :   1.2950 B( 14-C , 16-C ) :   1.1170 B( 15-C , 67-H ) :   0.9987
B( 16-C , 17-N ) :   2.9650 B( 18-C , 19-C ) :   1.6024 B( 18-C , 68-H ) :   0.9226
B( 19-C , 20-C ) :   1.1824 B( 19-C , 69-H ) :   0.9446 B( 20-C , 21-N ) :   1.1731
B( 20-C , 27-C ) :   1.3063 B( 21-N , 22-C ) :   0.9367 B( 21-N , 24-C ) :   1.0605
B( 22-C , 23-C ) :   1.1235 B( 22-C , 70-H ) :   0.9276 B( 22-C , 71-H ) :   0.9478
B( 23-C , 72-H ) :   0.9632 B( 23-C , 73-H ) :   0.9675 B( 23-C , 74-H ) :   0.9676
B( 24-C , 25-O ) :   2.0282 B( 24-C , 26-C ) :   0.9803 B( 25-O , 81-H ) :   0.1124
B( 26-C , 27-C ) :   1.2791 B( 26-C , 33-C ) :   1.3129 B( 27-C , 28-C ) :   0.9851
B( 28-C , 29-O ) :   2.0242 B( 28-C , 30-N ) :   1.0670 B( 29-O , 68-H ) :   0.1147
B( 30-N , 31-C ) :   0.9399 B( 30-N , 33-C ) :   1.1576 B( 31-C , 32-C ) :   1.1216
B( 31-C , 75-H ) :   0.9278 B( 31-C , 76-H ) :   0.9502 B( 32-C , 77-H ) :   0.9637
B( 32-C , 78-H ) :   0.9678 B( 32-C , 79-H ) :   0.9686 B( 33-C , 34-C ) :   1.1769
B( 34-C , 35-C ) :   1.5548 B( 34-C , 80-H ) :   0.9657 B( 35-C , 36-C ) :   1.1250
B( 35-C , 81-H ) :   0.9556 B( 36-C , 37-C ) :   1.5130 B( 36-C , 40-C ) :   1.0261
B( 37-C , 38-C ) :   1.1430 B( 37-C , 82-H ) :   0.9961 B( 38-C , 39-C ) :   1.0945
B( 38-C , 43-C ) :   1.4025 B( 39-C , 40-C ) :   1.6723 B( 39-C , 41-C ) :   1.0873
B( 40-C , 83-H ) :   1.0274 B( 41-C , 42-N ) :   2.9641 B( 43-C , 44-C ) :   1.1080
B( 43-C , 47-C ) :   1.1181 B( 44-C , 45-C ) :   1.5850 B( 44-C , 84-H ) :   0.9979
B( 45-C , 46-C ) :   1.0713 B( 45-C , 50-C ) :   0.9989 B( 46-C , 47-C ) :   1.6492
B( 46-C , 85-H ) :   1.0151 B( 47-C , 48-C ) :   1.0893 B( 48-C , 49-N ) :   2.9563
B( 50-C , 51-C ) :   1.3248 B( 50-C , 55-C ) :   1.3309 B( 51-C , 52-C ) :   1.3700
B( 51-C , 86-H ) :   0.9975 B( 52-C , 53-C ) :   1.3722 B( 52-C , 87-H ) :   0.9853
B( 53-C , 54-C ) :   1.3716 B( 53-C , 58-N ) :   0.8999 B( 54-C , 55-C ) :   1.4106
B( 54-C , 56-C ) :   1.0021 B( 55-C , 88-H ) :   0.9974 B( 56-C , 57-O ) :   1.0888
B( 56-C , 89-H ) :   0.9303 B( 56-C , 90-H ) :   0.9252 B( 57-O , 91-H ) :   0.9647
B( 58-N , 59-O ) :   1.5799 B( 58-N , 60-O ) :   1.4855 B( 59-O , 60-O ) :   0.2558

-----------------------------------------------------------------------------
         ABSORPTION SPECTRUM VIA TRANSITION ELECTRIC DIPOLE MOMENTS
-----------------------------------------------------------------------------
State   Energy  Wavelength   fosc         T2         TX        TY        TZ
        (cm-1)    (nm)                  (au**2)     (au)      (au)      (au)
-----------------------------------------------------------------------------
   0    9175.4   1089.9   0.788947878  28.30742  -2.57198  -4.62156   0.57749
   1   16884.8    592.2   0.167197920   3.25995   1.10469   1.34009  -0.49372
   2   17189.9    581.7   0.177344197   3.39640   0.80526   1.65735  -0.03420
   3   18723.2    534.1   0.008000552   0.14067   0.18855   0.32423   0.00136
   4   23839.9    419.5   0.281560462   3.88814   1.27145   1.30486  -0.75426
   5   24338.5    410.9   0.152335039   2.06054   0.98255   0.78259  -0.69476
   6   26059.5    383.7   0.578776864   7.31175  -0.97726  -2.51896  -0.10756
   7   26298.3    380.3   0.389211612   4.87229  -1.55395  -0.97640   1.22645
   8   26631.2    375.5   0.009553986   0.11811   0.28102   0.15044  -0.12845
   9   28450.0    351.5   0.024952102   0.28874  -0.19541  -0.36922   0.33798
  10   29468.9    339.3   0.153526887   1.71513   0.95701   0.39077  -0.80409
  11   29989.7    333.4   0.000617435   0.00678   0.03482  -0.01651  -0.07275
  12   30282.1    330.2   0.059176494   0.64334   0.47772   0.53380  -0.36081
  13   30459.0    328.3   0.265390601   2.86844   1.12232   1.06182  -0.69380
  14   30666.8    326.1   0.001082769   0.01162   0.04047   0.07633   0.06450
  15   30835.5    324.3   0.109202615   1.16589  -0.72808  -0.18554   0.77548
  16   31727.2    315.2   0.007500440   0.07783   0.16449  -0.08058  -0.21042
  17   32221.9    310.3   0.023747411   0.24263  -0.32400  -0.15485   0.33715
  18   33944.5    294.6   0.014915417   0.14466  -0.19656  -0.25666   0.20037
  19   34290.8    291.6   0.041032192   0.39393  -0.28603  -0.55366   0.07472
  20   34696.2    288.2   0.057742932   0.54789   0.44987   0.46020  -0.36568
  21   34718.3    288.0   0.017926132   0.16998   0.19650   0.29592  -0.20928
  22   35361.0    282.8   0.075163708   0.69978   0.27160  -0.59322  -0.52354
  23   36059.4    277.3   0.252868886   2.30862  -0.99420  -1.05697   0.45055
  24   36205.0    276.2   0.022084149   0.20081   0.23640   0.24159  -0.29421
  25   36443.8    274.4   0.011777366   0.10639   0.04035   0.01836  -0.32315
  26   37085.4    269.6   0.210504048   1.86867  -0.83388  -0.95393   0.51315
  27   37193.6    268.9   0.007669294   0.06788   0.02790  -0.19907  -0.16576
  28   37284.3    268.2   0.110812828   0.97845   0.71396  -0.17366  -0.66223
  29   38057.0    262.8   0.005400134   0.04671   0.09246  -0.16731  -0.10086
  30   38088.6    262.5   0.003124358   0.02700  -0.08554  -0.12619   0.06134
  31   38178.1    261.9   0.167473419   1.44413  -0.77716  -0.67430   0.62086
  32   38944.2    256.8   0.029480033   0.24921   0.34616   0.11848  -0.33963
  33   39803.3    251.2   0.133591913   1.10494  -0.50555   0.40567   0.82752
  34   40322.9    248.0   0.061384415   0.50117  -0.22006   0.27696   0.61322

FINAL SINGLE POINT ENERGY     -3112.952558043313

DIPOLE MOMENT
-------------
                                X             Y             Z
Electronic contribution:     -4.41011       1.70645      -7.36572
Nuclear contribution   :      5.78049      -0.68712       5.80188
                        -----------------------------------------
Total Dipole Moment    :      1.37038       1.01932      -1.56384
                        -----------------------------------------
Magnitude (a.u.)       :      2.31572
Magnitude (Debye)      :      5.88609

Rotational constants in cm-1:     0.003833     0.000257     0.000243
Rotational constants in MHz :   114.911899     7.703387     7.273354

                             ****ORCA TERMINATED NORMALLY****
TOTAL RUN TIME: 0 days 0 hours 7 minutes 36 seconds 973 msec
