                         Program Version 4.2.0 -  RELEASE  -
|  1> # ORCA input file
|  2> # SCF done       -155.650793164451          0.000292753469
|  3> ! CAM-B3LYP def2-SVP def2/J RIJCOSX Grid4 TightSCF
|  4> %maxcore 5000
|  5> %tddft
|  6>     Mode sTDDFT
|  7>     Ethresh 5.0
|  8>     maxcore 5000
|  9> end
| 10>
| 11> %pal
| 12>   nprocs 6
| 13>   end
| 14> * xyz 0 1
| 15>    C        1.04366        -4.59307         2.29060
| 16>    C       -0.19509        -4.53552         2.82757
| 17>    C       -0.60878        -5.05179         4.16828
| 18>    O       -1.55739        -4.65007         4.78148
| 19>    O        0.16768        -6.07261         4.56456
| 20>    C       -0.14438        -6.61456         5.84186
| 21>    C       -1.24027        -3.97409         2.05967
| 22>    N       -2.07154        -3.53900         1.40159
| 23>    C        2.25389        -5.08802         2.87981
| 24>    C        2.78910        -4.90559         4.14251
| 25>    N        2.26006        -4.17702         5.22531
| 26>    O        2.85002        -4.25684         6.28831
| 27>    O        1.26311        -3.49927         5.04459
| 28>    C        4.09298        -5.51787         4.20870
| 29>    C        4.39307        -6.02149         2.98881
| 30>    C        3.27624        -5.79136         2.10631
| 31>    C        3.13180        -6.28100         0.82236
| 32>    C        1.91258        -6.65210         0.18988
| 33>    C        2.19516        -7.39240        -0.92591
| 34>    C        3.60801        -7.45587        -1.10229
| 35>    N        4.21413        -8.09734        -2.18507
| 36>    O        3.49092        -8.63590        -3.00373
| 37>    O        5.44353        -8.10174        -2.26414
| 38>    C        4.22494        -6.72434        -0.07048
| 39>    C        5.56877        -6.36283        -0.06575
| 40>    C        6.19724        -5.36247         0.64309
| 41>    C        7.56050        -5.10792         0.51202
| 42>    S        8.30377        -3.81633         1.44085
| 43>    C        9.90045        -4.10434         0.80987
| 44>    C        9.86043        -5.16912        -0.10833
| 45>    C        8.55656        -5.72233        -0.26864
| 46>    N        8.63007        -6.72636        -1.17414
| 47>    C        9.93709        -6.82763        -1.59700
| 48>    C       10.37706        -7.77120        -2.53721
| 49>    N       10.79825        -8.52108        -3.29563
| 50>    C       10.72497        -5.88915        -0.96089
| 51>    C       10.97141        -3.30810         1.24720
| 52>    C       12.25762        -3.45652         0.82091
| 53>    C       13.35010        -2.67160         1.23852
| 54>    S       13.27326        -1.36315         2.37190
| 55>    C       14.97766        -1.07091         2.22591
| 56>    C       15.70109        -0.01233         2.95995
| 57>    O       16.88300         0.14286         2.82169
| 58>    O       14.97915         0.75936         3.78041
| 59>    C       15.57626        -1.94105         1.34561
| 60>    C       14.66589        -2.84592         0.78511
| 61>    O       14.87340        -3.83772        -0.10958
| 62>    C       16.05517        -4.13881        -0.62869
| 63>    C       16.16940        -5.15284        -1.52207
| 64>    C       14.99639        -5.95703        -1.95233
| 65>    O       13.86790        -5.77980        -1.55354
| 66>    O       15.34361        -6.89208        -2.82710
| 67>    C       14.30458        -7.73091        -3.31623
| 68>    C       17.42948        -5.47086        -2.07067
| 69>    N       18.45304        -5.72912        -2.51561
| 70>    H        1.15404        -4.23624         1.27083
| 71>    H        0.02514        -5.86731         6.61999
| 72>    H        0.51636        -7.46713         5.97785
| 73>    H       -1.19047        -6.92457         5.87603
| 74>    H        4.68714        -5.54252         5.10183
| 75>    H        5.25838        -6.60027         2.73066
| 76>    H        0.93546        -6.49364         0.60270
| 77>    H        1.49095        -7.86951        -1.58166
| 78>    H        6.15944        -6.89474        -0.79448
| 79>    H        5.63645        -4.71861         1.30512
| 80>    H        7.87897        -7.29610        -1.53786
| 81>    H       11.77742        -5.77061        -1.11734
| 82>    H       10.73807        -2.53395         1.96787
| 83>    H       12.50954        -4.22467         0.10505
| 84>    H       14.03879         0.53620         3.80548
| 85>    H       16.63102        -1.88756         1.14593
| 86>    H       16.92760        -3.56661        -0.33061
| 87>    H       14.77818        -8.42198        -4.00717
| 88>    H       13.54284        -7.14022        -3.82841
| 89>    H       13.83171        -8.27418        -2.49598
| 90> *
| 91>
| 92>                          ****END OF INPUT****

CARTESIAN COORDINATES (ANGSTROEM)
---------------------------------
  C      1.043660   -4.593070    2.290600
  C     -0.195090   -4.535520    2.827570
  C     -0.608780   -5.051790    4.168280
  O     -1.557390   -4.650070    4.781480
  O      0.167680   -6.072610    4.564560
  C     -0.144380   -6.614560    5.841860
  C     -1.240270   -3.974090    2.059670
  N     -2.071540   -3.539000    1.401590
  C      2.253890   -5.088020    2.879810
  C      2.789100   -4.905590    4.142510
  N      2.260060   -4.177020    5.225310
  O      2.850020   -4.256840    6.288310
  O      1.263110   -3.499270    5.044590
  C      4.092980   -5.517870    4.208700
  C      4.393070   -6.021490    2.988810
  C      3.276240   -5.791360    2.106310
  C      3.131800   -6.281000    0.822360
  C      1.912580   -6.652100    0.189880
  C      2.195160   -7.392400   -0.925910
  C      3.608010   -7.455870   -1.102290
  N      4.214130   -8.097340   -2.185070
  O      3.490920   -8.635900   -3.003730
  O      5.443530   -8.101740   -2.264140
  C      4.224940   -6.724340   -0.070480
  C      5.568770   -6.362830   -0.065750
  C      6.197240   -5.362470    0.643090
  C      7.560500   -5.107920    0.512020
  S      8.303770   -3.816330    1.440850
  C      9.900450   -4.104340    0.809870
  C      9.860430   -5.169120   -0.108330
  C      8.556560   -5.722330   -0.268640
  N      8.630070   -6.726360   -1.174140
  C      9.937090   -6.827630   -1.597000
  C     10.377060   -7.771200   -2.537210
  N     10.798250   -8.521080   -3.295630
  C     10.724970   -5.889150   -0.960890
  C     10.971410   -3.308100    1.247200
  C     12.257620   -3.456520    0.820910
  C     13.350100   -2.671600    1.238520
  S     13.273260   -1.363150    2.371900
  C     14.977660   -1.070910    2.225910
  C     15.701090   -0.012330    2.959950
  O     16.883000    0.142860    2.821690
  O     14.979150    0.759360    3.780410
  C     15.576260   -1.941050    1.345610
  C     14.665890   -2.845920    0.785110
  O     14.873400   -3.837720   -0.109580
  C     16.055170   -4.138810   -0.628690
  C     16.169400   -5.152840   -1.522070
  C     14.996390   -5.957030   -1.952330
  O     13.867900   -5.779800   -1.553540
  O     15.343610   -6.892080   -2.827100
  C     14.304580   -7.730910   -3.316230
  C     17.429480   -5.470860   -2.070670
  N     18.453040   -5.729120   -2.515610
  H      1.154040   -4.236240    1.270830
  H      0.025140   -5.867310    6.619990
  H      0.516360   -7.467130    5.977850
  H     -1.190470   -6.924570    5.876030
  H      4.687140   -5.542520    5.101830
  H      5.258380   -6.600270    2.730660
  H      0.935460   -6.493640    0.602700
  H      1.490950   -7.869510   -1.581660
  H      6.159440   -6.894740   -0.794480
  H      5.636450   -4.718610    1.305120
  H      7.878970   -7.296100   -1.537860
  H     11.777420   -5.770610   -1.117340
  H     10.738070   -2.533950    1.967870
  H     12.509540   -4.224670    0.105050
  H     14.038790    0.536200    3.805480
  H     16.631020   -1.887560    1.145930
  H     16.927600   -3.566610   -0.330610
  H     14.778180   -8.421980   -4.007170
  H     13.542840   -7.140220   -3.828410
  H     13.831710   -8.274180   -2.495980

 Total Charge           Charge          ....    0
 Multiplicity           Mult            ....    1
 Number of Electrons    NEL             ....  398
 Basis Dimension        Dim             ....  878

ORBITAL ENERGIES
----------------

  NO   OCC          E(Eh)            E(eV)
   0   2.0000     -89.013858     -2422.1902
   1   2.0000     -89.001967     -2421.8667
   2   2.0000     -19.338211      -526.2195
   3   2.0000     -19.289541      -524.8951
   4   2.0000     -19.286210      -524.8045
   5   2.0000     -19.264233      -524.2064
   6   2.0000     -19.247740      -523.7576
   7   2.0000     -19.245606      -523.6996
   8   2.0000     -19.236659      -523.4561
   9   2.0000     -19.236197      -523.4435
  10   2.0000     -19.234687      -523.4024
  11   2.0000     -19.224624      -523.1286
  12   2.0000     -19.209324      -522.7123
  13   2.0000     -14.654217      -398.7615
  14   2.0000     -14.646949      -398.5637
  15   2.0000     -14.509913      -394.8348
  16   2.0000     -14.435266      -392.8035
  17   2.0000     -14.418106      -392.3366
  18   2.0000     -14.402363      -391.9082
  19   2.0000     -10.437132      -284.0088
  20   2.0000     -10.436157      -283.9823
  21   2.0000     -10.413627      -283.3692
  22   2.0000     -10.409058      -283.2449
  23   2.0000     -10.396117      -282.8927
  24   2.0000     -10.369646      -282.1724
  25   2.0000     -10.361222      -281.9432
  26   2.0000     -10.361179      -281.9420
  27   2.0000     -10.354626      -281.7637
  28   2.0000     -10.353478      -281.7325
  29   2.0000     -10.346574      -281.5446
  30   2.0000     -10.342389      -281.4307
  31   2.0000     -10.338074      -281.3133
  32   2.0000     -10.337991      -281.3110
  33   2.0000     -10.335573      -281.2452
  34   2.0000     -10.335404      -281.2406
  35   2.0000     -10.335008      -281.2299
  36   2.0000     -10.334092      -281.2049
  37   2.0000     -10.333043      -281.1764
  38   2.0000     -10.331051      -281.1222
  39   2.0000     -10.329000      -281.0664
  40   2.0000     -10.326716      -281.0042
  41   2.0000     -10.325895      -280.9819
  42   2.0000     -10.324345      -280.9397
  43   2.0000     -10.323072      -280.9051
  44   2.0000     -10.322981      -280.9026
  45   2.0000     -10.320728      -280.8413
  46   2.0000     -10.320326      -280.8304
  47   2.0000     -10.318405      -280.7781
  48   2.0000     -10.311889      -280.6008
  49   2.0000     -10.309935      -280.5476
  50   2.0000     -10.309895      -280.5465
  51   2.0000     -10.302103      -280.3345
  52   2.0000     -10.297103      -280.1984
  53   2.0000     -10.293975      -280.1133
  54   2.0000     -10.288107      -279.9536
  55   2.0000      -8.109241      -220.6637
  56   2.0000      -8.097058      -220.3321
  57   2.0000      -6.078429      -165.4025
  58   2.0000      -6.074540      -165.2966
  59   2.0000      -6.071378      -165.2106
  60   2.0000      -6.066360      -165.0741
  61   2.0000      -6.062272      -164.9628
  62   2.0000      -6.059128      -164.8773
  63   2.0000      -1.325929       -36.0804
  64   2.0000      -1.313561       -35.7438
  65   2.0000      -1.254023       -34.1237
  66   2.0000      -1.220942       -33.2235
  67   2.0000      -1.212741       -33.0004
  68   2.0000      -1.196640       -32.5622
  69   2.0000      -1.143252       -31.1095
  70   2.0000      -1.130789       -30.7703
  71   2.0000      -1.130027       -30.7496
  72   2.0000      -1.126629       -30.6571
  73   2.0000      -1.125824       -30.6352
  74   2.0000      -1.103747       -30.0345
  75   2.0000      -1.038842       -28.2683
  76   2.0000      -1.024508       -27.8783
  77   2.0000      -1.021469       -27.7956
  78   2.0000      -1.013054       -27.5666
  79   2.0000      -1.006035       -27.3756
  80   2.0000      -1.002954       -27.2918
  81   2.0000      -0.988093       -26.8874
  82   2.0000      -0.957588       -26.0573
  83   2.0000      -0.951556       -25.8932
  84   2.0000      -0.933430       -25.3999
  85   2.0000      -0.927770       -25.2459
  86   2.0000      -0.916009       -24.9259
  87   2.0000      -0.910175       -24.7671
  88   2.0000      -0.892295       -24.2806
  89   2.0000      -0.887374       -24.1467
  90   2.0000      -0.885194       -24.0874
  91   2.0000      -0.875922       -23.8350
  92   2.0000      -0.853839       -23.2341
  93   2.0000      -0.849190       -23.1076
  94   2.0000      -0.842049       -22.9133
  95   2.0000      -0.820666       -22.3315
  96   2.0000      -0.811042       -22.0696
  97   2.0000      -0.800179       -21.7740
  98   2.0000      -0.797937       -21.7130
  99   2.0000      -0.771442       -20.9920
 100   2.0000      -0.765568       -20.8322
 101   2.0000      -0.745546       -20.2873
 102   2.0000      -0.739092       -20.1117
 103   2.0000      -0.737429       -20.0665
 104   2.0000      -0.734722       -19.9928
 105   2.0000      -0.729254       -19.8440
 106   2.0000      -0.720793       -19.6138
 107   2.0000      -0.713277       -19.4093
 108   2.0000      -0.681928       -18.5562
 109   2.0000      -0.679643       -18.4940
 110   2.0000      -0.675060       -18.3693
 111   2.0000      -0.672379       -18.2964
 112   2.0000      -0.664086       -18.0707
 113   2.0000      -0.658189       -17.9102
 114   2.0000      -0.654289       -17.8041
 115   2.0000      -0.645942       -17.5770
 116   2.0000      -0.639307       -17.3964
 117   2.0000      -0.638526       -17.3752
 118   2.0000      -0.637702       -17.3528
 119   2.0000      -0.635243       -17.2858
 120   2.0000      -0.633930       -17.2501
 121   2.0000      -0.627082       -17.0638
 122   2.0000      -0.623190       -16.9578
 123   2.0000      -0.613829       -16.7031
 124   2.0000      -0.608132       -16.5481
 125   2.0000      -0.607388       -16.5279
 126   2.0000      -0.604306       -16.4440
 127   2.0000      -0.590994       -16.0818
 128   2.0000      -0.590596       -16.0709
 129   2.0000      -0.588178       -16.0051
 130   2.0000      -0.586818       -15.9681
 131   2.0000      -0.583256       -15.8712
 132   2.0000      -0.576293       -15.6817
 133   2.0000      -0.575230       -15.6528
 134   2.0000      -0.571225       -15.5438
 135   2.0000      -0.567139       -15.4326
 136   2.0000      -0.566360       -15.4114
 137   2.0000      -0.558949       -15.2098
 138   2.0000      -0.552358       -15.0304
 139   2.0000      -0.548111       -14.9149
 140   2.0000      -0.546484       -14.8706
 141   2.0000      -0.543816       -14.7980
 142   2.0000      -0.537889       -14.6367
 143   2.0000      -0.534835       -14.5536
 144   2.0000      -0.525471       -14.2988
 145   2.0000      -0.518896       -14.1199
 146   2.0000      -0.518548       -14.1104
 147   2.0000      -0.515175       -14.0186
 148   2.0000      -0.512806       -13.9542
 149   2.0000      -0.506313       -13.7775
 150   2.0000      -0.504424       -13.7261
 151   2.0000      -0.501799       -13.6546
 152   2.0000      -0.498798       -13.5730
 153   2.0000      -0.497431       -13.5358
 154   2.0000      -0.495152       -13.4738
 155   2.0000      -0.491460       -13.3733
 156   2.0000      -0.487518       -13.2660
 157   2.0000      -0.483427       -13.1547
 158   2.0000      -0.481293       -13.0966
 159   2.0000      -0.479343       -13.0436
 160   2.0000      -0.473002       -12.8710
 161   2.0000      -0.468510       -12.7488
 162   2.0000      -0.466507       -12.6943
 163   2.0000      -0.462287       -12.5795
 164   2.0000      -0.460131       -12.5208
 165   2.0000      -0.459635       -12.5073
 166   2.0000      -0.458269       -12.4701
 167   2.0000      -0.454902       -12.3785
 168   2.0000      -0.446997       -12.1634
 169   2.0000      -0.444787       -12.1033
 170   2.0000      -0.443297       -12.0627
 171   2.0000      -0.439374       -11.9560
 172   2.0000      -0.437949       -11.9172
 173   2.0000      -0.433498       -11.7961
 174   2.0000      -0.430802       -11.7227
 175   2.0000      -0.424120       -11.5409
 176   2.0000      -0.409256       -11.1364
 177   2.0000      -0.407781       -11.0963
 178   2.0000      -0.403254       -10.9731
 179   2.0000      -0.396198       -10.7811
 180   2.0000      -0.387147       -10.5348
 181   2.0000      -0.386456       -10.5160
 182   2.0000      -0.384692       -10.4680
 183   2.0000      -0.383955       -10.4479
 184   2.0000      -0.381742       -10.3877
 185   2.0000      -0.380953       -10.3662
 186   2.0000      -0.380301       -10.3485
 187   2.0000      -0.376510       -10.2454
 188   2.0000      -0.375850       -10.2274
 189   2.0000      -0.364747        -9.9253
 190   2.0000      -0.363557        -9.8929
 191   2.0000      -0.358942        -9.7673
 192   2.0000      -0.355852        -9.6832
 193   2.0000      -0.346907        -9.4398
 194   2.0000      -0.340634        -9.2691
 195   2.0000      -0.330775        -9.0008
 196   2.0000      -0.310392        -8.4462
 197   2.0000      -0.301427        -8.2022
 198   2.0000      -0.255553        -6.9539
 199   0.0000      -0.148170        -4.0319
 200   0.0000      -0.105388        -2.8677
 201   0.0000      -0.068182        -1.8553
 202   0.0000      -0.056297        -1.5319
 203   0.0000      -0.047042        -1.2801

MULLIKEN ATOMIC CHARGES
-----------------------
   0 C :   -0.022322
   1 C :   -0.101610
   2 C :    0.184452
   3 O :   -0.158778
   4 O :   -0.318892
   5 C :    0.181759
   6 C :   -0.154643
   7 N :    0.111740
   8 C :    0.075258
   9 C :    0.088515
  10 N :    0.269744
  11 O :   -0.241996
  12 O :   -0.241963
  13 C :   -0.003014
  14 C :   -0.017291
  15 C :    0.017223
  16 C :    0.033035
  17 C :   -0.035940
  18 C :    0.043922
  19 C :    0.053287
  20 N :    0.290090
  21 O :   -0.250996
  22 O :   -0.303983
  23 C :    0.066140
  24 C :   -0.062904
  25 C :    0.085924
  26 C :   -0.194692
  27 S :    0.178004
  28 C :   -0.117219
  29 C :    0.104069
  30 C :    0.120377
  31 N :   -0.011292
  32 C :   -0.102900
  33 C :   -0.125852
  34 N :    0.153119
  35 C :   -0.018969
  36 C :    0.053349
  37 C :    0.019269
  38 C :   -0.117989
  39 S :    0.133155
  40 C :   -0.159696
  41 C :    0.188978
  42 O :   -0.160080
  43 O :   -0.145743
  44 C :   -0.049261
  45 C :    0.242774
  46 O :   -0.180359
  47 C :    0.184851
  48 C :   -0.224789
  49 C :    0.236821
  50 O :   -0.194843
  51 O :   -0.272079
  52 C :    0.180864
  53 C :   -0.112039
  54 N :    0.124377
  55 H :    0.036160
  56 H :    0.043294
  57 H :    0.034556
  58 H :    0.040056
  59 H :   -0.002502
  60 H :    0.002638
  61 H :    0.005971
  62 H :    0.013084
  63 H :   -0.039158
  64 H :    0.010455
  65 H :    0.165319
  66 H :   -0.023734
  67 H :   -0.013586
  68 H :    0.019281
  69 H :    0.184085
  70 H :    0.027102
  71 H :    0.044805
  72 H :    0.050098
  73 H :    0.042320
  74 H :    0.040795
Sum of atomic charges:   -0.0000000

LOEWDIN ATOMIC CHARGES
----------------------
   0 C :    0.044236
   1 C :   -0.085841
   2 C :    0.080241
   3 O :   -0.136632
   4 O :   -0.095534
   5 C :    0.080577
   6 C :   -0.026498
   7 N :   -0.045050
   8 C :   -0.015547
   9 C :   -0.027853
  10 N :    0.285680
  11 O :   -0.205136
  12 O :   -0.196231
  13 C :   -0.014669
  14 C :   -0.039294
  15 C :    0.008710
  16 C :    0.050764
  17 C :   -0.067169
  18 C :    0.055648
  19 C :   -0.090793
  20 N :    0.291583
  21 O :   -0.215477
  22 O :   -0.264115
  23 C :    0.028595
  24 C :   -0.040531
  25 C :    0.013047
  26 C :   -0.201705
  27 S :    0.472663
  28 C :   -0.128734
  29 C :   -0.071758
  30 C :    0.016577
  31 N :    0.097519
  32 C :   -0.027667
  33 C :   -0.036109
  34 N :   -0.036384
  35 C :   -0.017113
  36 C :   -0.049131
  37 C :   -0.002644
  38 C :   -0.182009
  39 S :    0.450691
  40 C :   -0.214865
  41 C :    0.062998
  42 O :   -0.146611
  43 O :   -0.021219
  44 C :   -0.042390
  45 C :    0.023828
  46 O :    0.019787
  47 C :    0.146139
  48 C :   -0.151742
  49 C :    0.104231
  50 O :   -0.185131
  51 O :   -0.064094
  52 C :    0.088635
  53 C :   -0.039896
  54 N :   -0.042294
  55 H :    0.051763
  56 H :    0.026281
  57 H :    0.025947
  58 H :    0.026192
  59 H :    0.035432
  60 H :    0.029728
  61 H :    0.032906
  62 H :    0.042826
  63 H :    0.021798
  64 H :    0.038898
  65 H :    0.105696
  66 H :    0.033642
  67 H :    0.026561
  68 H :    0.047886
  69 H :    0.084236
  70 H :    0.047533
  71 H :    0.041004
  72 H :    0.034763
  73 H :    0.026471
  74 H :    0.026161

  Mayer bond orders larger than 0.100000
B(  0-C ,  1-C ) :   1.8058 B(  0-C ,  8-C ) :   1.0439 B(  0-C , 55-H ) :   0.9375
B(  1-C ,  2-C ) :   0.8897 B(  1-C ,  6-C ) :   1.1186 B(  2-C ,  3-O ) :   2.1711
B(  2-C ,  4-O ) :   1.1952 B(  4-O ,  5-C ) :   0.9162 B(  5-C , 56-H ) :   0.9753
B(  5-C , 57-H ) :   0.9799 B(  5-C , 58-H ) :   0.9740 B(  6-C ,  7-N ) :   3.0331
B(  8-C ,  9-C ) :   1.5328 B(  8-C , 15-C ) :   1.1067 B(  9-C , 10-N ) :   0.9322
B(  9-C , 13-C ) :   1.1497 B( 10-N , 11-O ) :   1.5289 B( 10-N , 12-O ) :   1.4941
B( 11-O , 12-O ) :   0.2614 B( 13-C , 14-C ) :   1.5670 B( 13-C , 59-H ) :   1.0136
B( 14-C , 15-C ) :   1.1141 B( 14-C , 60-H ) :   1.0023 B( 15-C , 16-C ) :   1.4335
B( 16-C , 17-C ) :   1.2039 B( 16-C , 23-C ) :   0.9812 B( 17-C , 18-C ) :   1.4791
B( 17-C , 61-H ) :   1.0059 B( 18-C , 19-C ) :   1.1759 B( 18-C , 62-H ) :   1.0108
B( 19-C , 20-N ) :   0.9952 B( 19-C , 23-C ) :   1.3693 B( 20-N , 21-O ) :   1.5377
B( 20-N , 22-O ) :   1.4404 B( 21-O , 22-O ) :   0.2314 B( 23-C , 24-C ) :   1.3655
B( 24-C , 25-C ) :   1.3954 B( 24-C , 63-H ) :   0.9309 B( 25-C , 26-C ) :   1.3037
B( 25-C , 64-H ) :   0.9455 B( 26-C , 27-S ) :   1.0717 B( 26-C , 30-C ) :   1.2591
B( 27-S , 28-C ) :   1.1603 B( 28-C , 29-C ) :   1.2554 B( 28-C , 36-C ) :   1.2060
B( 29-C , 30-C ) :   1.2641 B( 29-C , 35-C ) :   1.1758 B( 30-C , 31-N ) :   1.2388
B( 31-N , 32-C ) :   1.1978 B( 31-N , 65-H ) :   0.9183 B( 32-C , 33-C ) :   1.0626
B( 32-C , 35-C ) :   1.6011 B( 33-C , 34-N ) :   3.0076 B( 35-C , 66-H ) :   0.9866
B( 36-C , 37-C ) :   1.5702 B( 36-C , 67-H ) :   0.9588 B( 37-C , 38-C ) :   1.2215
B( 37-C , 68-H ) :   0.9657 B( 38-C , 39-S ) :   1.1205 B( 38-C , 45-C ) :   1.4183
B( 39-S , 40-C ) :   1.1162 B( 40-C , 41-C ) :   0.9253 B( 40-C , 44-C ) :   1.5240
B( 41-C , 42-O ) :   2.1955 B( 41-C , 43-O ) :   1.2509 B( 43-O , 69-H ) :   0.9484
B( 44-C , 45-C ) :   1.2087 B( 44-C , 70-H ) :   1.0071 B( 45-C , 46-O ) :   1.0864
B( 46-O , 47-C ) :   1.1814 B( 47-C , 48-C ) :   1.7135 B( 47-C , 71-H ) :   0.9599
B( 48-C , 49-C ) :   0.9408 B( 48-C , 53-C ) :   1.0796 B( 49-C , 50-O ) :   2.0115
B( 49-C , 51-O ) :   1.2992 B( 50-O , 66-H ) :   0.1086 B( 51-O , 52-C ) :   0.8978
B( 52-C , 72-H ) :   0.9797 B( 52-C , 73-H ) :   0.9765 B( 52-C , 74-H ) :   0.9768
B( 53-C , 54-N ) :   3.0406

-----------------------------------------------------------------------------
         ABSORPTION SPECTRUM VIA TRANSITION ELECTRIC DIPOLE MOMENTS
-----------------------------------------------------------------------------
State   Energy  Wavelength   fosc         T2         TX        TY        TZ
        (cm-1)    (nm)                  (au**2)     (au)      (au)      (au)
-----------------------------------------------------------------------------
   0    7501.3   1333.1   0.398953969  17.50899  -4.03599  -0.75919   0.80211
   1   15036.9    665.0   0.012718799   0.27846  -0.28452  -0.43289   0.10057
   2   17996.7    555.7   0.880580283  16.10834  -3.28094  -1.97247  -1.20545
   3   19447.5    514.2   0.157713164   2.66981   1.57499   0.42412   0.09662
   4   24275.2    411.9   0.089011751   1.20715  -1.02374   0.14248   0.37256
   5   25032.2    399.5   0.009166725   0.12056  -0.34399  -0.01619   0.04432
   6   25681.0    389.4   0.144953776   1.85820  -0.43932   0.73205   1.06268
   7   26195.3    381.7   0.041924806   0.52689   0.62068   0.26902   0.26322
   8   26787.3    373.3   0.116109645   1.42697  -0.02535   0.57392   1.04735
   9   26955.8    371.0   0.161535635   1.97284  -0.11683   0.68365   1.22140
  10   27721.1    360.7   0.040596481   0.48212   0.68524  -0.11201   0.00349
  11   29040.5    344.3   0.004742198   0.05376   0.20822  -0.05577  -0.08540
  12   29298.3    341.3   0.014881407   0.16722   0.32201  -0.04483   0.24802
  13   29762.2    336.0   0.080198721   0.88711   0.02221   0.55076   0.76373
  14   29795.9    335.6   0.022632245   0.25006  -0.33840   0.08660  -0.35784
  15   30425.5    328.7   0.195834616   2.11898   0.05358   0.64679   1.30298
  16   31024.8    322.3   0.016860292   0.17891   0.06101   0.34881   0.23133
  17   31535.7    317.1   0.014633197   0.15276   0.06859   0.28759  -0.25564
  18   31609.6    316.4   0.237052728   2.46889  -0.35406  -1.12900  -1.03387
  19   31932.2    313.2   0.065789091   0.67827  -0.62478  -0.32115  -0.42986
  20   32453.3    308.1   0.013731608   0.13930   0.04643   0.17729   0.32513
  21   32906.3    303.9   0.069216221   0.69248  -0.58091  -0.13189  -0.58105
  22   33319.2    300.1   0.106820958   1.05545  -0.89693   0.30263   0.39922
  23   33969.8    294.4   0.083303526   0.80732  -0.18500  -0.29691  -0.82761
  24   35010.5    285.6   0.020417640   0.19199   0.20081  -0.24483  -0.30286
  25   35164.3    284.4   0.025485208   0.23859   0.41132  -0.26277   0.01908
  26   35839.6    279.0   0.120404846   1.10600  -0.17716  -0.52184  -0.89571
  27   36273.2    275.7   0.000418217   0.00380   0.01792  -0.03875   0.04442
  28   36465.2    274.2   0.117771519   1.06325   0.93496  -0.29089  -0.32324
  29   36736.5    272.2   0.019309103   0.17304   0.09300   0.10413   0.39185
  30   36792.1    271.8   0.000231953   0.00208   0.01200  -0.03347   0.02848
  31   37006.7    270.2   0.150168055   1.33590   0.53850  -0.47961  -0.90327
  32   37591.5    266.0   0.111043079   0.97247   0.69991  -0.36183  -0.59303
  33   38154.0    262.1   0.066042227   0.56985  -0.75425  -0.02976  -0.00789
  34   38645.2    258.8   0.002283647   0.01945  -0.05546  -0.06310  -0.11134
  35   39124.1    255.6   0.016546366   0.13923   0.34809  -0.04086  -0.12804
  36   39296.6    254.5   0.028184312   0.23612  -0.47377   0.07010   0.08214
  37   39713.1    251.8   0.027706064   0.22968  -0.04856   0.24337   0.40999
  38   39935.5    250.4   0.003585112   0.02955  -0.15710  -0.06761   0.01742
  39   40203.7    248.7   0.007737429   0.06336  -0.07689   0.10801   0.21396

FINAL SINGLE POINT ENERGY     -3332.556959962698

DIPOLE MOMENT
-------------
                                X             Y             Z
Electronic contribution:      7.15765      12.63974      -0.58693
Nuclear contribution   :     -4.26758     -12.63389       1.45782
                        -----------------------------------------
Total Dipole Moment    :      2.89007       0.00584       0.87089
                        -----------------------------------------
Magnitude (a.u.)       :      3.01844
Magnitude (Debye)      :      7.67226

Rotational constants in cm-1:     0.002273     0.000562     0.000465
Rotational constants in MHz :    68.157799    16.857876    13.951703

                             ****ORCA TERMINATED NORMALLY****
TOTAL RUN TIME: 0 days 0 hours 7 minutes 0 seconds 331 msec
