                         Program Version 4.2.0 -  RELEASE  -
|  1> # ORCA input file
|  2> # SCF done       -198.051098216587          0.000441326856
|  3> ! CAM-B3LYP def2-SVP def2/J RIJCOSX Grid4 TightSCF
|  4> %maxcore 5000
|  5> %tddft
|  6>     Mode sTDDFT
|  7>     Ethresh 5.0
|  8>     maxcore 5000
|  9> end
| 10>
| 11> %pal
| 12>   nprocs 6
| 13>   end
| 14> * xyz 0 1
| 15>    C       -0.24146        -4.93210         5.69867
| 16>    C       -0.72174        -6.05283         6.32695
| 17>    C        0.11324        -7.17117         6.53642
| 18>    N        0.79698        -8.07687         6.70166
| 19>    C       -2.03095        -6.21151         6.81545
| 20>    N       -3.08379        -6.40028         7.23277
| 21>    C       -0.91738        -3.69891         5.38990
| 22>    C       -0.07688        -2.76900         4.74134
| 23>    C       -0.58338        -1.52595         4.36770
| 24>    C       -1.90189        -1.22113         4.64031
| 25>    C       -2.72704        -2.13864         5.28266
| 26>    C       -2.24545        -3.37672         5.66031
| 27>    C        1.26611        -3.25076         4.52915
| 28>    S        1.41795        -4.88320         5.15287
| 29>    C        2.27930        -2.54121         3.94945
| 30>    C        3.60563        -2.92895         3.67984
| 31>    C        4.56299        -2.07102         3.15348
| 32>    C        5.78920        -2.75667         3.02306
| 33>    C        5.53384        -4.14265         3.46678
| 34>    C        4.23671        -4.23189         3.85590
| 35>    C        6.42011        -5.22633         3.39577
| 36>    N        7.09053        -6.15393         3.30806
| 37>    C        7.00210        -2.25018         2.58705
| 38>    C        8.26097        -2.88978         2.61182
| 39>    C        9.21817        -2.04287         2.05840
| 40>    C        8.54331        -0.81627         1.66914
| 41>    C        7.22739        -0.92057         1.99925
| 42>    C        6.26711         0.07171         1.77497
| 43>    N        5.50024         0.90447         1.57883
| 44>    C       10.58276        -2.38356         1.93997
| 45>    N       11.54406        -1.73318         1.21276
| 46>    C       11.39343        -0.57197         0.37850
| 47>    C       12.79913        -2.38590         1.28339
| 48>    O       13.77851        -2.01407         0.68106
| 49>    C       12.55953        -3.50422         2.16997
| 50>    C       11.20991        -3.49368         2.54377
| 51>    C       10.99951        -4.60344         3.45805
| 52>    O       10.04175        -4.96236         4.10182
| 53>    N       12.25321        -5.25650         3.50909
| 54>    C       12.44564        -6.37593         4.39102
| 55>    C       13.19945        -4.60631         2.76483
| 56>    C       14.56456        -4.91199         2.60553
| 57>    C       15.17363        -6.11632         2.80473
| 58>    C       16.56309        -6.35059         2.66071
| 59>    C       17.65016        -5.55106         3.01156
| 60>    N       17.66351        -4.30802         3.67527
| 61>    O       18.75148        -3.78837         3.84913
| 62>    O       16.60959        -3.83178         4.06337
| 63>    C       18.86422        -6.27127         2.76015
| 64>    C       18.55547        -7.50838         2.28734
| 65>    C       17.13087        -7.62007         2.18207
| 66>    C       16.42444        -8.62241         1.53841
| 67>    C       15.19669        -8.44961         0.83200
| 68>    C       14.97113        -9.54948         0.05508
| 69>    C       16.00823       -10.50166         0.28786
| 70>    N       16.02787       -11.76105        -0.33045
| 71>    O       16.93846       -12.53483        -0.06940
| 72>    O       15.12744       -12.01293        -1.11305
| 73>    C       16.90417        -9.98456         1.23175
| 74>    C       17.94099       -10.69356         1.85940
| 75>    C       18.48699       -10.40360         3.08300
| 76>    C       19.53396       -11.15513         3.63457
| 77>    C       20.08143       -10.92051         4.86654
| 78>    C       21.15918       -11.63267         5.49597
| 79>    C       21.48054       -11.14607         6.78194
| 80>    C       20.64715       -10.03976         7.17745
| 81>    C       20.64553        -9.32938         8.35077
| 82>    C       21.51171        -9.55356         9.43587
| 83>    N       22.19047        -9.69173        10.35141
| 84>    C       19.71586        -8.28660         8.55142
| 85>    N       18.94660        -7.45014         8.70543
| 86>    S       19.50503        -9.63702         5.91534
| 87>    C       22.50494       -11.73755         7.51755
| 88>    C       23.19696       -12.80097         6.97088
| 89>    C       22.88122       -13.28185         5.70376
| 90>    C       21.86874       -12.70689         4.96253
| 91>    H        0.04427        -0.80573         3.86741
| 92>    H       -2.29677        -0.25954         4.35047
| 93>    H       -3.75484        -1.88350         5.48808
| 94>    H       -2.89068        -4.08307         6.15597
| 95>    H        2.04309        -1.52645         3.65378
| 96>    H        4.40703        -1.03625         2.91826
| 97>    H        3.75316        -5.12268         4.20897
| 98>    H        8.44728        -3.86669         3.01255
| 99>    H        8.99705         0.04845         1.22703
|100>    H       10.57724        -0.70411        -0.33282
|101>    H       12.33191        -0.45734        -0.16635
|102>    H       11.22819         0.32571         0.97725
|103>    H       11.59516        -6.39267         5.07434
|104>    H       13.37102        -6.26082         4.95547
|105>    H       12.45765        -7.31834         3.83903
|106>    H       15.14291        -4.08769         2.21153
|107>    H       14.57564        -6.99256         3.01189
|108>    H       19.84027        -5.86063         2.93561
|109>    H       19.25242        -8.24922         1.94826
|110>    H       14.62813        -7.54048         0.80577
|111>    H       14.16365        -9.70613        -0.63505
|112>    H       18.26440       -11.59678         1.35619
|113>    H       18.08878        -9.58858         3.67359
|114>    H       19.93817       -11.96522         3.04308
|115>    H       22.75696       -11.37266         8.49955
|116>    H       23.99161       -13.26268         7.53573
|117>    H       23.43427       -14.11388         5.29585
|118>    H       21.62972       -13.08541         3.98152
|119> *
|120>
|121>                          ****END OF INPUT****

CARTESIAN COORDINATES (ANGSTROEM)
---------------------------------
  C     -0.241460   -4.932100    5.698670
  C     -0.721740   -6.052830    6.326950
  C      0.113240   -7.171170    6.536420
  N      0.796980   -8.076870    6.701660
  C     -2.030950   -6.211510    6.815450
  N     -3.083790   -6.400280    7.232770
  C     -0.917380   -3.698910    5.389900
  C     -0.076880   -2.769000    4.741340
  C     -0.583380   -1.525950    4.367700
  C     -1.901890   -1.221130    4.640310
  C     -2.727040   -2.138640    5.282660
  C     -2.245450   -3.376720    5.660310
  C      1.266110   -3.250760    4.529150
  S      1.417950   -4.883200    5.152870
  C      2.279300   -2.541210    3.949450
  C      3.605630   -2.928950    3.679840
  C      4.562990   -2.071020    3.153480
  C      5.789200   -2.756670    3.023060
  C      5.533840   -4.142650    3.466780
  C      4.236710   -4.231890    3.855900
  C      6.420110   -5.226330    3.395770
  N      7.090530   -6.153930    3.308060
  C      7.002100   -2.250180    2.587050
  C      8.260970   -2.889780    2.611820
  C      9.218170   -2.042870    2.058400
  C      8.543310   -0.816270    1.669140
  C      7.227390   -0.920570    1.999250
  C      6.267110    0.071710    1.774970
  N      5.500240    0.904470    1.578830
  C     10.582760   -2.383560    1.939970
  N     11.544060   -1.733180    1.212760
  C     11.393430   -0.571970    0.378500
  C     12.799130   -2.385900    1.283390
  O     13.778510   -2.014070    0.681060
  C     12.559530   -3.504220    2.169970
  C     11.209910   -3.493680    2.543770
  C     10.999510   -4.603440    3.458050
  O     10.041750   -4.962360    4.101820
  N     12.253210   -5.256500    3.509090
  C     12.445640   -6.375930    4.391020
  C     13.199450   -4.606310    2.764830
  C     14.564560   -4.911990    2.605530
  C     15.173630   -6.116320    2.804730
  C     16.563090   -6.350590    2.660710
  C     17.650160   -5.551060    3.011560
  N     17.663510   -4.308020    3.675270
  O     18.751480   -3.788370    3.849130
  O     16.609590   -3.831780    4.063370
  C     18.864220   -6.271270    2.760150
  C     18.555470   -7.508380    2.287340
  C     17.130870   -7.620070    2.182070
  C     16.424440   -8.622410    1.538410
  C     15.196690   -8.449610    0.832000
  C     14.971130   -9.549480    0.055080
  C     16.008230  -10.501660    0.287860
  N     16.027870  -11.761050   -0.330450
  O     16.938460  -12.534830   -0.069400
  O     15.127440  -12.012930   -1.113050
  C     16.904170   -9.984560    1.231750
  C     17.940990  -10.693560    1.859400
  C     18.486990  -10.403600    3.083000
  C     19.533960  -11.155130    3.634570
  C     20.081430  -10.920510    4.866540
  C     21.159180  -11.632670    5.495970
  C     21.480540  -11.146070    6.781940
  C     20.647150  -10.039760    7.177450
  C     20.645530   -9.329380    8.350770
  C     21.511710   -9.553560    9.435870
  N     22.190470   -9.691730   10.351410
  C     19.715860   -8.286600    8.551420
  N     18.946600   -7.450140    8.705430
  S     19.505030   -9.637020    5.915340
  C     22.504940  -11.737550    7.517550
  C     23.196960  -12.800970    6.970880
  C     22.881220  -13.281850    5.703760
  C     21.868740  -12.706890    4.962530
  H      0.044270   -0.805730    3.867410
  H     -2.296770   -0.259540    4.350470
  H     -3.754840   -1.883500    5.488080
  H     -2.890680   -4.083070    6.155970
  H      2.043090   -1.526450    3.653780
  H      4.407030   -1.036250    2.918260
  H      3.753160   -5.122680    4.208970
  H      8.447280   -3.866690    3.012550
  H      8.997050    0.048450    1.227030
  H     10.577240   -0.704110   -0.332820
  H     12.331910   -0.457340   -0.166350
  H     11.228190    0.325710    0.977250
  H     11.595160   -6.392670    5.074340
  H     13.371020   -6.260820    4.955470
  H     12.457650   -7.318340    3.839030
  H     15.142910   -4.087690    2.211530
  H     14.575640   -6.992560    3.011890
  H     19.840270   -5.860630    2.935610
  H     19.252420   -8.249220    1.948260
  H     14.628130   -7.540480    0.805770
  H     14.163650   -9.706130   -0.635050
  H     18.264400  -11.596780    1.356190
  H     18.088780   -9.588580    3.673590
  H     19.938170  -11.965220    3.043080
  H     22.756960  -11.372660    8.499550
  H     23.991610  -13.262680    7.535730
  H     23.434270  -14.113880    5.295850
  H     21.629720  -13.085410    3.981520

 Total Charge           Charge          ....    0
 Multiplicity           Mult            ....    1
 Number of Electrons    NEL             ....  526
 Basis Dimension        Dim             .... 1212

ORBITAL ENERGIES
----------------

  NO   OCC          E(Eh)            E(eV)
   0   2.0000     -88.989136     -2421.5175
   1   2.0000     -88.986898     -2421.4566
   2   2.0000     -19.242518      -523.6155
   3   2.0000     -19.241751      -523.5947
   4   2.0000     -19.241225      -523.5804
   5   2.0000     -19.238632      -523.5098
   6   2.0000     -19.205344      -522.6040
   7   2.0000     -19.205322      -522.6034
   8   2.0000     -14.651817      -398.6962
   9   2.0000     -14.649606      -398.6361
  10   2.0000     -14.471616      -393.7927
  11   2.0000     -14.469175      -393.7263
  12   2.0000     -14.424260      -392.5041
  13   2.0000     -14.421362      -392.4252
  14   2.0000     -14.421049      -392.4167
  15   2.0000     -14.417931      -392.3318
  16   2.0000     -14.417416      -392.3178
  17   2.0000     -14.408633      -392.0788
  18   2.0000     -10.388535      -282.6864
  19   2.0000     -10.387750      -282.6651
  20   2.0000     -10.372953      -282.2624
  21   2.0000     -10.369657      -282.1727
  22   2.0000     -10.360140      -281.9137
  23   2.0000     -10.355597      -281.7901
  24   2.0000     -10.352591      -281.7083
  25   2.0000     -10.352242      -281.6988
  26   2.0000     -10.349881      -281.6346
  27   2.0000     -10.346920      -281.5540
  28   2.0000     -10.339258      -281.3455
  29   2.0000     -10.338103      -281.3141
  30   2.0000     -10.336878      -281.2808
  31   2.0000     -10.335754      -281.2502
  32   2.0000     -10.333234      -281.1816
  33   2.0000     -10.332393      -281.1587
  34   2.0000     -10.328811      -281.0612
  35   2.0000     -10.327174      -281.0167
  36   2.0000     -10.326255      -280.9917
  37   2.0000     -10.325328      -280.9665
  38   2.0000     -10.324430      -280.9420
  39   2.0000     -10.324421      -280.9418
  40   2.0000     -10.324262      -280.9374
  41   2.0000     -10.324130      -280.9339
  42   2.0000     -10.322237      -280.8823
  43   2.0000     -10.321798      -280.8704
  44   2.0000     -10.320349      -280.8310
  45   2.0000     -10.319924      -280.8194
  46   2.0000     -10.319574      -280.8099
  47   2.0000     -10.319486      -280.8075
  48   2.0000     -10.318952      -280.7930
  49   2.0000     -10.318767      -280.7879
  50   2.0000     -10.318518      -280.7812
  51   2.0000     -10.318432      -280.7788
  52   2.0000     -10.317835      -280.7626
  53   2.0000     -10.316621      -280.7295
  54   2.0000     -10.315765      -280.7062
  55   2.0000     -10.312671      -280.6220
  56   2.0000     -10.312242      -280.6104
  57   2.0000     -10.311980      -280.6032
  58   2.0000     -10.311359      -280.5863
  59   2.0000     -10.309991      -280.5491
  60   2.0000     -10.309849      -280.5452
  61   2.0000     -10.309771      -280.5431
  62   2.0000     -10.309453      -280.5345
  63   2.0000     -10.308724      -280.5146
  64   2.0000     -10.308133      -280.4986
  65   2.0000     -10.306482      -280.4536
  66   2.0000     -10.306401      -280.4514
  67   2.0000     -10.305728      -280.4331
  68   2.0000     -10.303081      -280.3611
  69   2.0000     -10.301932      -280.3298
  70   2.0000     -10.295296      -280.1492
  71   2.0000     -10.294103      -280.1168
  72   2.0000     -10.294036      -280.1150
  73   2.0000     -10.293471      -280.0996
  74   2.0000     -10.281580      -279.7760
  75   2.0000     -10.280371      -279.7431
  76   2.0000      -8.084911      -220.0016
  77   2.0000      -8.082458      -219.9349
  78   2.0000      -6.054631      -164.7549
  79   2.0000      -6.052209      -164.6890
  80   2.0000      -6.050440      -164.6408
  81   2.0000      -6.047980      -164.5739
  82   2.0000      -6.045919      -164.5178
  83   2.0000      -6.043459      -164.4509
  84   2.0000      -1.320926       -35.9442
  85   2.0000      -1.319800       -35.9136
  86   2.0000      -1.149052       -31.2673
  87   2.0000      -1.142543       -31.0902
  88   2.0000      -1.137816       -30.9615
  89   2.0000      -1.136809       -30.9342
  90   2.0000      -1.079311       -29.3696
  91   2.0000      -1.069986       -29.1158
  92   2.0000      -1.039513       -28.2866
  93   2.0000      -1.036468       -28.2037
  94   2.0000      -1.027146       -27.9501
  95   2.0000      -1.023945       -27.8629
  96   2.0000      -1.013783       -27.5864
  97   2.0000      -1.011117       -27.5139
  98   2.0000      -1.006658       -27.3925
  99   2.0000      -1.005678       -27.3659
 100   2.0000      -1.000621       -27.2283
 101   2.0000      -0.997597       -27.1460
 102   2.0000      -0.991692       -26.9853
 103   2.0000      -0.985778       -26.8244
 104   2.0000      -0.967736       -26.3334
 105   2.0000      -0.962898       -26.2018
 106   2.0000      -0.953661       -25.9504
 107   2.0000      -0.941022       -25.6065
 108   2.0000      -0.936917       -25.4948
 109   2.0000      -0.924153       -25.1475
 110   2.0000      -0.921278       -25.0693
 111   2.0000      -0.917569       -24.9683
 112   2.0000      -0.899689       -24.4818
 113   2.0000      -0.888749       -24.1841
 114   2.0000      -0.887265       -24.1437
 115   2.0000      -0.884142       -24.0587
 116   2.0000      -0.875692       -23.8288
 117   2.0000      -0.869037       -23.6477
 118   2.0000      -0.866258       -23.5721
 119   2.0000      -0.862218       -23.4622
 120   2.0000      -0.861740       -23.4491
 121   2.0000      -0.857933       -23.3455
 122   2.0000      -0.848257       -23.0823
 123   2.0000      -0.841657       -22.9026
 124   2.0000      -0.826255       -22.4835
 125   2.0000      -0.815422       -22.1888
 126   2.0000      -0.806807       -21.9543
 127   2.0000      -0.786702       -21.4072
 128   2.0000      -0.780426       -21.2365
 129   2.0000      -0.772613       -21.0239
 130   2.0000      -0.767390       -20.8818
 131   2.0000      -0.765090       -20.8192
 132   2.0000      -0.742759       -20.2115
 133   2.0000      -0.739232       -20.1155
 134   2.0000      -0.738689       -20.1007
 135   2.0000      -0.727964       -19.8089
 136   2.0000      -0.723507       -19.6876
 137   2.0000      -0.716825       -19.5058
 138   2.0000      -0.714084       -19.4312
 139   2.0000      -0.712227       -19.3807
 140   2.0000      -0.710803       -19.3419
 141   2.0000      -0.700664       -19.0660
 142   2.0000      -0.690012       -18.7762
 143   2.0000      -0.686132       -18.6706
 144   2.0000      -0.681167       -18.5355
 145   2.0000      -0.679936       -18.5020
 146   2.0000      -0.676136       -18.3986
 147   2.0000      -0.669981       -18.2311
 148   2.0000      -0.665719       -18.1151
 149   2.0000      -0.651542       -17.7294
 150   2.0000      -0.648822       -17.6554
 151   2.0000      -0.647284       -17.6135
 152   2.0000      -0.643406       -17.5080
 153   2.0000      -0.640632       -17.4325
 154   2.0000      -0.632965       -17.2239
 155   2.0000      -0.632082       -17.1998
 156   2.0000      -0.627182       -17.0665
 157   2.0000      -0.625798       -17.0288
 158   2.0000      -0.624492       -16.9933
 159   2.0000      -0.620633       -16.8883
 160   2.0000      -0.601063       -16.3557
 161   2.0000      -0.596429       -16.2297
 162   2.0000      -0.593653       -16.1541
 163   2.0000      -0.592365       -16.1191
 164   2.0000      -0.588270       -16.0076
 165   2.0000      -0.584857       -15.9148
 166   2.0000      -0.584059       -15.8931
 167   2.0000      -0.581440       -15.8218
 168   2.0000      -0.577254       -15.7079
 169   2.0000      -0.575877       -15.6704
 170   2.0000      -0.575286       -15.6543
 171   2.0000      -0.570977       -15.5371
 172   2.0000      -0.566726       -15.4214
 173   2.0000      -0.565754       -15.3950
 174   2.0000      -0.556772       -15.1505
 175   2.0000      -0.552551       -15.0357
 176   2.0000      -0.549132       -14.9427
 177   2.0000      -0.548755       -14.9324
 178   2.0000      -0.546377       -14.8677
 179   2.0000      -0.544619       -14.8198
 180   2.0000      -0.542813       -14.7707
 181   2.0000      -0.541859       -14.7447
 182   2.0000      -0.541533       -14.7358
 183   2.0000      -0.533499       -14.5173
 184   2.0000      -0.533164       -14.5081
 185   2.0000      -0.528551       -14.3826
 186   2.0000      -0.528166       -14.3721
 187   2.0000      -0.526078       -14.3153
 188   2.0000      -0.523479       -14.2446
 189   2.0000      -0.519077       -14.1248
 190   2.0000      -0.516327       -14.0500
 191   2.0000      -0.511852       -13.9282
 192   2.0000      -0.508934       -13.8488
 193   2.0000      -0.507320       -13.8049
 194   2.0000      -0.506433       -13.7807
 195   2.0000      -0.502186       -13.6652
 196   2.0000      -0.500625       -13.6227
 197   2.0000      -0.500408       -13.6168
 198   2.0000      -0.496382       -13.5072
 199   2.0000      -0.495973       -13.4961
 200   2.0000      -0.494108       -13.4454
 201   2.0000      -0.493290       -13.4231
 202   2.0000      -0.491566       -13.3762
 203   2.0000      -0.488485       -13.2923
 204   2.0000      -0.484344       -13.1797
 205   2.0000      -0.480994       -13.0885
 206   2.0000      -0.477540       -12.9945
 207   2.0000      -0.475792       -12.9470
 208   2.0000      -0.470839       -12.8122
 209   2.0000      -0.468515       -12.7489
 210   2.0000      -0.466013       -12.6808
 211   2.0000      -0.464632       -12.6433
 212   2.0000      -0.463835       -12.6216
 213   2.0000      -0.460667       -12.5354
 214   2.0000      -0.460602       -12.5336
 215   2.0000      -0.456571       -12.4239
 216   2.0000      -0.455700       -12.4002
 217   2.0000      -0.454881       -12.3780
 218   2.0000      -0.452228       -12.3057
 219   2.0000      -0.450674       -12.2635
 220   2.0000      -0.449689       -12.2366
 221   2.0000      -0.449278       -12.2255
 222   2.0000      -0.447317       -12.1721
 223   2.0000      -0.446605       -12.1527
 224   2.0000      -0.444422       -12.0933
 225   2.0000      -0.437916       -11.9163
 226   2.0000      -0.435575       -11.8526
 227   2.0000      -0.434672       -11.8280
 228   2.0000      -0.434353       -11.8194
 229   2.0000      -0.429929       -11.6990
 230   2.0000      -0.428126       -11.6499
 231   2.0000      -0.427182       -11.6242
 232   2.0000      -0.425607       -11.5813
 233   2.0000      -0.422070       -11.4851
 234   2.0000      -0.419742       -11.4217
 235   2.0000      -0.418347       -11.3838
 236   2.0000      -0.415273       -11.3002
 237   2.0000      -0.405356       -11.0303
 238   2.0000      -0.402152       -10.9431
 239   2.0000      -0.397549       -10.8179
 240   2.0000      -0.394238       -10.7278
 241   2.0000      -0.388746       -10.5783
 242   2.0000      -0.381253       -10.3744
 243   2.0000      -0.380042       -10.3415
 244   2.0000      -0.377075       -10.2607
 245   2.0000      -0.368668       -10.0320
 246   2.0000      -0.362830        -9.8731
 247   2.0000      -0.361344        -9.8327
 248   2.0000      -0.360069        -9.7980
 249   2.0000      -0.354826        -9.6553
 250   2.0000      -0.352311        -9.5869
 251   2.0000      -0.352025        -9.5791
 252   2.0000      -0.346638        -9.4325
 253   2.0000      -0.345298        -9.3960
 254   2.0000      -0.337637        -9.1876
 255   2.0000      -0.333248        -9.0681
 256   2.0000      -0.325559        -8.8589
 257   2.0000      -0.323320        -8.7980
 258   2.0000      -0.319917        -8.7054
 259   2.0000      -0.309638        -8.4257
 260   2.0000      -0.280130        -7.6227
 261   2.0000      -0.272340        -7.4108
 262   2.0000      -0.243412        -6.6236
 263   0.0000      -0.153602        -4.1797
 264   0.0000      -0.139787        -3.8038
 265   0.0000      -0.098684        -2.6853
 266   0.0000      -0.082453        -2.2437
 267   0.0000      -0.074633        -2.0309

MULLIKEN ATOMIC CHARGES
-----------------------
   0 C :    0.088556
   1 C :   -0.282598
   2 C :   -0.207270
   3 N :    0.161805
   4 C :   -0.174834
   5 N :    0.162865
   6 C :    0.045906
   7 C :    0.139919
   8 C :   -0.049144
   9 C :    0.051825
  10 C :    0.036437
  11 C :   -0.024308
  12 C :   -0.014759
  13 S :    0.114697
  14 C :   -0.051021
  15 C :    0.100308
  16 C :   -0.119201
  17 C :    0.126965
  18 C :   -0.089377
  19 C :   -0.015769
  20 C :   -0.183714
  21 N :    0.159832
  22 C :    0.130293
  23 C :   -0.116838
  24 C :    0.041060
  25 C :   -0.037555
  26 C :   -0.095027
  27 C :   -0.178311
  28 N :    0.136493
  29 C :    0.170469
  30 N :   -0.276415
  31 C :    0.115427
  32 C :    0.147143
  33 O :   -0.170084
  34 C :   -0.033403
  35 C :   -0.072077
  36 C :    0.161285
  37 O :   -0.170809
  38 N :   -0.271773
  39 C :    0.115288
  40 C :    0.096662
  41 C :    0.044710
  42 C :   -0.085521
  43 C :    0.052214
  44 C :    0.084096
  45 N :    0.262521
  46 O :   -0.239143
  47 O :   -0.245300
  48 C :    0.019162
  49 C :   -0.016634
  50 C :    0.037709
  51 C :    0.027710
  52 C :   -0.018926
  53 C :    0.021117
  54 C :    0.088926
  55 N :    0.273597
  56 O :   -0.259422
  57 O :   -0.245053
  58 C :    0.056295
  59 C :   -0.057253
  60 C :    0.007264
  61 C :   -0.049626
  62 C :   -0.015207
  63 C :    0.143104
  64 C :    0.047520
  65 C :    0.071537
  66 C :   -0.273131
  67 C :   -0.174854
  68 N :    0.163198
  69 C :   -0.206689
  70 N :    0.158313
  71 S :    0.136233
  72 C :   -0.022495
  73 C :    0.034764
  74 C :    0.048774
  75 C :   -0.044789
  76 H :   -0.006670
  77 H :    0.003458
  78 H :    0.004977
  79 H :    0.010922
  80 H :   -0.002558
  81 H :    0.002780
  82 H :    0.021451
  83 H :    0.029727
  84 H :   -0.012641
  85 H :    0.040356
  86 H :    0.064574
  87 H :    0.043828
  88 H :    0.066715
  89 H :    0.048401
  90 H :    0.043214
  91 H :    0.023514
  92 H :    0.008699
  93 H :    0.008455
  94 H :    0.004202
  95 H :    0.005019
  96 H :    0.012604
  97 H :    0.028515
  98 H :    0.038398
  99 H :    0.005101
 100 H :    0.010931
 101 H :    0.007228
 102 H :    0.005350
 103 H :   -0.010215
Sum of atomic charges:   -0.0000000

LOEWDIN ATOMIC CHARGES
----------------------
   0 C :   -0.063964
   1 C :   -0.159178
   2 C :   -0.039973
   3 N :   -0.034189
   4 C :   -0.023135
   5 N :   -0.045339
   6 C :   -0.046104
   7 C :   -0.019061
   8 C :   -0.005012
   9 C :    0.005600
  10 C :   -0.005739
  11 C :    0.011476
  12 C :   -0.131051
  13 S :    0.444119
  14 C :   -0.027377
  15 C :   -0.011976
  16 C :   -0.025949
  17 C :    0.046243
  18 C :   -0.066492
  19 C :    0.036105
  20 C :   -0.037012
  21 N :   -0.039210
  22 C :    0.027856
  23 C :    0.016393
  24 C :   -0.039345
  25 C :    0.043769
  26 C :   -0.079916
  27 C :   -0.030259
  28 N :   -0.064314
  29 C :    0.081695
  30 N :   -0.009300
  31 C :    0.028433
  32 C :    0.082038
  33 O :   -0.175683
  34 C :   -0.100489
  35 C :   -0.103986
  36 C :    0.084057
  37 O :   -0.163556
  38 N :   -0.002738
  39 C :    0.030106
  40 C :    0.071499
  41 C :    0.010833
  42 C :   -0.017049
  43 C :    0.000342
  44 C :   -0.040085
  45 N :    0.283650
  46 O :   -0.204129
  47 O :   -0.206274
  48 C :    0.013920
  49 C :   -0.047980
  50 C :    0.039149
  51 C :    0.038348
  52 C :   -0.049834
  53 C :    0.029417
  54 C :   -0.053199
  55 N :    0.286208
  56 O :   -0.222711
  57 O :   -0.210097
  58 C :    0.011840
  59 C :   -0.008310
  60 C :    0.000776
  61 C :   -0.035726
  62 C :   -0.125595
  63 C :   -0.022797
  64 C :   -0.044170
  65 C :   -0.064250
  66 C :   -0.157393
  67 C :   -0.023354
  68 N :   -0.043491
  69 C :   -0.039573
  70 N :   -0.033814
  71 S :    0.438105
  72 C :    0.011957
  73 C :   -0.004020
  74 C :    0.005221
  75 C :   -0.003183
  76 H :    0.034418
  77 H :    0.037487
  78 H :    0.038190
  79 H :    0.042780
  80 H :    0.044324
  81 H :    0.034965
  82 H :    0.027244
  83 H :    0.038687
  84 H :    0.035338
  85 H :    0.028731
  86 H :    0.044364
  87 H :    0.027103
  88 H :    0.044434
  89 H :    0.033586
  90 H :    0.026170
  91 H :    0.047615
  92 H :    0.034714
  93 H :    0.039800
  94 H :    0.031057
  95 H :    0.032536
  96 H :    0.041822
  97 H :    0.040790
  98 H :    0.027726
  99 H :    0.040314
 100 H :    0.042964
 101 H :    0.038878
 102 H :    0.037952
 103 H :    0.034241

  Mayer bond orders larger than 0.100000
B(  0-C ,  1-C ) :   1.6372 B(  0-C ,  6-C ) :   1.0778 B(  0-C , 13-S ) :   1.0962
B(  1-C ,  2-C ) :   1.1294 B(  1-C ,  4-C ) :   1.1686 B(  2-C ,  3-N ) :   3.0339
B(  4-C ,  5-N ) :   2.9716 B(  6-C ,  7-C ) :   1.3171 B(  6-C , 11-C ) :   1.3487
B(  7-C ,  8-C ) :   1.3494 B(  7-C , 12-C ) :   1.0613 B(  8-C ,  9-C ) :   1.4150
B(  8-C , 76-H ) :   0.9902 B(  9-C , 10-C ) :   1.3459 B(  9-C , 77-H ) :   0.9863
B( 10-C , 11-C ) :   1.4102 B( 10-C , 78-H ) :   0.9872 B( 11-C , 79-H ) :   0.9806
B( 12-C , 13-S ) :   1.0048 B( 12-C , 14-C ) :   1.6231 B( 14-C , 15-C ) :   1.1499
B( 14-C , 80-H ) :   0.9636 B( 15-C , 16-C ) :   1.4735 B( 15-C , 19-C ) :   1.0293
B( 16-C , 17-C ) :   1.1542 B( 16-C , 81-H ) :   1.0094 B( 17-C , 18-C ) :   1.1016
B( 17-C , 22-C ) :   1.3503 B( 18-C , 19-C ) :   1.7051 B( 18-C , 20-C ) :   1.0872
B( 19-C , 82-H ) :   1.0000 B( 20-C , 21-N ) :   2.9935 B( 22-C , 23-C ) :   1.1459
B( 22-C , 26-C ) :   1.1078 B( 23-C , 24-C ) :   1.5014 B( 23-C , 83-H ) :   0.9851
B( 24-C , 25-C ) :   1.0323 B( 24-C , 29-C ) :   1.0822 B( 25-C , 26-C ) :   1.6530
B( 25-C , 84-H ) :   1.0265 B( 26-C , 27-C ) :   1.0840 B( 27-C , 28-N ) :   2.9684
B( 29-C , 30-N ) :   1.2158 B( 29-C , 35-C ) :   1.3249 B( 30-N , 31-C ) :   0.9609
B( 30-N , 32-C ) :   1.0099 B( 31-C , 85-H ) :   0.9702 B( 31-C , 86-H ) :   0.9441
B( 31-C , 87-H ) :   0.9697 B( 32-C , 33-O ) :   2.1600 B( 32-C , 34-C ) :   0.9797
B( 34-C , 35-C ) :   1.2811 B( 34-C , 40-C ) :   1.2865 B( 35-C , 36-C ) :   0.9766
B( 36-C , 37-O ) :   2.0902 B( 36-C , 38-N ) :   1.0364 B( 38-N , 39-C ) :   0.9576
B( 38-N , 40-C ) :   1.1959 B( 39-C , 88-H ) :   0.9486 B( 39-C , 89-H ) :   0.9690
B( 39-C , 90-H ) :   0.9688 B( 40-C , 41-C ) :   1.2246 B( 41-C , 42-C ) :   1.5795
B( 41-C , 91-H ) :   0.9365 B( 42-C , 43-C ) :   1.1264 B( 42-C , 92-H ) :   0.9464
B( 43-C , 44-C ) :   1.5120 B( 43-C , 50-C ) :   1.0468 B( 44-C , 45-N ) :   0.9432
B( 44-C , 48-C ) :   1.1333 B( 45-N , 46-O ) :   1.5330 B( 45-N , 47-O ) :   1.5112
B( 46-O , 47-O ) :   0.2631 B( 48-C , 49-C ) :   1.5757 B( 48-C , 93-H ) :   1.0097
B( 49-C , 50-C ) :   1.1222 B( 49-C , 94-H ) :   1.0020 B( 50-C , 51-C ) :   1.4745
B( 51-C , 52-C ) :   1.1622 B( 51-C , 58-C ) :   1.0024 B( 52-C , 53-C ) :   1.5326
B( 52-C , 95-H ) :   1.0016 B( 53-C , 54-C ) :   1.1515 B( 53-C , 96-H ) :   1.0119
B( 54-C , 55-N ) :   0.9553 B( 54-C , 58-C ) :   1.4696 B( 55-N , 56-O ) :   1.4871
B( 55-N , 57-O ) :   1.5354 B( 56-O , 57-O ) :   0.2579 B( 58-C , 59-C ) :   1.1994
B( 59-C , 60-C ) :   1.5186 B( 59-C , 97-H ) :   0.9619 B( 60-C , 61-C ) :   1.1736
B( 60-C , 98-H ) :   0.9680 B( 61-C , 62-C ) :   1.5999 B( 61-C , 99-H ) :   0.9836
B( 62-C , 63-C ) :   1.0593 B( 62-C , 71-S ) :   1.0126 B( 63-C , 64-C ) :   1.3122
B( 63-C , 75-C ) :   1.3514 B( 64-C , 65-C ) :   1.0803 B( 64-C , 72-C ) :   1.3491
B( 65-C , 66-C ) :   1.6355 B( 65-C , 71-S ) :   1.0957 B( 66-C , 67-C ) :   1.1697
B( 66-C , 69-C ) :   1.1283 B( 67-C , 68-N ) :   2.9707 B( 69-C , 70-N ) :   3.0327
B( 72-C , 73-C ) :   1.4089 B( 72-C ,100-H ) :   0.9814 B( 73-C , 74-C ) :   1.3443
B( 73-C ,101-H ) :   0.9880 B( 74-C , 75-C ) :   1.4118 B( 74-C ,102-H ) :   0.9877
B( 75-C ,103-H ) :   0.9926

-----------------------------------------------------------------------------
         ABSORPTION SPECTRUM VIA TRANSITION ELECTRIC DIPOLE MOMENTS
-----------------------------------------------------------------------------
State   Energy  Wavelength   fosc         T2         TX        TY        TZ
        (cm-1)    (nm)                  (au**2)     (au)      (au)      (au)
-----------------------------------------------------------------------------
   0    5294.3   1888.8   0.432733111  26.90847   4.84217  -1.85360   0.16125
   1    8410.5   1189.0   0.105570755   4.13233  -1.62478  -0.87173   0.85586
   2   10249.8    975.6   0.107197622   3.44308  -0.79641   0.72786  -1.50965
   3   13020.3    768.0   0.198894563   5.02894   1.85888   0.95841  -0.80929
   4   16028.3    623.9   0.028246410   0.58017   0.36382  -0.43173   0.51129
   5   18380.8    544.0   0.106339159   1.90460   0.74476  -1.05880  -0.47841
   6   19024.3    525.6   0.047637878   0.82436  -0.36829  -0.11227  -0.82227
   7   19127.1    522.8   0.016431891   0.28282  -0.22886   0.35398  -0.32426
   8   20825.9    480.2   0.100688519   1.59167  -1.21810   0.32311  -0.05910
   9   21221.9    471.2   0.095899655   1.48768   0.46188   0.46198   1.03001
  10   21696.6    460.9   0.573816666   8.70677   2.54638  -0.14605   1.48371
  11   22024.7    454.0   0.478565600   7.15332   0.35780   1.26169  -2.33097
  12   22500.1    444.4   0.001181225   0.01728  -0.09959   0.08419  -0.01668
  13   23221.9    430.6   0.124036222   1.75843   0.66146   0.88109   0.73796
  14   23646.6    422.9   0.513393518   7.14756   2.26546   0.50450  -1.32693
  15   23807.6    420.0   0.008288002   0.11461   0.13467  -0.20492  -0.23340
  16   23987.3    416.9   0.063523023   0.87182  -0.70649  -0.60658  -0.06897
  17   24569.9    407.0   0.019873628   0.26629   0.28267  -0.42800  -0.05658
  18   26210.4    381.5   0.028278620   0.35519   0.57612  -0.14209  -0.05555
  19   26368.1    379.2   0.019813727   0.24738  -0.44992   0.00187  -0.21202
  20   26905.6    371.7   0.128652606   1.57417  -1.20700   0.18614   0.28752
  21   27086.7    369.2   0.079638847   0.96793   0.41135   0.29973   0.84195
  22   27127.0    368.6   0.099487781   1.20738   1.01062   0.34776   0.25513
  23   27443.5    364.4   0.007957565   0.09546   0.23910   0.11112   0.16106
  24   27880.4    358.7   0.164703316   1.94482   0.22297   0.50800   1.27947
  25   28143.1    355.3   0.176295977   2.06228   0.06410  -1.24956  -0.70481
  26   28240.8    354.1   0.159979767   1.86494   0.47251   1.26991  -0.17034
  27   28778.7    347.5   0.020395499   0.23331  -0.41133  -0.17124  -0.18654
  28   28986.6    345.0   0.053884262   0.61198  -0.37147  -0.60273  -0.33273
  29   29121.6    343.4   0.033095135   0.37413  -0.20566   0.25762  -0.51523
  30   29379.1    340.4   0.169234932   1.89639   0.92398   0.81308  -0.61770
  31   30035.6    332.9   0.128168211   1.40482   0.23260   0.67478   0.94625
  32   30248.5    330.6   0.026216653   0.28533  -0.19282  -0.17835  -0.46513
  33   30260.3    330.5   0.009476185   0.10309  -0.17519  -0.11657  -0.24252
  34   30729.5    325.4   0.246361609   2.63933   0.55037   1.25430   0.87358
  35   30829.9    324.4   0.005050725   0.05393   0.09834  -0.06330  -0.20064
  36   31097.1    321.6   0.070372588   0.74500  -0.85650  -0.03454   0.10110
  37   31206.7    320.4   0.066436636   0.70087   0.18597   0.74686   0.32936
  38   31601.8    316.4   0.157599805   1.64180   0.96134   0.72318   0.44117
  39   31934.9    313.1   0.116054147   1.19638   0.84710   0.62688  -0.29298
  40   32032.7    312.2   0.185564986   1.90712   1.02220   0.41634   0.82999
  41   32655.3    306.2   0.005542763   0.05588   0.09679  -0.15837   0.14639
  42   32792.6    304.9   0.014534280   0.14591   0.23953  -0.22085   0.19940
  43   32833.8    304.6   0.000157815   0.00158  -0.03933   0.00588  -0.00075
  44   33553.0    298.0   0.012637034   0.12399  -0.31771  -0.06568   0.13688
  45   33595.5    297.7   0.022874536   0.22415  -0.42931   0.18114   0.08386
  46   33952.6    294.5   0.029235590   0.28347   0.51162  -0.02306  -0.14555
  47   33969.8    294.4   0.267086769   2.58842  -1.50156   0.49096   0.30444
  48   34044.6    293.7   0.006360769   0.06151  -0.17740  -0.08785  -0.14941
  49   34490.6    289.9   0.110853923   1.05810  -0.97304  -0.21318  -0.25660
  50   34580.1    289.2   0.108222044   1.03030  -0.57578   0.83215  -0.07939
  51   34853.5    286.9   0.000973046   0.00919  -0.09207  -0.02550  -0.00801
  52   34998.1    285.7   0.002294198   0.02158  -0.11804  -0.07782  -0.03990
  53   35169.3    284.3   0.093841783   0.87843   0.93420  -0.07136  -0.02474
  54   35609.3    280.8   0.063372909   0.58589   0.69056   0.27799  -0.17816
  55   35634.4    280.6   0.004675673   0.04320   0.08960   0.17837   0.05790
  56   36038.8    277.5   0.062902506   0.57461  -0.16175   0.72557   0.14832
  57   36097.3    277.0   0.018060362   0.16471   0.14486   0.22891  -0.30221
  58   36361.0    275.0   0.264515618   2.39492  -0.75844   1.31301  -0.30933
  59   36565.8    273.5   0.024846336   0.22370   0.39804   0.00051  -0.25546
  60   36845.4    271.4   0.010152446   0.09071   0.20672   0.21776   0.02362
  61   36943.6    270.7   0.080730968   0.71941  -0.64331   0.54653   0.08286
  62   37015.1    270.2   0.016516730   0.14690  -0.06540   0.37708  -0.02081
  63   37221.6    268.7   0.092351041   0.81681   0.24980  -0.80674  -0.32185
  64   37299.9    268.1   0.067822554   0.59861   0.42508  -0.53565  -0.36193
  65   37459.9    267.0   0.022528850   0.19799  -0.11204   0.41127  -0.12765
  66   37710.8    265.2   0.050008031   0.43657  -0.59627   0.27444  -0.07552
  67   37889.0    263.9   0.027439967   0.23842   0.18232   0.43794   0.11570
  68   38267.3    261.3   0.075008140   0.64529  -0.12190   0.70261   0.36982
  69   38313.0    261.0   0.035679042   0.30658   0.16906  -0.52364   0.06164
  70   38707.4    258.3   0.008005688   0.06809  -0.25148   0.05124   0.04712
  71   39036.2    256.2   0.039700393   0.33481   0.53185  -0.04444   0.22354
  72   39184.0    255.2   0.000326256   0.00274   0.02178  -0.02974   0.03718
  73   39376.7    254.0   0.012062655   0.10085  -0.30454  -0.02104  -0.08753
  74   39619.5    252.4   0.000156443   0.00130   0.00141   0.03551  -0.00606
  75   39808.9    251.2   0.007138067   0.05903   0.09723   0.21677   0.05088
  76   39857.2    250.9   0.036038940   0.29767  -0.24988   0.42025   0.24212
  77   39981.8    250.1   0.007062219   0.05815   0.16228   0.09784   0.14914
  78   40086.5    249.5   0.002065322   0.01696  -0.02050  -0.12115  -0.04317
  79   40226.5    248.6   0.069989566   0.57279  -0.32383   0.67849  -0.08704
  80   40269.4    248.3   0.102829778   0.84066   0.54082  -0.70783   0.21713

FINAL SINGLE POINT ENERGY     -4017.541571808034

DIPOLE MOMENT
-------------
                                X             Y             Z
Electronic contribution:    -10.96672      -4.02769      12.15875
Nuclear contribution   :     11.98790       4.54321     -14.36131
                        -----------------------------------------
Total Dipole Moment    :      1.02118       0.51552      -2.20256
                        -----------------------------------------
Magnitude (a.u.)       :      2.48190
Magnitude (Debye)      :      6.30849

Rotational constants in cm-1:     0.001264     0.000229     0.000217
Rotational constants in MHz :    37.884789     6.858358     6.493664

                             ****ORCA TERMINATED NORMALLY****
TOTAL RUN TIME: 0 days 0 hours 12 minutes 48 seconds 372 msec
