                         Program Version 4.2.0 -  RELEASE  -
|  1> # ORCA input file
|  2> # SCF done       -169.697633833861          0.000399490506
|  3> ! CAM-B3LYP def2-SVP def2/J RIJCOSX Grid4 TightSCF
|  4> %maxcore 5000
|  5> %tddft
|  6>     Mode sTDDFT
|  7>     Ethresh 5.0
|  8>     maxcore 5000
|  9> end
| 10>
| 11> %pal
| 12>   nprocs 6
| 13>   end
| 14> * xyz 0 1
| 15>    C        1.70056        -3.00213        -2.50888
| 16>    C        0.45340        -3.35213        -2.94925
| 17>    C        0.08812        -3.42974        -4.31064
| 18>    N       -0.25912        -3.53112        -5.39939
| 19>    C       -0.64727        -3.60428        -2.10262
| 20>    N       -1.59335        -3.76981        -1.47488
| 21>    C        2.77668        -2.48784        -3.35525
| 22>    C        3.72109        -1.82645        -2.54575
| 23>    C        4.83101        -1.21096        -3.08229
| 24>    C        5.01096        -1.25899        -4.46886
| 25>    C        4.07689        -1.92227        -5.28164
| 26>    C        2.95761        -2.53843        -4.72702
| 27>    C        4.30944        -1.95339        -6.75503
| 28>    O        5.31328        -1.55273        -7.28524
| 29>    O        3.27163        -2.47243        -7.41317
| 30>    C        3.39528        -2.52859        -8.82798
| 31>    C        6.15542        -0.61248        -5.00254
| 32>    N        7.10651        -0.04766        -5.30054
| 33>    C        3.31558        -1.93537        -1.12511
| 34>    O        3.85159        -1.44839        -0.15995
| 35>    C        2.12447        -2.83057        -1.13142
| 36>    C        1.70294        -3.38716         0.03143
| 37>    C        0.82778        -4.50537         0.20422
| 38>    C        0.80701        -5.60878        -0.66689
| 39>    N       -0.01464        -6.61390        -0.51828
| 40>    C       -0.85489        -6.58442         0.52996
| 41>    N       -0.84669        -5.63506         1.47277
| 42>    C       -0.03296        -4.62594         1.31206
| 43>    C       -1.79226        -7.65415         0.63874
| 44>    N       -1.82908        -8.66314        -0.27471
| 45>    C       -2.82298        -9.53109         0.04349
| 46>    C       -3.44376        -9.06068         1.20661
| 47>    C       -2.79782        -7.89139         1.57760
| 48>    C       -3.09923       -10.67102        -0.70228
| 49>    C       -3.33557       -11.67033        -1.34992
| 50>    C       -3.58614       -12.81417        -2.10024
| 51>    C       -4.69315       -13.57113        -1.94840
| 52>    C       -4.98225       -14.75501        -2.70868
| 53>    C       -6.26740       -15.32497        -2.70508
| 54>    N       -6.58372       -16.38096        -3.41627
| 55>    C       -5.63060       -16.91039        -4.18721
| 56>    N       -4.35987       -16.50971        -4.19950
| 57>    C       -4.04121       -15.46586        -3.47525
| 58>    C       -6.01194       -18.05314        -4.99265
| 59>    C       -5.47907       -18.36886        -6.19334
| 60>    C       -5.70928       -19.59091        -6.95934
| 61>    C       -6.56431       -20.60917        -6.64903
| 62>    C       -6.76673       -21.75373        -7.45528
| 63>    N       -6.99878       -22.69703        -8.06452
| 64>    C       -7.39305       -20.67077        -5.50528
| 65>    N       -8.09244       -20.81180        -4.60687
| 66>    C       -4.84557       -19.54041        -8.13653
| 67>    C       -4.18353       -18.29957        -8.16925
| 68>    C       -4.59250       -17.47843        -7.00565
| 69>    O       -4.34005       -16.31291        -6.83240
| 70>    C       -3.29830       -17.97057        -9.17307
| 71>    C       -3.05480       -18.90918       -10.18043
| 72>    C       -3.70624       -20.15334       -10.15346
| 73>    C       -4.59479       -20.47388        -9.13102
| 74>    C       -3.45874       -21.19488       -11.19708
| 75>    O       -3.61423       -22.37287       -11.00729
| 76>    O       -3.05815       -20.65902       -12.34785
| 77>    C       -2.76713       -21.56306       -13.40563
| 78>    C       -2.10893       -18.57133       -11.17996
| 79>    N       -1.31454       -18.22588       -11.92991
| 80>    H        5.54242        -0.70320        -2.44871
| 81>    H        2.26490        -3.04661        -5.37731
| 82>    H        2.45306        -2.92570        -9.19594
| 83>    H        4.22588        -3.17887        -9.10954
| 84>    H        3.57894        -1.53081        -9.23107
| 85>    H        2.13534        -2.96555         0.93384
| 86>    H        1.51733        -5.68720        -1.48256
| 87>    H       -0.07181        -3.85253         2.06820
| 88>    H       -1.20955        -8.71850        -1.06749
| 89>    H       -4.26530        -9.53557         1.70493
| 90>    H       -3.01283        -7.26516         2.41910
| 91>    H       -2.83682       -13.06298        -2.84099
| 92>    H       -5.44432       -13.26880        -1.22968
| 93>    H       -7.06320       -14.90096        -2.10440
| 94>    H       -2.99260       -15.19824        -3.48417
| 95>    H       -6.78541       -18.66615        -4.55045
| 96>    H       -2.79950       -17.01306        -9.17442
| 97>    H       -5.05616       -21.44883        -9.14681
| 98>    H       -3.69073       -22.00146       -13.78865
| 99>    H       -2.11568       -22.36329       -13.05004
|100>    H       -2.27398       -20.97447       -14.17446
|101> *
|102>
|103>                          ****END OF INPUT****

CARTESIAN COORDINATES (ANGSTROEM)
---------------------------------
  C      1.700560   -3.002130   -2.508880
  C      0.453400   -3.352130   -2.949250
  C      0.088120   -3.429740   -4.310640
  N     -0.259120   -3.531120   -5.399390
  C     -0.647270   -3.604280   -2.102620
  N     -1.593350   -3.769810   -1.474880
  C      2.776680   -2.487840   -3.355250
  C      3.721090   -1.826450   -2.545750
  C      4.831010   -1.210960   -3.082290
  C      5.010960   -1.258990   -4.468860
  C      4.076890   -1.922270   -5.281640
  C      2.957610   -2.538430   -4.727020
  C      4.309440   -1.953390   -6.755030
  O      5.313280   -1.552730   -7.285240
  O      3.271630   -2.472430   -7.413170
  C      3.395280   -2.528590   -8.827980
  C      6.155420   -0.612480   -5.002540
  N      7.106510   -0.047660   -5.300540
  C      3.315580   -1.935370   -1.125110
  O      3.851590   -1.448390   -0.159950
  C      2.124470   -2.830570   -1.131420
  C      1.702940   -3.387160    0.031430
  C      0.827780   -4.505370    0.204220
  C      0.807010   -5.608780   -0.666890
  N     -0.014640   -6.613900   -0.518280
  C     -0.854890   -6.584420    0.529960
  N     -0.846690   -5.635060    1.472770
  C     -0.032960   -4.625940    1.312060
  C     -1.792260   -7.654150    0.638740
  N     -1.829080   -8.663140   -0.274710
  C     -2.822980   -9.531090    0.043490
  C     -3.443760   -9.060680    1.206610
  C     -2.797820   -7.891390    1.577600
  C     -3.099230  -10.671020   -0.702280
  C     -3.335570  -11.670330   -1.349920
  C     -3.586140  -12.814170   -2.100240
  C     -4.693150  -13.571130   -1.948400
  C     -4.982250  -14.755010   -2.708680
  C     -6.267400  -15.324970   -2.705080
  N     -6.583720  -16.380960   -3.416270
  C     -5.630600  -16.910390   -4.187210
  N     -4.359870  -16.509710   -4.199500
  C     -4.041210  -15.465860   -3.475250
  C     -6.011940  -18.053140   -4.992650
  C     -5.479070  -18.368860   -6.193340
  C     -5.709280  -19.590910   -6.959340
  C     -6.564310  -20.609170   -6.649030
  C     -6.766730  -21.753730   -7.455280
  N     -6.998780  -22.697030   -8.064520
  C     -7.393050  -20.670770   -5.505280
  N     -8.092440  -20.811800   -4.606870
  C     -4.845570  -19.540410   -8.136530
  C     -4.183530  -18.299570   -8.169250
  C     -4.592500  -17.478430   -7.005650
  O     -4.340050  -16.312910   -6.832400
  C     -3.298300  -17.970570   -9.173070
  C     -3.054800  -18.909180  -10.180430
  C     -3.706240  -20.153340  -10.153460
  C     -4.594790  -20.473880   -9.131020
  C     -3.458740  -21.194880  -11.197080
  O     -3.614230  -22.372870  -11.007290
  O     -3.058150  -20.659020  -12.347850
  C     -2.767130  -21.563060  -13.405630
  C     -2.108930  -18.571330  -11.179960
  N     -1.314540  -18.225880  -11.929910
  H      5.542420   -0.703200   -2.448710
  H      2.264900   -3.046610   -5.377310
  H      2.453060   -2.925700   -9.195940
  H      4.225880   -3.178870   -9.109540
  H      3.578940   -1.530810   -9.231070
  H      2.135340   -2.965550    0.933840
  H      1.517330   -5.687200   -1.482560
  H     -0.071810   -3.852530    2.068200
  H     -1.209550   -8.718500   -1.067490
  H     -4.265300   -9.535570    1.704930
  H     -3.012830   -7.265160    2.419100
  H     -2.836820  -13.062980   -2.840990
  H     -5.444320  -13.268800   -1.229680
  H     -7.063200  -14.900960   -2.104400
  H     -2.992600  -15.198240   -3.484170
  H     -6.785410  -18.666150   -4.550450
  H     -2.799500  -17.013060   -9.174420
  H     -5.056160  -21.448830   -9.146810
  H     -3.690730  -22.001460  -13.788650
  H     -2.115680  -22.363290  -13.050040
  H     -2.273980  -20.974470  -14.174460

 Total Charge           Charge          ....    0
 Multiplicity           Mult            ....    1
 Number of Electrons    NEL             ....  434
 Basis Dimension        Dim             .... 1015

ORBITAL ENERGIES
----------------

  NO   OCC          E(Eh)            E(eV)
   0   2.0000     -19.281099      -524.6654
   1   2.0000     -19.276886      -524.5507
   2   2.0000     -19.240204      -523.5526
   3   2.0000     -19.232307      -523.3377
   4   2.0000     -19.225916      -523.1638
   5   2.0000     -19.221027      -523.0307
   6   2.0000     -14.476297      -393.9201
   7   2.0000     -14.436071      -392.8255
   8   2.0000     -14.435716      -392.8158
   9   2.0000     -14.433492      -392.7553
  10   2.0000     -14.430717      -392.6798
  11   2.0000     -14.429214      -392.6389
  12   2.0000     -14.428437      -392.6177
  13   2.0000     -14.428117      -392.6090
  14   2.0000     -14.427083      -392.5809
  15   2.0000     -14.416512      -392.2932
  16   2.0000     -14.412782      -392.1917
  17   2.0000     -10.423715      -283.6437
  18   2.0000     -10.419226      -283.5215
  19   2.0000     -10.390820      -282.7486
  20   2.0000     -10.383762      -282.5565
  21   2.0000     -10.369175      -282.1596
  22   2.0000     -10.369014      -282.1552
  23   2.0000     -10.365755      -282.0665
  24   2.0000     -10.363763      -282.0123
  25   2.0000     -10.359148      -281.8867
  26   2.0000     -10.357775      -281.8494
  27   2.0000     -10.352070      -281.6942
  28   2.0000     -10.348805      -281.6053
  29   2.0000     -10.348767      -281.6043
  30   2.0000     -10.345302      -281.5100
  31   2.0000     -10.340052      -281.3671
  32   2.0000     -10.337485      -281.2973
  33   2.0000     -10.337213      -281.2899
  34   2.0000     -10.336788      -281.2783
  35   2.0000     -10.336133      -281.2605
  36   2.0000     -10.335200      -281.2351
  37   2.0000     -10.335093      -281.2322
  38   2.0000     -10.334744      -281.2227
  39   2.0000     -10.331558      -281.1360
  40   2.0000     -10.331498      -281.1344
  41   2.0000     -10.331390      -281.1314
  42   2.0000     -10.331363      -281.1307
  43   2.0000     -10.330662      -281.1116
  44   2.0000     -10.329481      -281.0795
  45   2.0000     -10.329372      -281.0765
  46   2.0000     -10.326118      -280.9880
  47   2.0000     -10.324716      -280.9498
  48   2.0000     -10.324104      -280.9332
  49   2.0000     -10.323837      -280.9259
  50   2.0000     -10.321040      -280.8498
  51   2.0000     -10.320085      -280.8238
  52   2.0000     -10.318230      -280.7733
  53   2.0000     -10.317636      -280.7572
  54   2.0000     -10.316598      -280.7289
  55   2.0000     -10.314384      -280.6687
  56   2.0000     -10.314130      -280.6617
  57   2.0000     -10.313550      -280.6460
  58   2.0000     -10.312335      -280.6129
  59   2.0000     -10.311481      -280.5897
  60   2.0000     -10.304524      -280.4004
  61   2.0000     -10.292239      -280.0661
  62   2.0000     -10.289894      -280.0023
  63   2.0000     -10.275552      -279.6120
  64   2.0000     -10.275150      -279.6011
  65   2.0000      -1.214470       -33.0474
  66   2.0000      -1.210229       -32.9320
  67   2.0000      -1.155819       -31.4514
  68   2.0000      -1.148701       -31.2577
  69   2.0000      -1.120597       -30.4930
  70   2.0000      -1.115556       -30.3558
  71   2.0000      -1.111586       -30.2478
  72   2.0000      -1.100694       -29.9514
  73   2.0000      -1.090190       -29.6656
  74   2.0000      -1.042294       -28.3623
  75   2.0000      -1.035271       -28.1712
  76   2.0000      -1.024223       -27.8705
  77   2.0000      -1.019383       -27.7388
  78   2.0000      -1.013927       -27.5904
  79   2.0000      -1.007110       -27.4048
  80   2.0000      -1.001918       -27.2636
  81   2.0000      -1.001190       -27.2438
  82   2.0000      -1.000812       -27.2335
  83   2.0000      -0.994906       -27.0728
  84   2.0000      -0.978338       -26.6219
  85   2.0000      -0.973678       -26.4951
  86   2.0000      -0.946786       -25.7634
  87   2.0000      -0.944855       -25.7108
  88   2.0000      -0.928043       -25.2533
  89   2.0000      -0.921991       -25.0886
  90   2.0000      -0.914028       -24.8720
  91   2.0000      -0.901142       -24.5213
  92   2.0000      -0.898810       -24.4579
  93   2.0000      -0.893580       -24.3156
  94   2.0000      -0.886184       -24.1143
  95   2.0000      -0.883970       -24.0540
  96   2.0000      -0.866986       -23.5919
  97   2.0000      -0.847111       -23.0511
  98   2.0000      -0.839278       -22.8379
  99   2.0000      -0.832091       -22.6423
 100   2.0000      -0.820982       -22.3401
 101   2.0000      -0.806845       -21.9554
 102   2.0000      -0.793922       -21.6037
 103   2.0000      -0.789307       -21.4781
 104   2.0000      -0.774346       -21.0710
 105   2.0000      -0.769803       -20.9474
 106   2.0000      -0.763974       -20.7888
 107   2.0000      -0.759241       -20.6600
 108   2.0000      -0.747407       -20.3380
 109   2.0000      -0.741287       -20.1715
 110   2.0000      -0.715980       -19.4828
 111   2.0000      -0.711513       -19.3612
 112   2.0000      -0.708445       -19.2778
 113   2.0000      -0.705447       -19.1962
 114   2.0000      -0.697062       -18.9680
 115   2.0000      -0.693491       -18.8708
 116   2.0000      -0.681644       -18.5485
 117   2.0000      -0.681189       -18.5361
 118   2.0000      -0.679775       -18.4976
 119   2.0000      -0.679060       -18.4782
 120   2.0000      -0.669319       -18.2131
 121   2.0000      -0.663976       -18.0677
 122   2.0000      -0.645450       -17.5636
 123   2.0000      -0.642462       -17.4823
 124   2.0000      -0.641302       -17.4507
 125   2.0000      -0.639183       -17.3930
 126   2.0000      -0.637097       -17.3363
 127   2.0000      -0.629516       -17.1300
 128   2.0000      -0.608974       -16.5710
 129   2.0000      -0.608713       -16.5639
 130   2.0000      -0.602575       -16.3969
 131   2.0000      -0.596368       -16.2280
 132   2.0000      -0.595149       -16.1948
 133   2.0000      -0.593987       -16.1632
 134   2.0000      -0.590778       -16.0759
 135   2.0000      -0.583086       -15.8666
 136   2.0000      -0.579072       -15.7574
 137   2.0000      -0.568311       -15.4645
 138   2.0000      -0.566055       -15.4031
 139   2.0000      -0.563129       -15.3235
 140   2.0000      -0.560277       -15.2459
 141   2.0000      -0.558926       -15.2091
 142   2.0000      -0.558002       -15.1840
 143   2.0000      -0.555630       -15.1195
 144   2.0000      -0.555009       -15.1026
 145   2.0000      -0.551510       -15.0074
 146   2.0000      -0.546574       -14.8730
 147   2.0000      -0.545039       -14.8313
 148   2.0000      -0.535535       -14.5727
 149   2.0000      -0.535236       -14.5645
 150   2.0000      -0.531489       -14.4626
 151   2.0000      -0.531002       -14.4493
 152   2.0000      -0.529573       -14.4104
 153   2.0000      -0.526980       -14.3398
 154   2.0000      -0.526241       -14.3198
 155   2.0000      -0.522762       -14.2251
 156   2.0000      -0.517603       -14.0847
 157   2.0000      -0.515665       -14.0319
 158   2.0000      -0.513791       -13.9810
 159   2.0000      -0.513435       -13.9713
 160   2.0000      -0.510412       -13.8890
 161   2.0000      -0.508494       -13.8368
 162   2.0000      -0.503009       -13.6876
 163   2.0000      -0.498138       -13.5550
 164   2.0000      -0.496133       -13.5005
 165   2.0000      -0.493315       -13.4238
 166   2.0000      -0.487536       -13.2665
 167   2.0000      -0.485628       -13.2146
 168   2.0000      -0.482225       -13.1220
 169   2.0000      -0.480403       -13.0724
 170   2.0000      -0.480183       -13.0664
 171   2.0000      -0.477358       -12.9896
 172   2.0000      -0.469010       -12.7624
 173   2.0000      -0.462319       -12.5803
 174   2.0000      -0.460352       -12.5268
 175   2.0000      -0.456411       -12.4196
 176   2.0000      -0.455972       -12.4076
 177   2.0000      -0.454660       -12.3719
 178   2.0000      -0.453598       -12.3430
 179   2.0000      -0.451547       -12.2872
 180   2.0000      -0.449781       -12.2392
 181   2.0000      -0.448461       -12.2032
 182   2.0000      -0.446894       -12.1606
 183   2.0000      -0.445685       -12.1277
 184   2.0000      -0.441378       -12.0105
 185   2.0000      -0.439805       -11.9677
 186   2.0000      -0.438364       -11.9285
 187   2.0000      -0.437381       -11.9017
 188   2.0000      -0.425985       -11.5916
 189   2.0000      -0.424210       -11.5433
 190   2.0000      -0.423033       -11.5113
 191   2.0000      -0.421755       -11.4765
 192   2.0000      -0.413697       -11.2573
 193   2.0000      -0.413302       -11.2465
 194   2.0000      -0.407686       -11.0937
 195   2.0000      -0.405269       -11.0279
 196   2.0000      -0.403806       -10.9881
 197   2.0000      -0.397806       -10.8249
 198   2.0000      -0.396855       -10.7990
 199   2.0000      -0.392614       -10.6836
 200   2.0000      -0.389565       -10.6006
 201   2.0000      -0.377570       -10.2742
 202   2.0000      -0.372725       -10.1424
 203   2.0000      -0.368333       -10.0228
 204   2.0000      -0.367904       -10.0112
 205   2.0000      -0.363410        -9.8889
 206   2.0000      -0.361752        -9.8438
 207   2.0000      -0.360928        -9.8214
 208   2.0000      -0.353422        -9.6171
 209   2.0000      -0.347986        -9.4692
 210   2.0000      -0.342984        -9.3331
 211   2.0000      -0.342419        -9.3177
 212   2.0000      -0.334180        -9.0935
 213   2.0000      -0.330728        -8.9996
 214   2.0000      -0.326470        -8.8837
 215   2.0000      -0.311381        -8.4731
 216   2.0000      -0.261624        -7.1191
 217   0.0000      -0.113724        -3.0946
 218   0.0000      -0.108423        -2.9503
 219   0.0000      -0.092363        -2.5133
 220   0.0000      -0.086269        -2.3475
 221   0.0000      -0.055299        -1.5048

MULLIKEN ATOMIC CHARGES
-----------------------
   0 C :    0.270785
   1 C :   -0.327100
   2 C :   -0.180003
   3 N :    0.169264
   4 C :   -0.194417
   5 N :    0.184230
   6 C :    0.044249
   7 C :    0.008116
   8 C :   -0.039013
   9 C :   -0.092480
  10 C :    0.043274
  11 C :   -0.054716
  12 C :    0.186846
  13 O :   -0.170989
  14 O :   -0.291880
  15 C :    0.190933
  16 C :   -0.148282
  17 N :    0.147698
  18 C :    0.142224
  19 O :   -0.120538
  20 C :   -0.125444
  21 C :    0.058207
  22 C :   -0.050673
  23 C :    0.058991
  24 N :   -0.080617
  25 C :   -0.076088
  26 N :   -0.030865
  27 C :    0.073106
  28 C :    0.107020
  29 N :   -0.010232
  30 C :    0.024937
  31 C :   -0.000716
  32 C :   -0.018744
  33 C :    0.106150
  34 C :   -0.077807
  35 C :   -0.068583
  36 C :    0.015488
  37 C :    0.018713
  38 C :    0.032409
  39 N :   -0.042643
  40 C :   -0.079583
  41 N :   -0.032351
  42 C :    0.041572
  43 C :    0.033718
  44 C :   -0.051924
  45 C :    0.307539
  46 C :   -0.329032
  47 C :   -0.194224
  48 N :    0.177676
  49 C :   -0.189042
  50 N :    0.173528
  51 C :    0.060942
  52 C :   -0.003950
  53 C :    0.154870
  54 O :   -0.108774
  55 C :   -0.035436
  56 C :   -0.078594
  57 C :    0.073078
  58 C :   -0.071064
  59 C :    0.165840
  60 O :   -0.183553
  61 O :   -0.290958
  62 C :    0.187101
  63 C :   -0.151230
  64 N :    0.137366
  65 H :    0.018078
  66 H :    0.020524
  67 H :    0.046575
  68 H :    0.038482
  69 H :    0.040633
  70 H :    0.035662
  71 H :    0.017157
  72 H :    0.014064
  73 H :    0.130979
  74 H :   -0.020205
  75 H :   -0.009330
  76 H :    0.035556
  77 H :    0.008670
  78 H :    0.010563
  79 H :    0.009561
  80 H :    0.041915
  81 H :    0.013198
  82 H :    0.024261
  83 H :    0.037694
  84 H :    0.042342
  85 H :    0.049294
Sum of atomic charges:   -0.0000000

LOEWDIN ATOMIC CHARGES
----------------------
   0 C :    0.062201
   1 C :   -0.122917
   2 C :   -0.021830
   3 N :   -0.034764
   4 C :   -0.019174
   5 N :   -0.032289
   6 C :   -0.004342
   7 C :   -0.033790
   8 C :    0.047138
   9 C :   -0.021904
  10 C :   -0.026854
  11 C :    0.026041
  12 C :    0.085846
  13 O :   -0.137032
  14 O :   -0.079410
  15 C :    0.087260
  16 C :   -0.034985
  17 N :   -0.026952
  18 C :    0.084631
  19 O :   -0.122776
  20 C :   -0.090666
  21 C :    0.082655
  22 C :   -0.104676
  23 C :    0.067172
  24 N :   -0.094265
  25 C :    0.047017
  26 N :   -0.070320
  27 C :    0.079110
  28 C :   -0.031207
  29 N :    0.126381
  30 C :   -0.019113
  31 C :   -0.039361
  32 C :   -0.021644
  33 C :   -0.036086
  34 C :   -0.029210
  35 C :   -0.021993
  36 C :   -0.005034
  37 C :   -0.056183
  38 C :    0.048067
  39 N :   -0.062654
  40 C :    0.010693
  41 N :   -0.050066
  42 C :    0.056138
  43 C :    0.072949
  44 C :   -0.065151
  45 C :    0.068036
  46 C :   -0.112286
  47 C :   -0.022147
  48 N :   -0.028010
  49 C :   -0.021228
  50 N :   -0.028047
  51 C :   -0.003784
  52 C :   -0.031585
  53 C :    0.083732
  54 O :   -0.107507
  55 C :    0.045215
  56 C :   -0.032706
  57 C :   -0.022034
  58 C :    0.035074
  59 C :    0.083911
  60 O :   -0.154668
  61 O :   -0.065835
  62 C :    0.088485
  63 C :   -0.033879
  64 N :   -0.041386
  65 H :    0.053526
  66 H :    0.045141
  67 H :    0.031523
  68 H :    0.027039
  69 H :    0.027932
  70 H :    0.051286
  71 H :    0.026918
  72 H :    0.031027
  73 H :    0.094836
  74 H :    0.031097
  75 H :    0.034623
  76 H :    0.045322
  77 H :    0.038604
  78 H :    0.028423
  79 H :    0.026126
  80 H :    0.052119
  81 H :    0.051407
  82 H :    0.049275
  83 H :    0.027275
  84 H :    0.027595
  85 H :    0.032903

  Mayer bond orders larger than 0.100000
B(  0-C ,  1-C ) :   1.6778 B(  0-C ,  6-C ) :   0.9969 B(  0-C , 20-C ) :   1.0169
B(  1-C ,  2-C ) :   1.1287 B(  1-C ,  4-C ) :   1.1604 B(  2-C ,  3-N ) :   2.9855
B(  4-C ,  5-N ) :   3.0006 B(  6-C ,  7-C ) :   1.3309 B(  6-C , 11-C ) :   1.3320
B(  7-C ,  8-C ) :   1.3575 B(  7-C , 18-C ) :   0.9028 B(  8-C ,  9-C ) :   1.3677
B(  8-C , 65-H ) :   1.0169 B(  9-C , 10-C ) :   1.3940 B(  9-C , 16-C ) :   1.0639
B( 10-C , 11-C ) :   1.3386 B( 10-C , 12-C ) :   0.8792 B( 11-C , 66-H ) :   0.9870
B( 12-C , 13-O ) :   2.1144 B( 12-C , 14-O ) :   1.2580 B( 14-O , 15-C ) :   0.9072
B( 15-C , 67-H ) :   0.9809 B( 15-C , 68-H ) :   0.9767 B( 15-C , 69-H ) :   0.9751
B( 16-C , 17-N ) :   3.0350 B( 18-C , 19-O ) :   2.2891 B( 18-C , 20-C ) :   0.9345
B( 20-C , 21-C ) :   1.7186 B( 21-C , 22-C ) :   1.0381 B( 21-C , 70-H ) :   0.9450
B( 22-C , 23-C ) :   1.2940 B( 22-C , 27-C ) :   1.2799 B( 23-C , 24-N ) :   1.6041
B( 23-C , 71-H ) :   0.9834 B( 24-N , 25-C ) :   1.4849 B( 25-C , 26-N ) :   1.5868
B( 25-C , 28-C ) :   1.0211 B( 26-N , 27-C ) :   1.6020 B( 27-C , 72-H ) :   0.9901
B( 28-C , 29-N ) :   1.2535 B( 28-C , 30-C ) :   0.1295 B( 28-C , 32-C ) :   1.4011
B( 29-N , 30-C ) :   1.2661 B( 29-N , 73-H ) :   0.9197 B( 30-C , 31-C ) :   1.3930
B( 30-C , 33-C ) :   0.8200 B( 31-C , 32-C ) :   1.3422 B( 31-C , 74-H ) :   1.0159
B( 32-C , 75-H ) :   1.0081 B( 33-C , 34-C ) :   2.2316 B( 34-C , 35-C ) :   1.0178
B( 35-C , 36-C ) :   1.7246 B( 35-C , 76-H ) :   0.9511 B( 36-C , 37-C ) :   1.0751
B( 36-C , 77-H ) :   0.9824 B( 37-C , 38-C ) :   1.3096 B( 37-C , 42-C ) :   1.2946
B( 38-C , 39-N ) :   1.5744 B( 38-C , 78-H ) :   0.9893 B( 39-N , 40-C ) :   1.5175
B( 40-C , 41-N ) :   1.4841 B( 40-C , 43-C ) :   1.0135 B( 41-N , 42-C ) :   1.5921
B( 42-C , 79-H ) :   0.9825 B( 43-C , 44-C ) :   1.7223 B( 43-C , 80-H ) :   0.9361
B( 44-C , 45-C ) :   1.0429 B( 44-C , 53-C ) :   0.9134 B( 45-C , 46-C ) :   1.6761
B( 45-C , 51-C ) :   0.9850 B( 46-C , 47-C ) :   1.1374 B( 46-C , 49-C ) :   1.1377
B( 47-C , 48-N ) :   2.9776 B( 49-C , 50-N ) :   2.9755 B( 51-C , 52-C ) :   1.3327
B( 51-C , 58-C ) :   1.3203 B( 52-C , 53-C ) :   0.9159 B( 52-C , 55-C ) :   1.3610
B( 53-C , 54-O ) :   2.2788 B( 55-C , 56-C ) :   1.3643 B( 55-C , 81-H ) :   1.0141
B( 56-C , 57-C ) :   1.3653 B( 56-C , 63-C ) :   1.0690 B( 57-C , 58-C ) :   1.3869
B( 57-C , 59-C ) :   0.8690 B( 58-C , 82-H ) :   0.9867 B( 59-C , 60-O ) :   2.1319
B( 59-C , 61-O ) :   1.2388 B( 61-O , 62-C ) :   0.9054 B( 62-C , 83-H ) :   0.9799
B( 62-C , 84-H ) :   0.9727 B( 62-C , 85-H ) :   0.9800 B( 63-C , 64-N ) :   3.0458

-----------------------------------------------------------------------------
         ABSORPTION SPECTRUM VIA TRANSITION ELECTRIC DIPOLE MOMENTS
-----------------------------------------------------------------------------
State   Energy  Wavelength   fosc         T2         TX        TY        TZ
        (cm-1)    (nm)                  (au**2)     (au)      (au)      (au)
-----------------------------------------------------------------------------
   0   17877.8    559.4   0.859905093  15.83481  -1.87051  -3.50988   0.12927
   1   21165.1    472.5   0.723683881  11.25652   0.87199   2.50473   2.05486
   2   24510.2    408.0   0.254258436   3.41510  -1.14138  -1.45166   0.07090
   3   24908.0    401.5   0.042070615   0.55605   0.46686   0.17356  -0.55495
   4   26583.2    376.2   0.068400505   0.84709   0.02065  -0.46169  -0.79593
   5   27278.9    366.6   0.051958469   0.62705   0.24210  -0.16125   0.73650
   6   28235.1    354.2   0.001180886   0.01377   0.05144  -0.08133  -0.06714
   7   29568.9    338.2   0.189078122   2.10514  -0.74299  -0.61383  -1.08459
   8   29874.1    334.7   0.045152711   0.49758   0.09676   0.67479  -0.18133
   9   30465.1    328.2   0.077934720   0.84218  -0.65124  -0.64270   0.07076
  10   30734.7    325.4   0.058742187   0.62921   0.14498   0.41677   0.65916
  11   31253.2    320.0   0.606667474   6.39046  -1.47088  -2.03000  -0.32573
  12   31797.9    314.5   0.029060652   0.30087   0.52674  -0.00703  -0.15285
  13   32107.4    311.5   0.126386747   1.29590   0.17029   0.95685   0.59274
  14   32452.2    308.1   0.049824195   0.50544  -0.52131   0.11134   0.47041
  15   34039.4    293.8   0.507076605   4.90418   1.60704   0.34316  -1.48453
  16   34056.6    293.6   0.287007940   2.77440   1.30336   0.68993  -0.77436
  17   34593.0    289.1   0.222344798   2.11599  -1.09513  -0.76330  -0.57797
  18   35117.4    284.8   0.202764009   1.90083   1.06406   0.26639  -0.83525
  19   35241.5    283.8   0.011376032   0.10627   0.23473  -0.15184  -0.16767
  20   35543.0    281.3   0.097279570   0.90104  -0.66292  -0.52458   0.43173
  21   36025.0    277.6   0.013058007   0.11933   0.25144  -0.07655  -0.22416
  22   36492.8    274.0   0.200248631   1.80650   0.85916   0.28399  -0.99383
  23   36570.9    273.4   0.010232780   0.09212  -0.10945  -0.25164  -0.12967
  24   36848.4    271.4   0.055626764   0.49698  -0.32934  -0.44695   0.43445
  25   37004.3    270.2   0.137853384   1.22642   0.81050   0.53950  -0.52769
  26   37869.0    264.1   0.032700496   0.28428  -0.32351  -0.42335  -0.01981
  27   38582.8    259.2   0.378079846   3.22601   1.12501   1.09956  -0.86679
  28   38769.2    257.9   0.196891695   1.67192   0.84493   0.58514   0.78462
  29   39128.2    255.6   0.046310764   0.38964  -0.50342  -0.06086   0.36401
  30   39271.6    254.6   0.122492064   1.02684  -0.11838   0.69920   0.72384
  31   39501.6    253.2   0.024562145   0.20470  -0.35367  -0.25945  -0.11093
  32   40129.5    249.2   0.029853468   0.24491  -0.47971  -0.07823  -0.09309

FINAL SINGLE POINT ENERGY     -2891.593414683482

DIPOLE MOMENT
-------------
                                X             Y             Z
Electronic contribution:     -2.42183       1.06703       7.53834
Nuclear contribution   :      2.86258      -0.24422      -6.62459
                        -----------------------------------------
Total Dipole Moment    :      0.44075       0.82281       0.91375
                        -----------------------------------------
Magnitude (a.u.)       :      1.30622
Magnitude (Debye)      :      3.32016

Rotational constants in cm-1:     0.001466     0.000260     0.000225
Rotational constants in MHz :    43.941143     7.803124     6.741251

                             ****ORCA TERMINATED NORMALLY****
TOTAL RUN TIME: 0 days 0 hours 7 minutes 11 seconds 597 msec
