                         Program Version 4.2.0 -  RELEASE  -
|  1> # ORCA input file
|  2> # SCF done       -162.585736347902          0.000623652261
|  3> ! CAM-B3LYP def2-SVP def2/J RIJCOSX Grid4 TightSCF
|  4> %maxcore 5000
|  5> %tddft
|  6>     Mode sTDDFT
|  7>     Ethresh 5.0
|  8>     maxcore 5000
|  9> end
| 10>
| 11> %pal
| 12>   nprocs 6
| 13>   end
| 14> * xyz 0 1
| 15>    C        2.29872        -2.75107        -2.56387
| 16>    C        2.54635        -4.06063        -2.86163
| 17>    C        2.84280        -4.52952        -4.16151
| 18>    N        3.09106        -4.96089        -5.19414
| 19>    C        2.63063        -5.08465        -1.89324
| 20>    N        2.75337        -5.94130        -1.14046
| 21>    C        2.42658        -1.63249        -3.49552
| 22>    C        2.58860        -0.44050        -2.76139
| 23>    C        2.76162         0.77635        -3.38518
| 24>    C        2.76676         0.81248        -4.78384
| 25>    C        2.58508        -0.36873        -5.52114
| 26>    C        2.41172        -1.59232        -4.87930
| 27>    C        2.52896        -0.36877        -7.01613
| 28>    O        1.95634        -1.21501        -7.65226
| 29>    O        3.18194         0.66475        -7.53864
| 30>    C        3.16727         0.78265        -8.95576
| 31>    C        2.91292         2.07783        -5.40601
| 32>    N        3.00916         3.14087        -5.82200
| 33>    C        2.49678        -0.73384        -1.31344
| 34>    O        2.63854         0.02407        -0.38716
| 35>    C        2.11718        -2.17706        -1.23939
| 36>    C        1.59445        -2.67246        -0.09575
| 37>    C        0.87640        -3.90470         0.07623
| 38>    C        0.94519        -4.66416         1.25552
| 39>    N        0.27644        -5.77864         1.41852
| 40>    C       -0.46830        -6.21529         0.40324
| 41>    N       -0.64384        -5.54653        -0.73660
| 42>    C       -0.01137        -4.41068        -0.88692
| 43>    C       -1.15857        -7.48510         0.55563
| 44>    C       -1.08297        -8.24294         1.72993
| 45>    N       -1.72442        -9.38205         1.86907
| 46>    C       -2.45039        -9.81090         0.83600
| 47>    N       -2.57090        -9.17690        -0.33121
| 48>    C       -1.94153        -8.03162        -0.46788
| 49>    C       -3.17074       -11.06820         0.99094
| 50>    C       -3.14550       -11.80385         2.17957
| 51>    N       -3.81647       -12.92810         2.32105
| 52>    C       -4.54183       -13.33864         1.28426
| 53>    N       -4.59369       -12.74540         0.09284
| 54>    C       -3.92179       -11.62492        -0.05062
| 55>    C       -5.29280       -14.58255         1.44286
| 56>    C       -6.58270       -14.71327         1.08483
| 57>    C       -7.38883       -15.93280         1.03774
| 58>    C       -6.99564       -17.18605         1.40421
| 59>    C       -7.80658       -18.34173         1.30825
| 60>    N       -8.39870       -19.32184         1.25472
| 61>    C       -5.72659       -17.51962         1.93225
| 62>    N       -4.72494       -17.87562         2.36263
| 63>    C       -8.69323       -15.57179         0.48927
| 64>    C       -8.73453       -14.18297         0.26230
| 65>    C       -7.45776       -13.56522         0.68461
| 66>    O       -7.22091       -12.38792         0.77782
| 67>    C       -9.85181       -13.56065        -0.25221
| 68>    C      -10.96260       -14.34551        -0.57620
| 69>    C      -10.92892       -15.73331        -0.36024
| 70>    C       -9.80315       -16.34543         0.18350
| 71>    C      -12.09538       -16.61285        -0.68083
| 72>    O      -12.27640       -17.68541        -0.16649
| 73>    O      -12.88830       -16.07095        -1.60189
| 74>    C      -14.04349       -16.81480        -1.96720
| 75>    C      -12.10822       -13.68356        -1.08426
| 76>    N      -12.99584       -13.06546        -1.46191
| 77>    H        2.88439         1.68034        -2.80784
| 78>    H        2.25318        -2.47099        -5.48542
| 79>    H        2.15548         0.63254        -9.33652
| 80>    H        3.82872         0.03626        -9.39980
| 81>    H        3.52033         1.78656        -9.17585
| 82>    H        1.67106        -2.02979         0.77581
| 83>    H        1.58180        -4.36278         2.07707
| 84>    H       -0.23636        -3.85304        -1.78875
| 85>    H       -0.48950        -7.90788         2.56974
| 86>    H       -2.05269        -7.52077        -1.41476
| 87>    H       -2.56673       -11.46877         3.02933
| 88>    H       -3.96865       -11.14579        -1.01872
| 89>    H       -4.73172       -15.40647         1.86179
| 90>    H       -9.86446       -12.49170        -0.40333
| 91>    H       -9.83587       -17.41116         0.34840
| 92>    H      -14.65081       -16.14552        -2.57046
| 93>    H      -14.58484       -17.13436        -1.07505
| 94>    H      -13.75487       -17.69711        -2.54179
| 95> *
| 96>
| 97>                          ****END OF INPUT****

CARTESIAN COORDINATES (ANGSTROEM)
---------------------------------
  C      2.298720   -2.751070   -2.563870
  C      2.546350   -4.060630   -2.861630
  C      2.842800   -4.529520   -4.161510
  N      3.091060   -4.960890   -5.194140
  C      2.630630   -5.084650   -1.893240
  N      2.753370   -5.941300   -1.140460
  C      2.426580   -1.632490   -3.495520
  C      2.588600   -0.440500   -2.761390
  C      2.761620    0.776350   -3.385180
  C      2.766760    0.812480   -4.783840
  C      2.585080   -0.368730   -5.521140
  C      2.411720   -1.592320   -4.879300
  C      2.528960   -0.368770   -7.016130
  O      1.956340   -1.215010   -7.652260
  O      3.181940    0.664750   -7.538640
  C      3.167270    0.782650   -8.955760
  C      2.912920    2.077830   -5.406010
  N      3.009160    3.140870   -5.822000
  C      2.496780   -0.733840   -1.313440
  O      2.638540    0.024070   -0.387160
  C      2.117180   -2.177060   -1.239390
  C      1.594450   -2.672460   -0.095750
  C      0.876400   -3.904700    0.076230
  C      0.945190   -4.664160    1.255520
  N      0.276440   -5.778640    1.418520
  C     -0.468300   -6.215290    0.403240
  N     -0.643840   -5.546530   -0.736600
  C     -0.011370   -4.410680   -0.886920
  C     -1.158570   -7.485100    0.555630
  C     -1.082970   -8.242940    1.729930
  N     -1.724420   -9.382050    1.869070
  C     -2.450390   -9.810900    0.836000
  N     -2.570900   -9.176900   -0.331210
  C     -1.941530   -8.031620   -0.467880
  C     -3.170740  -11.068200    0.990940
  C     -3.145500  -11.803850    2.179570
  N     -3.816470  -12.928100    2.321050
  C     -4.541830  -13.338640    1.284260
  N     -4.593690  -12.745400    0.092840
  C     -3.921790  -11.624920   -0.050620
  C     -5.292800  -14.582550    1.442860
  C     -6.582700  -14.713270    1.084830
  C     -7.388830  -15.932800    1.037740
  C     -6.995640  -17.186050    1.404210
  C     -7.806580  -18.341730    1.308250
  N     -8.398700  -19.321840    1.254720
  C     -5.726590  -17.519620    1.932250
  N     -4.724940  -17.875620    2.362630
  C     -8.693230  -15.571790    0.489270
  C     -8.734530  -14.182970    0.262300
  C     -7.457760  -13.565220    0.684610
  O     -7.220910  -12.387920    0.777820
  C     -9.851810  -13.560650   -0.252210
  C    -10.962600  -14.345510   -0.576200
  C    -10.928920  -15.733310   -0.360240
  C     -9.803150  -16.345430    0.183500
  C    -12.095380  -16.612850   -0.680830
  O    -12.276400  -17.685410   -0.166490
  O    -12.888300  -16.070950   -1.601890
  C    -14.043490  -16.814800   -1.967200
  C    -12.108220  -13.683560   -1.084260
  N    -12.995840  -13.065460   -1.461910
  H      2.884390    1.680340   -2.807840
  H      2.253180   -2.470990   -5.485420
  H      2.155480    0.632540   -9.336520
  H      3.828720    0.036260   -9.399800
  H      3.520330    1.786560   -9.175850
  H      1.671060   -2.029790    0.775810
  H      1.581800   -4.362780    2.077070
  H     -0.236360   -3.853040   -1.788750
  H     -0.489500   -7.907880    2.569740
  H     -2.052690   -7.520770   -1.414760
  H     -2.566730  -11.468770    3.029330
  H     -3.968650  -11.145790   -1.018720
  H     -4.731720  -15.406470    1.861790
  H     -9.864460  -12.491700   -0.403330
  H     -9.835870  -17.411160    0.348400
  H    -14.650810  -16.145520   -2.570460
  H    -14.584840  -17.134360   -1.075050
  H    -13.754870  -17.697110   -2.541790

 Total Charge           Charge          ....    0
 Multiplicity           Mult            ....    1
 Number of Electrons    NEL             ....  414
 Basis Dimension        Dim             ....  958

ORBITAL ENERGIES
----------------

  NO   OCC          E(Eh)            E(eV)
   0   2.0000     -19.285402      -524.7825
   1   2.0000     -19.276132      -524.5302
   2   2.0000     -19.248695      -523.7836
   3   2.0000     -19.232924      -523.3545
   4   2.0000     -19.230034      -523.2758
   5   2.0000     -19.220194      -523.0081
   6   2.0000     -14.443159      -393.0183
   7   2.0000     -14.440587      -392.9483
   8   2.0000     -14.440557      -392.9475
   9   2.0000     -14.439545      -392.9200
  10   2.0000     -14.430098      -392.6629
  11   2.0000     -14.427987      -392.6055
  12   2.0000     -14.426834      -392.5741
  13   2.0000     -14.426588      -392.5674
  14   2.0000     -14.424970      -392.5234
  15   2.0000     -14.421040      -392.4164
  16   2.0000     -14.418784      -392.3551
  17   2.0000     -14.415279      -392.2597
  18   2.0000     -10.428589      -283.7763
  19   2.0000     -10.418583      -283.5041
  20   2.0000     -10.399281      -282.9788
  21   2.0000     -10.383297      -282.5439
  22   2.0000     -10.377681      -282.3911
  23   2.0000     -10.377540      -282.3872
  24   2.0000     -10.372639      -282.2539
  25   2.0000     -10.364532      -282.0332
  26   2.0000     -10.363468      -282.0043
  27   2.0000     -10.359674      -281.9011
  28   2.0000     -10.357594      -281.8445
  29   2.0000     -10.356964      -281.8273
  30   2.0000     -10.356070      -281.8030
  31   2.0000     -10.354562      -281.7620
  32   2.0000     -10.348210      -281.5891
  33   2.0000     -10.347373      -281.5663
  34   2.0000     -10.344575      -281.4902
  35   2.0000     -10.343782      -281.4686
  36   2.0000     -10.343098      -281.4500
  37   2.0000     -10.341039      -281.3940
  38   2.0000     -10.337270      -281.2914
  39   2.0000     -10.337134      -281.2877
  40   2.0000     -10.337064      -281.2858
  41   2.0000     -10.336981      -281.2836
  42   2.0000     -10.331955      -281.1468
  43   2.0000     -10.331492      -281.1342
  44   2.0000     -10.331085      -281.1231
  45   2.0000     -10.331035      -281.1218
  46   2.0000     -10.330774      -281.1147
  47   2.0000     -10.330615      -281.1103
  48   2.0000     -10.330007      -281.0938
  49   2.0000     -10.328662      -281.0572
  50   2.0000     -10.327769      -281.0329
  51   2.0000     -10.326516      -280.9988
  52   2.0000     -10.326393      -280.9954
  53   2.0000     -10.325804      -280.9794
  54   2.0000     -10.324213      -280.9361
  55   2.0000     -10.323206      -280.9087
  56   2.0000     -10.319481      -280.8074
  57   2.0000     -10.316460      -280.7251
  58   2.0000     -10.316337      -280.7218
  59   2.0000     -10.316259      -280.7197
  60   2.0000     -10.304924      -280.4112
  61   2.0000     -10.298063      -280.2245
  62   2.0000      -1.218921       -33.1685
  63   2.0000      -1.209664       -32.9166
  64   2.0000      -1.164645       -31.6916
  65   2.0000      -1.149403       -31.2768
  66   2.0000      -1.124523       -30.5998
  67   2.0000      -1.117356       -30.4048
  68   2.0000      -1.114952       -30.3394
  69   2.0000      -1.102054       -29.9884
  70   2.0000      -1.091751       -29.7080
  71   2.0000      -1.049238       -28.5512
  72   2.0000      -1.034471       -28.1494
  73   2.0000      -1.031177       -28.0597
  74   2.0000      -1.019605       -27.7449
  75   2.0000      -1.018651       -27.7189
  76   2.0000      -1.012291       -27.5458
  77   2.0000      -1.010330       -27.4925
  78   2.0000      -1.006645       -27.3922
  79   2.0000      -1.000832       -27.2340
  80   2.0000      -0.995561       -27.0906
  81   2.0000      -0.987184       -26.8626
  82   2.0000      -0.986665       -26.8485
  83   2.0000      -0.972565       -26.4648
  84   2.0000      -0.958120       -26.0718
  85   2.0000      -0.936148       -25.4739
  86   2.0000      -0.933635       -25.4055
  87   2.0000      -0.921457       -25.0741
  88   2.0000      -0.913855       -24.8673
  89   2.0000      -0.905413       -24.6375
  90   2.0000      -0.894052       -24.3284
  91   2.0000      -0.891832       -24.2680
  92   2.0000      -0.873212       -23.7613
  93   2.0000      -0.849249       -23.1092
  94   2.0000      -0.840864       -22.8811
  95   2.0000      -0.827884       -22.5279
  96   2.0000      -0.818978       -22.2855
  97   2.0000      -0.803502       -21.8644
  98   2.0000      -0.792042       -21.5526
  99   2.0000      -0.788440       -21.4545
 100   2.0000      -0.781252       -21.2590
 101   2.0000      -0.765856       -20.8400
 102   2.0000      -0.760818       -20.7029
 103   2.0000      -0.756584       -20.5877
 104   2.0000      -0.742593       -20.2070
 105   2.0000      -0.737260       -20.0619
 106   2.0000      -0.726182       -19.7604
 107   2.0000      -0.716675       -19.5017
 108   2.0000      -0.714579       -19.4447
 109   2.0000      -0.707356       -19.2481
 110   2.0000      -0.695318       -18.9206
 111   2.0000      -0.689402       -18.7596
 112   2.0000      -0.679556       -18.4917
 113   2.0000      -0.673447       -18.3254
 114   2.0000      -0.663336       -18.0503
 115   2.0000      -0.659793       -17.9539
 116   2.0000      -0.655917       -17.8484
 117   2.0000      -0.650842       -17.7103
 118   2.0000      -0.641910       -17.4673
 119   2.0000      -0.636692       -17.3253
 120   2.0000      -0.630699       -17.1622
 121   2.0000      -0.626911       -17.0591
 122   2.0000      -0.619265       -16.8511
 123   2.0000      -0.614586       -16.7237
 124   2.0000      -0.609439       -16.5837
 125   2.0000      -0.607025       -16.5180
 126   2.0000      -0.594129       -16.1671
 127   2.0000      -0.591611       -16.0986
 128   2.0000      -0.590673       -16.0730
 129   2.0000      -0.583072       -15.8662
 130   2.0000      -0.576948       -15.6996
 131   2.0000      -0.574356       -15.6290
 132   2.0000      -0.573987       -15.6190
 133   2.0000      -0.568662       -15.4741
 134   2.0000      -0.563385       -15.3305
 135   2.0000      -0.562193       -15.2980
 136   2.0000      -0.561755       -15.2861
 137   2.0000      -0.553826       -15.0704
 138   2.0000      -0.553245       -15.0546
 139   2.0000      -0.551954       -15.0194
 140   2.0000      -0.547956       -14.9106
 141   2.0000      -0.542942       -14.7742
 142   2.0000      -0.541303       -14.7296
 143   2.0000      -0.535894       -14.5824
 144   2.0000      -0.533029       -14.5045
 145   2.0000      -0.530653       -14.4398
 146   2.0000      -0.529694       -14.4137
 147   2.0000      -0.524881       -14.2827
 148   2.0000      -0.521445       -14.1892
 149   2.0000      -0.518022       -14.0961
 150   2.0000      -0.515896       -14.0383
 151   2.0000      -0.513322       -13.9682
 152   2.0000      -0.511893       -13.9293
 153   2.0000      -0.510722       -13.8975
 154   2.0000      -0.505832       -13.7644
 155   2.0000      -0.503652       -13.7051
 156   2.0000      -0.501814       -13.6550
 157   2.0000      -0.499375       -13.5887
 158   2.0000      -0.490903       -13.3582
 159   2.0000      -0.489531       -13.3208
 160   2.0000      -0.489431       -13.3181
 161   2.0000      -0.479585       -13.0502
 162   2.0000      -0.476805       -12.9745
 163   2.0000      -0.474584       -12.9141
 164   2.0000      -0.467709       -12.7270
 165   2.0000      -0.464882       -12.6501
 166   2.0000      -0.461263       -12.5516
 167   2.0000      -0.459773       -12.5111
 168   2.0000      -0.458709       -12.4821
 169   2.0000      -0.455870       -12.4048
 170   2.0000      -0.454074       -12.3560
 171   2.0000      -0.453490       -12.3401
 172   2.0000      -0.452190       -12.3047
 173   2.0000      -0.449510       -12.2318
 174   2.0000      -0.445190       -12.1142
 175   2.0000      -0.444541       -12.0966
 176   2.0000      -0.438754       -11.9391
 177   2.0000      -0.438528       -11.9329
 178   2.0000      -0.432431       -11.7670
 179   2.0000      -0.425195       -11.5701
 180   2.0000      -0.423075       -11.5125
 181   2.0000      -0.421556       -11.4711
 182   2.0000      -0.420892       -11.4530
 183   2.0000      -0.420101       -11.4315
 184   2.0000      -0.414126       -11.2689
 185   2.0000      -0.410980       -11.1833
 186   2.0000      -0.408432       -11.1140
 187   2.0000      -0.400049       -10.8859
 188   2.0000      -0.397949       -10.8287
 189   2.0000      -0.397889       -10.8271
 190   2.0000      -0.393591       -10.7102
 191   2.0000      -0.389067       -10.5870
 192   2.0000      -0.387484       -10.5440
 193   2.0000      -0.380833       -10.3630
 194   2.0000      -0.376164       -10.2359
 195   2.0000      -0.373317       -10.1585
 196   2.0000      -0.369991       -10.0680
 197   2.0000      -0.367812       -10.0087
 198   2.0000      -0.362058        -9.8521
 199   2.0000      -0.355640        -9.6775
 200   2.0000      -0.352187        -9.5835
 201   2.0000      -0.347563        -9.4577
 202   2.0000      -0.338943        -9.2231
 203   2.0000      -0.336272        -9.1504
 204   2.0000      -0.326854        -8.8942
 205   2.0000      -0.324922        -8.8416
 206   2.0000      -0.309728        -8.4281
 207   0.0000      -0.118994        -3.2380
 208   0.0000      -0.104587        -2.8459
 209   0.0000      -0.097721        -2.6591
 210   0.0000      -0.083487        -2.2718
 211   0.0000      -0.059188        -1.6106

MULLIKEN ATOMIC CHARGES
-----------------------
   0 C :    0.254835
   1 C :   -0.313696
   2 C :   -0.186411
   3 N :    0.187450
   4 C :   -0.187110
   5 N :    0.185393
   6 C :    0.043646
   7 C :    0.008332
   8 C :   -0.037123
   9 C :   -0.076768
  10 C :    0.068006
  11 C :   -0.064091
  12 C :    0.172171
  13 O :   -0.183553
  14 O :   -0.289363
  15 C :    0.185913
  16 C :   -0.153103
  17 N :    0.143804
  18 C :    0.146283
  19 O :   -0.116154
  20 C :   -0.116904
  21 C :    0.056088
  22 C :   -0.055917
  23 C :    0.081974
  24 N :   -0.040528
  25 C :   -0.048801
  26 N :   -0.042461
  27 C :    0.064755
  28 C :    0.006234
  29 C :    0.064638
  30 N :   -0.047567
  31 C :   -0.062660
  32 N :   -0.047353
  33 C :    0.065226
  34 C :    0.012695
  35 C :    0.057584
  36 N :   -0.055557
  37 C :   -0.051678
  38 N :   -0.053713
  39 C :    0.063690
  40 C :    0.036286
  41 C :   -0.060867
  42 C :    0.311768
  43 C :   -0.330877
  44 C :   -0.191083
  45 N :    0.178836
  46 C :   -0.193680
  47 N :    0.179422
  48 C :    0.063837
  49 C :   -0.006061
  50 C :    0.160849
  51 O :   -0.112364
  52 C :   -0.035538
  53 C :   -0.077681
  54 C :    0.070509
  55 C :   -0.076369
  56 C :    0.169304
  57 O :   -0.182113
  58 O :   -0.291148
  59 C :    0.187244
  60 C :   -0.151903
  61 N :    0.138445
  62 H :    0.019032
  63 H :    0.029346
  64 H :    0.042974
  65 H :    0.040635
  66 H :    0.050950
  67 H :    0.039342
  68 H :    0.016930
  69 H :    0.020752
  70 H :    0.024668
  71 H :    0.022453
  72 H :    0.023922
  73 H :    0.021354
  74 H :    0.052043
  75 H :    0.015978
  76 H :    0.025076
  77 H :    0.049835
  78 H :    0.041609
  79 H :    0.038082
Sum of atomic charges:    0.0000000

LOEWDIN ATOMIC CHARGES
----------------------
   0 C :    0.059677
   1 C :   -0.114300
   2 C :   -0.024538
   3 N :   -0.022148
   4 C :   -0.017884
   5 N :   -0.030168
   6 C :   -0.001707
   7 C :   -0.036396
   8 C :    0.048490
   9 C :   -0.031091
  10 C :   -0.018012
  11 C :    0.034552
  12 C :    0.084066
  13 O :   -0.154627
  14 O :   -0.063501
  15 C :    0.089609
  16 C :   -0.035075
  17 N :   -0.035577
  18 C :    0.086348
  19 O :   -0.117524
  20 C :   -0.078283
  21 C :    0.076628
  22 C :   -0.090158
  23 C :    0.080124
  24 N :   -0.067697
  25 C :    0.052838
  26 N :   -0.070008
  27 C :    0.068104
  28 C :   -0.091059
  29 C :    0.082567
  30 N :   -0.078311
  31 C :    0.043813
  32 N :   -0.077819
  33 C :    0.081862
  34 C :   -0.079869
  35 C :    0.076589
  36 N :   -0.073046
  37 C :    0.024690
  38 N :   -0.067576
  39 C :    0.079297
  40 C :    0.081346
  41 C :   -0.064433
  42 C :    0.068177
  43 C :   -0.110207
  44 C :   -0.022392
  45 N :   -0.025705
  46 C :   -0.019995
  47 N :   -0.027421
  48 C :   -0.003311
  49 C :   -0.031976
  50 C :    0.087476
  51 O :   -0.108355
  52 C :    0.046447
  53 C :   -0.032068
  54 C :   -0.022425
  55 C :    0.035381
  56 C :    0.083939
  57 O :   -0.154343
  58 O :   -0.065288
  59 C :    0.088622
  60 C :   -0.033916
  61 N :   -0.040734
  62 H :    0.053739
  63 H :    0.050541
  64 H :    0.027843
  65 H :    0.028474
  66 H :    0.033817
  67 H :    0.052843
  68 H :    0.032765
  69 H :    0.028768
  70 H :    0.032388
  71 H :    0.031553
  72 H :    0.031628
  73 H :    0.031059
  74 H :    0.053267
  75 H :    0.052346
  76 H :    0.049435
  77 H :    0.033001
  78 H :    0.027547
  79 H :    0.027287

  Mayer bond orders larger than 0.100000
B(  0-C ,  1-C ) :   1.6999 B(  0-C ,  6-C ) :   0.9944 B(  0-C , 20-C ) :   1.0025
B(  1-C ,  2-C ) :   1.1267 B(  1-C ,  4-C ) :   1.1573 B(  2-C ,  3-N ) :   3.0012
B(  4-C ,  5-N ) :   3.0043 B(  6-C ,  7-C ) :   1.3280 B(  6-C , 11-C ) :   1.3336
B(  7-C ,  8-C ) :   1.3640 B(  7-C , 18-C ) :   0.9026 B(  8-C ,  9-C ) :   1.3653
B(  8-C , 62-H ) :   1.0156 B(  9-C , 10-C ) :   1.3677 B(  9-C , 16-C ) :   1.0734
B( 10-C , 11-C ) :   1.3762 B( 10-C , 12-C ) :   0.8688 B( 11-C , 63-H ) :   0.9921
B( 12-C , 13-O ) :   2.1331 B( 12-C , 14-O ) :   1.2440 B( 14-O , 15-C ) :   0.9029
B( 15-C , 64-H ) :   0.9718 B( 15-C , 65-H ) :   0.9802 B( 15-C , 66-H ) :   0.9801
B( 16-C , 17-N ) :   3.0452 B( 18-C , 19-O ) :   2.2942 B( 18-C , 20-C ) :   0.9267
B( 20-C , 21-C ) :   1.7622 B( 21-C , 22-C ) :   1.0139 B( 21-C , 67-H ) :   0.9438
B( 22-C , 23-C ) :   1.3064 B( 22-C , 27-C ) :   1.3080 B( 23-C , 24-N ) :   1.5768
B( 23-C , 68-H ) :   0.9915 B( 24-N , 25-C ) :   1.5667 B( 25-C , 26-N ) :   1.5574
B( 25-C , 28-C ) :   0.9760 B( 26-N , 27-C ) :   1.5877 B( 27-C , 69-H ) :   0.9862
B( 28-C , 29-C ) :   1.3357 B( 28-C , 33-C ) :   1.3352 B( 29-C , 30-N ) :   1.5494
B( 29-C , 70-H ) :   0.9771 B( 30-N , 31-C ) :   1.5788 B( 31-C , 32-N ) :   1.5755
B( 31-C , 34-C ) :   0.9642 B( 32-N , 33-C ) :   1.5513 B( 33-C , 71-H ) :   0.9768
B( 34-C , 35-C ) :   1.3541 B( 34-C , 39-C ) :   1.3407 B( 35-C , 36-N ) :   1.5411
B( 35-C , 72-H ) :   0.9756 B( 36-N , 37-C ) :   1.5143 B( 37-C , 38-N ) :   1.4884
B( 37-C , 40-C ) :   0.9678 B( 38-N , 39-C ) :   1.5512 B( 39-C , 73-H ) :   0.9752
B( 40-C , 41-C ) :   1.7987 B( 40-C , 74-H ) :   0.9316 B( 41-C , 42-C ) :   1.0286
B( 41-C , 50-C ) :   0.9131 B( 42-C , 43-C ) :   1.6840 B( 42-C , 48-C ) :   0.9905
B( 43-C , 44-C ) :   1.1363 B( 43-C , 46-C ) :   1.1413 B( 44-C , 45-N ) :   2.9767
B( 46-C , 47-N ) :   2.9805 B( 48-C , 49-C ) :   1.3311 B( 48-C , 55-C ) :   1.3169
B( 49-C , 50-C ) :   0.9194 B( 49-C , 52-C ) :   1.3596 B( 50-C , 51-O ) :   2.2675
B( 52-C , 53-C ) :   1.3629 B( 52-C , 75-H ) :   1.0147 B( 53-C , 54-C ) :   1.3619
B( 53-C , 60-C ) :   1.0717 B( 54-C , 55-C ) :   1.3879 B( 54-C , 56-C ) :   0.8683
B( 55-C , 76-H ) :   0.9872 B( 56-C , 57-O ) :   2.1319 B( 56-C , 58-O ) :   1.2414
B( 58-O , 59-C ) :   0.9052 B( 59-C , 77-H ) :   0.9800 B( 59-C , 78-H ) :   0.9730
B( 59-C , 79-H ) :   0.9793 B( 60-C , 61-N ) :   3.0450

-----------------------------------------------------------------------------
         ABSORPTION SPECTRUM VIA TRANSITION ELECTRIC DIPOLE MOMENTS
-----------------------------------------------------------------------------
State   Energy  Wavelength   fosc         T2         TX        TY        TZ
        (cm-1)    (nm)                  (au**2)     (au)      (au)      (au)
-----------------------------------------------------------------------------
   0   25327.8    394.8   0.680048549   8.83929  -1.81653  -1.92453   1.35488
   1   25867.3    386.6   0.004876954   0.06207   0.22661   0.00521  -0.10340
   2   27332.0    365.9   0.008346647   0.10053  -0.01673   0.30077   0.09896
   3   28008.3    357.0   0.260981732   3.06761  -0.82606  -1.54129  -0.09829
   4   29420.8    339.9   0.109005844   1.21975  -0.39574  -1.02852   0.07271
   5   29650.2    337.3   0.006231800   0.06919  -0.26168   0.00695   0.02587
   6   30188.9    331.2   0.001943666   0.02120   0.10554   0.05249  -0.08545
   7   30743.6    325.3   0.299251089   3.20447  -0.87935  -1.53297   0.28500
   8   31402.5    318.4   0.141333836   1.48169  -0.03104  -1.20364   0.17884
   9   31669.2    315.8   0.305185938   3.17251   0.31092   1.74707  -0.15351
  10   32008.3    312.4   0.024921673   0.25632  -0.18746  -0.43821  -0.17075
  11   32659.1    306.2   0.365861581   3.68798  -0.91400  -1.66169   0.30228
  12   33540.0    298.2   0.070849818   0.69543  -0.74981   0.18098  -0.31695
  13   34256.4    291.9   0.563335573   5.41379   1.89430  -1.09173   0.79597
  14   34464.0    290.2   0.092235065   0.88106   0.11066  -0.93194  -0.01741
  15   34685.1    288.3   0.019463143   0.18473   0.42082   0.03698   0.07921
  16   35223.6    283.9   0.013493649   0.12612   0.20285  -0.28579   0.05738
  17   35336.5    283.0   0.420998291   3.92223   0.11070  -1.56771   1.20509
  18   35738.3    279.8   0.061955238   0.57071   0.21488  -0.49928   0.52465
  19   36353.5    275.1   0.002007976   0.01818  -0.05030   0.04244   0.11770
  20   37412.2    267.3   0.176263722   1.55105   0.02427  -1.22910  -0.19940
  21   37682.8    265.4   0.399834805   3.49312  -0.35293   1.80600  -0.32699
  22   38366.8    260.6   0.117388113   1.00727  -0.83826  -0.51030  -0.21019
  23   38503.3    259.7   0.166186207   1.42093  -0.82111  -0.85623   0.11651
  24   38898.3    257.1   0.060874202   0.51520  -0.59276   0.16121  -0.37129
  25   39118.7    255.6   0.073707762   0.62030  -0.02536   0.77356   0.14583
  26   39521.7    253.0   0.064198808   0.53477  -0.28798   0.46286  -0.48744
  27   39674.3    252.1   0.063710602   0.52866  -0.43254  -0.49961   0.30324
  28   39928.4    250.4   0.011878998   0.09794  -0.10772   0.27224  -0.11058

FINAL SINGLE POINT ENERGY     -2792.323735315432

DIPOLE MOMENT
-------------
                                X             Y             Z
Electronic contribution:      6.91003      -7.18987      13.73357
Nuclear contribution   :     -6.00386      10.51351     -14.46229
                        -----------------------------------------
Total Dipole Moment    :      0.90616       3.32363      -0.72872
                        -----------------------------------------
Magnitude (a.u.)       :      3.52118
Magnitude (Debye)      :      8.95012

Rotational constants in cm-1:     0.002592     0.000282     0.000266
Rotational constants in MHz :    77.714314     8.446602     7.974588

                             ****ORCA TERMINATED NORMALLY****
TOTAL RUN TIME: 0 days 0 hours 6 minutes 16 seconds 648 msec
