                         Program Version 4.2.0 -  RELEASE  -
|  1> # ORCA input file
|  2> # SCF done       -204.691872287001          0.000415870104
|  3> ! CAM-B3LYP def2-SVP def2/J RIJCOSX Grid4 TightSCF
|  4> %maxcore 5000
|  5> %tddft
|  6>     Mode sTDDFT
|  7>     Ethresh 5.0
|  8>     maxcore 5000
|  9> end
| 10>
| 11> %pal
| 12>   nprocs 6
| 13>   end
| 14> * xyz 0 1
| 15>    C        2.24302        -6.93937        -2.34274
| 16>    C        3.26311        -6.25851        -1.74030
| 17>    C        4.31106        -6.88063        -1.02764
| 18>    N        5.17433        -7.34569        -0.43410
| 19>    C        3.28138        -4.84818        -1.66946
| 20>    N        3.26625        -3.70659        -1.56022
| 21>    C        1.96985        -8.36787        -2.20966
| 22>    C        0.60010        -8.59197        -2.45756
| 23>    C        0.04630        -9.85051        -2.36592
| 24>    C        0.88035       -10.92144        -2.02524
| 25>    C        2.24870       -10.70649        -1.79494
| 26>    C        2.79700        -9.42942        -1.88872
| 27>    C        3.18395       -11.82971        -1.47587
| 28>    O        4.36505       -11.78669        -1.70170
| 29>    O        2.55357       -12.85926        -0.91863
| 30>    C        3.34427       -13.99803        -0.60196
| 31>    C        0.29710       -12.21228        -1.96906
| 32>    N       -0.25127       -13.21798        -1.96976
| 33>    C       -0.05061        -7.31685        -2.83743
| 34>    O       -1.21864        -7.10535        -3.04897
| 35>    C        1.07251        -6.34212        -2.95794
| 36>    C        0.89667        -5.19615        -3.66220
| 37>    C        1.86688        -4.34716        -4.25275
| 38>    S        3.44724        -4.90728        -4.71356
| 39>    C        3.77359        -3.41940        -5.52347
| 40>    C        5.07918        -3.22512        -6.21913
| 41>    F        6.12740        -3.49381        -5.42518
| 42>    F        5.20822        -4.02866        -7.29012
| 43>    F        5.22967        -1.97313        -6.65605
| 44>    C        2.74083        -2.53776        -5.45488
| 45>    C        1.63863        -3.05082        -4.72620
| 46>    C        0.44604        -2.30546        -4.54602
| 47>    C       -0.53424        -2.33475        -3.62063
| 48>    C       -1.64028        -1.45188        -3.84535
| 49>    C       -1.59267        -0.69857        -4.96756
| 50>    S       -0.01910        -1.06893        -5.79245
| 51>    O        0.85864         0.06745        -5.76246
| 52>    O       -0.21631        -1.71215        -7.06037
| 53>    C       -2.52459         0.20500        -5.51630
| 54>    C       -2.28162         0.79772        -6.71349
| 55>    C       -3.09565         1.67225        -7.48144
| 56>    S       -2.39138         2.23710        -8.96440
| 57>    C       -3.82685         3.12265        -9.38454
| 58>    C       -4.77991         3.02215        -8.37508
| 59>    C       -4.37769         2.19444        -7.31494
| 60>    C       -5.26078         1.91175        -6.12538
| 61>    C       -5.51118         0.48652        -6.03113
| 62>    N       -5.76572        -0.62525        -5.96874
| 63>    C       -6.62988         2.61378        -6.21158
| 64>    C       -6.49530         3.98548        -6.85335
| 65>    C       -6.06411         3.79656        -8.31385
| 66>    C       -5.96880         5.07710        -8.97335
| 67>    N       -5.92719         6.10558        -9.47072
| 68>    C       -3.80014         3.86208       -10.59693
| 69>    C       -4.82275         4.09043       -11.46695
| 70>    C       -4.78030         4.98457       -12.61417
| 71>    C       -3.88140         5.99156       -12.81846
| 72>    C       -3.93095         6.88948       -13.90912
| 73>    N       -3.91696         7.64992       -14.76695
| 74>    C       -2.81131         6.29969       -11.94796
| 75>    N       -1.92833         6.60676       -11.28325
| 76>    C       -5.95323         4.70231       -13.43547
| 77>    C       -6.74691         3.74410       -12.77717
| 78>    C       -6.09450         3.33691       -11.51664
| 79>    O       -6.49333         2.49724       -10.73571
| 80>    C       -7.92946         3.28361       -13.31437
| 81>    C       -8.34350         3.79686       -14.54781
| 82>    C       -7.55289         4.74517       -15.21640
| 83>    C       -6.35425         5.19368       -14.66663
| 84>    C       -7.93801         5.28893       -16.55498
| 85>    O       -7.14201         5.72341       -17.34573
| 86>    O       -9.25268         5.23477       -16.75338
| 87>    C       -9.72927         5.70014       -18.00944
| 88>    C       -9.54805         3.29079       -15.09658
| 89>    N      -10.51689         2.80867       -15.47277
| 90>    H       -1.00444       -10.00755        -2.55792
| 91>    H        3.85701        -9.31054        -1.72456
| 92>    H        2.64195       -14.79278        -0.36564
| 93>    H        3.98490       -13.78223         0.25520
| 94>    H        3.97026       -14.27143        -1.45312
| 95>    H       -0.13493        -4.94611        -3.89591
| 96>    H        2.74860        -1.55308        -5.88787
| 97>    H       -0.50122        -2.94420        -2.73093
| 98>    H       -2.45982        -1.42108        -3.14474
| 99>    H       -3.43618         0.35545        -4.95790
|100>    H       -1.32828         0.56993        -7.17492
|101>    H       -4.73606         2.23686        -5.21665
|102>    H       -7.05000         2.69916        -5.20833
|103>    H       -7.31324         2.00442        -6.80868
|104>    H       -5.75329         4.58694        -6.32231
|105>    H       -7.44976         4.51264        -6.81824
|106>    H       -6.83703         3.22133        -8.84967
|107>    H       -2.81740         4.23015       -10.86749
|108>    H       -8.51963         2.54140       -12.79798
|109>    H       -5.77038         5.90616       -15.22825
|110>    H       -9.13585         5.27365       -18.82004
|111>    H       -9.66216         6.78882       -18.05506
|112>    H      -10.76463         5.37671       -18.07471
|113> *
|114>
|115>                          ****END OF INPUT****

CARTESIAN COORDINATES (ANGSTROEM)
---------------------------------
  C      2.243020   -6.939370   -2.342740
  C      3.263110   -6.258510   -1.740300
  C      4.311060   -6.880630   -1.027640
  N      5.174330   -7.345690   -0.434100
  C      3.281380   -4.848180   -1.669460
  N      3.266250   -3.706590   -1.560220
  C      1.969850   -8.367870   -2.209660
  C      0.600100   -8.591970   -2.457560
  C      0.046300   -9.850510   -2.365920
  C      0.880350  -10.921440   -2.025240
  C      2.248700  -10.706490   -1.794940
  C      2.797000   -9.429420   -1.888720
  C      3.183950  -11.829710   -1.475870
  O      4.365050  -11.786690   -1.701700
  O      2.553570  -12.859260   -0.918630
  C      3.344270  -13.998030   -0.601960
  C      0.297100  -12.212280   -1.969060
  N     -0.251270  -13.217980   -1.969760
  C     -0.050610   -7.316850   -2.837430
  O     -1.218640   -7.105350   -3.048970
  C      1.072510   -6.342120   -2.957940
  C      0.896670   -5.196150   -3.662200
  C      1.866880   -4.347160   -4.252750
  S      3.447240   -4.907280   -4.713560
  C      3.773590   -3.419400   -5.523470
  C      5.079180   -3.225120   -6.219130
  F      6.127400   -3.493810   -5.425180
  F      5.208220   -4.028660   -7.290120
  F      5.229670   -1.973130   -6.656050
  C      2.740830   -2.537760   -5.454880
  C      1.638630   -3.050820   -4.726200
  C      0.446040   -2.305460   -4.546020
  C     -0.534240   -2.334750   -3.620630
  C     -1.640280   -1.451880   -3.845350
  C     -1.592670   -0.698570   -4.967560
  S     -0.019100   -1.068930   -5.792450
  O      0.858640    0.067450   -5.762460
  O     -0.216310   -1.712150   -7.060370
  C     -2.524590    0.205000   -5.516300
  C     -2.281620    0.797720   -6.713490
  C     -3.095650    1.672250   -7.481440
  S     -2.391380    2.237100   -8.964400
  C     -3.826850    3.122650   -9.384540
  C     -4.779910    3.022150   -8.375080
  C     -4.377690    2.194440   -7.314940
  C     -5.260780    1.911750   -6.125380
  C     -5.511180    0.486520   -6.031130
  N     -5.765720   -0.625250   -5.968740
  C     -6.629880    2.613780   -6.211580
  C     -6.495300    3.985480   -6.853350
  C     -6.064110    3.796560   -8.313850
  C     -5.968800    5.077100   -8.973350
  N     -5.927190    6.105580   -9.470720
  C     -3.800140    3.862080  -10.596930
  C     -4.822750    4.090430  -11.466950
  C     -4.780300    4.984570  -12.614170
  C     -3.881400    5.991560  -12.818460
  C     -3.930950    6.889480  -13.909120
  N     -3.916960    7.649920  -14.766950
  C     -2.811310    6.299690  -11.947960
  N     -1.928330    6.606760  -11.283250
  C     -5.953230    4.702310  -13.435470
  C     -6.746910    3.744100  -12.777170
  C     -6.094500    3.336910  -11.516640
  O     -6.493330    2.497240  -10.735710
  C     -7.929460    3.283610  -13.314370
  C     -8.343500    3.796860  -14.547810
  C     -7.552890    4.745170  -15.216400
  C     -6.354250    5.193680  -14.666630
  C     -7.938010    5.288930  -16.554980
  O     -7.142010    5.723410  -17.345730
  O     -9.252680    5.234770  -16.753380
  C     -9.729270    5.700140  -18.009440
  C     -9.548050    3.290790  -15.096580
  N    -10.516890    2.808670  -15.472770
  H     -1.004440  -10.007550   -2.557920
  H      3.857010   -9.310540   -1.724560
  H      2.641950  -14.792780   -0.365640
  H      3.984900  -13.782230    0.255200
  H      3.970260  -14.271430   -1.453120
  H     -0.134930   -4.946110   -3.895910
  H      2.748600   -1.553080   -5.887870
  H     -0.501220   -2.944200   -2.730930
  H     -2.459820   -1.421080   -3.144740
  H     -3.436180    0.355450   -4.957900
  H     -1.328280    0.569930   -7.174920
  H     -4.736060    2.236860   -5.216650
  H     -7.050000    2.699160   -5.208330
  H     -7.313240    2.004420   -6.808680
  H     -5.753290    4.586940   -6.322310
  H     -7.449760    4.512640   -6.818240
  H     -6.837030    3.221330   -8.849670
  H     -2.817400    4.230150  -10.867490
  H     -8.519630    2.541400  -12.797980
  H     -5.770380    5.906160  -15.228250
  H     -9.135850    5.273650  -18.820040
  H     -9.662160    6.788820  -18.055060
  H    -10.764630    5.376710  -18.074710

 Total Charge           Charge          ....    0
 Multiplicity           Mult            ....    1
 Number of Electrons    NEL             ....  536
 Basis Dimension        Dim             .... 1177

ORBITAL ENERGIES
----------------

  NO   OCC          E(Eh)            E(eV)
   0   2.0000     -89.166308     -2426.3386
   1   2.0000     -89.000792     -2421.8347
   2   2.0000     -88.992175     -2421.6002
   3   2.0000     -24.813535      -675.2106
   4   2.0000     -24.808733      -675.0799
   5   2.0000     -24.806227      -675.0118
   6   2.0000     -19.281520      -524.6768
   7   2.0000     -19.278177      -524.5859
   8   2.0000     -19.245035      -523.6840
   9   2.0000     -19.243285      -523.6364
  10   2.0000     -19.225972      -523.1653
  11   2.0000     -19.225942      -523.1645
  12   2.0000     -19.223226      -523.0906
  13   2.0000     -19.222430      -523.0689
  14   2.0000     -14.436440      -392.8355
  15   2.0000     -14.435563      -392.8116
  16   2.0000     -14.430584      -392.6761
  17   2.0000     -14.428963      -392.6321
  18   2.0000     -14.424940      -392.5226
  19   2.0000     -14.422232      -392.4489
  20   2.0000     -14.420507      -392.4020
  21   2.0000     -14.417875      -392.3303
  22   2.0000     -10.537191      -286.7315
  23   2.0000     -10.424376      -283.6617
  24   2.0000     -10.420798      -283.5643
  25   2.0000     -10.394305      -282.8434
  26   2.0000     -10.394051      -282.8365
  27   2.0000     -10.371647      -282.2269
  28   2.0000     -10.366008      -282.0734
  29   2.0000     -10.364811      -282.0408
  30   2.0000     -10.357364      -281.8382
  31   2.0000     -10.354503      -281.7604
  32   2.0000     -10.353647      -281.7370
  33   2.0000     -10.350637      -281.6551
  34   2.0000     -10.349786      -281.6320
  35   2.0000     -10.346629      -281.5461
  36   2.0000     -10.346250      -281.5358
  37   2.0000     -10.344973      -281.5010
  38   2.0000     -10.341920      -281.4180
  39   2.0000     -10.341603      -281.4093
  40   2.0000     -10.340326      -281.3746
  41   2.0000     -10.339312      -281.3470
  42   2.0000     -10.338290      -281.3192
  43   2.0000     -10.337864      -281.3076
  44   2.0000     -10.337051      -281.2855
  45   2.0000     -10.337020      -281.2846
  46   2.0000     -10.336651      -281.2746
  47   2.0000     -10.336025      -281.2575
  48   2.0000     -10.334149      -281.2065
  49   2.0000     -10.334137      -281.2062
  50   2.0000     -10.334043      -281.2036
  51   2.0000     -10.333572      -281.1908
  52   2.0000     -10.332211      -281.1538
  53   2.0000     -10.332148      -281.1520
  54   2.0000     -10.331610      -281.1374
  55   2.0000     -10.331450      -281.1331
  56   2.0000     -10.329598      -281.0827
  57   2.0000     -10.328427      -281.0508
  58   2.0000     -10.328263      -281.0463
  59   2.0000     -10.328014      -281.0396
  60   2.0000     -10.326944      -281.0104
  61   2.0000     -10.325828      -280.9801
  62   2.0000     -10.325500      -280.9711
  63   2.0000     -10.325145      -280.9615
  64   2.0000     -10.325043      -280.9587
  65   2.0000     -10.323924      -280.9283
  66   2.0000     -10.322614      -280.8926
  67   2.0000     -10.322454      -280.8883
  68   2.0000     -10.321929      -280.8740
  69   2.0000     -10.321551      -280.8637
  70   2.0000     -10.320618      -280.8383
  71   2.0000     -10.319063      -280.7960
  72   2.0000     -10.316817      -280.7349
  73   2.0000     -10.314409      -280.6693
  74   2.0000     -10.311931      -280.6019
  75   2.0000      -8.232189      -224.0093
  76   2.0000      -8.095863      -220.2996
  77   2.0000      -8.088034      -220.0866
  78   2.0000      -6.201042      -168.7389
  79   2.0000      -6.200803      -168.7324
  80   2.0000      -6.200310      -168.7190
  81   2.0000      -6.065191      -165.0422
  82   2.0000      -6.060955      -164.9270
  83   2.0000      -6.057946      -164.8451
  84   2.0000      -6.057150      -164.8234
  85   2.0000      -6.053084      -164.7128
  86   2.0000      -6.050251      -164.6357
  87   2.0000      -1.401472       -38.1360
  88   2.0000      -1.305643       -35.5284
  89   2.0000      -1.299257       -35.3546
  90   2.0000      -1.229643       -33.4603
  91   2.0000      -1.215109       -33.0648
  92   2.0000      -1.211615       -32.9697
  93   2.0000      -1.159684       -31.5566
  94   2.0000      -1.159210       -31.5437
  95   2.0000      -1.120610       -30.4933
  96   2.0000      -1.117054       -30.3966
  97   2.0000      -1.106997       -30.1229
  98   2.0000      -1.045806       -28.4578
  99   2.0000      -1.041240       -28.3336
 100   2.0000      -1.036908       -28.2157
 101   2.0000      -1.033126       -28.1128
 102   2.0000      -1.025127       -27.8951
 103   2.0000      -1.020723       -27.7753
 104   2.0000      -1.014704       -27.6115
 105   2.0000      -1.013639       -27.5825
 106   2.0000      -1.009810       -27.4783
 107   2.0000      -1.007462       -27.4144
 108   2.0000      -1.007390       -27.4125
 109   2.0000      -1.003941       -27.3186
 110   2.0000      -1.000065       -27.2131
 111   2.0000      -0.980785       -26.6885
 112   2.0000      -0.977265       -26.5927
 113   2.0000      -0.967897       -26.3378
 114   2.0000      -0.951297       -25.8861
 115   2.0000      -0.934553       -25.4305
 116   2.0000      -0.929374       -25.2896
 117   2.0000      -0.926463       -25.2103
 118   2.0000      -0.924284       -25.1510
 119   2.0000      -0.909630       -24.7523
 120   2.0000      -0.902828       -24.5672
 121   2.0000      -0.900197       -24.4956
 122   2.0000      -0.895913       -24.3790
 123   2.0000      -0.878038       -23.8926
 124   2.0000      -0.872463       -23.7409
 125   2.0000      -0.866645       -23.5826
 126   2.0000      -0.846737       -23.0409
 127   2.0000      -0.845703       -23.0128
 128   2.0000      -0.829224       -22.5643
 129   2.0000      -0.826047       -22.4779
 130   2.0000      -0.817204       -22.2373
 131   2.0000      -0.805081       -21.9074
 132   2.0000      -0.802110       -21.8265
 133   2.0000      -0.799551       -21.7569
 134   2.0000      -0.789994       -21.4968
 135   2.0000      -0.782636       -21.2966
 136   2.0000      -0.756883       -20.5958
 137   2.0000      -0.753879       -20.5141
 138   2.0000      -0.748820       -20.3764
 139   2.0000      -0.739550       -20.1242
 140   2.0000      -0.734544       -19.9879
 141   2.0000      -0.723084       -19.6761
 142   2.0000      -0.713824       -19.4241
 143   2.0000      -0.711355       -19.3570
 144   2.0000      -0.707174       -19.2432
 145   2.0000      -0.698056       -18.9951
 146   2.0000      -0.696480       -18.9522
 147   2.0000      -0.692214       -18.8361
 148   2.0000      -0.684661       -18.6306
 149   2.0000      -0.683772       -18.6064
 150   2.0000      -0.682798       -18.5799
 151   2.0000      -0.672883       -18.3101
 152   2.0000      -0.668236       -18.1836
 153   2.0000      -0.665273       -18.1030
 154   2.0000      -0.657338       -17.8871
 155   2.0000      -0.653782       -17.7903
 156   2.0000      -0.651494       -17.7281
 157   2.0000      -0.645626       -17.5684
 158   2.0000      -0.644863       -17.5476
 159   2.0000      -0.641912       -17.4673
 160   2.0000      -0.631574       -17.1860
 161   2.0000      -0.627873       -17.0853
 162   2.0000      -0.618199       -16.8221
 163   2.0000      -0.614406       -16.7188
 164   2.0000      -0.608318       -16.5532
 165   2.0000      -0.603182       -16.4134
 166   2.0000      -0.597975       -16.2717
 167   2.0000      -0.595447       -16.2029
 168   2.0000      -0.587747       -15.9934
 169   2.0000      -0.586622       -15.9628
 170   2.0000      -0.583919       -15.8893
 171   2.0000      -0.582485       -15.8502
 172   2.0000      -0.573776       -15.6132
 173   2.0000      -0.572937       -15.5904
 174   2.0000      -0.566970       -15.4280
 175   2.0000      -0.566297       -15.4097
 176   2.0000      -0.564340       -15.3565
 177   2.0000      -0.563585       -15.3359
 178   2.0000      -0.560148       -15.2424
 179   2.0000      -0.559272       -15.2186
 180   2.0000      -0.558973       -15.2104
 181   2.0000      -0.557474       -15.1696
 182   2.0000      -0.556721       -15.1491
 183   2.0000      -0.555183       -15.1073
 184   2.0000      -0.554469       -15.0879
 185   2.0000      -0.552549       -15.0356
 186   2.0000      -0.551401       -15.0044
 187   2.0000      -0.549938       -14.9646
 188   2.0000      -0.542682       -14.7671
 189   2.0000      -0.538721       -14.6594
 190   2.0000      -0.537770       -14.6335
 191   2.0000      -0.533782       -14.5249
 192   2.0000      -0.533361       -14.5135
 193   2.0000      -0.531135       -14.4529
 194   2.0000      -0.526250       -14.3200
 195   2.0000      -0.524591       -14.2749
 196   2.0000      -0.522240       -14.2109
 197   2.0000      -0.517910       -14.0930
 198   2.0000      -0.516723       -14.0607
 199   2.0000      -0.515957       -14.0399
 200   2.0000      -0.513790       -13.9809
 201   2.0000      -0.509075       -13.8526
 202   2.0000      -0.508002       -13.8234
 203   2.0000      -0.506968       -13.7953
 204   2.0000      -0.502806       -13.6820
 205   2.0000      -0.495996       -13.4967
 206   2.0000      -0.494483       -13.4556
 207   2.0000      -0.494257       -13.4494
 208   2.0000      -0.492332       -13.3970
 209   2.0000      -0.487896       -13.2763
 210   2.0000      -0.485317       -13.2061
 211   2.0000      -0.484238       -13.1768
 212   2.0000      -0.482302       -13.1241
 213   2.0000      -0.481420       -13.1001
 214   2.0000      -0.479032       -13.0351
 215   2.0000      -0.478456       -13.0194
 216   2.0000      -0.471578       -12.8323
 217   2.0000      -0.467860       -12.7311
 218   2.0000      -0.463339       -12.6081
 219   2.0000      -0.461208       -12.5501
 220   2.0000      -0.460929       -12.5425
 221   2.0000      -0.460522       -12.5315
 222   2.0000      -0.460047       -12.5185
 223   2.0000      -0.457724       -12.4553
 224   2.0000      -0.456360       -12.4182
 225   2.0000      -0.455743       -12.4014
 226   2.0000      -0.454911       -12.3788
 227   2.0000      -0.453551       -12.3418
 228   2.0000      -0.453090       -12.3292
 229   2.0000      -0.451903       -12.2969
 230   2.0000      -0.450229       -12.2513
 231   2.0000      -0.448957       -12.2167
 232   2.0000      -0.446951       -12.1622
 233   2.0000      -0.446917       -12.1612
 234   2.0000      -0.443271       -12.0620
 235   2.0000      -0.441432       -12.0120
 236   2.0000      -0.439229       -11.9520
 237   2.0000      -0.436477       -11.8772
 238   2.0000      -0.434298       -11.8179
 239   2.0000      -0.426640       -11.6095
 240   2.0000      -0.425581       -11.5807
 241   2.0000      -0.424337       -11.5468
 242   2.0000      -0.423189       -11.5156
 243   2.0000      -0.421045       -11.4572
 244   2.0000      -0.419241       -11.4081
 245   2.0000      -0.417195       -11.3525
 246   2.0000      -0.415645       -11.3103
 247   2.0000      -0.408803       -11.1241
 248   2.0000      -0.407466       -11.0877
 249   2.0000      -0.394307       -10.7296
 250   2.0000      -0.393272       -10.7015
 251   2.0000      -0.392299       -10.6750
 252   2.0000      -0.390876       -10.6363
 253   2.0000      -0.387026       -10.5315
 254   2.0000      -0.382992       -10.4217
 255   2.0000      -0.380851       -10.3635
 256   2.0000      -0.379246       -10.3198
 257   2.0000      -0.369829       -10.0635
 258   2.0000      -0.368581       -10.0296
 259   2.0000      -0.364661        -9.9229
 260   2.0000      -0.364081        -9.9072
 261   2.0000      -0.361959        -9.8494
 262   2.0000      -0.351376        -9.5614
 263   2.0000      -0.343988        -9.3604
 264   2.0000      -0.338906        -9.2221
 265   2.0000      -0.328414        -8.9366
 266   2.0000      -0.315859        -8.5950
 267   2.0000      -0.283068        -7.7027
 268   0.0000      -0.127279        -3.4634
 269   0.0000      -0.111397        -3.0313
 270   0.0000      -0.097994        -2.6666
 271   0.0000      -0.093051        -2.5320
 272   0.0000      -0.077681        -2.1138

MULLIKEN ATOMIC CHARGES
-----------------------
   0 C :    0.234450
   1 C :   -0.293514
   2 C :   -0.178887
   3 N :    0.183500
   4 C :   -0.202893
   5 N :    0.181342
   6 C :    0.048880
   7 C :    0.009078
   8 C :   -0.036512
   9 C :   -0.079810
  10 C :    0.067544
  11 C :   -0.063624
  12 C :    0.169005
  13 O :   -0.184489
  14 O :   -0.289026
  15 C :    0.186065
  16 C :   -0.151620
  17 N :    0.141801
  18 C :    0.148455
  19 O :   -0.122942
  20 C :   -0.131801
  21 C :    0.012583
  22 C :   -0.144263
  23 S :    0.209581
  24 C :   -0.212603
  25 C :    0.550581
  26 F :   -0.155239
  27 F :   -0.157099
  28 F :   -0.142397
  29 C :    0.024057
  30 C :    0.184132
  31 C :   -0.068684
  32 C :    0.016619
  33 C :    0.008964
  34 C :    0.000146
  35 S :    0.743009
  36 O :   -0.438246
  37 O :   -0.435970
  38 C :    0.027055
  39 C :    0.076974
  40 C :   -0.120361
  41 S :    0.201014
  42 C :   -0.142162
  43 C :    0.031305
  44 C :   -0.043607
  45 C :    0.018799
  46 C :   -0.308340
  47 N :    0.135207
  48 C :    0.103388
  49 C :    0.058644
  50 C :    0.052848
  51 C :   -0.326448
  52 N :    0.140799
  53 C :    0.012119
  54 C :   -0.090028
  55 C :    0.296452
  56 C :   -0.307368
  57 C :   -0.192985
  58 N :    0.183224
  59 C :   -0.199520
  60 N :    0.177585
  61 C :    0.070011
  62 C :   -0.003534
  63 C :    0.172501
  64 O :   -0.159904
  65 C :   -0.042646
  66 C :   -0.079442
  67 C :    0.074768
  68 C :   -0.075805
  69 C :    0.167276
  70 O :   -0.183849
  71 O :   -0.289903
  72 C :    0.184499
  73 C :   -0.151631
  74 N :    0.141098
  75 H :    0.018639
  76 H :    0.029409
  77 H :    0.050518
  78 H :    0.039471
  79 H :    0.043039
  80 H :    0.039667
  81 H :    0.028676
  82 H :    0.022234
  83 H :    0.012819
  84 H :   -0.003809
  85 H :    0.012041
  86 H :    0.056143
  87 H :    0.031344
  88 H :    0.029933
  89 H :    0.022680
  90 H :    0.035100
  91 H :    0.080470
  92 H :    0.040867
  93 H :    0.012561
  94 H :    0.027509
  95 H :    0.042634
  96 H :    0.039743
  97 H :    0.050103
Sum of atomic charges:   -0.0000000

LOEWDIN ATOMIC CHARGES
----------------------
   0 C :    0.053165
   1 C :   -0.120093
   2 C :   -0.024857
   3 N :   -0.024033
   4 C :   -0.032943
   5 N :   -0.033174
   6 C :    0.000644
   7 C :   -0.035861
   8 C :    0.047375
   9 C :   -0.032918
  10 C :   -0.018566
  11 C :    0.033505
  12 C :    0.083824
  13 O :   -0.154945
  14 O :   -0.063862
  15 C :    0.089157
  16 C :   -0.034863
  17 N :   -0.038090
  18 C :    0.085522
  19 O :   -0.123654
  20 C :   -0.089298
  21 C :    0.044920
  22 C :   -0.162085
  23 S :    0.507832
  24 C :   -0.209812
  25 C :    0.148545
  26 F :   -0.057536
  27 F :   -0.061185
  28 F :   -0.042982
  29 C :   -0.018414
  30 C :   -0.037956
  31 C :   -0.144262
  32 C :   -0.006137
  33 C :   -0.020061
  34 C :   -0.132036
  35 S :    1.169704
  36 O :   -0.483119
  37 O :   -0.481147
  38 C :   -0.021002
  39 C :   -0.020935
  40 C :   -0.146854
  41 S :    0.501154
  42 C :   -0.171927
  43 C :   -0.011377
  44 C :   -0.045455
  45 C :   -0.043305
  46 C :   -0.038581
  47 N :   -0.054272
  48 C :   -0.005972
  49 C :   -0.005610
  50 C :   -0.052644
  51 C :   -0.026610
  52 N :   -0.062398
  53 C :    0.047772
  54 C :   -0.074675
  55 C :    0.069371
  56 C :   -0.106086
  57 C :   -0.021639
  58 N :   -0.026036
  59 C :   -0.020342
  60 N :   -0.030840
  61 C :    0.002797
  62 C :   -0.032727
  63 C :    0.088976
  64 O :   -0.137244
  65 C :    0.045395
  66 C :   -0.033747
  67 C :   -0.019183
  68 C :    0.035413
  69 C :    0.084040
  70 O :   -0.154140
  71 O :   -0.064915
  72 C :    0.088198
  73 C :   -0.034453
  74 N :   -0.040605
  75 H :    0.053298
  76 H :    0.050645
  77 H :    0.033524
  78 H :    0.028010
  79 H :    0.027906
  80 H :    0.053329
  81 H :    0.042285
  82 H :    0.044961
  83 H :    0.043716
  84 H :    0.038762
  85 H :    0.027620
  86 H :    0.058484
  87 H :    0.039596
  88 H :    0.039764
  89 H :    0.033700
  90 H :    0.040469
  91 H :    0.065549
  92 H :    0.048685
  93 H :    0.050943
  94 H :    0.050226
  95 H :    0.027644
  96 H :    0.027869
  97 H :    0.033168

  Mayer bond orders larger than 0.100000
B(  0-C ,  1-C ) :   1.6920 B(  0-C ,  6-C ) :   0.9926 B(  0-C , 20-C ) :   1.0178
B(  1-C ,  2-C ) :   1.1275 B(  1-C ,  4-C ) :   1.1492 B(  2-C ,  3-N ) :   3.0043
B(  4-C ,  5-N ) :   3.0236 B(  6-C ,  7-C ) :   1.3290 B(  6-C , 11-C ) :   1.3374
B(  7-C ,  8-C ) :   1.3697 B(  7-C , 18-C ) :   0.9037 B(  8-C ,  9-C ) :   1.3622
B(  8-C , 75-H ) :   1.0139 B(  9-C , 10-C ) :   1.3734 B(  9-C , 16-C ) :   1.0721
B( 10-C , 11-C ) :   1.3725 B( 10-C , 12-C ) :   0.8687 B( 11-C , 76-H ) :   0.9936
B( 12-C , 13-O ) :   2.1338 B( 12-C , 14-O ) :   1.2437 B( 14-O , 15-C ) :   0.9041
B( 15-C , 77-H ) :   0.9797 B( 15-C , 78-H ) :   0.9800 B( 15-C , 79-H ) :   0.9724
B( 16-C , 17-N ) :   3.0459 B( 18-C , 19-O ) :   2.2816 B( 18-C , 20-C ) :   0.9358
B( 20-C , 21-C ) :   1.6896 B( 21-C , 22-C ) :   1.1286 B( 21-C , 80-H ) :   0.9369
B( 22-C , 23-S ) :   1.1349 B( 22-C , 30-C ) :   1.4260 B( 23-S , 24-C ) :   1.1451
B( 24-C , 25-C ) :   0.9430 B( 24-C , 29-C ) :   1.5773 B( 25-C , 26-F ) :   1.1808
B( 25-C , 27-F ) :   1.1829 B( 25-C , 28-F ) :   1.1896 B( 29-C , 30-C ) :   1.2250
B( 29-C , 81-H ) :   0.9840 B( 30-C , 31-C ) :   1.1368 B( 31-C , 32-C ) :   1.6658
B( 31-C , 35-S ) :   0.7826 B( 32-C , 33-C ) :   1.0895 B( 32-C , 82-H ) :   0.9983
B( 33-C , 34-C ) :   1.6346 B( 33-C , 83-H ) :   0.9958 B( 34-C , 35-S ) :   0.7729
B( 34-C , 38-C ) :   1.2255 B( 35-S , 36-O ) :   1.6718 B( 35-S , 37-O ) :   1.7107
B( 38-C , 39-C ) :   1.6170 B( 38-C , 84-H ) :   0.9679 B( 39-C , 40-C ) :   1.1513
B( 39-C , 85-H ) :   0.9202 B( 40-C , 41-S ) :   1.1751 B( 40-C , 42-C ) :   0.1037
B( 40-C , 44-C ) :   1.4496 B( 41-S , 42-C ) :   1.1269 B( 42-C , 43-C ) :   1.4754
B( 42-C , 53-C ) :   1.1267 B( 43-C , 44-C ) :   1.4060 B( 43-C , 50-C ) :   0.9808
B( 44-C , 45-C ) :   1.0113 B( 45-C , 46-C ) :   1.0344 B( 45-C , 48-C ) :   1.0858
B( 45-C , 86-H ) :   0.8334 B( 46-C , 47-N ) :   3.0988 B( 48-C , 49-C ) :   1.1195
B( 48-C , 87-H ) :   0.9293 B( 48-C , 88-H ) :   0.9137 B( 49-C , 50-C ) :   1.1042
B( 49-C , 89-H ) :   0.9175 B( 49-C , 90-H ) :   0.9349 B( 50-C , 51-C ) :   1.0484
B( 50-C , 91-H ) :   0.7943 B( 51-C , 52-N ) :   3.0899 B( 53-C , 54-C ) :   1.6426
B( 53-C , 92-H ) :   0.9290 B( 54-C , 55-C ) :   1.0475 B( 54-C , 63-C ) :   0.9581
B( 55-C , 56-C ) :   1.6886 B( 55-C , 61-C ) :   0.9832 B( 56-C , 57-C ) :   1.1374
B( 56-C , 59-C ) :   1.1411 B( 57-C , 58-N ) :   2.9839 B( 59-C , 60-N ) :   2.9938
B( 61-C , 62-C ) :   1.3301 B( 61-C , 68-C ) :   1.3270 B( 62-C , 63-C ) :   0.9314
B( 62-C , 65-C ) :   1.3600 B( 63-C , 64-O ) :   2.1552 B( 65-C , 66-C ) :   1.3597
B( 65-C , 93-H ) :   1.0156 B( 66-C , 67-C ) :   1.3708 B( 66-C , 73-C ) :   1.0696
B( 67-C , 68-C ) :   1.3732 B( 67-C , 69-C ) :   0.8680 B( 68-C , 94-H ) :   0.9895
B( 69-C , 70-O ) :   2.1319 B( 69-C , 71-O ) :   1.2411 B( 71-O , 72-C ) :   0.9060
B( 72-C , 95-H ) :   0.9721 B( 72-C , 96-H ) :   0.9799 B( 72-C , 97-H ) :   0.9798
B( 73-C , 74-N ) :   3.0466

-----------------------------------------------------------------------------
         ABSORPTION SPECTRUM VIA TRANSITION ELECTRIC DIPOLE MOMENTS
-----------------------------------------------------------------------------
State   Energy  Wavelength   fosc         T2         TX        TY        TZ
        (cm-1)    (nm)                  (au**2)     (au)      (au)      (au)
-----------------------------------------------------------------------------
   0   18634.9    536.6   1.750922451  30.93255   2.29766  -3.85088   3.28999
   1   22822.0    438.2   0.150776740   2.17498   0.27394  -0.40830   1.39041
   2   25298.9    395.3   0.071017797   0.92415  -0.39552  -0.53608   0.69306
   3   25644.8    389.9   0.066677623   0.85597  -0.70536   0.14097  -0.58187
   4   26794.3    373.2   0.039349757   0.48348   0.08367  -0.59643  -0.34749
   5   28511.4    350.7   0.067191460   0.77584   0.60651  -0.56956  -0.28911
   6   28876.0    346.3   0.057949672   0.66068   0.12808   0.73060  -0.33242
   7   29283.0    341.5   0.085802168   0.96462  -0.94743  -0.24456   0.08474
   8   30606.1    326.7   0.115760738   1.24517  -0.59564  -0.24027  -0.91250
   9   30971.6    322.9   0.044270595   0.47057   0.10669  -0.29204   0.61148
  10   31261.1    319.9   0.103577067   1.09077  -0.11881  -0.85948  -0.58134
  11   32228.5    310.3   0.113695415   1.16139  -0.96691  -0.32380  -0.34875
  12   32508.3    307.6   0.165210477   1.67309  -0.58644  -1.14585   0.12726
  13   32727.4    305.6   0.059317569   0.59669   0.07516  -0.76085   0.11021
  14   33320.3    300.1   0.149705048   1.47912  -1.00304  -0.50727   0.46444
  15   33909.1    294.9   0.018401918   0.17866  -0.34774   0.23773   0.03486
  16   33958.1    294.5   0.334481704   3.24269   1.00508   1.39949  -0.52338
  17   34219.8    292.2   0.157537625   1.51559   0.95907   0.08565   0.76710
  18   34759.4    287.7   0.341143525   3.23103  -1.16153  -1.13224  -0.77454
  19   35104.7    284.9   0.019333641   0.18131  -0.34772   0.14883  -0.19558
  20   35580.0    281.1   0.007487626   0.06928   0.22182   0.13930  -0.02598
  21   36492.1    274.0   0.063664270   0.57434   0.37134   0.11064   0.65131
  22   37141.6    269.2   0.791097024   7.01205  -2.03187  -1.68400  -0.21842
  23   37247.6    268.5   0.032822240   0.29010   0.25521  -0.26361  -0.39430
  24   37848.1    264.2   0.051878234   0.45125  -0.33309  -0.18576  -0.55299
  25   38353.8    260.7   0.103375782   0.88733   0.05679  -0.70348   0.62388
  26   38726.0    258.2   0.043987756   0.37394  -0.36484  -0.49073  -0.00468
  27   38849.5    257.4   0.012633440   0.10706  -0.04711   0.19017  -0.26205
  28   38962.4    256.7   0.061569920   0.52023   0.01611  -0.22293   0.68577
  29   39131.1    255.6   0.002967875   0.02497  -0.13270   0.08031  -0.03015
  30   39357.5    254.1   0.014559533   0.12179  -0.00686   0.01062   0.34875
  31   39572.2    252.7   0.051396601   0.42758  -0.49631  -0.26159   0.33591
  32   39830.1    251.1   0.018073950   0.14939   0.23374  -0.02183  -0.30705
  33   40204.6    248.7   0.148100464   1.21271   0.56902  -0.81730   0.47005
  34   40254.3    248.4   0.091303226   0.74671  -0.58624  -0.40673   0.48744

FINAL SINGLE POINT ENERGY     -4562.671547735881

DIPOLE MOMENT
-------------
                                X             Y             Z
Electronic contribution:     56.57870     -12.57478       4.68243
Nuclear contribution   :    -58.78877      11.92201      -2.67334
                        -----------------------------------------
Total Dipole Moment    :     -2.21007      -0.65277       2.00909
                        -----------------------------------------
Magnitude (a.u.)       :      3.05728
Magnitude (Debye)      :      7.77098

Rotational constants in cm-1:     0.001705     0.000228     0.000219
Rotational constants in MHz :    51.123149     6.821547     6.567483

                             ****ORCA TERMINATED NORMALLY****
TOTAL RUN TIME: 0 days 0 hours 9 minutes 47 seconds 944 msec
