                         Program Version 4.2.0 -  RELEASE  -
|  1> # ORCA input file
|  2> # SCF done       -204.651872945578          0.000680640707
|  3> ! CAM-B3LYP def2-SVP def2/J RIJCOSX Grid4 TightSCF
|  4> %maxcore 5000
|  5> %tddft
|  6>     Mode sTDDFT
|  7>     Ethresh 5.0
|  8>     maxcore 5000
|  9> end
| 10>
| 11> %pal
| 12>   nprocs 6
| 13>   end
| 14> * xyz 0 1
| 15>    C       -3.20105         5.68766        -2.34953
| 16>    C       -2.78970         5.00422        -3.46096
| 17>    C       -3.06644         5.42031        -4.78120
| 18>    N       -3.25947         5.71543        -5.87313
| 19>    C       -2.10559         3.77167        -3.44091
| 20>    N       -1.58683         2.74980        -3.50145
| 21>    C       -4.06999         6.85882        -2.35958
| 22>    C       -4.65677         7.00776        -1.06850
| 23>    C       -5.54435         8.00885        -0.79474
| 24>    C       -5.88120         8.92861        -1.81269
| 25>    C       -5.28137         8.79816        -3.09918
| 26>    C       -4.37116         7.74830        -3.35655
| 27>    C       -5.61690         9.72957        -4.10301
| 28>    C       -6.50512        10.73937        -3.85179
| 29>    C       -7.09711        10.86569        -2.58590
| 30>    C       -6.79216         9.97985        -1.58844
| 31>    C       -4.13011         5.96704        -0.17152
| 32>    O       -4.43414         5.73548         0.97432
| 33>    C       -3.06734         5.26867        -0.96267
| 34>    C       -2.16510         4.50246        -0.31109
| 35>    C       -0.88405         4.02347        -0.78037
| 36>    C       -0.32819         2.82587        -0.23864
| 37>    C        0.92452         2.41027        -0.62250
| 38>    C        1.66906         3.14425        -1.56129
| 39>    C        1.13627         4.36048        -2.07252
| 40>    C       -0.13630         4.77976        -1.65972
| 41>    N        1.84115         5.11448        -2.94438
| 42>    C        3.01210         4.66501        -3.30187
| 43>    C        3.53067         3.44384        -2.81405
| 44>    N        2.87916         2.70195        -1.96229
| 45>    C       -1.01808         2.04099         0.78062
| 46>    N       -2.27190         1.50356         0.69196
| 47>    C       -3.10750         1.43507        -0.48146
| 48>    C       -2.55105         0.45471        -1.50827
| 49>    C       -2.60315         0.75700         1.85863
| 50>    O       -3.65879         0.18067         1.99217
| 51>    C       -1.44468         0.90176         2.70570
| 52>    C       -0.48979         1.69716         2.00591
| 53>    C        0.65407         1.87044         2.86496
| 54>    O        1.70089         2.46695         2.72590
| 55>    N        0.32136         1.15413         4.03993
| 56>    C        1.31928         1.03284         5.07436
| 57>    C        1.94727        -0.35858         5.11396
| 58>    C       -0.92556         0.56362         3.94507
| 59>    C       -1.61045        -0.27509         4.87519
| 60>    C       -1.27279        -0.53526         6.15246
| 61>    N       -1.93450        -1.40412         6.99590
| 62>    C       -1.59591        -1.56576         8.32699
| 63>    C       -0.52756        -0.79889         9.00669
| 64>    C       -2.40282        -2.52907         8.86283
| 65>    C       -3.28862        -3.01638         7.83765
| 66>    C       -2.98703        -2.31207         6.61446
| 67>    O       -3.43189        -2.41449         5.50012
| 68>    C       -4.06845        -4.01672         8.34246
| 69>    C       -5.01738        -4.87639         7.61295
| 70>    N       -3.71554        -4.18767         9.67363
| 71>    C       -2.63642        -3.29620        10.05200
| 72>    O       -2.14704        -3.29985        11.15330
| 73>    C       -4.15848        -5.10445        10.57840
| 74>    C       -5.43702        -5.51806        10.77728
| 75>    C       -5.83210        -6.59052        11.67378
| 76>    C       -5.03216        -7.62832        12.06933
| 77>    C       -5.45771        -8.67075        12.91838
| 78>    N       -5.75398        -9.53654        13.61103
| 79>    C       -3.70820        -7.81267        11.61625
| 80>    N       -2.64593        -8.03356        11.24164
| 81>    C       -7.24859        -6.42645        11.96137
| 82>    C       -7.74329        -5.33744        11.18710
| 83>    C       -6.65139        -4.75376        10.39065
| 84>    O       -6.71505        -3.78800         9.66041
| 85>    C       -9.05018        -4.94705        11.24694
| 86>    C       -9.93816        -5.64329        12.09726
| 87>    C       -9.44972        -6.73165        12.87715
| 88>    C       -8.09062        -7.11186        12.79648
| 89>    C      -10.34491        -7.41469        13.72527
| 90>    C      -11.65967        -7.04277        13.80049
| 91>    C      -12.13935        -5.97121        13.03260
| 92>    C      -11.29723        -5.28693        12.19843
| 93>    H       -5.98241         8.09945         0.18808
| 94>    H       -3.92277         7.68033        -4.33535
| 95>    H       -5.16099         9.62592        -5.07664
| 96>    H       -6.75729        11.44664        -4.62756
| 97>    H       -7.79591        11.66866        -2.40534
| 98>    H       -7.24473        10.07243        -0.61207
| 99>    H       -2.40371         4.29066         0.72771
|100>    H        1.35918         1.51218        -0.21352
|101>    H       -0.49450         5.73218        -2.02079
|102>    H        3.57217         5.27170        -4.00075
|103>    H        4.49629         3.07889        -3.13744
|104>    H       -3.20979         2.42948        -0.92432
|105>    H       -4.08656         1.09788        -0.12876
|106>    H       -1.59077         0.79851        -1.88490
|107>    H       -3.23665         0.37378        -2.34664
|108>    H       -2.42912        -0.52796        -1.05864
|109>    H        0.89922         1.31757         6.04308
|110>    H        2.08949         1.76659         4.81349
|111>    H        1.19743        -1.12973         5.27549
|112>    H        2.68501        -0.40829         5.91066
|113>    H        2.44596        -0.56059         4.16948
|114>    H       -2.49800        -0.72968         4.45764
|115>    H       -0.43063        -0.05783         6.62590
|116>    H        0.44313        -0.98606         8.54605
|117>    H       -0.48595        -1.11030        10.04698
|118>    H       -0.72855         0.27191         8.96525
|119>    H       -4.74758        -4.88468         6.55957
|120>    H       -6.02520        -4.46826         7.69887
|121>    H       -5.02164        -5.88871         8.01373
|122>    H       -3.37177        -5.43903        11.24988
|123>    H       -9.40301        -4.11778        10.65188
|124>    H       -7.74492        -7.93235        13.40549
|125>    H       -9.97104        -8.23974        14.31355
|126>    H      -12.33759        -7.57264        14.45260
|127>    H      -13.17924        -5.69017        13.10554
|128>    H      -11.66091        -4.46078        11.60516
|129> *
|130>
|131>                          ****END OF INPUT****

CARTESIAN COORDINATES (ANGSTROEM)
---------------------------------
  C     -3.201050    5.687660   -2.349530
  C     -2.789700    5.004220   -3.460960
  C     -3.066440    5.420310   -4.781200
  N     -3.259470    5.715430   -5.873130
  C     -2.105590    3.771670   -3.440910
  N     -1.586830    2.749800   -3.501450
  C     -4.069990    6.858820   -2.359580
  C     -4.656770    7.007760   -1.068500
  C     -5.544350    8.008850   -0.794740
  C     -5.881200    8.928610   -1.812690
  C     -5.281370    8.798160   -3.099180
  C     -4.371160    7.748300   -3.356550
  C     -5.616900    9.729570   -4.103010
  C     -6.505120   10.739370   -3.851790
  C     -7.097110   10.865690   -2.585900
  C     -6.792160    9.979850   -1.588440
  C     -4.130110    5.967040   -0.171520
  O     -4.434140    5.735480    0.974320
  C     -3.067340    5.268670   -0.962670
  C     -2.165100    4.502460   -0.311090
  C     -0.884050    4.023470   -0.780370
  C     -0.328190    2.825870   -0.238640
  C      0.924520    2.410270   -0.622500
  C      1.669060    3.144250   -1.561290
  C      1.136270    4.360480   -2.072520
  C     -0.136300    4.779760   -1.659720
  N      1.841150    5.114480   -2.944380
  C      3.012100    4.665010   -3.301870
  C      3.530670    3.443840   -2.814050
  N      2.879160    2.701950   -1.962290
  C     -1.018080    2.040990    0.780620
  N     -2.271900    1.503560    0.691960
  C     -3.107500    1.435070   -0.481460
  C     -2.551050    0.454710   -1.508270
  C     -2.603150    0.757000    1.858630
  O     -3.658790    0.180670    1.992170
  C     -1.444680    0.901760    2.705700
  C     -0.489790    1.697160    2.005910
  C      0.654070    1.870440    2.864960
  O      1.700890    2.466950    2.725900
  N      0.321360    1.154130    4.039930
  C      1.319280    1.032840    5.074360
  C      1.947270   -0.358580    5.113960
  C     -0.925560    0.563620    3.945070
  C     -1.610450   -0.275090    4.875190
  C     -1.272790   -0.535260    6.152460
  N     -1.934500   -1.404120    6.995900
  C     -1.595910   -1.565760    8.326990
  C     -0.527560   -0.798890    9.006690
  C     -2.402820   -2.529070    8.862830
  C     -3.288620   -3.016380    7.837650
  C     -2.987030   -2.312070    6.614460
  O     -3.431890   -2.414490    5.500120
  C     -4.068450   -4.016720    8.342460
  C     -5.017380   -4.876390    7.612950
  N     -3.715540   -4.187670    9.673630
  C     -2.636420   -3.296200   10.052000
  O     -2.147040   -3.299850   11.153300
  C     -4.158480   -5.104450   10.578400
  C     -5.437020   -5.518060   10.777280
  C     -5.832100   -6.590520   11.673780
  C     -5.032160   -7.628320   12.069330
  C     -5.457710   -8.670750   12.918380
  N     -5.753980   -9.536540   13.611030
  C     -3.708200   -7.812670   11.616250
  N     -2.645930   -8.033560   11.241640
  C     -7.248590   -6.426450   11.961370
  C     -7.743290   -5.337440   11.187100
  C     -6.651390   -4.753760   10.390650
  O     -6.715050   -3.788000    9.660410
  C     -9.050180   -4.947050   11.246940
  C     -9.938160   -5.643290   12.097260
  C     -9.449720   -6.731650   12.877150
  C     -8.090620   -7.111860   12.796480
  C    -10.344910   -7.414690   13.725270
  C    -11.659670   -7.042770   13.800490
  C    -12.139350   -5.971210   13.032600
  C    -11.297230   -5.286930   12.198430
  H     -5.982410    8.099450    0.188080
  H     -3.922770    7.680330   -4.335350
  H     -5.160990    9.625920   -5.076640
  H     -6.757290   11.446640   -4.627560
  H     -7.795910   11.668660   -2.405340
  H     -7.244730   10.072430   -0.612070
  H     -2.403710    4.290660    0.727710
  H      1.359180    1.512180   -0.213520
  H     -0.494500    5.732180   -2.020790
  H      3.572170    5.271700   -4.000750
  H      4.496290    3.078890   -3.137440
  H     -3.209790    2.429480   -0.924320
  H     -4.086560    1.097880   -0.128760
  H     -1.590770    0.798510   -1.884900
  H     -3.236650    0.373780   -2.346640
  H     -2.429120   -0.527960   -1.058640
  H      0.899220    1.317570    6.043080
  H      2.089490    1.766590    4.813490
  H      1.197430   -1.129730    5.275490
  H      2.685010   -0.408290    5.910660
  H      2.445960   -0.560590    4.169480
  H     -2.498000   -0.729680    4.457640
  H     -0.430630   -0.057830    6.625900
  H      0.443130   -0.986060    8.546050
  H     -0.485950   -1.110300   10.046980
  H     -0.728550    0.271910    8.965250
  H     -4.747580   -4.884680    6.559570
  H     -6.025200   -4.468260    7.698870
  H     -5.021640   -5.888710    8.013730
  H     -3.371770   -5.439030   11.249880
  H     -9.403010   -4.117780   10.651880
  H     -7.744920   -7.932350   13.405490
  H     -9.971040   -8.239740   14.313550
  H    -12.337590   -7.572640   14.452600
  H    -13.179240   -5.690170   13.105540
  H    -11.660910   -4.460780   11.605160

 Total Charge           Charge          ....    0
 Multiplicity           Mult            ....    1
 Number of Electrons    NEL             ....  526
 Basis Dimension        Dim             .... 1272

ORBITAL ENERGIES
----------------

  NO   OCC          E(Eh)            E(eV)
   0   2.0000     -19.224360      -523.1214
   1   2.0000     -19.220146      -523.0068
   2   2.0000     -19.218193      -522.9536
   3   2.0000     -19.211372      -522.7680
   4   2.0000     -19.182047      -521.9700
   5   2.0000     -19.179587      -521.9031
   6   2.0000     -14.493682      -394.3931
   7   2.0000     -14.487683      -394.2299
   8   2.0000     -14.447021      -393.1234
   9   2.0000     -14.445406      -393.0795
  10   2.0000     -14.424841      -392.5199
  11   2.0000     -14.422897      -392.4670
  12   2.0000     -14.420806      -392.4101
  13   2.0000     -14.418980      -392.3604
  14   2.0000     -14.418345      -392.3431
  15   2.0000     -14.417340      -392.3158
  16   2.0000     -10.402718      -283.0724
  17   2.0000     -10.396417      -282.9009
  18   2.0000     -10.377189      -282.3777
  19   2.0000     -10.368964      -282.1539
  20   2.0000     -10.366995      -282.1003
  21   2.0000     -10.363543      -282.0063
  22   2.0000     -10.362875      -281.9882
  23   2.0000     -10.358989      -281.8824
  24   2.0000     -10.357976      -281.8549
  25   2.0000     -10.348737      -281.6034
  26   2.0000     -10.346851      -281.5521
  27   2.0000     -10.346710      -281.5483
  28   2.0000     -10.345628      -281.5189
  29   2.0000     -10.335156      -281.2339
  30   2.0000     -10.335106      -281.2325
  31   2.0000     -10.334084      -281.2047
  32   2.0000     -10.322813      -280.8980
  33   2.0000     -10.321252      -280.8555
  34   2.0000     -10.320710      -280.8408
  35   2.0000     -10.319982      -280.8210
  36   2.0000     -10.319843      -280.8172
  37   2.0000     -10.318807      -280.7890
  38   2.0000     -10.318538      -280.7817
  39   2.0000     -10.317854      -280.7631
  40   2.0000     -10.317555      -280.7549
  41   2.0000     -10.307550      -280.4827
  42   2.0000     -10.307324      -280.4765
  43   2.0000     -10.307195      -280.4730
  44   2.0000     -10.306519      -280.4546
  45   2.0000     -10.306213      -280.4463
  46   2.0000     -10.304355      -280.3957
  47   2.0000     -10.304082      -280.3883
  48   2.0000     -10.302051      -280.3331
  49   2.0000     -10.301943      -280.3301
  50   2.0000     -10.301663      -280.3225
  51   2.0000     -10.301452      -280.3168
  52   2.0000     -10.301072      -280.3064
  53   2.0000     -10.300794      -280.2989
  54   2.0000     -10.300790      -280.2987
  55   2.0000     -10.300400      -280.2881
  56   2.0000     -10.300232      -280.2836
  57   2.0000     -10.294451      -280.1263
  58   2.0000     -10.292934      -280.0850
  59   2.0000     -10.292811      -280.0816
  60   2.0000     -10.292169      -280.0642
  61   2.0000     -10.290220      -280.0111
  62   2.0000     -10.289775      -279.9990
  63   2.0000     -10.289531      -279.9924
  64   2.0000     -10.289266      -279.9852
  65   2.0000     -10.289049      -279.9793
  66   2.0000     -10.288753      -279.9712
  67   2.0000     -10.288547      -279.9656
  68   2.0000     -10.288046      -279.9520
  69   2.0000     -10.285687      -279.8878
  70   2.0000     -10.281590      -279.7763
  71   2.0000     -10.280263      -279.7402
  72   2.0000     -10.280165      -279.7375
  73   2.0000     -10.277322      -279.6601
  74   2.0000     -10.264514      -279.3116
  75   2.0000     -10.252742      -278.9913
  76   2.0000     -10.251437      -278.9558
  77   2.0000     -10.242713      -278.7184
  78   2.0000      -1.161583       -31.6083
  79   2.0000      -1.151192       -31.3255
  80   2.0000      -1.140267       -31.0283
  81   2.0000      -1.133667       -30.8487
  82   2.0000      -1.124695       -30.6045
  83   2.0000      -1.117485       -30.4083
  84   2.0000      -1.092609       -29.7314
  85   2.0000      -1.085306       -29.5327
  86   2.0000      -1.079695       -29.3800
  87   2.0000      -1.055354       -28.7176
  88   2.0000      -1.046654       -28.4809
  89   2.0000      -1.023144       -27.8412
  90   2.0000      -1.021985       -27.8096
  91   2.0000      -1.002768       -27.2867
  92   2.0000      -1.002469       -27.2786
  93   2.0000      -1.002421       -27.2773
  94   2.0000      -0.998298       -27.1651
  95   2.0000      -0.996477       -27.1155
  96   2.0000      -0.977441       -26.5975
  97   2.0000      -0.977264       -26.5927
  98   2.0000      -0.967054       -26.3149
  99   2.0000      -0.957446       -26.0534
 100   2.0000      -0.927934       -25.2504
 101   2.0000      -0.927679       -25.2434
 102   2.0000      -0.921350       -25.0712
 103   2.0000      -0.911106       -24.7924
 104   2.0000      -0.907380       -24.6911
 105   2.0000      -0.893566       -24.3152
 106   2.0000      -0.885547       -24.0970
 107   2.0000      -0.885190       -24.0872
 108   2.0000      -0.882988       -24.0273
 109   2.0000      -0.881859       -23.9966
 110   2.0000      -0.876620       -23.8540
 111   2.0000      -0.867600       -23.6086
 112   2.0000      -0.863165       -23.4879
 113   2.0000      -0.856506       -23.3067
 114   2.0000      -0.842699       -22.9310
 115   2.0000      -0.832640       -22.6573
 116   2.0000      -0.831590       -22.6287
 117   2.0000      -0.824563       -22.4375
 118   2.0000      -0.811611       -22.0851
 119   2.0000      -0.799764       -21.7627
 120   2.0000      -0.798333       -21.7237
 121   2.0000      -0.781520       -21.2662
 122   2.0000      -0.776895       -21.1404
 123   2.0000      -0.766485       -20.8571
 124   2.0000      -0.766301       -20.8521
 125   2.0000      -0.756856       -20.5951
 126   2.0000      -0.752407       -20.4740
 127   2.0000      -0.749230       -20.3876
 128   2.0000      -0.739200       -20.1147
 129   2.0000      -0.727582       -19.7985
 130   2.0000      -0.718935       -19.5632
 131   2.0000      -0.718059       -19.5394
 132   2.0000      -0.709799       -19.3146
 133   2.0000      -0.706267       -19.2185
 134   2.0000      -0.705196       -19.1893
 135   2.0000      -0.704383       -19.1672
 136   2.0000      -0.701426       -19.0868
 137   2.0000      -0.688982       -18.7481
 138   2.0000      -0.686715       -18.6865
 139   2.0000      -0.681750       -18.5514
 140   2.0000      -0.679389       -18.4871
 141   2.0000      -0.674580       -18.3563
 142   2.0000      -0.665226       -18.1017
 143   2.0000      -0.647182       -17.6107
 144   2.0000      -0.644315       -17.5327
 145   2.0000      -0.643250       -17.5037
 146   2.0000      -0.634316       -17.2606
 147   2.0000      -0.632861       -17.2210
 148   2.0000      -0.631804       -17.1923
 149   2.0000      -0.620987       -16.8979
 150   2.0000      -0.616044       -16.7634
 151   2.0000      -0.611230       -16.6324
 152   2.0000      -0.610755       -16.6195
 153   2.0000      -0.607546       -16.5322
 154   2.0000      -0.597589       -16.2612
 155   2.0000      -0.597297       -16.2533
 156   2.0000      -0.592084       -16.1114
 157   2.0000      -0.586693       -15.9647
 158   2.0000      -0.584774       -15.9125
 159   2.0000      -0.577448       -15.7132
 160   2.0000      -0.570356       -15.5202
 161   2.0000      -0.569907       -15.5080
 162   2.0000      -0.566223       -15.4077
 163   2.0000      -0.563919       -15.3450
 164   2.0000      -0.560886       -15.2625
 165   2.0000      -0.555682       -15.1209
 166   2.0000      -0.551999       -15.0207
 167   2.0000      -0.550511       -14.9802
 168   2.0000      -0.548566       -14.9272
 169   2.0000      -0.548221       -14.9178
 170   2.0000      -0.545918       -14.8552
 171   2.0000      -0.544089       -14.8054
 172   2.0000      -0.540727       -14.7139
 173   2.0000      -0.540200       -14.6996
 174   2.0000      -0.537043       -14.6137
 175   2.0000      -0.535250       -14.5649
 176   2.0000      -0.532567       -14.4919
 177   2.0000      -0.529344       -14.4042
 178   2.0000      -0.527496       -14.3539
 179   2.0000      -0.526511       -14.3271
 180   2.0000      -0.525385       -14.2965
 181   2.0000      -0.525212       -14.2917
 182   2.0000      -0.523683       -14.2501
 183   2.0000      -0.520877       -14.1738
 184   2.0000      -0.518665       -14.1136
 185   2.0000      -0.517809       -14.0903
 186   2.0000      -0.515501       -14.0275
 187   2.0000      -0.514723       -14.0063
 188   2.0000      -0.513529       -13.9738
 189   2.0000      -0.511716       -13.9245
 190   2.0000      -0.509867       -13.8742
 191   2.0000      -0.507357       -13.8059
 192   2.0000      -0.507076       -13.7982
 193   2.0000      -0.500514       -13.6197
 194   2.0000      -0.500447       -13.6178
 195   2.0000      -0.499603       -13.5949
 196   2.0000      -0.497561       -13.5393
 197   2.0000      -0.496207       -13.5025
 198   2.0000      -0.494768       -13.4633
 199   2.0000      -0.492965       -13.4143
 200   2.0000      -0.490262       -13.3407
 201   2.0000      -0.488196       -13.2845
 202   2.0000      -0.483200       -13.1485
 203   2.0000      -0.474488       -12.9115
 204   2.0000      -0.470665       -12.8075
 205   2.0000      -0.470360       -12.7992
 206   2.0000      -0.469123       -12.7655
 207   2.0000      -0.466619       -12.6973
 208   2.0000      -0.461815       -12.5666
 209   2.0000      -0.457233       -12.4419
 210   2.0000      -0.456040       -12.4095
 211   2.0000      -0.455459       -12.3937
 212   2.0000      -0.454787       -12.3754
 213   2.0000      -0.452140       -12.3034
 214   2.0000      -0.451397       -12.2831
 215   2.0000      -0.448544       -12.2055
 216   2.0000      -0.447503       -12.1772
 217   2.0000      -0.446890       -12.1605
 218   2.0000      -0.445454       -12.1214
 219   2.0000      -0.444894       -12.1062
 220   2.0000      -0.441785       -12.0216
 221   2.0000      -0.438493       -11.9320
 222   2.0000      -0.437674       -11.9097
 223   2.0000      -0.436996       -11.8913
 224   2.0000      -0.435822       -11.8593
 225   2.0000      -0.434521       -11.8239
 226   2.0000      -0.433233       -11.7889
 227   2.0000      -0.429136       -11.6774
 228   2.0000      -0.428948       -11.6723
 229   2.0000      -0.427110       -11.6223
 230   2.0000      -0.423988       -11.5373
 231   2.0000      -0.422529       -11.4976
 232   2.0000      -0.421776       -11.4771
 233   2.0000      -0.416053       -11.3214
 234   2.0000      -0.413689       -11.2570
 235   2.0000      -0.412039       -11.2121
 236   2.0000      -0.411225       -11.1900
 237   2.0000      -0.404342       -11.0027
 238   2.0000      -0.397644       -10.8204
 239   2.0000      -0.394096       -10.7239
 240   2.0000      -0.388279       -10.5656
 241   2.0000      -0.386522       -10.5178
 242   2.0000      -0.378974       -10.3124
 243   2.0000      -0.377935       -10.2841
 244   2.0000      -0.370826       -10.0907
 245   2.0000      -0.359055        -9.7704
 246   2.0000      -0.351304        -9.5595
 247   2.0000      -0.348064        -9.4713
 248   2.0000      -0.339361        -9.2345
 249   2.0000      -0.338305        -9.2057
 250   2.0000      -0.337753        -9.1907
 251   2.0000      -0.325688        -8.8624
 252   2.0000      -0.322823        -8.7845
 253   2.0000      -0.322196        -8.7674
 254   2.0000      -0.320357        -8.7173
 255   2.0000      -0.318450        -8.6655
 256   2.0000      -0.310889        -8.4597
 257   2.0000      -0.308182        -8.3861
 258   2.0000      -0.304078        -8.2744
 259   2.0000      -0.296659        -8.0725
 260   2.0000      -0.295729        -8.0472
 261   2.0000      -0.275708        -7.5024
 262   2.0000      -0.238104        -6.4791
 263   0.0000      -0.095095        -2.5877
 264   0.0000      -0.089356        -2.4315
 265   0.0000      -0.067206        -1.8288
 266   0.0000      -0.061552        -1.6749
 267   0.0000      -0.058732        -1.5982

MULLIKEN ATOMIC CHARGES
-----------------------
   0 C :    0.277591
   1 C :   -0.337332
   2 C :   -0.182384
   3 N :    0.158843
   4 C :   -0.182769
   5 N :    0.177826
   6 C :    0.025678
   7 C :    0.017620
   8 C :   -0.078520
   9 C :    0.093411
  10 C :    0.092359
  11 C :   -0.074631
  12 C :   -0.013906
  13 C :    0.035576
  14 C :    0.035619
  15 C :   -0.013011
  16 C :    0.129346
  17 O :   -0.130880
  18 C :   -0.083236
  19 C :   -0.030449
  20 C :    0.101493
  21 C :    0.056321
  22 C :   -0.028552
  23 C :    0.017518
  24 C :   -0.005765
  25 C :   -0.064391
  26 N :   -0.014632
  27 C :    0.025475
  28 C :    0.030741
  29 N :   -0.006462
  30 C :    0.035261
  31 N :   -0.265055
  32 C :    0.107447
  33 C :    0.002887
  34 C :    0.156478
  35 O :   -0.178187
  36 C :   -0.053489
  37 C :   -0.009745
  38 C :    0.129666
  39 O :   -0.192973
  40 N :   -0.282803
  41 C :    0.093170
  42 C :   -0.003527
  43 C :    0.117101
  44 C :   -0.035735
  45 C :    0.076689
  46 N :   -0.199115
  47 C :   -0.087350
  48 C :    0.129839
  49 C :   -0.038558
  50 C :   -0.033642
  51 C :    0.182166
  52 O :   -0.149152
  53 C :   -0.036637
  54 C :    0.117661
  55 N :   -0.221168
  56 C :    0.177649
  57 O :   -0.154393
  58 C :    0.079066
  59 C :   -0.114798
  60 C :    0.289880
  61 C :   -0.325870
  62 C :   -0.180048
  63 N :    0.148604
  64 C :   -0.221334
  65 N :    0.170318
  66 C :    0.051179
  67 C :   -0.006499
  68 C :    0.153751
  69 O :   -0.152920
  70 C :   -0.077873
  71 C :    0.097560
  72 C :    0.095580
  73 C :   -0.080871
  74 C :   -0.017837
  75 C :    0.036850
  76 C :    0.037128
  77 C :   -0.016144
  78 H :   -0.010141
  79 H :   -0.004622
  80 H :   -0.010008
  81 H :   -0.002890
  82 H :   -0.003244
  83 H :   -0.016381
  84 H :    0.051197
  85 H :   -0.014994
  86 H :   -0.014796
  87 H :    0.015763
  88 H :    0.015226
  89 H :    0.018014
  90 H :    0.042159
  91 H :    0.038387
  92 H :    0.019793
  93 H :    0.017172
  94 H :    0.019168
  95 H :    0.046909
  96 H :    0.021754
  97 H :    0.019725
  98 H :    0.029675
  99 H :    0.045126
 100 H :   -0.022837
 101 H :    0.048129
 102 H :    0.049345
 103 H :    0.048829
 104 H :    0.046306
 105 H :    0.075855
 106 H :    0.032025
 107 H :    0.067078
 108 H :   -0.010861
 109 H :   -0.005885
 110 H :   -0.008390
 111 H :   -0.002432
 112 H :   -0.003122
 113 H :   -0.015731
Sum of atomic charges:   -0.0000000

LOEWDIN ATOMIC CHARGES
----------------------
   0 C :    0.067728
   1 C :   -0.131662
   2 C :   -0.017897
   3 N :   -0.046927
   4 C :   -0.012215
   5 N :   -0.036070
   6 C :   -0.024503
   7 C :   -0.057778
   8 C :    0.034985
   9 C :   -0.007972
  10 C :   -0.004988
  11 C :    0.019244
  12 C :   -0.005132
  13 C :   -0.011770
  14 C :   -0.011290
  15 C :   -0.008438
  16 C :    0.084555
  17 O :   -0.133059
  18 C :   -0.081072
  19 C :    0.074548
  20 C :   -0.027855
  21 C :   -0.014791
  22 C :    0.030128
  23 C :   -0.000833
  24 C :   -0.010038
  25 C :    0.018167
  26 N :   -0.037232
  27 C :    0.007359
  28 C :    0.011186
  29 N :   -0.032404
  30 C :    0.072634
  31 N :   -0.001244
  32 C :    0.034077
  33 C :   -0.061464
  34 C :    0.080964
  35 O :   -0.183949
  36 C :   -0.122143
  37 C :   -0.126555
  38 C :    0.081095
  39 O :   -0.196830
  40 N :   -0.015735
  41 C :    0.031609
  42 C :   -0.065229
  43 C :    0.080788
  44 C :   -0.054421
  45 C :    0.035362
  46 N :    0.018642
  47 C :    0.086521
  48 C :   -0.049380
  49 C :   -0.130128
  50 C :   -0.118761
  51 C :    0.101982
  52 O :   -0.144070
  53 C :    0.107021
  54 C :   -0.052154
  55 N :    0.023781
  56 C :    0.104790
  57 O :   -0.157149
  58 C :    0.123573
  59 C :   -0.116217
  60 C :    0.076610
  61 C :   -0.136412
  62 C :   -0.017650
  63 N :   -0.049374
  64 C :   -0.029105
  65 N :   -0.046906
  66 C :   -0.026259
  67 C :   -0.056695
  68 C :    0.085708
  69 O :   -0.145967
  70 C :    0.034559
  71 C :   -0.008376
  72 C :   -0.005672
  73 C :    0.021485
  74 C :   -0.004896
  75 C :   -0.011417
  76 C :   -0.011008
  77 C :   -0.008452
  78 H :    0.040327
  79 H :    0.039314
  80 H :    0.034856
  81 H :    0.033900
  82 H :    0.033447
  83 H :    0.032445
  84 H :    0.051453
  85 H :    0.044492
  86 H :    0.037098
  87 H :    0.027618
  88 H :    0.027876
  89 H :    0.018907
  90 H :    0.036511
  91 H :    0.023700
  92 H :    0.030687
  93 H :    0.026125
  94 H :    0.014604
  95 H :    0.038930
  96 H :    0.020266
  97 H :    0.028697
  98 H :    0.034149
  99 H :    0.052763
 100 H :    0.025282
 101 H :    0.047616
 102 H :    0.055522
 103 H :    0.048717
 104 H :    0.051566
 105 H :    0.056860
 106 H :    0.041015
 107 H :    0.048623
 108 H :    0.039879
 109 H :    0.039771
 110 H :    0.035187
 111 H :    0.034062
 112 H :    0.033620
 113 H :    0.032560

  Mayer bond orders larger than 0.100000
B(  0-C ,  1-C ) :   1.6728 B(  0-C ,  6-C ) :   1.0006 B(  0-C , 18-C ) :   1.0101
B(  1-C ,  2-C ) :   1.1296 B(  1-C ,  4-C ) :   1.1714 B(  2-C ,  3-N ) :   2.9910
B(  4-C ,  5-N ) :   2.9443 B(  6-C ,  7-C ) :   1.2126 B(  6-C , 11-C ) :   1.4518
B(  7-C ,  8-C ) :   1.4692 B(  7-C , 16-C ) :   0.9223 B(  8-C ,  9-C ) :   1.1868
B(  8-C , 78-H ) :   1.0161 B(  9-C , 10-C ) :   1.2545 B(  9-C , 15-C ) :   1.2434
B( 10-C , 11-C ) :   1.2098 B( 10-C , 12-C ) :   1.2393 B( 11-C , 79-H ) :   0.9925
B( 12-C , 13-C ) :   1.4911 B( 12-C , 80-H ) :   0.9972 B( 13-C , 14-C ) :   1.2588
B( 13-C , 81-H ) :   0.9884 B( 14-C , 15-C ) :   1.4910 B( 14-C , 82-H ) :   0.9889
B( 15-C , 83-H ) :   0.9973 B( 16-C , 17-O ) :   2.2803 B( 16-C , 18-C ) :   0.9215
B( 18-C , 19-C ) :   1.7161 B( 19-C , 20-C ) :   1.0182 B( 19-C , 84-H ) :   0.9310
B( 20-C , 21-C ) :   1.2424 B( 20-C , 25-C ) :   1.3844 B( 21-C , 22-C ) :   1.4392
B( 21-C , 30-C ) :   0.9552 B( 22-C , 23-C ) :   1.2045 B( 22-C , 25-C ) :   0.1028
B( 22-C , 85-H ) :   1.0191 B( 23-C , 24-C ) :   1.2476 B( 23-C , 29-N ) :   1.4252
B( 24-C , 25-C ) :   1.2357 B( 24-C , 26-N ) :   1.4345 B( 25-C , 86-H ) :   1.0117
B( 26-N , 27-C ) :   1.6753 B( 27-C , 28-C ) :   1.2168 B( 27-C , 87-H ) :   0.9737
B( 28-C , 29-N ) :   1.6790 B( 28-C , 88-H ) :   0.9737 B( 30-C , 31-N ) :   1.2150
B( 30-C , 37-C ) :   1.4646 B( 31-N , 32-C ) :   0.9430 B( 31-N , 34-C ) :   1.0007
B( 32-C , 33-C ) :   1.1217 B( 32-C , 89-H ) :   0.9388 B( 32-C , 90-H ) :   0.9241
B( 33-C , 91-H ) :   0.9604 B( 33-C , 92-H ) :   0.9657 B( 33-C , 93-H ) :   0.9611
B( 34-C , 35-O ) :   2.1461 B( 34-C , 36-C ) :   0.9855 B( 36-C , 37-C ) :   1.1838
B( 36-C , 43-C ) :   1.4005 B( 37-C , 38-C ) :   0.9668 B( 38-C , 39-O ) :   2.1447
B( 38-C , 40-N ) :   1.0261 B( 40-N , 41-C ) :   0.9522 B( 40-N , 43-C ) :   1.1490
B( 41-C , 42-C ) :   1.1130 B( 41-C , 94-H ) :   0.9496 B( 41-C , 95-H ) :   0.9178
B( 42-C , 96-H ) :   0.9678 B( 42-C , 97-H ) :   0.9670 B( 42-C , 98-H ) :   0.9604
B( 43-C , 44-C ) :   1.1524 B( 44-C , 45-C ) :   1.6355 B( 44-C , 99-H ) :   0.9360
B( 45-C , 46-N ) :   1.0654 B( 45-C ,100-H ) :   0.9664 B( 46-N , 47-C ) :   1.1419
B( 46-N , 51-C ) :   0.9560 B( 47-C , 48-C ) :   1.1277 B( 47-C , 49-C ) :   1.4999
B( 48-C ,101-H ) :   0.9240 B( 48-C ,102-H ) :   0.9290 B( 48-C ,103-H ) :   0.9273
B( 49-C , 50-C ) :   1.1653 B( 49-C , 56-C ) :   0.9785 B( 50-C , 51-C ) :   0.9734
B( 50-C , 53-C ) :   1.5375 B( 51-C , 52-O ) :   2.1622 B( 53-C , 54-C ) :   1.1426
B( 53-C , 55-N ) :   1.0817 B( 54-C ,104-H ) :   0.9289 B( 54-C ,105-H ) :   0.9097
B( 54-C ,106-H ) :   0.9289 B( 55-N , 56-C ) :   0.9307 B( 55-N , 58-C ) :   1.1535
B( 56-C , 57-O ) :   2.1969 B( 58-C , 59-C ) :   1.5840 B( 58-C ,107-H ) :   0.9493
B( 59-C , 60-C ) :   1.0677 B( 59-C , 68-C ) :   0.9342 B( 60-C , 61-C ) :   1.6616
B( 60-C , 66-C ) :   1.0018 B( 61-C , 62-C ) :   1.1394 B( 61-C , 64-C ) :   1.1369
B( 62-C , 63-N ) :   2.9720 B( 64-C , 65-N ) :   3.0128 B( 66-C , 67-C ) :   1.2118
B( 66-C , 73-C ) :   1.4500 B( 67-C , 68-C ) :   0.9492 B( 67-C , 70-C ) :   1.4708
B( 68-C , 69-O ) :   2.2021 B( 70-C , 71-C ) :   1.1792 B( 70-C ,108-H ) :   1.0179
B( 71-C , 72-C ) :   1.2560 B( 71-C , 77-C ) :   1.2440 B( 72-C , 73-C ) :   1.2034
B( 72-C , 74-C ) :   1.2394 B( 73-C ,109-H ) :   0.9930 B( 74-C , 75-C ) :   1.4887
B( 74-C ,110-H ) :   0.9981 B( 75-C , 76-C ) :   1.2597 B( 75-C ,111-H ) :   0.9891
B( 76-C , 77-C ) :   1.4878 B( 76-C ,112-H ) :   0.9888 B( 77-C ,113-H ) :   0.9987

-----------------------------------------------------------------------------
         ABSORPTION SPECTRUM VIA TRANSITION ELECTRIC DIPOLE MOMENTS
-----------------------------------------------------------------------------
State   Energy  Wavelength   fosc         T2         TX        TY        TZ
        (cm-1)    (nm)                  (au**2)     (au)      (au)      (au)
-----------------------------------------------------------------------------
   0   15716.3    636.3   0.052556249   1.10090   0.32664  -0.58311   0.80882
   1   20897.8    478.5   0.337792356   5.32138  -0.25978   0.87395  -2.11899
   2   21207.3    471.5   0.562905715   8.73829   0.24814   1.40794  -2.58736
   3   23905.4    418.3   0.192284282   2.64803  -0.86904  -1.13267   0.78093
   4   24889.0    401.8   0.030585528   0.40456  -0.22740  -0.46410   0.37076
   5   25410.5    393.5   0.072978789   0.94549   0.60865   0.58383  -0.48393
   6   25976.0    385.0   0.139627654   1.76960   1.24308  -0.05984   0.46987
   7   27034.0    369.9   0.171002017   2.08241  -1.06316   0.96650  -0.13407
   8   27497.2    363.7   0.070234566   0.84089  -0.17758   0.59305  -0.67649
   9   28061.4    356.4   0.083430084   0.97879   0.81212  -0.48234   0.29429
  10   28114.8    355.7   0.034263641   0.40121   0.09509   0.15240   0.60741
  11   28493.1    351.0   0.252237760   2.91437   0.57852   1.15578  -1.11528
  12   28648.2    349.1   0.015250918   0.17526  -0.14489   0.28243   0.27294
  13   28913.8    345.9   0.012044273   0.13714   0.31198   0.18578  -0.07274
  14   28971.2    345.2   0.067060790   0.76204  -0.65975  -0.44964   0.35297
  15   29188.4    342.6   0.142105344   1.60279  -1.13070  -0.40776   0.39752
  16   29972.8    333.6   0.002796951   0.03072  -0.01656  -0.17317  -0.02145
  17   30264.9    330.4   0.008893590   0.09674  -0.09996   0.18438  -0.22968
  18   30334.9    329.7   0.090689233   0.98421  -0.67179   0.67765  -0.27147
  19   30445.5    328.5   0.012067062   0.13048  -0.09381   0.26918  -0.22186
  20   30727.5    325.4   0.077240779   0.82755   0.87774  -0.00117  -0.23900
  21   31250.8    320.0   0.001452734   0.01530   0.00003  -0.00202  -0.12369
  22   31806.1    314.4   0.011401509   0.11801   0.08382  -0.25703   0.21195
  23   32114.3    311.4   0.072699465   0.74526  -0.67006  -0.45365   0.30080
  24   32627.2    306.5   0.151980936   1.53350  -0.53875  -0.83722   0.73642
  25   33231.2    300.9   0.039366869   0.39000  -0.21651  -0.55931   0.17404
  26   33575.2    297.8   0.126041124   1.23586  -0.61603   0.82355   0.42207
  27   33827.4    295.6   0.005109407   0.04973  -0.14672  -0.03856  -0.16344
  28   34218.0    292.2   0.443316684   4.26516   1.16380  -1.70513  -0.05705
  29   34282.1    291.7   0.145991167   1.40196   0.59894  -0.76771   0.67368
  30   34346.1    291.2   0.253086126   2.42587  -0.33110  -1.50774   0.20725
  31   34455.0    290.2   1.760530759  16.82158  -3.70058   1.08429   1.39699
  32   34700.8    288.2   0.081317881   0.77148  -0.75742   0.37054   0.24595
  33   34992.4    285.8   0.234266696   2.20400   0.60206  -1.04781   0.86233
  34   35162.9    284.4   0.031941612   0.29905   0.50465   0.03965  -0.20690
  35   35430.5    282.2   0.045932969   0.42680   0.46941   0.17327  -0.42004
  36   35920.8    278.4   0.002700192   0.02475   0.14789  -0.05023   0.01880
  37   36591.3    273.3   0.023154816   0.20832   0.24340  -0.07428   0.37890
  38   37379.6    267.5   0.025741993   0.22672   0.40897   0.19395   0.14780
  39   37604.7    265.9   0.234654731   2.05430   0.89864   0.61244  -0.93363
  40   37670.6    265.5   0.006321001   0.05524   0.06626   0.17550  -0.14160
  41   38140.4    262.2   0.028829803   0.24885   0.46366  -0.05612  -0.17527
  42   38406.8    260.4   0.005554613   0.04761   0.08237  -0.03425   0.19914
  43   38519.1    259.6   0.045776414   0.39124  -0.49397   0.11897   0.36480
  44   38643.2    258.8   0.019652606   0.16743  -0.05769  -0.16963   0.36786
  45   38712.9    258.3   0.081778644   0.69544  -0.16128   0.55946  -0.59702
  46   39044.8    256.1   0.030566427   0.25773  -0.28396  -0.29146   0.30355
  47   39073.0    255.9   0.115505947   0.97320   0.00095   0.68565  -0.70929
  48   39263.4    254.7   0.032341054   0.27117   0.51853   0.03059  -0.03690
  49   39434.6    253.6   0.160416804   1.33921   0.01517   0.94974  -0.66103
  50   39544.0    252.9   0.021221657   0.17667   0.33574   0.24062   0.07780
  51   39687.1    252.0   0.031721360   0.26313   0.32468  -0.38899   0.08003
  52   39696.8    251.9   0.015663795   0.12990   0.04928   0.17405  -0.31174
  53   40040.1    249.7   0.006905856   0.05678  -0.22794  -0.06717   0.01761
  54   40221.6    248.6   0.034962605   0.28617   0.46733  -0.17708  -0.19081

FINAL SINGLE POINT ENERGY     -3378.875381402507

DIPOLE MOMENT
-------------
                                X             Y             Z
Electronic contribution:     -1.84411      -6.65776       2.82934
Nuclear contribution   :     -0.03518       9.46155      -1.93825
                        -----------------------------------------
Total Dipole Moment    :     -1.87929       2.80378       0.89109
                        -----------------------------------------
Magnitude (a.u.)       :      3.49099
Magnitude (Debye)      :      8.87338

Rotational constants in cm-1:     0.001428     0.000248     0.000221
Rotational constants in MHz :    42.821728     7.436467     6.636692

                             ****ORCA TERMINATED NORMALLY****
TOTAL RUN TIME: 0 days 0 hours 11 minutes 44 seconds 22 msec
