                         Program Version 4.2.0 -  RELEASE  -
|  1> # ORCA input file
|  2> # SCF done       -204.334856535562          0.000970699059
|  3> ! CAM-B3LYP def2-SVP def2/J RIJCOSX Grid4 TightSCF
|  4> %maxcore 5000
|  5> %tddft
|  6>     Mode sTDDFT
|  7>     Ethresh 5.0
|  8>     maxcore 5000
|  9> end
| 10>
| 11> %pal
| 12>   nprocs 6
| 13>   end
| 14> * xyz 0 1
| 15>    C       -1.93316         0.73127        -0.05367
| 16>    C       -1.78646         0.14878        -1.28512
| 17>    C       -2.23772        -1.15002        -1.60511
| 18>    N       -2.58583        -2.19200        -1.93680
| 19>    C       -1.18374         0.75183        -2.40874
| 20>    N       -0.70195         1.17672        -3.36060
| 21>    C       -2.52782         0.10216         1.11845
| 22>    C       -2.53874         1.04078         2.19084
| 23>    C       -3.01458         0.71938         3.42935
| 24>    C       -3.50212        -0.58607         3.66078
| 25>    C       -3.50412        -1.52923         2.59191
| 26>    C       -3.01257        -1.16450         1.31812
| 27>    C       -3.99528        -2.82863         2.83374
| 28>    C       -4.45671        -3.18284         4.07227
| 29>    C       -4.44978        -2.25501         5.12472
| 30>    C       -3.98361        -0.98393         4.92326
| 31>    C       -1.96772         2.31282         1.73278
| 32>    O       -1.97881         3.37629         2.31283
| 33>    C       -1.48828         2.05946         0.34065
| 34>    C       -0.82614         2.96108        -0.43147
| 35>    C       -0.20186         4.14811         0.03973
| 36>    S       -0.01074         5.51592        -1.00543
| 37>    C        0.81153         6.44125         0.21508
| 38>    C        0.96358         5.68172         1.37203
| 39>    C        0.41620         4.39412         1.26132
| 40>    O        0.55089         3.39533         2.16246
| 41>    C        1.01479         3.52721         3.41392
| 42>    O        1.02912         2.56704         4.13015
| 43>    C        1.59234         4.84484         3.91329
| 44>    O        1.96948         4.96169         5.04462
| 45>    S        1.83003         6.20394         2.79618
| 46>    C        1.20763         7.79759         0.04025
| 47>    N        1.66112         8.35446        -1.12755
| 48>    C        1.83368         7.72177        -2.41293
| 49>    C        0.61784         7.93830        -3.30955
| 50>    C        2.02899         9.71370        -0.95415
| 51>    O        2.51685        10.38291        -1.83417
| 52>    C        1.70459         9.98735         0.42668
| 53>    C        1.22405         8.79150         1.01525
| 54>    C        0.83319         9.10316         2.37234
| 55>    O        0.30386         8.43440         3.23594
| 56>    N        1.17584        10.45757         2.53817
| 57>    C        0.89290        11.10984         3.79514
| 58>    C        2.03177        10.91910         4.79460
| 59>    C        1.68923        10.99957         1.38312
| 60>    C        2.12755        12.32792         1.13157
| 61>    C        2.54664        13.25136         2.03211
| 62>    C        3.02479        14.54500         1.69517
| 63>    S        3.75436        15.49611         2.96786
| 64>    C        4.12587        16.81448         1.88638
| 65>    C        3.65595        16.50569         0.61393
| 66>    C        3.03480        15.25108         0.49513
| 67>    C        2.52250        15.07336        -0.87196
| 68>    O        1.84286        14.17840        -1.30633
| 69>    C        2.98847        16.29181        -1.65740
| 70>    C        3.61274        17.24579        -0.65285
| 71>    O        3.96043        18.38130        -0.85584
| 72>    C        4.84060        17.99741         2.17193
| 73>    C        5.23949        18.48597         3.38043
| 74>    C        5.98139        19.71760         3.59796
| 75>    C        6.74942        20.37046         2.67338
| 76>    C        7.45903        21.55976         2.94419
| 77>    N        8.04735        22.53064         3.11106
| 78>    C        7.00304        19.89965         1.36548
| 79>    N        7.29969        19.54693         0.31499
| 80>    C        5.85005        20.06183         5.00803
| 81>    C        5.17005        18.99861         5.67223
| 82>    C        4.82456        17.95812         4.69511
| 83>    O        4.28459        16.89004         4.91974
| 84>    C        4.91682        19.03140         7.01408
| 85>    C        5.33212        20.15335         7.76503
| 86>    C        6.00642        21.22314         7.10721
| 87>    C        6.26034        21.15863         5.71765
| 88>    C        6.41225        22.33890         7.86684
| 89>    C        6.16441        22.39782         9.21152
| 90>    C        5.50006        21.34480         9.85798
| 91>    C        5.09362        20.24595         9.15050
| 92>    H       -3.00383         1.44801         4.22595
| 93>    H       -3.02525        -1.90283         0.53218
| 94>    H       -3.99683        -3.54004         2.02099
| 95>    H       -4.82820        -4.18119         4.24839
| 96>    H       -4.81513        -2.55276         6.09608
| 97>    H       -3.97482        -0.26560         5.72961
| 98>    H       -0.74526         2.79628        -1.49817
| 99>    H        2.03408         6.65765        -2.27333
|100>    H        2.70611         8.19454        -2.87381
|101>    H       -0.28134         7.53480        -2.85003
|102>    H        0.77390         7.44471        -4.26395
|103>    H        0.47770         9.00189        -3.48401
|104>    H       -0.00874        10.63569         4.19528
|105>    H        0.68486        12.16551         3.61193
|106>    H        2.13707         9.86286         5.02866
|107>    H        1.81238        11.45816         5.71195
|108>    H        2.97739        11.27665         4.39251
|109>    H        2.16861        12.56751         0.07595
|110>    H        2.60948        13.01933         3.08518
|111>    H        2.17114        16.75648        -2.21124
|112>    H        3.73469        15.98918        -2.39651
|113>    H        5.05392        18.58438         1.28445
|114>    H        4.40392        18.21243         7.49622
|115>    H        6.76772        21.98552         5.24642
|116>    H        6.92468        23.14644         7.36512
|117>    H        6.47918        23.25691         9.78456
|118>    H        5.31182        21.40862        10.91915
|119>    H        4.58209        19.43203         9.64303
|120> *
|121>
|122>                          ****END OF INPUT****

CARTESIAN COORDINATES (ANGSTROEM)
---------------------------------
  C     -1.933160    0.731270   -0.053670
  C     -1.786460    0.148780   -1.285120
  C     -2.237720   -1.150020   -1.605110
  N     -2.585830   -2.192000   -1.936800
  C     -1.183740    0.751830   -2.408740
  N     -0.701950    1.176720   -3.360600
  C     -2.527820    0.102160    1.118450
  C     -2.538740    1.040780    2.190840
  C     -3.014580    0.719380    3.429350
  C     -3.502120   -0.586070    3.660780
  C     -3.504120   -1.529230    2.591910
  C     -3.012570   -1.164500    1.318120
  C     -3.995280   -2.828630    2.833740
  C     -4.456710   -3.182840    4.072270
  C     -4.449780   -2.255010    5.124720
  C     -3.983610   -0.983930    4.923260
  C     -1.967720    2.312820    1.732780
  O     -1.978810    3.376290    2.312830
  C     -1.488280    2.059460    0.340650
  C     -0.826140    2.961080   -0.431470
  C     -0.201860    4.148110    0.039730
  S     -0.010740    5.515920   -1.005430
  C      0.811530    6.441250    0.215080
  C      0.963580    5.681720    1.372030
  C      0.416200    4.394120    1.261320
  O      0.550890    3.395330    2.162460
  C      1.014790    3.527210    3.413920
  O      1.029120    2.567040    4.130150
  C      1.592340    4.844840    3.913290
  O      1.969480    4.961690    5.044620
  S      1.830030    6.203940    2.796180
  C      1.207630    7.797590    0.040250
  N      1.661120    8.354460   -1.127550
  C      1.833680    7.721770   -2.412930
  C      0.617840    7.938300   -3.309550
  C      2.028990    9.713700   -0.954150
  O      2.516850   10.382910   -1.834170
  C      1.704590    9.987350    0.426680
  C      1.224050    8.791500    1.015250
  C      0.833190    9.103160    2.372340
  O      0.303860    8.434400    3.235940
  N      1.175840   10.457570    2.538170
  C      0.892900   11.109840    3.795140
  C      2.031770   10.919100    4.794600
  C      1.689230   10.999570    1.383120
  C      2.127550   12.327920    1.131570
  C      2.546640   13.251360    2.032110
  C      3.024790   14.545000    1.695170
  S      3.754360   15.496110    2.967860
  C      4.125870   16.814480    1.886380
  C      3.655950   16.505690    0.613930
  C      3.034800   15.251080    0.495130
  C      2.522500   15.073360   -0.871960
  O      1.842860   14.178400   -1.306330
  C      2.988470   16.291810   -1.657400
  C      3.612740   17.245790   -0.652850
  O      3.960430   18.381300   -0.855840
  C      4.840600   17.997410    2.171930
  C      5.239490   18.485970    3.380430
  C      5.981390   19.717600    3.597960
  C      6.749420   20.370460    2.673380
  C      7.459030   21.559760    2.944190
  N      8.047350   22.530640    3.111060
  C      7.003040   19.899650    1.365480
  N      7.299690   19.546930    0.314990
  C      5.850050   20.061830    5.008030
  C      5.170050   18.998610    5.672230
  C      4.824560   17.958120    4.695110
  O      4.284590   16.890040    4.919740
  C      4.916820   19.031400    7.014080
  C      5.332120   20.153350    7.765030
  C      6.006420   21.223140    7.107210
  C      6.260340   21.158630    5.717650
  C      6.412250   22.338900    7.866840
  C      6.164410   22.397820    9.211520
  C      5.500060   21.344800    9.857980
  C      5.093620   20.245950    9.150500
  H     -3.003830    1.448010    4.225950
  H     -3.025250   -1.902830    0.532180
  H     -3.996830   -3.540040    2.020990
  H     -4.828200   -4.181190    4.248390
  H     -4.815130   -2.552760    6.096080
  H     -3.974820   -0.265600    5.729610
  H     -0.745260    2.796280   -1.498170
  H      2.034080    6.657650   -2.273330
  H      2.706110    8.194540   -2.873810
  H     -0.281340    7.534800   -2.850030
  H      0.773900    7.444710   -4.263950
  H      0.477700    9.001890   -3.484010
  H     -0.008740   10.635690    4.195280
  H      0.684860   12.165510    3.611930
  H      2.137070    9.862860    5.028660
  H      1.812380   11.458160    5.711950
  H      2.977390   11.276650    4.392510
  H      2.168610   12.567510    0.075950
  H      2.609480   13.019330    3.085180
  H      2.171140   16.756480   -2.211240
  H      3.734690   15.989180   -2.396510
  H      5.053920   18.584380    1.284450
  H      4.403920   18.212430    7.496220
  H      6.767720   21.985520    5.246420
  H      6.924680   23.146440    7.365120
  H      6.479180   23.256910    9.784560
  H      5.311820   21.408620   10.919150
  H      4.582090   19.432030    9.643030

 Total Charge           Charge          ....    0
 Multiplicity           Mult            ....    1
 Number of Electrons    NEL             ....  544
 Basis Dimension        Dim             .... 1230

ORBITAL ENERGIES
----------------

  NO   OCC          E(Eh)            E(eV)
   0   2.0000     -88.995910     -2421.7018
   1   2.0000     -88.990084     -2421.5433
   2   2.0000     -88.975604     -2421.1493
   3   2.0000     -19.315073      -525.5898
   4   2.0000     -19.243977      -523.6552
   5   2.0000     -19.235037      -523.4120
   6   2.0000     -19.233618      -523.3733
   7   2.0000     -19.227265      -523.2005
   8   2.0000     -19.224069      -523.1135
   9   2.0000     -19.219584      -522.9915
  10   2.0000     -19.200914      -522.4834
  11   2.0000     -19.199608      -522.4479
  12   2.0000     -14.467021      -393.6677
  13   2.0000     -14.464870      -393.6091
  14   2.0000     -14.423523      -392.4840
  15   2.0000     -14.419926      -392.3861
  16   2.0000     -14.419520      -392.3751
  17   2.0000     -14.416984      -392.3061
  18   2.0000     -10.437611      -284.0218
  19   2.0000     -10.410768      -283.2914
  20   2.0000     -10.385167      -282.5948
  21   2.0000     -10.383704      -282.5550
  22   2.0000     -10.383349      -282.5453
  23   2.0000     -10.381255      -282.4883
  24   2.0000     -10.379303      -282.4352
  25   2.0000     -10.378550      -282.4147
  26   2.0000     -10.370723      -282.2017
  27   2.0000     -10.364859      -282.0421
  28   2.0000     -10.350849      -281.6609
  29   2.0000     -10.349710      -281.6299
  30   2.0000     -10.349268      -281.6179
  31   2.0000     -10.349030      -281.6114
  32   2.0000     -10.346992      -281.5560
  33   2.0000     -10.346614      -281.5457
  34   2.0000     -10.345845      -281.5248
  35   2.0000     -10.338754      -281.3318
  36   2.0000     -10.338542      -281.3260
  37   2.0000     -10.338376      -281.3215
  38   2.0000     -10.332145      -281.1520
  39   2.0000     -10.330747      -281.1139
  40   2.0000     -10.325896      -280.9819
  41   2.0000     -10.322043      -280.8771
  42   2.0000     -10.321992      -280.8757
  43   2.0000     -10.318497      -280.7806
  44   2.0000     -10.316231      -280.7189
  45   2.0000     -10.315961      -280.7116
  46   2.0000     -10.313041      -280.6321
  47   2.0000     -10.311320      -280.5853
  48   2.0000     -10.310680      -280.5679
  49   2.0000     -10.310179      -280.5542
  50   2.0000     -10.307502      -280.4814
  51   2.0000     -10.305975      -280.4399
  52   2.0000     -10.305593      -280.4294
  53   2.0000     -10.305426      -280.4249
  54   2.0000     -10.304592      -280.4022
  55   2.0000     -10.304329      -280.3950
  56   2.0000     -10.303238      -280.3654
  57   2.0000     -10.302429      -280.3433
  58   2.0000     -10.299647      -280.2676
  59   2.0000     -10.299349      -280.2595
  60   2.0000     -10.299094      -280.2526
  61   2.0000     -10.298099      -280.2255
  62   2.0000     -10.297625      -280.2126
  63   2.0000     -10.292818      -280.0818
  64   2.0000     -10.292285      -280.0673
  65   2.0000     -10.291906      -280.0570
  66   2.0000     -10.291307      -280.0407
  67   2.0000     -10.290569      -280.0206
  68   2.0000     -10.288794      -279.9723
  69   2.0000     -10.287737      -279.9435
  70   2.0000     -10.287182      -279.9284
  71   2.0000     -10.286913      -279.9211
  72   2.0000     -10.286653      -279.9141
  73   2.0000     -10.278761      -279.6993
  74   2.0000     -10.274707      -279.5890
  75   2.0000     -10.269561      -279.4490
  76   2.0000     -10.266824      -279.3745
  77   2.0000      -8.090649      -220.1577
  78   2.0000      -8.083170      -219.9543
  79   2.0000      -8.071534      -219.6376
  80   2.0000      -6.060113      -164.9041
  81   2.0000      -6.055891      -164.7892
  82   2.0000      -6.052474      -164.6962
  83   2.0000      -6.052401      -164.6942
  84   2.0000      -6.047782      -164.5685
  85   2.0000      -6.045877      -164.5167
  86   2.0000      -6.041320      -164.3927
  87   2.0000      -6.036799      -164.2697
  88   2.0000      -6.032412      -164.1503
  89   2.0000      -1.245517       -33.8922
  90   2.0000      -1.169507       -31.8239
  91   2.0000      -1.148587       -31.2546
  92   2.0000      -1.145103       -31.1598
  93   2.0000      -1.144972       -31.1563
  94   2.0000      -1.139889       -31.0179
  95   2.0000      -1.139100       -30.9965
  96   2.0000      -1.137928       -30.9646
  97   2.0000      -1.133577       -30.8462
  98   2.0000      -1.076855       -29.3027
  99   2.0000      -1.067551       -29.0495
 100   2.0000      -1.027043       -27.9473
 101   2.0000      -1.024073       -27.8664
 102   2.0000      -1.022972       -27.8365
 103   2.0000      -1.019605       -27.7449
 104   2.0000      -1.004430       -27.3319
 105   2.0000      -1.002928       -27.2911
 106   2.0000      -0.999167       -27.1887
 107   2.0000      -0.996710       -27.1218
 108   2.0000      -0.978504       -26.6264
 109   2.0000      -0.974832       -26.5265
 110   2.0000      -0.947779       -25.7904
 111   2.0000      -0.939022       -25.5521
 112   2.0000      -0.937785       -25.5184
 113   2.0000      -0.936234       -25.4762
 114   2.0000      -0.926572       -25.2133
 115   2.0000      -0.924437       -25.1552
 116   2.0000      -0.911600       -24.8059
 117   2.0000      -0.905422       -24.6378
 118   2.0000      -0.895011       -24.3545
 119   2.0000      -0.888633       -24.1809
 120   2.0000      -0.886373       -24.1194
 121   2.0000      -0.883010       -24.0279
 122   2.0000      -0.879898       -23.9432
 123   2.0000      -0.871784       -23.7224
 124   2.0000      -0.854205       -23.2441
 125   2.0000      -0.847911       -23.0728
 126   2.0000      -0.835541       -22.7362
 127   2.0000      -0.831856       -22.6360
 128   2.0000      -0.830408       -22.5966
 129   2.0000      -0.829689       -22.5770
 130   2.0000      -0.819709       -22.3054
 131   2.0000      -0.809391       -22.0247
 132   2.0000      -0.788942       -21.4682
 133   2.0000      -0.784215       -21.3396
 134   2.0000      -0.771079       -20.9821
 135   2.0000      -0.769430       -20.9373
 136   2.0000      -0.768690       -20.9171
 137   2.0000      -0.765803       -20.8386
 138   2.0000      -0.747439       -20.3388
 139   2.0000      -0.735355       -20.0100
 140   2.0000      -0.731304       -19.8998
 141   2.0000      -0.720309       -19.6006
 142   2.0000      -0.714466       -19.4416
 143   2.0000      -0.712298       -19.3826
 144   2.0000      -0.707491       -19.2518
 145   2.0000      -0.706526       -19.2255
 146   2.0000      -0.702538       -19.1170
 147   2.0000      -0.699426       -19.0324
 148   2.0000      -0.695498       -18.9255
 149   2.0000      -0.693543       -18.8723
 150   2.0000      -0.687674       -18.7126
 151   2.0000      -0.678480       -18.4624
 152   2.0000      -0.677269       -18.4294
 153   2.0000      -0.662690       -18.0327
 154   2.0000      -0.657580       -17.8937
 155   2.0000      -0.649310       -17.6686
 156   2.0000      -0.641838       -17.4653
 157   2.0000      -0.638327       -17.3698
 158   2.0000      -0.633697       -17.2438
 159   2.0000      -0.623472       -16.9655
 160   2.0000      -0.615422       -16.7465
 161   2.0000      -0.613358       -16.6903
 162   2.0000      -0.610989       -16.6258
 163   2.0000      -0.609076       -16.5738
 164   2.0000      -0.603902       -16.4330
 165   2.0000      -0.600186       -16.3319
 166   2.0000      -0.595981       -16.2175
 167   2.0000      -0.594626       -16.1806
 168   2.0000      -0.585332       -15.9277
 169   2.0000      -0.582244       -15.8437
 170   2.0000      -0.575856       -15.6698
 171   2.0000      -0.574760       -15.6400
 172   2.0000      -0.573253       -15.5990
 173   2.0000      -0.567165       -15.4333
 174   2.0000      -0.565319       -15.3831
 175   2.0000      -0.561137       -15.2693
 176   2.0000      -0.557767       -15.1776
 177   2.0000      -0.554123       -15.0785
 178   2.0000      -0.553054       -15.0494
 179   2.0000      -0.550698       -14.9853
 180   2.0000      -0.548226       -14.9180
 181   2.0000      -0.548080       -14.9140
 182   2.0000      -0.546726       -14.8772
 183   2.0000      -0.544517       -14.8171
 184   2.0000      -0.542228       -14.7548
 185   2.0000      -0.538931       -14.6650
 186   2.0000      -0.537644       -14.6300
 187   2.0000      -0.536957       -14.6113
 188   2.0000      -0.533819       -14.5259
 189   2.0000      -0.530394       -14.4328
 190   2.0000      -0.527139       -14.3442
 191   2.0000      -0.524779       -14.2800
 192   2.0000      -0.522986       -14.2312
 193   2.0000      -0.521733       -14.1971
 194   2.0000      -0.521264       -14.1843
 195   2.0000      -0.520521       -14.1641
 196   2.0000      -0.517812       -14.0904
 197   2.0000      -0.516184       -14.0461
 198   2.0000      -0.514705       -14.0058
 199   2.0000      -0.512877       -13.9561
 200   2.0000      -0.511862       -13.9285
 201   2.0000      -0.511531       -13.9195
 202   2.0000      -0.507943       -13.8218
 203   2.0000      -0.506896       -13.7933
 204   2.0000      -0.504700       -13.7336
 205   2.0000      -0.502221       -13.6661
 206   2.0000      -0.498773       -13.5723
 207   2.0000      -0.497618       -13.5409
 208   2.0000      -0.495350       -13.4792
 209   2.0000      -0.492746       -13.4083
 210   2.0000      -0.489040       -13.3075
 211   2.0000      -0.487849       -13.2750
 212   2.0000      -0.482452       -13.1282
 213   2.0000      -0.478462       -13.0196
 214   2.0000      -0.475004       -12.9255
 215   2.0000      -0.473689       -12.8897
 216   2.0000      -0.472830       -12.8664
 217   2.0000      -0.469990       -12.7891
 218   2.0000      -0.468096       -12.7375
 219   2.0000      -0.467199       -12.7131
 220   2.0000      -0.463053       -12.6003
 221   2.0000      -0.459175       -12.4948
 222   2.0000      -0.455150       -12.3853
 223   2.0000      -0.452666       -12.3177
 224   2.0000      -0.450182       -12.2501
 225   2.0000      -0.449237       -12.2244
 226   2.0000      -0.448813       -12.2128
 227   2.0000      -0.446777       -12.1574
 228   2.0000      -0.446071       -12.1382
 229   2.0000      -0.442694       -12.0463
 230   2.0000      -0.441639       -12.0176
 231   2.0000      -0.441170       -12.0048
 232   2.0000      -0.440243       -11.9796
 233   2.0000      -0.438872       -11.9423
 234   2.0000      -0.437428       -11.9030
 235   2.0000      -0.436281       -11.8718
 236   2.0000      -0.435527       -11.8513
 237   2.0000      -0.433717       -11.8021
 238   2.0000      -0.432767       -11.7762
 239   2.0000      -0.430021       -11.7015
 240   2.0000      -0.429118       -11.6769
 241   2.0000      -0.426400       -11.6029
 242   2.0000      -0.423946       -11.5362
 243   2.0000      -0.422384       -11.4937
 244   2.0000      -0.419614       -11.4183
 245   2.0000      -0.411987       -11.2107
 246   2.0000      -0.411325       -11.1927
 247   2.0000      -0.409818       -11.1517
 248   2.0000      -0.398620       -10.8470
 249   2.0000      -0.396648       -10.7933
 250   2.0000      -0.393848       -10.7171
 251   2.0000      -0.382749       -10.4151
 252   2.0000      -0.378594       -10.3021
 253   2.0000      -0.363128        -9.8812
 254   2.0000      -0.358905        -9.7663
 255   2.0000      -0.357539        -9.7291
 256   2.0000      -0.357048        -9.7158
 257   2.0000      -0.353912        -9.6304
 258   2.0000      -0.349805        -9.5187
 259   2.0000      -0.343376        -9.3437
 260   2.0000      -0.342498        -9.3198
 261   2.0000      -0.341414        -9.2903
 262   2.0000      -0.330004        -8.9799
 263   2.0000      -0.327219        -8.9041
 264   2.0000      -0.324409        -8.8276
 265   2.0000      -0.319936        -8.7059
 266   2.0000      -0.312083        -8.4922
 267   2.0000      -0.305656        -8.3173
 268   2.0000      -0.304933        -8.2976
 269   2.0000      -0.295237        -8.0338
 270   2.0000      -0.293451        -7.9852
 271   2.0000      -0.252123        -6.8606
 272   0.0000      -0.119999        -3.2653
 273   0.0000      -0.104105        -2.8328
 274   0.0000      -0.080647        -2.1945
 275   0.0000      -0.067394        -1.8339
 276   0.0000      -0.060450        -1.6449

MULLIKEN ATOMIC CHARGES
-----------------------
   0 C :    0.316910
   1 C :   -0.352849
   2 C :   -0.181995
   3 N :    0.156067
   4 C :   -0.184141
   5 N :    0.151721
   6 C :    0.055212
   7 C :    0.000467
   8 C :   -0.072462
   9 C :    0.098965
  10 C :    0.101192
  11 C :   -0.090899
  12 C :   -0.022456
  13 C :    0.038721
  14 C :    0.037759
  15 C :   -0.016204
  16 C :    0.158263
  17 O :   -0.152990
  18 C :   -0.072004
  19 C :    0.012869
  20 C :   -0.128407
  21 S :    0.187061
  22 C :   -0.212079
  23 C :   -0.007747
  24 C :    0.203962
  25 O :   -0.194228
  26 C :    0.216601
  27 O :   -0.115916
  28 C :    0.001772
  29 O :   -0.121198
  30 S :    0.176558
  31 C :    0.122251
  32 N :   -0.269265
  33 C :    0.088835
  34 C :    0.002965
  35 C :    0.154490
  36 O :   -0.172699
  37 C :   -0.041787
  38 C :   -0.055217
  39 C :    0.136135
  40 O :   -0.190947
  41 N :   -0.261737
  42 C :    0.106740
  43 C :    0.002648
  44 C :    0.110219
  45 C :   -0.020965
  46 C :    0.046411
  47 C :   -0.135651
  48 S :    0.233694
  49 C :   -0.117397
  50 C :    0.026008
  51 C :    0.040228
  52 C :    0.034971
  53 O :   -0.139656
  54 C :    0.066277
  55 C :    0.030433
  56 O :   -0.132083
  57 C :   -0.047169
  58 C :   -0.082372
  59 C :    0.300649
  60 C :   -0.322211
  61 C :   -0.184764
  62 N :    0.151986
  63 C :   -0.211025
  64 N :    0.180482
  65 C :    0.048555
  66 C :    0.001384
  67 C :    0.170737
  68 O :   -0.179246
  69 C :   -0.081514
  70 C :    0.098686
  71 C :    0.099040
  72 C :   -0.085562
  73 C :   -0.019193
  74 C :    0.038291
  75 C :    0.036726
  76 C :   -0.017087
  77 H :   -0.007306
  78 H :   -0.006806
  79 H :   -0.007495
  80 H :   -0.004094
  81 H :   -0.004072
  82 H :   -0.013545
  83 H :    0.023971
  84 H :    0.031919
  85 H :    0.043776
  86 H :    0.016441
  87 H :    0.027753
  88 H :    0.039810
  89 H :    0.040207
  90 H :    0.026917
  91 H :    0.036832
  92 H :    0.024524
  93 H :    0.020261
  94 H :    0.037784
  95 H :   -0.023747
  96 H :    0.063428
  97 H :    0.083119
  98 H :    0.046422
  99 H :   -0.012210
 100 H :   -0.005395
 101 H :   -0.007065
 102 H :   -0.002385
 103 H :   -0.002315
 104 H :   -0.016551
Sum of atomic charges:   -0.0000000

LOEWDIN ATOMIC CHARGES
----------------------
   0 C :    0.075951
   1 C :   -0.133382
   2 C :   -0.017220
   3 N :   -0.047709
   4 C :   -0.019426
   5 N :   -0.049556
   6 C :   -0.026437
   7 C :   -0.053143
   8 C :    0.038110
   9 C :   -0.005959
  10 C :   -0.005325
  11 C :    0.021232
  12 C :   -0.005104
  13 C :   -0.011984
  14 C :   -0.010046
  15 C :   -0.007474
  16 C :    0.083827
  17 O :   -0.141982
  18 C :   -0.068177
  19 C :    0.038078
  20 C :   -0.189617
  21 S :    0.502487
  22 C :   -0.192335
  23 C :   -0.197998
  24 C :    0.025435
  25 O :   -0.000190
  26 C :    0.053090
  27 O :   -0.092285
  28 C :   -0.104249
  29 O :   -0.096507
  30 S :    0.449108
  31 C :    0.050731
  32 N :   -0.002825
  33 C :    0.028254
  34 C :   -0.063045
  35 C :    0.081997
  36 O :   -0.176022
  37 C :   -0.108869
  38 C :   -0.126580
  39 C :    0.066809
  40 O :   -0.193701
  41 N :    0.001511
  42 C :    0.037047
  43 C :   -0.061724
  44 C :    0.073755
  45 C :    0.005641
  46 C :   -0.037863
  47 C :   -0.132560
  48 S :    0.545733
  49 C :   -0.164986
  50 C :   -0.061865
  51 C :   -0.094784
  52 C :    0.081279
  53 O :   -0.119565
  54 C :   -0.065849
  55 C :    0.079468
  56 O :   -0.117616
  57 C :    0.057808
  58 C :   -0.086790
  59 C :    0.071576
  60 C :   -0.126835
  61 C :   -0.016582
  62 N :   -0.047363
  63 C :   -0.028368
  64 N :   -0.034280
  65 C :   -0.023815
  66 C :   -0.057488
  67 C :    0.087399
  68 O :   -0.165321
  69 C :    0.034732
  70 C :   -0.008883
  71 C :   -0.004356
  72 C :    0.020365
  73 C :   -0.004753
  74 C :   -0.010441
  75 C :   -0.011009
  76 C :   -0.008706
  77 H :    0.041360
  78 H :    0.039162
  79 H :    0.035022
  80 H :    0.033632
  81 H :    0.033357
  82 H :    0.033326
  83 H :    0.045597
  84 H :    0.016859
  85 H :    0.038751
  86 H :    0.011731
  87 H :    0.033167
  88 H :    0.034945
  89 H :    0.037517
  90 H :    0.025142
  91 H :    0.035429
  92 H :    0.031758
  93 H :    0.020052
  94 H :    0.049416
  95 H :    0.029056
  96 H :    0.060758
  97 H :    0.070292
  98 H :    0.056047
  99 H :    0.039278
 100 H :    0.039926
 101 H :    0.035642
 102 H :    0.034289
 103 H :    0.033858
 104 H :    0.032160

  Mayer bond orders larger than 0.100000
B(  0-C ,  1-C ) :   1.6362 B(  0-C ,  6-C ) :   0.9977 B(  0-C , 18-C ) :   1.0646
B(  1-C ,  2-C ) :   1.1486 B(  1-C ,  4-C ) :   1.1423 B(  2-C ,  3-N ) :   2.9655
B(  4-C ,  5-N ) :   2.9612 B(  6-C ,  7-C ) :   1.2110 B(  6-C , 11-C ) :   1.4401
B(  7-C ,  8-C ) :   1.4720 B(  7-C , 16-C ) :   0.9381 B(  8-C ,  9-C ) :   1.1824
B(  8-C , 77-H ) :   1.0152 B(  9-C , 10-C ) :   1.2534 B(  9-C , 15-C ) :   1.2445
B( 10-C , 11-C ) :   1.2120 B( 10-C , 12-C ) :   1.2378 B( 11-C , 78-H ) :   0.9898
B( 12-C , 13-C ) :   1.4904 B( 12-C , 79-H ) :   0.9978 B( 13-C , 14-C ) :   1.2596
B( 13-C , 80-H ) :   0.9880 B( 14-C , 15-C ) :   1.4893 B( 14-C , 81-H ) :   0.9884
B( 15-C , 82-H ) :   0.9980 B( 16-C , 17-O ) :   2.2243 B( 16-C , 18-C ) :   0.9324
B( 18-C , 19-C ) :   1.6706 B( 19-C , 20-C ) :   1.1119 B( 19-C , 83-H ) :   0.9209
B( 20-C , 21-S ) :   1.1067 B( 20-C , 22-C ) :   0.1211 B( 20-C , 24-C ) :   1.4893
B( 21-S , 22-C ) :   1.1328 B( 22-C , 23-C ) :   1.5341 B( 22-C , 31-C ) :   1.0945
B( 23-C , 24-C ) :   1.2702 B( 23-C , 30-S ) :   1.0061 B( 24-C , 25-O ) :   1.0993
B( 25-O , 26-C ) :   1.0590 B( 26-C , 27-O ) :   2.2414 B( 26-C , 28-C ) :   0.8028
B( 28-C , 29-O ) :   2.1635 B( 28-C , 30-S ) :   1.0580 B( 29-O , 30-S ) :   0.1394
B( 31-C , 32-N ) :   1.2107 B( 31-C , 38-C ) :   1.3839 B( 32-N , 33-C ) :   0.9372
B( 32-N , 35-C ) :   1.0089 B( 33-C , 34-C ) :   1.1156 B( 33-C , 84-H ) :   0.9474
B( 33-C , 85-H ) :   0.9275 B( 34-C , 86-H ) :   0.9638 B( 34-C , 87-H ) :   0.9671
B( 34-C , 88-H ) :   0.9640 B( 35-C , 36-O ) :   2.1470 B( 35-C , 37-C ) :   0.9790
B( 37-C , 38-C ) :   1.2249 B( 37-C , 44-C ) :   1.3523 B( 38-C , 39-C ) :   0.9740
B( 39-C , 40-O ) :   2.1036 B( 39-C , 41-N ) :   1.0413 B( 41-N , 42-C ) :   0.9367
B( 41-N , 44-C ) :   1.1761 B( 42-C , 43-C ) :   1.1189 B( 42-C , 89-H ) :   0.9283
B( 42-C , 90-H ) :   0.9501 B( 43-C , 91-H ) :   0.9592 B( 43-C , 92-H ) :   0.9687
B( 43-C , 93-H ) :   0.9645 B( 44-C , 45-C ) :   1.1707 B( 45-C , 46-C ) :   1.6082
B( 45-C , 94-H ) :   0.9275 B( 46-C , 47-C ) :   1.1577 B( 46-C , 95-H ) :   0.9529
B( 47-C , 48-S ) :   1.1589 B( 47-C , 51-C ) :   1.3719 B( 48-S , 49-C ) :   1.1204
B( 49-C , 50-C ) :   1.4078 B( 49-C , 57-C ) :   1.2216 B( 50-C , 51-C ) :   1.2751
B( 50-C , 55-C ) :   0.9317 B( 51-C , 52-C ) :   0.9326 B( 52-C , 53-O ) :   2.1786
B( 52-C , 54-C ) :   0.9950 B( 54-C , 55-C ) :   0.9967 B( 54-C , 96-H ) :   0.8987
B( 54-C , 97-H ) :   0.8969 B( 55-C , 56-O ) :   2.2038 B( 57-C , 58-C ) :   1.5584
B( 57-C , 98-H ) :   0.9405 B( 58-C , 59-C ) :   1.0420 B( 58-C , 67-C ) :   0.9657
B( 59-C , 60-C ) :   1.6628 B( 59-C , 65-C ) :   0.9941 B( 60-C , 61-C ) :   1.1432
B( 60-C , 63-C ) :   1.1353 B( 61-C , 62-N ) :   2.9712 B( 63-C , 64-N ) :   3.0094
B( 65-C , 66-C ) :   1.2130 B( 65-C , 72-C ) :   1.4546 B( 66-C , 67-C ) :   0.9610
B( 66-C , 69-C ) :   1.4635 B( 67-C , 68-O ) :   2.1326 B( 69-C , 70-C ) :   1.1826
B( 69-C , 99-H ) :   1.0167 B( 70-C , 71-C ) :   1.2553 B( 70-C , 76-C ) :   1.2442
B( 71-C , 72-C ) :   1.2026 B( 71-C , 73-C ) :   1.2413 B( 72-C ,100-H ) :   0.9917
B( 73-C , 74-C ) :   1.4877 B( 73-C ,101-H ) :   0.9974 B( 74-C , 75-C ) :   1.2615
B( 74-C ,102-H ) :   0.9881 B( 75-C , 76-C ) :   1.4880 B( 75-C ,103-H ) :   0.9889
B( 76-C ,104-H ) :   0.9977

-----------------------------------------------------------------------------
         ABSORPTION SPECTRUM VIA TRANSITION ELECTRIC DIPOLE MOMENTS
-----------------------------------------------------------------------------
State   Energy  Wavelength   fosc         T2         TX        TY        TZ
        (cm-1)    (nm)                  (au**2)     (au)      (au)      (au)
-----------------------------------------------------------------------------
   0   14209.6    703.7   1.448297858  33.55452  -1.77421  -5.28687  -1.56707
   1   19139.4    522.5   0.027447712   0.47212  -0.27352  -0.28377  -0.56283
   2   23098.2    432.9   0.159546224   2.27397  -1.23639  -0.77421  -0.38197
   3   23749.7    421.1   0.215328568   2.98482   0.53762   1.57393  -0.46748
   4   23923.1    418.0   0.103417107   1.42315   0.35968   1.12282   0.18179
   5   24325.3    411.1   0.064076320   0.86719   0.35103  -0.04425   0.86140
   6   24714.4    404.6   0.203143052   2.70600  -0.81539  -1.40883   0.23737
   7   25719.7    388.8   0.300943686   3.85208  -0.70329  -1.54404  -0.98662
   8   25925.8    385.7   0.037782365   0.47977   0.27701   0.52187   0.36150
   9   26276.1    380.6   0.006407100   0.08027  -0.18585  -0.16002  -0.14187
  10   27276.2    366.6   0.083849422   1.01203   0.40141   0.91733  -0.09697
  11   27459.3    364.2   0.049100610   0.58867   0.27510   0.71517   0.03900
  12   27506.7    363.5   0.038715271   0.46336  -0.32763  -0.57138  -0.17188
  13   27919.5    358.2   0.035754251   0.42159   0.28629   0.40068  -0.42319
  14   27999.8    357.1   0.027632744   0.32490   0.27854   0.12063  -0.48245
  15   28279.0    353.6   0.070280022   0.81817  -0.47360  -0.42328  -0.64398
  16   28798.1    347.2   0.055321297   0.63242  -0.08814  -0.46705  -0.63758
  17   29067.0    344.0   0.147001858   1.66494   0.68335   0.58685  -0.92389
  18   29307.2    341.2   0.011746799   0.13195  -0.20980  -0.00594   0.29648
  19   29636.8    337.4   0.093864535   1.04267   0.24997   0.12968   0.98151
  20   30207.8    331.0   0.068543187   0.74700  -0.55899  -0.65372  -0.08478
  21   30761.0    325.1   0.103544419   1.10816   0.54778   0.42838  -0.79031
  22   31418.7    318.3   0.060002916   0.62872   0.01990   0.34912  -0.71165
  23   31891.8    313.6   0.228707422   2.36090   0.66532   0.60595  -1.24542
  24   32362.6    309.0   0.552267023   5.61800  -0.50312   0.46432   2.26920
  25   32408.2    308.6   0.025441658   0.25844  -0.23523  -0.39394  -0.21891
  26   32788.8    305.0   0.227130240   2.28047  -0.53062  -0.52235   1.31380
  27   33416.3    299.3   0.069634162   0.68603  -0.30225  -0.22012   0.73907
  28   33585.5    297.7   0.014030882   0.13753  -0.05747   0.08342   0.35675
  29   33844.2    295.5   0.061548682   0.59870  -0.07125  -0.11784  -0.76141
  30   33950.0    294.6   0.041860276   0.40592  -0.06697  -0.12817   0.62049
  31   34114.8    293.1   0.035119800   0.33891  -0.07338  -0.11771   0.56539
  32   34465.8    290.1   0.023860003   0.22791  -0.10029  -0.38147  -0.26894
  33   34739.1    287.9   0.009151598   0.08673  -0.09959  -0.26319   0.08685
  34   34958.0    286.1   0.013130293   0.12365  -0.18660   0.12597  -0.27012
  35   35303.8    283.3   0.007534801   0.07026   0.20914   0.09480  -0.13243
  36   35417.5    282.3   0.029030027   0.26984   0.18919  -0.19476   0.44285
  37   35757.1    279.7   0.002533292   0.02332  -0.11592  -0.09147  -0.03899
  38   36048.4    277.4   0.049668799   0.45360  -0.32717   0.01597  -0.58848
  39   36284.1    275.6   0.102316511   0.92834  -0.37431  -0.24976   0.85197
  40   36522.4    273.8   0.377478623   3.40259   0.28706   0.81907  -1.62767
  41   36687.4    272.6   0.130237948   1.16868   0.20390   0.11081  -1.05585
  42   37129.2    269.3   0.032856535   0.29133   0.21142   0.28854   0.40419
  43   37214.0    268.7   0.193002656   1.70739  -0.33640   0.05208   1.26155
  44   37312.2    268.0   0.084733792   0.74762   0.02679  -0.60628  -0.61590
  45   37595.1    266.0   0.040352508   0.35336  -0.19905  -0.24793   0.50226
  46   37864.8    264.1   0.067795358   0.58944  -0.31765  -0.05570   0.69673
  47   38041.7    262.9   0.010215603   0.08841  -0.00599  -0.00922   0.29713
  48   38281.6    261.2   0.017101535   0.14707  -0.15371   0.23940  -0.25716
  49   38395.9    260.4   0.072910460   0.62515  -0.11732  -0.25718   0.73840
  50   38527.8    259.6   0.056412875   0.48204   0.35897   0.22687  -0.54928
  51   38646.1    258.8   0.008906585   0.07587  -0.11962   0.21404  -0.12550
  52   38834.1    257.5   0.000161266   0.00137  -0.01322  -0.03425  -0.00438
  53   38931.5    256.9   0.120046103   1.01513   0.38204   0.86925   0.33702
  54   39062.6    256.0   0.226910684   1.91236   0.00591  -0.48867   1.29365
  55   39415.1    253.7   0.221368273   1.84896  -0.75675  -1.11959  -0.15103
  56   39755.2    251.5   0.057638440   0.47730  -0.23138  -0.51278  -0.40103
  57   39949.5    250.3   0.034060244   0.28068   0.12071  -0.47399   0.20358
  58   39994.8    250.0   0.203731183   1.67699  -0.30694  -1.25592   0.07373
  59   40278.3    248.3   0.020076931   0.16410  -0.11585  -0.24040   0.30477

FINAL SINGLE POINT ENERGY     -4460.760544547244

DIPOLE MOMENT
-------------
                                X             Y             Z
Electronic contribution:      7.45442     -10.89134     -14.73777
Nuclear contribution   :     -8.93881      11.53682      18.23083
                        -----------------------------------------
Total Dipole Moment    :     -1.48438       0.64548       3.49306
                        -----------------------------------------
Magnitude (a.u.)       :      3.84987
Magnitude (Debye)      :      9.78559

Rotational constants in cm-1:     0.001984     0.000221     0.000203
Rotational constants in MHz :    59.477998     6.628822     6.076147

                             ****ORCA TERMINATED NORMALLY****
TOTAL RUN TIME: 0 days 0 hours 10 minutes 54 seconds 335 msec
