                         Program Version 4.2.0 -  RELEASE  -
|  1> # ORCA input file
|  2> # SCF done       -195.439477287243          0.000403018839
|  3> ! CAM-B3LYP def2-SVP def2/J RIJCOSX Grid4 TightSCF
|  4> %maxcore 5000
|  5> %tddft
|  6>     Mode sTDDFT
|  7>     Ethresh 5.0
|  8>     maxcore 5000
|  9> end
| 10>
| 11> %pal
| 12>   nprocs 6
| 13>   end
| 14> * xyz 0 1
| 15>    C       -1.64160         7.14516         0.70830
| 16>    C       -2.07755         6.92840        -0.56914
| 17>    C       -2.52137         7.95472        -1.42989
| 18>    N       -2.88205         8.75770        -2.16586
| 19>    C       -2.21377         5.65059        -1.14695
| 20>    N       -2.39919         4.63566        -1.65044
| 21>    C       -1.69130         8.41366         1.42205
| 22>    C       -1.60864         8.15484         2.82255
| 23>    C       -1.65708         9.16390         3.74108
| 24>    C       -1.77977        10.49848         3.29360
| 25>    C       -1.84635        10.76451         1.89464
| 26>    C       -1.80209         9.70074         0.96590
| 27>    C       -1.95835        12.10186         1.46179
| 28>    C       -2.00474        13.12817         2.36511
| 29>    C       -1.94060        12.86541         3.74202
| 30>    C       -1.83148        11.57920         4.19620
| 31>    C       -1.44889         6.70616         3.04513
| 32>    O       -1.44329         6.10234         4.08847
| 33>    C       -1.24755         6.12964         1.67668
| 34>    C       -0.64044         4.93822         1.52591
| 35>    C       -0.07878         4.41516         0.29207
| 36>    C       -0.26808         3.05255        -0.08785
| 37>    C        0.24501         2.59940        -1.28023
| 38>    C        0.97096         3.45206        -2.12857
| 39>    C        1.18278         4.80285        -1.73925
| 40>    C        0.64658         5.25506        -0.52349
| 41>    N        1.87357         5.65116        -2.53089
| 42>    C        2.32824         5.17191        -3.65629
| 43>    C        2.12023         3.82902        -4.04186
| 44>    N        1.45901         2.98580        -3.29728
| 45>    C       -0.99488         2.12265         0.77168
| 46>    N       -2.02048         1.33222         0.32915
| 47>    C       -2.70215         1.40233        -0.94460
| 48>    C       -2.44128         0.16345        -1.79687
| 49>    C       -2.47665         0.45396         1.34337
| 50>    O       -3.39801        -0.32141         1.19564
| 51>    C       -1.62079         0.74397         2.46640
| 52>    C       -0.73530         1.79213         2.08728
| 53>    C        0.13265         2.04733         3.21497
| 54>    O        1.03403         2.84505         3.37629
| 55>    N       -0.29272         1.14021         4.20750
| 56>    C        0.37914         1.12474         5.48388
| 57>    C        1.37548        -0.02758         5.59068
| 58>    C       -1.32779         0.34943         3.76359
| 59>    C       -2.02395        -0.72244         4.39888
| 60>    C       -1.90147        -1.23957         5.63768
| 61>    C       -2.67750        -2.37930         6.09406
| 62>    C       -2.91570        -2.55611         7.49566
| 63>    C       -3.64044        -3.63404         7.94717
| 64>    C       -4.12928        -4.59762         7.04975
| 65>    C       -3.85803        -4.45096         5.66016
| 66>    C       -3.13989        -3.33201         5.21024
| 67>    N       -4.28307        -5.37920         4.77511
| 68>    C       -4.95742        -6.38908         5.25092
| 69>    C       -5.25391        -6.51605         6.62642
| 70>    N       -4.85018        -5.64244         7.50790
| 71>    C       -2.49457        -1.52000         8.42560
| 72>    C       -1.92832        -1.71784         9.63319
| 73>    C       -1.66229        -0.69166        10.63867
| 74>    C       -1.54546         0.65204        10.41429
| 75>    C       -1.28332         1.60038        11.42625
| 76>    N       -1.07793         2.41165        12.21120
| 77>    C       -1.59372         1.24106         9.13414
| 78>    N       -1.58227         1.75418         8.10695
| 79>    C       -1.45195        -1.37197        11.90725
| 80>    C       -1.35166        -2.77239        11.66188
| 81>    C       -1.52979        -3.03578        10.22221
| 82>    O       -1.33645        -4.07578         9.63865
| 83>    C       -1.12885        -3.66433        12.67129
| 84>    C       -1.01432        -3.19013        13.99702
| 85>    C       -1.12646        -1.79174        14.25135
| 86>    C       -1.34251        -0.88979        13.18578
| 87>    C       -1.01683        -1.33214        15.58009
| 88>    C       -0.80638        -2.20915        16.60870
| 89>    C       -0.69526        -3.58524        16.35717
| 90>    C       -0.79656        -4.06507        15.07963
| 91>    H       -1.59831         8.94680         4.79719
| 92>    H       -1.84202         9.92893        -0.08790
| 93>    H       -2.01016        12.29832         0.40097
| 94>    H       -2.09105        14.14890         2.02397
| 95>    H       -1.97733        13.68774         4.44074
| 96>    H       -1.78136        11.37119         5.25492
| 97>    H       -0.47508         4.36374         2.42815
| 98>    H        0.12588         1.57192        -1.58390
| 99>    H        0.83132         6.28041        -0.23903
|100>    H        2.87682         5.85699        -4.28862
|101>    H        2.50605         3.45075        -4.97895
|102>    H       -2.39364         2.31216        -1.46046
|103>    H       -3.77503         1.46043        -0.73363
|104>    H       -1.38264         0.04599        -2.01550
|105>    H       -2.98051         0.25175        -2.73563
|106>    H       -2.79061        -0.72318        -1.27409
|107>    H       -0.35786         1.10524         6.28979
|108>    H        0.92039         2.07408         5.54252
|109>    H        0.88875        -0.98968         5.44546
|110>    H        1.84639        -0.01649         6.57008
|111>    H        2.14876         0.08275         4.83390
|112>    H       -2.76776        -1.14801         3.73614
|113>    H       -1.22025        -0.81477         6.35785
|114>    H       -3.87453        -3.75469         8.99308
|115>    H       -2.94131        -3.25999         4.15278
|116>    H       -5.28838        -7.13166         4.53712
|117>    H       -5.83248        -7.35062         6.99935
|118>    H       -2.71713        -0.50720         8.11169
|119>    H       -1.04911        -4.72053        12.46099
|120>    H       -1.42712         0.16266        13.40706
|121>    H       -1.10125        -0.27191        15.76823
|122>    H       -0.72420        -1.84768        17.62269
|123>    H       -0.52941        -4.26291        17.18115
|124>    H       -0.71190        -5.12323        14.88012
|125> *
|126>
|127>                          ****END OF INPUT****

CARTESIAN COORDINATES (ANGSTROEM)
---------------------------------
  C     -1.641600    7.145160    0.708300
  C     -2.077550    6.928400   -0.569140
  C     -2.521370    7.954720   -1.429890
  N     -2.882050    8.757700   -2.165860
  C     -2.213770    5.650590   -1.146950
  N     -2.399190    4.635660   -1.650440
  C     -1.691300    8.413660    1.422050
  C     -1.608640    8.154840    2.822550
  C     -1.657080    9.163900    3.741080
  C     -1.779770   10.498480    3.293600
  C     -1.846350   10.764510    1.894640
  C     -1.802090    9.700740    0.965900
  C     -1.958350   12.101860    1.461790
  C     -2.004740   13.128170    2.365110
  C     -1.940600   12.865410    3.742020
  C     -1.831480   11.579200    4.196200
  C     -1.448890    6.706160    3.045130
  O     -1.443290    6.102340    4.088470
  C     -1.247550    6.129640    1.676680
  C     -0.640440    4.938220    1.525910
  C     -0.078780    4.415160    0.292070
  C     -0.268080    3.052550   -0.087850
  C      0.245010    2.599400   -1.280230
  C      0.970960    3.452060   -2.128570
  C      1.182780    4.802850   -1.739250
  C      0.646580    5.255060   -0.523490
  N      1.873570    5.651160   -2.530890
  C      2.328240    5.171910   -3.656290
  C      2.120230    3.829020   -4.041860
  N      1.459010    2.985800   -3.297280
  C     -0.994880    2.122650    0.771680
  N     -2.020480    1.332220    0.329150
  C     -2.702150    1.402330   -0.944600
  C     -2.441280    0.163450   -1.796870
  C     -2.476650    0.453960    1.343370
  O     -3.398010   -0.321410    1.195640
  C     -1.620790    0.743970    2.466400
  C     -0.735300    1.792130    2.087280
  C      0.132650    2.047330    3.214970
  O      1.034030    2.845050    3.376290
  N     -0.292720    1.140210    4.207500
  C      0.379140    1.124740    5.483880
  C      1.375480   -0.027580    5.590680
  C     -1.327790    0.349430    3.763590
  C     -2.023950   -0.722440    4.398880
  C     -1.901470   -1.239570    5.637680
  C     -2.677500   -2.379300    6.094060
  C     -2.915700   -2.556110    7.495660
  C     -3.640440   -3.634040    7.947170
  C     -4.129280   -4.597620    7.049750
  C     -3.858030   -4.450960    5.660160
  C     -3.139890   -3.332010    5.210240
  N     -4.283070   -5.379200    4.775110
  C     -4.957420   -6.389080    5.250920
  C     -5.253910   -6.516050    6.626420
  N     -4.850180   -5.642440    7.507900
  C     -2.494570   -1.520000    8.425600
  C     -1.928320   -1.717840    9.633190
  C     -1.662290   -0.691660   10.638670
  C     -1.545460    0.652040   10.414290
  C     -1.283320    1.600380   11.426250
  N     -1.077930    2.411650   12.211200
  C     -1.593720    1.241060    9.134140
  N     -1.582270    1.754180    8.106950
  C     -1.451950   -1.371970   11.907250
  C     -1.351660   -2.772390   11.661880
  C     -1.529790   -3.035780   10.222210
  O     -1.336450   -4.075780    9.638650
  C     -1.128850   -3.664330   12.671290
  C     -1.014320   -3.190130   13.997020
  C     -1.126460   -1.791740   14.251350
  C     -1.342510   -0.889790   13.185780
  C     -1.016830   -1.332140   15.580090
  C     -0.806380   -2.209150   16.608700
  C     -0.695260   -3.585240   16.357170
  C     -0.796560   -4.065070   15.079630
  H     -1.598310    8.946800    4.797190
  H     -1.842020    9.928930   -0.087900
  H     -2.010160   12.298320    0.400970
  H     -2.091050   14.148900    2.023970
  H     -1.977330   13.687740    4.440740
  H     -1.781360   11.371190    5.254920
  H     -0.475080    4.363740    2.428150
  H      0.125880    1.571920   -1.583900
  H      0.831320    6.280410   -0.239030
  H      2.876820    5.856990   -4.288620
  H      2.506050    3.450750   -4.978950
  H     -2.393640    2.312160   -1.460460
  H     -3.775030    1.460430   -0.733630
  H     -1.382640    0.045990   -2.015500
  H     -2.980510    0.251750   -2.735630
  H     -2.790610   -0.723180   -1.274090
  H     -0.357860    1.105240    6.289790
  H      0.920390    2.074080    5.542520
  H      0.888750   -0.989680    5.445460
  H      1.846390   -0.016490    6.570080
  H      2.148760    0.082750    4.833900
  H     -2.767760   -1.148010    3.736140
  H     -1.220250   -0.814770    6.357850
  H     -3.874530   -3.754690    8.993080
  H     -2.941310   -3.259990    4.152780
  H     -5.288380   -7.131660    4.537120
  H     -5.832480   -7.350620    6.999350
  H     -2.717130   -0.507200    8.111690
  H     -1.049110   -4.720530   12.460990
  H     -1.427120    0.162660   13.407060
  H     -1.101250   -0.271910   15.768230
  H     -0.724200   -1.847680   17.622690
  H     -0.529410   -4.262910   17.181150
  H     -0.711900   -5.123230   14.880120

 Total Charge           Charge          ....    0
 Multiplicity           Mult            ....    1
 Number of Electrons    NEL             ....  508
 Basis Dimension        Dim             .... 1234

ORBITAL ENERGIES
----------------

  NO   OCC          E(Eh)            E(eV)
   0   2.0000     -19.221468      -523.0427
   1   2.0000     -19.211477      -522.7709
   2   2.0000     -19.183439      -522.0079
   3   2.0000     -19.180753      -521.9348
   4   2.0000     -14.446846      -393.1187
   5   2.0000     -14.442536      -393.0014
   6   2.0000     -14.427600      -392.5950
   7   2.0000     -14.423885      -392.4939
   8   2.0000     -14.423540      -392.4845
   9   2.0000     -14.422464      -392.4552
  10   2.0000     -14.421378      -392.4257
  11   2.0000     -14.419696      -392.3799
  12   2.0000     -14.417926      -392.3317
  13   2.0000     -14.415440      -392.2641
  14   2.0000     -10.374076      -282.2930
  15   2.0000     -10.365152      -282.0501
  16   2.0000     -10.364606      -282.0353
  17   2.0000     -10.362336      -281.9735
  18   2.0000     -10.351792      -281.6866
  19   2.0000     -10.350002      -281.6379
  20   2.0000     -10.343646      -281.4649
  21   2.0000     -10.341981      -281.4196
  22   2.0000     -10.337940      -281.3097
  23   2.0000     -10.331038      -281.1218
  24   2.0000     -10.330870      -281.1173
  25   2.0000     -10.324794      -280.9519
  26   2.0000     -10.322488      -280.8892
  27   2.0000     -10.321680      -280.8672
  28   2.0000     -10.318285      -280.7748
  29   2.0000     -10.317941      -280.7655
  30   2.0000     -10.317877      -280.7637
  31   2.0000     -10.317143      -280.7437
  32   2.0000     -10.316834      -280.7353
  33   2.0000     -10.315627      -280.7025
  34   2.0000     -10.314928      -280.6835
  35   2.0000     -10.314118      -280.6614
  36   2.0000     -10.312999      -280.6310
  37   2.0000     -10.310399      -280.5602
  38   2.0000     -10.309035      -280.5231
  39   2.0000     -10.307910      -280.4925
  40   2.0000     -10.304425      -280.3977
  41   2.0000     -10.304286      -280.3939
  42   2.0000     -10.304220      -280.3921
  43   2.0000     -10.303962      -280.3851
  44   2.0000     -10.303174      -280.3636
  45   2.0000     -10.303038      -280.3599
  46   2.0000     -10.303022      -280.3595
  47   2.0000     -10.299065      -280.2518
  48   2.0000     -10.297124      -280.1990
  49   2.0000     -10.297053      -280.1971
  50   2.0000     -10.296783      -280.1897
  51   2.0000     -10.296626      -280.1854
  52   2.0000     -10.296597      -280.1847
  53   2.0000     -10.295523      -280.1554
  54   2.0000     -10.295224      -280.1473
  55   2.0000     -10.292171      -280.0642
  56   2.0000     -10.291548      -280.0473
  57   2.0000     -10.291383      -280.0428
  58   2.0000     -10.290939      -280.0307
  59   2.0000     -10.289848      -280.0010
  60   2.0000     -10.288040      -279.9518
  61   2.0000     -10.287899      -279.9480
  62   2.0000     -10.287532      -279.9380
  63   2.0000     -10.287092      -279.9260
  64   2.0000     -10.286923      -279.9214
  65   2.0000     -10.286737      -279.9163
  66   2.0000     -10.286598      -279.9126
  67   2.0000     -10.285547      -279.8840
  68   2.0000     -10.284905      -279.8665
  69   2.0000     -10.284736      -279.8619
  70   2.0000     -10.284344      -279.8512
  71   2.0000     -10.279091      -279.7083
  72   2.0000     -10.252723      -278.9908
  73   2.0000     -10.252452      -278.9834
  74   2.0000     -10.250707      -278.9359
  75   2.0000     -10.244013      -278.7538
  76   2.0000      -1.137609       -30.9559
  77   2.0000      -1.127408       -30.6783
  78   2.0000      -1.124279       -30.5932
  79   2.0000      -1.117233       -30.4014
  80   2.0000      -1.079283       -29.3688
  81   2.0000      -1.075976       -29.2788
  82   2.0000      -1.055475       -28.7209
  83   2.0000      -1.044960       -28.4348
  84   2.0000      -1.027461       -27.9586
  85   2.0000      -1.019447       -27.7406
  86   2.0000      -1.007268       -27.4092
  87   2.0000      -1.002628       -27.2829
  88   2.0000      -1.002159       -27.2701
  89   2.0000      -0.998988       -27.1839
  90   2.0000      -0.998642       -27.1744
  91   2.0000      -0.995238       -27.0818
  92   2.0000      -0.980051       -26.6686
  93   2.0000      -0.973554       -26.4918
  94   2.0000      -0.968014       -26.3410
  95   2.0000      -0.963982       -26.2313
  96   2.0000      -0.931176       -25.3386
  97   2.0000      -0.923482       -25.1292
  98   2.0000      -0.917317       -24.9615
  99   2.0000      -0.909840       -24.7580
 100   2.0000      -0.902430       -24.5564
 101   2.0000      -0.901384       -24.5279
 102   2.0000      -0.888215       -24.1696
 103   2.0000      -0.883440       -24.0396
 104   2.0000      -0.881723       -23.9929
 105   2.0000      -0.879355       -23.9285
 106   2.0000      -0.874715       -23.8022
 107   2.0000      -0.859726       -23.3943
 108   2.0000      -0.847257       -23.0550
 109   2.0000      -0.841459       -22.8973
 110   2.0000      -0.838564       -22.8185
 111   2.0000      -0.834599       -22.7106
 112   2.0000      -0.827422       -22.5153
 113   2.0000      -0.807237       -21.9660
 114   2.0000      -0.803451       -21.8630
 115   2.0000      -0.798884       -21.7387
 116   2.0000      -0.793715       -21.5981
 117   2.0000      -0.785429       -21.3726
 118   2.0000      -0.768321       -20.9071
 119   2.0000      -0.761473       -20.7207
 120   2.0000      -0.754769       -20.5383
 121   2.0000      -0.748735       -20.3741
 122   2.0000      -0.745950       -20.2983
 123   2.0000      -0.737420       -20.0662
 124   2.0000      -0.723300       -19.6820
 125   2.0000      -0.713989       -19.4286
 126   2.0000      -0.712499       -19.3881
 127   2.0000      -0.710259       -19.3271
 128   2.0000      -0.707390       -19.2491
 129   2.0000      -0.703919       -19.1546
 130   2.0000      -0.701070       -19.0771
 131   2.0000      -0.697245       -18.9730
 132   2.0000      -0.693664       -18.8756
 133   2.0000      -0.683687       -18.6041
 134   2.0000      -0.683209       -18.5911
 135   2.0000      -0.676395       -18.4056
 136   2.0000      -0.674330       -18.3494
 137   2.0000      -0.671166       -18.2634
 138   2.0000      -0.645796       -17.5730
 139   2.0000      -0.640372       -17.4254
 140   2.0000      -0.638615       -17.3776
 141   2.0000      -0.634255       -17.2590
 142   2.0000      -0.632600       -17.2139
 143   2.0000      -0.628423       -17.1003
 144   2.0000      -0.620968       -16.8974
 145   2.0000      -0.616523       -16.7765
 146   2.0000      -0.613726       -16.7003
 147   2.0000      -0.610956       -16.6250
 148   2.0000      -0.606933       -16.5155
 149   2.0000      -0.606363       -16.5000
 150   2.0000      -0.595864       -16.2143
 151   2.0000      -0.589502       -16.0412
 152   2.0000      -0.586559       -15.9611
 153   2.0000      -0.575621       -15.6634
 154   2.0000      -0.573236       -15.5985
 155   2.0000      -0.566488       -15.4149
 156   2.0000      -0.562003       -15.2929
 157   2.0000      -0.559894       -15.2355
 158   2.0000      -0.556002       -15.1296
 159   2.0000      -0.552888       -15.0448
 160   2.0000      -0.552544       -15.0355
 161   2.0000      -0.548999       -14.9390
 162   2.0000      -0.546548       -14.8723
 163   2.0000      -0.544209       -14.8087
 164   2.0000      -0.542716       -14.7681
 165   2.0000      -0.540121       -14.6974
 166   2.0000      -0.536117       -14.5885
 167   2.0000      -0.534730       -14.5507
 168   2.0000      -0.531683       -14.4678
 169   2.0000      -0.531465       -14.4619
 170   2.0000      -0.529336       -14.4040
 171   2.0000      -0.526717       -14.3327
 172   2.0000      -0.525368       -14.2960
 173   2.0000      -0.523524       -14.2458
 174   2.0000      -0.522811       -14.2264
 175   2.0000      -0.522548       -14.2193
 176   2.0000      -0.521131       -14.1807
 177   2.0000      -0.518044       -14.0967
 178   2.0000      -0.515948       -14.0397
 179   2.0000      -0.513930       -13.9848
 180   2.0000      -0.510513       -13.8918
 181   2.0000      -0.510079       -13.8800
 182   2.0000      -0.507416       -13.8075
 183   2.0000      -0.504676       -13.7329
 184   2.0000      -0.502640       -13.6775
 185   2.0000      -0.501242       -13.6395
 186   2.0000      -0.499645       -13.5960
 187   2.0000      -0.497297       -13.5321
 188   2.0000      -0.495323       -13.4784
 189   2.0000      -0.494658       -13.4603
 190   2.0000      -0.489377       -13.3166
 191   2.0000      -0.487525       -13.2662
 192   2.0000      -0.483362       -13.1530
 193   2.0000      -0.475331       -12.9344
 194   2.0000      -0.472087       -12.8461
 195   2.0000      -0.467220       -12.7137
 196   2.0000      -0.465921       -12.6784
 197   2.0000      -0.464427       -12.6377
 198   2.0000      -0.462950       -12.5975
 199   2.0000      -0.460523       -12.5315
 200   2.0000      -0.457809       -12.4576
 201   2.0000      -0.456840       -12.4313
 202   2.0000      -0.453976       -12.3533
 203   2.0000      -0.452912       -12.3244
 204   2.0000      -0.450633       -12.2623
 205   2.0000      -0.446778       -12.1574
 206   2.0000      -0.445512       -12.1230
 207   2.0000      -0.444225       -12.0880
 208   2.0000      -0.442519       -12.0416
 209   2.0000      -0.442185       -12.0325
 210   2.0000      -0.440707       -11.9923
 211   2.0000      -0.438095       -11.9212
 212   2.0000      -0.436838       -11.8870
 213   2.0000      -0.435230       -11.8432
 214   2.0000      -0.434326       -11.8186
 215   2.0000      -0.432668       -11.7735
 216   2.0000      -0.431123       -11.7315
 217   2.0000      -0.428910       -11.6712
 218   2.0000      -0.428736       -11.6665
 219   2.0000      -0.425620       -11.5817
 220   2.0000      -0.422816       -11.5054
 221   2.0000      -0.421748       -11.4763
 222   2.0000      -0.418647       -11.3920
 223   2.0000      -0.416910       -11.3447
 224   2.0000      -0.415742       -11.3129
 225   2.0000      -0.409477       -11.1424
 226   2.0000      -0.408927       -11.1275
 227   2.0000      -0.407404       -11.0860
 228   2.0000      -0.401437       -10.9237
 229   2.0000      -0.396175       -10.7805
 230   2.0000      -0.392646       -10.6844
 231   2.0000      -0.386500       -10.5172
 232   2.0000      -0.383346       -10.4314
 233   2.0000      -0.382992       -10.4218
 234   2.0000      -0.374940       -10.2026
 235   2.0000      -0.363788        -9.8992
 236   2.0000      -0.357841        -9.7374
 237   2.0000      -0.353377        -9.6159
 238   2.0000      -0.340313        -9.2604
 239   2.0000      -0.338275        -9.2049
 240   2.0000      -0.330736        -8.9998
 241   2.0000      -0.324723        -8.8362
 242   2.0000      -0.323522        -8.8035
 243   2.0000      -0.322181        -8.7670
 244   2.0000      -0.320161        -8.7120
 245   2.0000      -0.318698        -8.6722
 246   2.0000      -0.316953        -8.6247
 247   2.0000      -0.307118        -8.3571
 248   2.0000      -0.304884        -8.2963
 249   2.0000      -0.304125        -8.2757
 250   2.0000      -0.301261        -8.1977
 251   2.0000      -0.298984        -8.1358
 252   2.0000      -0.291950        -7.9444
 253   2.0000      -0.239493        -6.5169
 254   0.0000      -0.096543        -2.6271
 255   0.0000      -0.086413        -2.3514
 256   0.0000      -0.072151        -1.9633
 257   0.0000      -0.061667        -1.6781
 258   0.0000      -0.051946        -1.4135

MULLIKEN ATOMIC CHARGES
-----------------------
   0 C :    0.256876
   1 C :   -0.334089
   2 C :   -0.187820
   3 N :    0.159677
   4 C :   -0.161523
   5 N :    0.176937
   6 C :    0.035337
   7 C :    0.009078
   8 C :   -0.077705
   9 C :    0.094341
  10 C :    0.091401
  11 C :   -0.076205
  12 C :   -0.015473
  13 C :    0.035734
  14 C :    0.034449
  15 C :   -0.015142
  16 C :    0.141831
  17 O :   -0.124118
  18 C :   -0.109973
  19 C :    0.053519
  20 C :    0.067093
  21 C :    0.061809
  22 C :   -0.045487
  23 C :    0.012549
  24 C :    0.001559
  25 C :   -0.067156
  26 N :   -0.010513
  27 C :    0.025175
  28 C :    0.027850
  29 N :   -0.005925
  30 C :    0.067004
  31 N :   -0.260114
  32 C :    0.102921
  33 C :   -0.005146
  34 C :    0.160704
  35 O :   -0.192841
  36 C :   -0.053090
  37 C :   -0.029375
  38 C :    0.156490
  39 O :   -0.208578
  40 N :   -0.267172
  41 C :    0.102458
  42 C :    0.001879
  43 C :    0.123238
  44 C :   -0.025380
  45 C :   -0.019426
  46 C :    0.122851
  47 C :    0.078634
  48 C :   -0.004825
  49 C :   -0.017654
  50 C :    0.000938
  51 C :   -0.075376
  52 N :   -0.012477
  53 C :    0.025486
  54 C :    0.021940
  55 N :   -0.013356
  56 C :   -0.076661
  57 C :   -0.062799
  58 C :    0.288808
  59 C :   -0.338569
  60 C :   -0.176093
  61 N :    0.157121
  62 C :   -0.167020
  63 N :    0.152260
  64 C :    0.051246
  65 C :    0.000563
  66 C :    0.131146
  67 O :   -0.123102
  68 C :   -0.077161
  69 C :    0.096024
  70 C :    0.094284
  71 C :   -0.079917
  72 C :   -0.016880
  73 C :    0.038005
  74 C :    0.035981
  75 C :   -0.015184
  76 H :   -0.007512
  77 H :   -0.004117
  78 H :   -0.008963
  79 H :   -0.004829
  80 H :   -0.003268
  81 H :   -0.015027
  82 H :    0.032393
  83 H :   -0.037471
  84 H :   -0.015911
  85 H :    0.015410
  86 H :    0.014229
  87 H :    0.054069
  88 H :    0.025093
  89 H :    0.008171
  90 H :    0.018952
  91 H :    0.037503
  92 H :    0.026322
  93 H :    0.039985
  94 H :    0.016889
  95 H :    0.016648
  96 H :    0.022504
  97 H :    0.015080
  98 H :    0.008781
  99 H :   -0.025103
 100 H :   -0.015870
 101 H :    0.014214
 102 H :    0.011625
 103 H :    0.052542
 104 H :   -0.007927
 105 H :   -0.004156
 106 H :   -0.007143
 107 H :   -0.002805
 108 H :   -0.001679
 109 H :   -0.014501
Sum of atomic charges:   -0.0000000

LOEWDIN ATOMIC CHARGES
----------------------
   0 C :    0.074051
   1 C :   -0.134069
   2 C :   -0.018119
   3 N :   -0.049013
   4 C :   -0.000979
   5 N :   -0.048557
   6 C :   -0.025202
   7 C :   -0.055818
   8 C :    0.033782
   9 C :   -0.007261
  10 C :   -0.005878
  11 C :    0.019409
  12 C :   -0.005677
  13 C :   -0.012892
  14 C :   -0.011788
  15 C :   -0.008706
  16 C :    0.085481
  17 O :   -0.123622
  18 C :   -0.076643
  19 C :    0.085660
  20 C :   -0.013274
  21 C :   -0.013072
  22 C :    0.016998
  23 C :   -0.006712
  24 C :   -0.009884
  25 C :    0.008072
  26 N :   -0.037626
  27 C :    0.007328
  28 C :    0.007365
  29 N :   -0.035745
  30 C :    0.087909
  31 N :    0.006743
  32 C :    0.036060
  33 C :   -0.061560
  34 C :    0.081513
  35 O :   -0.191525
  36 C :   -0.113589
  37 C :   -0.136257
  38 C :    0.080987
  39 O :   -0.199049
  40 N :    0.000948
  41 C :    0.031587
  42 C :   -0.064773
  43 C :    0.075844
  44 C :   -0.012889
  45 C :   -0.008604
  46 C :   -0.009600
  47 C :   -0.027910
  48 C :    0.026414
  49 C :   -0.015123
  50 C :   -0.006984
  51 C :    0.002305
  52 N :   -0.037496
  53 C :    0.007080
  54 C :    0.001571
  55 N :   -0.036697
  56 C :    0.073756
  57 C :   -0.076554
  58 C :    0.080639
  59 C :   -0.135846
  60 C :   -0.018473
  61 N :   -0.045674
  62 C :   -0.008976
  63 N :   -0.042612
  64 C :   -0.027464
  65 C :   -0.056473
  66 C :    0.080247
  67 O :   -0.124076
  68 C :    0.033979
  69 C :   -0.006415
  70 C :   -0.005423
  71 C :    0.021853
  72 C :   -0.004631
  73 C :   -0.011111
  74 C :   -0.009656
  75 C :   -0.008518
  76 H :    0.040898
  77 H :    0.039179
  78 H :    0.034649
  79 H :    0.033187
  80 H :    0.033221
  81 H :    0.032741
  82 H :    0.051437
  83 H :    0.038371
  84 H :    0.037760
  85 H :    0.027611
  86 H :    0.027418
  87 H :    0.026782
  88 H :    0.032675
  89 H :    0.017402
  90 H :    0.030438
  91 H :    0.029723
  92 H :    0.017731
  93 H :    0.038354
  94 H :    0.019519
  95 H :    0.028692
  96 H :    0.029698
  97 H :    0.047110
  98 H :    0.030339
  99 H :    0.035326
 100 H :    0.040241
 101 H :    0.027091
 102 H :    0.025933
 103 H :    0.046582
 104 H :    0.040578
 105 H :    0.039656
 106 H :    0.035377
 107 H :    0.034124
 108 H :    0.034075
 109 H :    0.033000

  Mayer bond orders larger than 0.100000
B(  0-C ,  1-C ) :   1.6850 B(  0-C ,  6-C ) :   1.0079 B(  0-C , 18-C ) :   0.9857
B(  1-C ,  2-C ) :   1.1314 B(  1-C ,  4-C ) :   1.1579 B(  2-C ,  3-N ) :   2.9924
B(  4-C ,  5-N ) :   2.9704 B(  6-C ,  7-C ) :   1.2116 B(  6-C , 11-C ) :   1.4509
B(  7-C ,  8-C ) :   1.4731 B(  7-C , 16-C ) :   0.9191 B(  8-C ,  9-C ) :   1.1896
B(  8-C , 76-H ) :   1.0157 B(  9-C , 10-C ) :   1.2552 B(  9-C , 15-C ) :   1.2421
B( 10-C , 11-C ) :   1.2090 B( 10-C , 12-C ) :   1.2395 B( 11-C , 77-H ) :   0.9944
B( 12-C , 13-C ) :   1.4902 B( 12-C , 78-H ) :   0.9979 B( 13-C , 14-C ) :   1.2587
B( 13-C , 79-H ) :   0.9894 B( 14-C , 15-C ) :   1.4915 B( 14-C , 80-H ) :   0.9888
B( 15-C , 81-H ) :   0.9982 B( 16-C , 17-O ) :   2.2782 B( 16-C , 18-C ) :   0.9170
B( 18-C , 19-C ) :   1.8043 B( 19-C , 20-C ) :   0.9804 B( 19-C , 82-H ) :   0.9202
B( 20-C , 21-C ) :   1.2728 B( 20-C , 25-C ) :   1.4084 B( 21-C , 22-C ) :   1.4318
B( 21-C , 30-C ) :   0.9570 B( 22-C , 23-C ) :   1.1969 B( 22-C , 25-C ) :   0.1066
B( 22-C , 83-H ) :   1.0206 B( 23-C , 24-C ) :   1.2533 B( 23-C , 29-N ) :   1.4405
B( 24-C , 25-C ) :   1.2127 B( 24-C , 26-N ) :   1.4360 B( 25-C , 84-H ) :   1.0178
B( 26-N , 27-C ) :   1.6731 B( 27-C , 28-C ) :   1.2212 B( 27-C , 85-H ) :   0.9738
B( 28-C , 29-N ) :   1.6728 B( 28-C , 86-H ) :   0.9739 B( 30-C , 31-N ) :   1.2490
B( 30-C , 37-C ) :   1.4247 B( 31-N , 32-C ) :   0.9249 B( 31-N , 34-C ) :   1.0152
B( 32-C , 33-C ) :   1.1126 B( 32-C , 87-H ) :   0.9328 B( 32-C , 88-H ) :   0.9370
B( 33-C , 89-H ) :   0.9647 B( 33-C , 90-H ) :   0.9643 B( 33-C , 91-H ) :   0.9625
B( 34-C , 35-O ) :   2.1105 B( 34-C , 36-C ) :   0.9872 B( 36-C , 37-C ) :   1.1913
B( 36-C , 43-C ) :   1.3775 B( 37-C , 38-C ) :   0.9679 B( 38-C , 39-O ) :   2.0831
B( 38-C , 40-N ) :   1.0487 B( 40-N , 41-C ) :   0.9320 B( 40-N , 43-C ) :   1.1660
B( 41-C , 42-C ) :   1.1127 B( 41-C , 92-H ) :   0.9364 B( 41-C , 93-H ) :   0.9202
B( 42-C , 94-H ) :   0.9670 B( 42-C , 95-H ) :   0.9691 B( 42-C , 96-H ) :   0.9606
B( 43-C , 44-C ) :   1.1532 B( 44-C , 45-C ) :   1.6522 B( 44-C , 97-H ) :   0.9475
B( 45-C , 46-C ) :   1.0523 B( 45-C , 98-H ) :   0.9590 B( 46-C , 47-C ) :   1.2099
B( 46-C , 51-C ) :   1.3950 B( 47-C , 48-C ) :   1.4230 B( 47-C , 56-C ) :   1.0109
B( 48-C , 49-C ) :   1.2410 B( 48-C , 99-H ) :   1.0010 B( 49-C , 50-C ) :   1.2364
B( 49-C , 55-N ) :   1.4285 B( 50-C , 51-C ) :   1.2287 B( 50-C , 52-N ) :   1.4312
B( 51-C ,100-H ) :   1.0134 B( 52-N , 53-C ) :   1.6787 B( 53-C , 54-C ) :   1.2190
B( 53-C ,101-H ) :   0.9736 B( 54-C , 55-N ) :   1.6751 B( 54-C ,102-H ) :   0.9735
B( 56-C , 57-C ) :   1.7582 B( 56-C ,103-H ) :   0.9275 B( 57-C , 58-C ) :   1.0212
B( 57-C , 66-C ) :   0.9074 B( 58-C , 59-C ) :   1.6651 B( 58-C , 64-C ) :   1.0010
B( 59-C , 60-C ) :   1.1295 B( 59-C , 62-C ) :   1.1523 B( 60-C , 61-N ) :   2.9807
B( 62-C , 63-N ) :   2.9088 B( 64-C , 65-C ) :   1.2122 B( 64-C , 71-C ) :   1.4411
B( 65-C , 66-C ) :   0.9261 B( 65-C , 68-C ) :   1.4704 B( 66-C , 67-O ) :   2.2703
B( 68-C , 69-C ) :   1.1887 B( 68-C ,104-H ) :   1.0154 B( 69-C , 70-C ) :   1.2531
B( 69-C , 75-C ) :   1.2426 B( 70-C , 71-C ) :   1.2130 B( 70-C , 72-C ) :   1.2376
B( 71-C ,105-H ) :   0.9924 B( 72-C , 73-C ) :   1.4919 B( 72-C ,106-H ) :   0.9978
B( 73-C , 74-C ) :   1.2579 B( 73-C ,107-H ) :   0.9889 B( 74-C , 75-C ) :   1.4917
B( 74-C ,108-H ) :   0.9884 B( 75-C ,109-H ) :   0.9981

-----------------------------------------------------------------------------
         ABSORPTION SPECTRUM VIA TRANSITION ELECTRIC DIPOLE MOMENTS
-----------------------------------------------------------------------------
State   Energy  Wavelength   fosc         T2         TX        TY        TZ
        (cm-1)    (nm)                  (au**2)     (au)      (au)      (au)
-----------------------------------------------------------------------------
   0   17342.3    576.6   0.077786085   1.47663   0.00025  -0.38298   1.15324
   1   17410.8    574.4   0.133798256   2.52992  -0.05061  -0.62872   1.46016
   2   20406.4    490.0   0.486186176   7.84354  -0.10854  -1.57111   2.31589
   3   25512.8    392.0   0.125377456   1.61784   0.57347   0.74674   0.85519
   4   25796.3    387.7   0.020815295   0.26564  -0.14391  -0.45405  -0.19690
   5   26227.9    381.3   0.063340855   0.79505  -0.34239  -0.42069  -0.70770
   6   26901.5    371.7   0.038897129   0.47601  -0.57119  -0.15122  -0.35621
   7   27019.3    370.1   0.031695146   0.38618  -0.55168  -0.08484   0.27319
   8   27153.5    368.3   0.050846578   0.61647   0.12524  -0.58662   0.50662
   9   27756.8    360.3   0.003812210   0.04521   0.05631  -0.16833  -0.11708
  10   28220.5    354.4   0.206331637   2.40700  -0.65718   1.36517   0.33378
  11   28358.3    352.6   0.095641119   1.11030   0.04860   0.08158  -1.04942
  12   29045.6    344.3   0.022365495   0.25350  -0.04619  -0.16568  -0.47320
  13   29122.4    343.4   0.114632774   1.29586  -0.29353  -0.92966  -0.58773
  14   29355.4    340.7   0.004424385   0.04962  -0.15535   0.11582   0.10987
  15   29657.3    337.2   0.002421970   0.02689   0.10624   0.05914  -0.11000
  16   30015.0    333.2   0.004728509   0.05186  -0.18269  -0.03195  -0.13216
  17   30046.8    332.8   0.099527467   1.09049   0.22984   0.17384   1.00371
  18   30450.4    328.4   0.041547100   0.44918  -0.42359   0.50107  -0.13667
  19   30522.9    327.6   0.107265410   1.15694  -0.44732  -0.68945  -0.69390
  20   31120.3    321.3   0.003739716   0.03956   0.03359  -0.19046  -0.04644
  21   31818.6    314.3   0.026259552   0.27170   0.38874  -0.07707  -0.33858
  22   31957.1    312.9   0.098022105   1.00979   0.26245   0.15940   0.95682
  23   32721.0    305.6   0.009357210   0.09414  -0.25668  -0.14168  -0.09049
  24   32843.6    304.5   0.032022993   0.32099   0.30173   0.28838   0.38312
  25   32895.0    304.0   0.512264794   5.12673  -0.91775  -2.02017   0.45098
  26   33030.5    302.8   0.037175570   0.37053   0.15189   0.14718   0.57078
  27   33307.3    300.2   0.136905712   1.35319  -0.14215  -0.98049  -0.60961
  28   33413.3    299.3   0.049239371   0.48514  -0.61811  -0.26723  -0.17796
  29   33735.9    296.4   0.000687041   0.00670   0.07092   0.02134   0.03491
  30   33985.5    294.2   0.224507046   2.17477  -0.48152  -1.14688   0.79220
  31   34171.1    292.6   1.074632422  10.35323  -0.49714   1.74490  -2.65733
  32   34333.8    291.3   0.000275790   0.00264   0.01114   0.04743  -0.01644
  33   34483.1    290.0   0.030048212   0.28687  -0.19967   0.30069   0.39571
  34   34935.3    286.2   0.450462675   4.24492   0.20632  -1.44499  -1.45408
  35   35039.6    285.4   0.686370247   6.44875   0.02093  -1.78100  -1.81006
  36   35808.8    279.3   0.064386684   0.59195  -0.17959  -0.34845   0.66203
  37   36180.0    276.4   0.130324994   1.18586  -0.62818  -0.88919  -0.02437
  38   36357.9    275.0   0.100006157   0.90553  -0.65168  -0.68049  -0.13333
  39   36442.1    274.4   0.044502607   0.40203  -0.47433  -0.35993   0.21792
  40   36719.9    272.3   0.065331144   0.58573   0.28508  -0.42484  -0.56918
  41   36916.0    270.9   0.049791723   0.44404  -0.04169  -0.18117  -0.63990
  42   37089.4    269.6   0.018720382   0.16617   0.16598   0.04673  -0.36937
  43   37651.2    265.6   0.006270384   0.05483   0.18981  -0.03184  -0.13336
  44   37732.5    265.0   0.279250461   2.43643   1.02508   0.39813  -1.10777
  45   38255.0    261.4   0.000060409   0.00052   0.00244   0.00963   0.02052
  46   38465.6    260.0   0.006323015   0.05412  -0.05008  -0.21881  -0.06108
  47   38514.6    259.6   0.003366707   0.02878   0.11137  -0.12520  -0.02645
  48   39065.7    256.0   0.002846015   0.02398  -0.10674  -0.03664   0.10605
  49   39135.9    255.5   0.002561593   0.02155   0.03590  -0.08465  -0.11443
  50   39294.4    254.5   0.002971330   0.02489   0.02401  -0.02810   0.15339
  51   39457.9    253.4   0.134465040   1.12189   0.03772  -1.03623  -0.21609
  52   39830.1    251.1   0.014770195   0.12208   0.05746  -0.33678   0.07320
  53   40027.7    249.8   0.004190737   0.03447  -0.06394  -0.13167  -0.11420
  54   40037.6    249.8   0.043683467   0.35919  -0.13702  -0.39212   0.43204
  55   40196.0    248.8   0.003176918   0.02602  -0.02356   0.10787   0.11759
  56   40235.8    248.5   0.001268747   0.01038   0.08356  -0.03090   0.04943

FINAL SINGLE POINT ENERGY     -3227.365814631327

DIPOLE MOMENT
-------------
                                X             Y             Z
Electronic contribution:     -5.33390       8.88007      -1.35753
Nuclear contribution   :      5.83526      -9.22763       4.09097
                        -----------------------------------------
Total Dipole Moment    :      0.50136      -0.34756       2.73344
                        -----------------------------------------
Magnitude (a.u.)       :      2.80069
Magnitude (Debye)      :      7.11878

Rotational constants in cm-1:     0.001260     0.000394     0.000326
Rotational constants in MHz :    37.766720    11.823675     9.776300

                             ****ORCA TERMINATED NORMALLY****
TOTAL RUN TIME: 0 days 0 hours 11 minutes 7 seconds 115 msec
