                         Program Version 4.2.0 -  RELEASE  -
|  1> # ORCA input file
|  2> # SCF done       -177.167165688467          0.000556463478
|  3> ! CAM-B3LYP def2-SVP def2/J RIJCOSX Grid4 TightSCF
|  4> %maxcore 5000
|  5> %tddft
|  6>     Mode sTDDFT
|  7>     Ethresh 5.0
|  8>     maxcore 5000
|  9> end
| 10>
| 11> %pal
| 12>   nprocs 6
| 13>   end
| 14> * xyz 0 1
| 15>    C        2.19045         7.84968         8.14113
| 16>    C        2.32525         7.06519         7.02486
| 17>    C        3.56127         6.57320         6.55752
| 18>    N        4.54355         6.15892         6.13266
| 19>    C        1.23208         6.59222         6.27353
| 20>    N        0.36072         6.17250         5.65500
| 21>    C        3.25590         8.15527         9.09012
| 22>    C        2.66367         8.54125        10.32862
| 23>    C        3.42198         8.85361        11.41994
| 24>    C        4.83045         8.80534        11.31678
| 25>    C        5.42858         8.43695        10.07667
| 26>    C        4.61821         8.11042         8.96485
| 27>    C        6.83474         8.40144         9.98522
| 28>    C        7.61450         8.71152        11.06614
| 29>    C        7.02491         9.07267        12.28680
| 30>    C        5.66260         9.11805        12.40964
| 31>    C        1.19874         8.55047        10.18550
| 32>    O        0.36169         8.76884        11.02998
| 33>    C        0.94619         8.29115         8.73503
| 34>    C       -0.28201         8.58067         8.23079
| 35>    C       -0.68010         8.80039         6.88921
| 36>    S       -2.37406         8.75519         6.47997
| 37>    C       -2.06331         9.18526         4.83213
| 38>    C       -0.68974         9.36957         4.63079
| 39>    C        0.07251         9.14915         5.78629
| 40>    C       -0.08163         9.71437         3.41205
| 41>    N        0.46268         9.99143         2.44018
| 42>    C       -3.15534         9.31102         3.93738
| 43>    C       -3.06251         9.78261         2.66734
| 44>    C       -4.12296         9.96064         1.74631
| 45>    S       -3.84521        11.06440         0.43699
| 46>    C       -5.45067        10.92041        -0.15792
| 47>    C       -6.17998         9.99678         0.59099
| 48>    C       -5.42287         9.43651         1.67241
| 49>    C       -6.00117         8.42418         2.46426
| 50>    C       -7.28069         8.02713         2.20563
| 51>    F       -7.84055         7.06215         2.94959
| 52>    C       -8.02910         8.59157         1.14511
| 53>    F       -9.27465         8.14690         0.92536
| 54>    C       -7.49409         9.55064         0.33882
| 55>    C       -5.89083        11.71291        -1.27282
| 56>    C       -7.13686        12.26325        -1.48744
| 57>    O       -7.16953        12.97950        -2.60857
| 58>    C       -5.94006        12.92409        -3.14528
| 59>    N       -5.68896        13.57099        -4.37602
| 60>    O       -4.57417        13.41916        -4.84330
| 61>    O       -6.58232        14.21924        -4.87109
| 62>    C       -5.08857        12.15007        -2.37511
| 63>    C       -3.69568        11.89300        -2.65259
| 64>    C       -3.13120        10.66951        -2.66279
| 65>    C       -1.73273        10.35492        -2.94041
| 66>    C       -0.68695        11.22655        -2.83904
| 67>    C        0.65503        10.88227        -3.11466
| 68>    N        1.75490        10.65547        -3.34745
| 69>    C       -0.81203        12.56461        -2.40313
| 70>    N       -0.85161        13.64442        -2.01785
| 71>    C       -1.65843         8.93508        -3.24568
| 72>    C       -2.94224         8.35059        -3.03185
| 73>    C       -3.89411         9.38266        -2.60690
| 74>    O       -5.05998         9.23964        -2.30863
| 75>    C       -3.16926         7.01787        -3.23344
| 76>    C       -2.10787         6.19650        -3.67119
| 77>    C       -0.82259         6.77435        -3.89104
| 78>    C       -0.61471         8.15443        -3.67010
| 79>    C        0.22776         5.94426        -4.33330
| 80>    C        0.02054         4.60908        -4.55004
| 81>    C       -1.24487         4.04191        -4.33467
| 82>    C       -2.28612         4.81815        -3.90332
| 83>    H        2.95344         9.13549        12.35110
| 84>    H        5.09666         7.84433         8.03509
| 85>    H        7.28418         8.11989         9.04433
| 86>    H        8.69071         8.67981        10.98641
| 87>    H        7.65528         9.31513        13.12912
| 88>    H        5.20288         9.39562        13.34684
| 89>    H       -1.05206         8.73860         8.98066
| 90>    H        1.13932         9.28767         5.81189
| 91>    H       -4.11830         9.05624         4.35380
| 92>    H       -2.09936        10.12912         2.31761
| 93>    H       -5.44619         7.92908         3.24213
| 94>    H       -8.05338         9.92445        -0.50116
| 95>    H       -8.03487        12.22597        -0.90271
| 96>    H       -3.11354        12.76293        -2.92981
| 97>    H       -4.14985         6.59797        -3.06437
| 98>    H        0.36586         8.56538        -3.85146
| 99>    H        1.20020         6.38461        -4.49653
|100>    H        0.83100         3.98177        -4.88908
|101>    H       -1.39028         2.98706        -4.51244
|102>    H       -3.26226         4.38723        -3.73570
|103> *
|104>
|105>                          ****END OF INPUT****

CARTESIAN COORDINATES (ANGSTROEM)
---------------------------------
  C      2.190450    7.849680    8.141130
  C      2.325250    7.065190    7.024860
  C      3.561270    6.573200    6.557520
  N      4.543550    6.158920    6.132660
  C      1.232080    6.592220    6.273530
  N      0.360720    6.172500    5.655000
  C      3.255900    8.155270    9.090120
  C      2.663670    8.541250   10.328620
  C      3.421980    8.853610   11.419940
  C      4.830450    8.805340   11.316780
  C      5.428580    8.436950   10.076670
  C      4.618210    8.110420    8.964850
  C      6.834740    8.401440    9.985220
  C      7.614500    8.711520   11.066140
  C      7.024910    9.072670   12.286800
  C      5.662600    9.118050   12.409640
  C      1.198740    8.550470   10.185500
  O      0.361690    8.768840   11.029980
  C      0.946190    8.291150    8.735030
  C     -0.282010    8.580670    8.230790
  C     -0.680100    8.800390    6.889210
  S     -2.374060    8.755190    6.479970
  C     -2.063310    9.185260    4.832130
  C     -0.689740    9.369570    4.630790
  C      0.072510    9.149150    5.786290
  C     -0.081630    9.714370    3.412050
  N      0.462680    9.991430    2.440180
  C     -3.155340    9.311020    3.937380
  C     -3.062510    9.782610    2.667340
  C     -4.122960    9.960640    1.746310
  S     -3.845210   11.064400    0.436990
  C     -5.450670   10.920410   -0.157920
  C     -6.179980    9.996780    0.590990
  C     -5.422870    9.436510    1.672410
  C     -6.001170    8.424180    2.464260
  C     -7.280690    8.027130    2.205630
  F     -7.840550    7.062150    2.949590
  C     -8.029100    8.591570    1.145110
  F     -9.274650    8.146900    0.925360
  C     -7.494090    9.550640    0.338820
  C     -5.890830   11.712910   -1.272820
  C     -7.136860   12.263250   -1.487440
  O     -7.169530   12.979500   -2.608570
  C     -5.940060   12.924090   -3.145280
  N     -5.688960   13.570990   -4.376020
  O     -4.574170   13.419160   -4.843300
  O     -6.582320   14.219240   -4.871090
  C     -5.088570   12.150070   -2.375110
  C     -3.695680   11.893000   -2.652590
  C     -3.131200   10.669510   -2.662790
  C     -1.732730   10.354920   -2.940410
  C     -0.686950   11.226550   -2.839040
  C      0.655030   10.882270   -3.114660
  N      1.754900   10.655470   -3.347450
  C     -0.812030   12.564610   -2.403130
  N     -0.851610   13.644420   -2.017850
  C     -1.658430    8.935080   -3.245680
  C     -2.942240    8.350590   -3.031850
  C     -3.894110    9.382660   -2.606900
  O     -5.059980    9.239640   -2.308630
  C     -3.169260    7.017870   -3.233440
  C     -2.107870    6.196500   -3.671190
  C     -0.822590    6.774350   -3.891040
  C     -0.614710    8.154430   -3.670100
  C      0.227760    5.944260   -4.333300
  C      0.020540    4.609080   -4.550040
  C     -1.244870    4.041910   -4.334670
  C     -2.286120    4.818150   -3.903320
  H      2.953440    9.135490   12.351100
  H      5.096660    7.844330    8.035090
  H      7.284180    8.119890    9.044330
  H      8.690710    8.679810   10.986410
  H      7.655280    9.315130   13.129120
  H      5.202880    9.395620   13.346840
  H     -1.052060    8.738600    8.980660
  H      1.139320    9.287670    5.811890
  H     -4.118300    9.056240    4.353800
  H     -2.099360   10.129120    2.317610
  H     -5.446190    7.929080    3.242130
  H     -8.053380    9.924450   -0.501160
  H     -8.034870   12.225970   -0.902710
  H     -3.113540   12.762930   -2.929810
  H     -4.149850    6.597970   -3.064370
  H      0.365860    8.565380   -3.851460
  H      1.200200    6.384610   -4.496530
  H      0.831000    3.981770   -4.889080
  H     -1.390280    2.987060   -4.512440
  H     -3.262260    4.387230   -3.735700

 Total Charge           Charge          ....    0
 Multiplicity           Mult            ....    1
 Number of Electrons    NEL             ....  470
 Basis Dimension        Dim             .... 1060

ORBITAL ENERGIES
----------------

  NO   OCC          E(Eh)            E(eV)
   0   2.0000     -88.988388     -2421.4971
   1   2.0000     -88.982706     -2421.3425
   2   2.0000     -24.797731      -674.7806
   3   2.0000     -24.796899      -674.7579
   4   2.0000     -19.339798      -526.2627
   5   2.0000     -19.256203      -523.9879
   6   2.0000     -19.255509      -523.9690
   7   2.0000     -19.231435      -523.3140
   8   2.0000     -19.216327      -522.9028
   9   2.0000     -14.669512      -399.1777
  10   2.0000     -14.422465      -392.4552
  11   2.0000     -14.422157      -392.4469
  12   2.0000     -14.418164      -392.3382
  13   2.0000     -14.417017      -392.3070
  14   2.0000     -14.413373      -392.2078
  15   2.0000     -10.397780      -282.9380
  16   2.0000     -10.380845      -282.4772
  17   2.0000     -10.380784      -282.4755
  18   2.0000     -10.379711      -282.4463
  19   2.0000     -10.369170      -282.1595
  20   2.0000     -10.367536      -282.1150
  21   2.0000     -10.354278      -281.7542
  22   2.0000     -10.348795      -281.6050
  23   2.0000     -10.345661      -281.5197
  24   2.0000     -10.344330      -281.4835
  25   2.0000     -10.343122      -281.4506
  26   2.0000     -10.335163      -281.2341
  27   2.0000     -10.333774      -281.1963
  28   2.0000     -10.332306      -281.1563
  29   2.0000     -10.325948      -280.9833
  30   2.0000     -10.325369      -280.9676
  31   2.0000     -10.325049      -280.9589
  32   2.0000     -10.324026      -280.9310
  33   2.0000     -10.323464      -280.9157
  34   2.0000     -10.323034      -280.9040
  35   2.0000     -10.321938      -280.8742
  36   2.0000     -10.319405      -280.8053
  37   2.0000     -10.319024      -280.7949
  38   2.0000     -10.318488      -280.7803
  39   2.0000     -10.314631      -280.6754
  40   2.0000     -10.312361      -280.6136
  41   2.0000     -10.311372      -280.5867
  42   2.0000     -10.311235      -280.5830
  43   2.0000     -10.309966      -280.5484
  44   2.0000     -10.308632      -280.5121
  45   2.0000     -10.305573      -280.4289
  46   2.0000     -10.305322      -280.4221
  47   2.0000     -10.304693      -280.4049
  48   2.0000     -10.304444      -280.3982
  49   2.0000     -10.304086      -280.3884
  50   2.0000     -10.303364      -280.3688
  51   2.0000     -10.302029      -280.3325
  52   2.0000     -10.301754      -280.3250
  53   2.0000     -10.301260      -280.3115
  54   2.0000     -10.299293      -280.2580
  55   2.0000     -10.298998      -280.2500
  56   2.0000     -10.298679      -280.2413
  57   2.0000     -10.298522      -280.2370
  58   2.0000     -10.298042      -280.2240
  59   2.0000     -10.292207      -280.0652
  60   2.0000     -10.291706      -280.0516
  61   2.0000     -10.291198      -280.0377
  62   2.0000     -10.291019      -280.0329
  63   2.0000     -10.290649      -280.0228
  64   2.0000     -10.287671      -279.9418
  65   2.0000     -10.287239      -279.9300
  66   2.0000     -10.286983      -279.9230
  67   2.0000     -10.286494      -279.9097
  68   2.0000      -8.082927      -219.9476
  69   2.0000      -8.078576      -219.8292
  70   2.0000      -6.051834      -164.6788
  71   2.0000      -6.047702      -164.5663
  72   2.0000      -6.047671      -164.5655
  73   2.0000      -6.045972      -164.5193
  74   2.0000      -6.043701      -164.4575
  75   2.0000      -6.040772      -164.3778
  76   2.0000      -1.340947       -36.4890
  77   2.0000      -1.320142       -35.9229
  78   2.0000      -1.305067       -35.5127
  79   2.0000      -1.261599       -34.3299
  80   2.0000      -1.157751       -31.5040
  81   2.0000      -1.146062       -31.1859
  82   2.0000      -1.131915       -30.8010
  83   2.0000      -1.026341       -27.9282
  84   2.0000      -1.024890       -27.8887
  85   2.0000      -1.022375       -27.8202
  86   2.0000      -1.017028       -27.6747
  87   2.0000      -1.006077       -27.3767
  88   2.0000      -1.000463       -27.2240
  89   2.0000      -1.000139       -27.2152
  90   2.0000      -0.996132       -27.1061
  91   2.0000      -0.992704       -27.0128
  92   2.0000      -0.982015       -26.7220
  93   2.0000      -0.973062       -26.4784
  94   2.0000      -0.969501       -26.3815
  95   2.0000      -0.955865       -26.0104
  96   2.0000      -0.940687       -25.5974
  97   2.0000      -0.931350       -25.3433
  98   2.0000      -0.929737       -25.2994
  99   2.0000      -0.921141       -25.0655
 100   2.0000      -0.909175       -24.7399
 101   2.0000      -0.903488       -24.5852
 102   2.0000      -0.888663       -24.1817
 103   2.0000      -0.887654       -24.1543
 104   2.0000      -0.882915       -24.0253
 105   2.0000      -0.879918       -23.9438
 106   2.0000      -0.872622       -23.7453
 107   2.0000      -0.867697       -23.6112
 108   2.0000      -0.850765       -23.1505
 109   2.0000      -0.842417       -22.9233
 110   2.0000      -0.835326       -22.7304
 111   2.0000      -0.829824       -22.5807
 112   2.0000      -0.823370       -22.4050
 113   2.0000      -0.809314       -22.0226
 114   2.0000      -0.798748       -21.7350
 115   2.0000      -0.789467       -21.4825
 116   2.0000      -0.770313       -20.9613
 117   2.0000      -0.762732       -20.7550
 118   2.0000      -0.756550       -20.5868
 119   2.0000      -0.749438       -20.3932
 120   2.0000      -0.739746       -20.1295
 121   2.0000      -0.730168       -19.8689
 122   2.0000      -0.725108       -19.7312
 123   2.0000      -0.710971       -19.3465
 124   2.0000      -0.707655       -19.2563
 125   2.0000      -0.704841       -19.1797
 126   2.0000      -0.702543       -19.1172
 127   2.0000      -0.694165       -18.8892
 128   2.0000      -0.688074       -18.7235
 129   2.0000      -0.682118       -18.5614
 130   2.0000      -0.678660       -18.4673
 131   2.0000      -0.676624       -18.4119
 132   2.0000      -0.667548       -18.1649
 133   2.0000      -0.661320       -17.9954
 134   2.0000      -0.656639       -17.8681
 135   2.0000      -0.654966       -17.8225
 136   2.0000      -0.644615       -17.5409
 137   2.0000      -0.636672       -17.3247
 138   2.0000      -0.632659       -17.2155
 139   2.0000      -0.629716       -17.1354
 140   2.0000      -0.625527       -17.0215
 141   2.0000      -0.621768       -16.9192
 142   2.0000      -0.615138       -16.7388
 143   2.0000      -0.613107       -16.6835
 144   2.0000      -0.610730       -16.6188
 145   2.0000      -0.608886       -16.5686
 146   2.0000      -0.604110       -16.4387
 147   2.0000      -0.593533       -16.1509
 148   2.0000      -0.591264       -16.0891
 149   2.0000      -0.587229       -15.9793
 150   2.0000      -0.585819       -15.9409
 151   2.0000      -0.584349       -15.9010
 152   2.0000      -0.573371       -15.6022
 153   2.0000      -0.563994       -15.3470
 154   2.0000      -0.559351       -15.2207
 155   2.0000      -0.555977       -15.1289
 156   2.0000      -0.554834       -15.0978
 157   2.0000      -0.553935       -15.0733
 158   2.0000      -0.551736       -15.0135
 159   2.0000      -0.548521       -14.9260
 160   2.0000      -0.547791       -14.9061
 161   2.0000      -0.547029       -14.8854
 162   2.0000      -0.545645       -14.8477
 163   2.0000      -0.540740       -14.7143
 164   2.0000      -0.537556       -14.6276
 165   2.0000      -0.536269       -14.5926
 166   2.0000      -0.531806       -14.4712
 167   2.0000      -0.529954       -14.4208
 168   2.0000      -0.524994       -14.2858
 169   2.0000      -0.524020       -14.2593
 170   2.0000      -0.521032       -14.1780
 171   2.0000      -0.519494       -14.1362
 172   2.0000      -0.515946       -14.0396
 173   2.0000      -0.514463       -13.9993
 174   2.0000      -0.512624       -13.9492
 175   2.0000      -0.509588       -13.8666
 176   2.0000      -0.503740       -13.7075
 177   2.0000      -0.502313       -13.6686
 178   2.0000      -0.500719       -13.6253
 179   2.0000      -0.499350       -13.5880
 180   2.0000      -0.495863       -13.4931
 181   2.0000      -0.491219       -13.3667
 182   2.0000      -0.490169       -13.3382
 183   2.0000      -0.486765       -13.2455
 184   2.0000      -0.484232       -13.1766
 185   2.0000      -0.482680       -13.1344
 186   2.0000      -0.473162       -12.8754
 187   2.0000      -0.472555       -12.8589
 188   2.0000      -0.466568       -12.6960
 189   2.0000      -0.454807       -12.3759
 190   2.0000      -0.454653       -12.3717
 191   2.0000      -0.453691       -12.3456
 192   2.0000      -0.451029       -12.2731
 193   2.0000      -0.450096       -12.2477
 194   2.0000      -0.448933       -12.2161
 195   2.0000      -0.447522       -12.1777
 196   2.0000      -0.446456       -12.1487
 197   2.0000      -0.444301       -12.0900
 198   2.0000      -0.441252       -12.0071
 199   2.0000      -0.441081       -12.0024
 200   2.0000      -0.440240       -11.9795
 201   2.0000      -0.439741       -11.9659
 202   2.0000      -0.437004       -11.8915
 203   2.0000      -0.434008       -11.8099
 204   2.0000      -0.432969       -11.7817
 205   2.0000      -0.431592       -11.7442
 206   2.0000      -0.429081       -11.6759
 207   2.0000      -0.428280       -11.6541
 208   2.0000      -0.426103       -11.5949
 209   2.0000      -0.422119       -11.4864
 210   2.0000      -0.418272       -11.3818
 211   2.0000      -0.415826       -11.3152
 212   2.0000      -0.411860       -11.2073
 213   2.0000      -0.409174       -11.1342
 214   2.0000      -0.405473       -11.0335
 215   2.0000      -0.401120       -10.9150
 216   2.0000      -0.393498       -10.7076
 217   2.0000      -0.390386       -10.6229
 218   2.0000      -0.385889       -10.5006
 219   2.0000      -0.382564       -10.4101
 220   2.0000      -0.379325       -10.3219
 221   2.0000      -0.372660       -10.1406
 222   2.0000      -0.355795        -9.6817
 223   2.0000      -0.352320        -9.5871
 224   2.0000      -0.345748        -9.4083
 225   2.0000      -0.341260        -9.2861
 226   2.0000      -0.337247        -9.1770
 227   2.0000      -0.335629        -9.1329
 228   2.0000      -0.325804        -8.8656
 229   2.0000      -0.320364        -8.7176
 230   2.0000      -0.318417        -8.6646
 231   2.0000      -0.303645        -8.2626
 232   2.0000      -0.299571        -8.1517
 233   2.0000      -0.295074        -8.0294
 234   2.0000      -0.252452        -6.8696
 235   0.0000      -0.105603        -2.8736
 236   0.0000      -0.099562        -2.7092
 237   0.0000      -0.076003        -2.0681
 238   0.0000      -0.066889        -1.8201
 239   0.0000      -0.055639        -1.5140

MULLIKEN ATOMIC CHARGES
-----------------------
   0 C :    0.263366
   1 C :   -0.334273
   2 C :   -0.172582
   3 N :    0.158235
   4 C :   -0.199766
   5 N :    0.169757
   6 C :    0.032850
   7 C :    0.018102
   8 C :   -0.081664
   9 C :    0.094569
  10 C :    0.094386
  11 C :   -0.081084
  12 C :   -0.016321
  13 C :    0.033600
  14 C :    0.037102
  15 C :   -0.014025
  16 C :    0.135403
  17 O :   -0.143346
  18 C :   -0.135643
  19 C :    0.099317
  20 C :   -0.112834
  21 S :    0.171136
  22 C :   -0.038207
  23 C :   -0.098672
  24 C :    0.061908
  25 C :   -0.170283
  26 N :    0.121893
  27 C :    0.015700
  28 C :    0.053694
  29 C :   -0.138741
  30 S :    0.198919
  31 C :   -0.156512
  32 C :    0.152738
  33 C :    0.115977
  34 C :   -0.126343
  35 C :    0.236061
  36 F :   -0.173759
  37 C :    0.228150
  38 F :   -0.175187
  39 C :   -0.114141
  40 C :    0.103531
  41 C :    0.084415
  42 O :   -0.127748
  43 C :    0.160673
  44 N :    0.277816
  45 O :   -0.245525
  46 O :   -0.221832
  47 C :    0.000926
  48 C :   -0.068461
  49 C :   -0.083609
  50 C :    0.294217
  51 C :   -0.313363
  52 C :   -0.177354
  53 N :    0.159413
  54 C :   -0.198446
  55 N :    0.174065
  56 C :    0.058843
  57 C :   -0.003322
  58 C :    0.160545
  59 O :   -0.141630
  60 C :   -0.075309
  61 C :    0.098167
  62 C :    0.097494
  63 C :   -0.080089
  64 C :   -0.015753
  65 C :    0.040474
  66 C :    0.038676
  67 C :   -0.015265
  68 H :   -0.011738
  69 H :   -0.004735
  70 H :   -0.010243
  71 H :   -0.002392
  72 H :   -0.004363
  73 H :   -0.017352
  74 H :    0.024685
  75 H :    0.013090
  76 H :   -0.013143
  77 H :    0.005535
  78 H :   -0.005385
  79 H :   -0.012368
  80 H :    0.029036
  81 H :    0.058512
  82 H :   -0.011824
  83 H :   -0.004218
  84 H :   -0.006465
  85 H :   -0.000688
  86 H :   -0.001139
  87 H :   -0.015833
Sum of atomic charges:   -0.0000000

LOEWDIN ATOMIC CHARGES
----------------------
   0 C :    0.065685
   1 C :   -0.139841
   2 C :   -0.020302
   3 N :   -0.048569
   4 C :   -0.018320
   5 N :   -0.042794
   6 C :   -0.023735
   7 C :   -0.057683
   8 C :    0.033631
   9 C :   -0.008905
  10 C :   -0.005121
  11 C :    0.016762
  12 C :   -0.005734
  13 C :   -0.012260
  14 C :   -0.012281
  15 C :   -0.008890
  16 C :    0.083782
  17 O :   -0.142716
  18 C :   -0.089062
  19 C :    0.046008
  20 C :   -0.187214
  21 S :    0.480378
  22 C :   -0.114699
  23 C :   -0.111454
  24 C :    0.016894
  25 C :   -0.028383
  26 N :   -0.056127
  27 C :   -0.066346
  28 C :   -0.007054
  29 C :   -0.186107
  30 S :    0.524533
  31 C :   -0.170624
  32 C :   -0.036916
  33 C :   -0.035245
  34 C :   -0.042714
  35 C :    0.067545
  36 F :   -0.051601
  37 C :    0.062369
  38 F :   -0.052842
  39 C :   -0.036022
  40 C :   -0.062313
  41 C :    0.070935
  42 O :    0.061262
  43 C :    0.013265
  44 N :    0.274119
  45 O :   -0.204067
  46 O :   -0.184313
  47 C :   -0.027800
  48 C :    0.054066
  49 C :   -0.067451
  50 C :    0.071784
  51 C :   -0.116636
  52 C :   -0.015430
  53 N :   -0.037663
  54 C :   -0.022440
  55 N :   -0.037531
  56 C :   -0.024561
  57 C :   -0.058247
  58 C :    0.083294
  59 O :   -0.130473
  60 C :    0.037597
  61 C :   -0.007013
  62 C :   -0.003039
  63 C :    0.024636
  64 C :   -0.002898
  65 C :   -0.008525
  66 C :   -0.008547
  67 C :   -0.007782
  68 H :    0.039567
  69 H :    0.039022
  70 H :    0.034626
  71 H :    0.033803
  72 H :    0.033114
  73 H :    0.031948
  74 H :    0.046539
  75 H :    0.043091
  76 H :    0.028411
  77 H :    0.039399
  78 H :    0.041300
  79 H :    0.040495
  80 H :    0.034421
  81 H :    0.053162
  82 H :    0.039863
  83 H :    0.040631
  84 H :    0.036182
  85 H :    0.035040
  86 H :    0.034430
  87 H :    0.032703

  Mayer bond orders larger than 0.100000
B(  0-C ,  1-C ) :   1.6513 B(  0-C ,  6-C ) :   0.9998 B(  0-C , 18-C ) :   1.0346
B(  1-C ,  2-C ) :   1.1273 B(  1-C ,  4-C ) :   1.1690 B(  2-C ,  3-N ) :   2.9902
B(  4-C ,  5-N ) :   2.9920 B(  6-C ,  7-C ) :   1.2131 B(  6-C , 11-C ) :   1.4575
B(  7-C ,  8-C ) :   1.4735 B(  7-C , 16-C ) :   0.9230 B(  8-C ,  9-C ) :   1.1843
B(  8-C , 68-H ) :   1.0160 B(  9-C , 10-C ) :   1.2554 B(  9-C , 15-C ) :   1.2463
B( 10-C , 11-C ) :   1.2052 B( 10-C , 12-C ) :   1.2419 B( 11-C , 69-H ) :   0.9937
B( 12-C , 13-C ) :   1.4889 B( 12-C , 70-H ) :   0.9974 B( 13-C , 14-C ) :   1.2601
B( 13-C , 71-H ) :   0.9893 B( 14-C , 15-C ) :   1.4890 B( 14-C , 72-H ) :   0.9886
B( 15-C , 73-H ) :   0.9972 B( 16-C , 17-O ) :   2.2664 B( 16-C , 18-C ) :   0.9350
B( 18-C , 19-C ) :   1.6890 B( 19-C , 20-C ) :   1.1095 B( 19-C , 74-H ) :   0.9260
B( 20-C , 21-S ) :   1.1018 B( 20-C , 24-C ) :   1.4420 B( 21-S , 22-C ) :   1.1618
B( 22-C , 23-C ) :   1.4138 B( 22-C , 27-C ) :   1.1749 B( 23-C , 24-C ) :   1.3417
B( 23-C , 25-C ) :   1.1137 B( 24-C , 75-H ) :   0.9943 B( 25-C , 26-N ) :   2.9677
B( 27-C , 28-C ) :   1.6498 B( 27-C , 76-H ) :   0.9437 B( 28-C , 29-C ) :   1.1743
B( 28-C , 77-H ) :   0.9294 B( 29-C , 30-S ) :   1.1479 B( 29-C , 31-C ) :   0.1276
B( 29-C , 33-C ) :   1.3416 B( 30-S , 31-C ) :   1.2065 B( 31-C , 32-C ) :   1.3934
B( 31-C , 40-C ) :   1.0134 B( 32-C , 33-C ) :   1.2097 B( 32-C , 39-C ) :   1.1488
B( 33-C , 34-C ) :   1.1578 B( 34-C , 35-C ) :   1.5022 B( 34-C , 39-C ) :   0.1118
B( 34-C , 78-H ) :   0.9980 B( 35-C , 36-F ) :   1.1321 B( 35-C , 37-C ) :   1.1494
B( 37-C , 38-F ) :   1.1287 B( 37-C , 39-C ) :   1.5088 B( 39-C , 79-H ) :   0.9966
B( 40-C , 41-C ) :   1.4670 B( 40-C , 47-C ) :   1.2663 B( 41-C , 42-O ) :   1.1689
B( 41-C , 80-H ) :   1.0107 B( 42-O , 43-C ) :   1.1840 B( 43-C , 44-N ) :   0.9406
B( 43-C , 47-C ) :   1.4559 B( 44-N , 45-O ) :   1.5008 B( 44-N , 46-O ) :   1.5099
B( 45-O , 46-O ) :   0.2717 B( 47-C , 48-C ) :   1.0489 B( 48-C , 49-C ) :   1.7362
B( 48-C , 81-H ) :   0.9264 B( 49-C , 50-C ) :   1.0044 B( 49-C , 58-C ) :   0.9176
B( 50-C , 51-C ) :   1.6934 B( 50-C , 56-C ) :   1.0069 B( 51-C , 52-C ) :   1.1337
B( 51-C , 54-C ) :   1.1382 B( 52-C , 53-N ) :   2.9734 B( 54-C , 55-N ) :   2.9964
B( 56-C , 57-C ) :   1.2080 B( 56-C , 63-C ) :   1.4447 B( 57-C , 58-C ) :   0.9553
B( 57-C , 60-C ) :   1.4616 B( 58-C , 59-O ) :   2.2123 B( 60-C , 61-C ) :   1.1874
B( 60-C , 82-H ) :   1.0169 B( 61-C , 62-C ) :   1.2520 B( 61-C , 67-C ) :   1.2406
B( 62-C , 63-C ) :   1.2097 B( 62-C , 64-C ) :   1.2399 B( 63-C , 83-H ) :   0.9907
B( 64-C , 65-C ) :   1.4912 B( 64-C , 84-H ) :   0.9972 B( 65-C , 66-C ) :   1.2579
B( 65-C , 85-H ) :   0.9878 B( 66-C , 67-C ) :   1.4921 B( 66-C , 86-H ) :   0.9885
B( 67-C , 87-H ) :   0.9978

-----------------------------------------------------------------------------
         ABSORPTION SPECTRUM VIA TRANSITION ELECTRIC DIPOLE MOMENTS
-----------------------------------------------------------------------------
State   Energy  Wavelength   fosc         T2         TX        TY        TZ
        (cm-1)    (nm)                  (au**2)     (au)      (au)      (au)
-----------------------------------------------------------------------------
   0   16228.3    616.2   0.440213068   8.93030  -1.42760   0.58005  -2.56043
   1   18184.7    549.9   0.879175543  15.91643   2.95503  -0.84633   2.54322
   2   23294.0    429.3   0.118511292   1.67491  -0.31964  -0.02189  -1.25390
   3   25042.1    399.3   0.113242439   1.48872   0.82577  -0.17710   0.88061
   4   25745.2    388.4   0.064065331   0.81922   0.64673   0.35598   0.52368
   5   26359.1    379.4   0.063330848   0.79097  -0.53878  -0.42178  -0.56815
   6   27268.0    366.7   0.084055606   1.01482  -0.88689   0.46200  -0.12164
   7   27771.6    360.1   0.022732919   0.26948  -0.40695   0.14298   0.28884
   8   28023.8    356.8   0.060135635   0.70645   0.58670  -0.58162   0.15476
   9   28385.4    352.3   0.002896245   0.03359   0.00758   0.02301  -0.18167
  10   28695.4    348.5   0.001310620   0.01504   0.00260   0.10607   0.06147
  11   29562.2    338.3   0.046737190   0.52048  -0.50042   0.00854  -0.51960
  12   30067.4    332.6   0.104800002   1.14747  -0.75680  -0.10499  -0.75080
  13   30406.4    328.9   0.022314189   0.24160   0.20938   0.23661   0.37653
  14   30809.7    324.6   0.114096360   1.21916  -0.62390   0.63747  -0.65080
  15   31471.2    317.8   0.016257858   0.17007   0.21481  -0.31088  -0.16516
  16   31776.0    314.7   0.163030448   1.68906  -0.31223  -1.25717  -0.10535
  17   32655.7    306.2   0.251212544   2.53255   1.52846   0.14928   0.41723
  18   33208.0    301.1   0.602097920   5.96897   1.22986  -2.09340  -0.27214
  19   33447.1    299.0   0.310637299   3.05753  -0.51724  -0.80388  -1.46416
  20   33734.8    296.4   0.385055130   3.75768   0.61848   1.83715  -0.00565
  21   33834.3    295.6   0.372710668   3.62652  -1.22042  -0.73320  -1.26472
  22   34395.9    290.7   0.076397602   0.73122  -0.48355  -0.58093   0.39990
  23   34435.2    290.4   0.069239041   0.66195   0.37408   0.29519   0.65945
  24   34604.5    289.0   0.074187978   0.70579  -0.78613  -0.02523  -0.29522
  25   34695.5    288.2   0.054668982   0.51873  -0.49887   0.29981  -0.42423
  26   35168.9    284.3   0.202172107   1.89251  -0.01631  -1.26745  -0.53462
  27   36194.1    276.3   0.072849935   0.66262   0.64823  -0.47658   0.12365
  28   36878.4    271.2   0.009404660   0.08396   0.25232   0.09932  -0.10211
  29   36972.5    270.5   0.085901001   0.76488   0.53632   0.57929  -0.37638
  30   37174.6    269.0   0.002955173   0.02617  -0.02008   0.06445  -0.14702
  31   37223.0    268.7   0.020740008   0.18343  -0.28741  -0.31750  -0.00464
  32   37669.6    265.5   0.026379529   0.23054   0.03660   0.38473   0.28493
  33   37896.9    263.9   0.035709746   0.31021  -0.00567  -0.38546  -0.40200
  34   37969.2    263.4   0.013899732   0.12052  -0.32119  -0.05537  -0.11953
  35   38125.7    262.3   0.019984900   0.17257   0.06060  -0.12971   0.38996
  36   38485.9    259.8   0.029403519   0.25152   0.43148   0.23703  -0.09571
  37   38624.9    258.9   0.196755484   1.67701   1.27659  -0.02605   0.21600
  38   38723.7    258.2   0.066848478   0.56832  -0.02061   0.50337   0.56081
  39   39154.9    255.4   0.079146600   0.66546   0.08178   0.00172   0.81165
  40   39360.3    254.1   0.094227621   0.78813   0.88773  -0.00149   0.00769
  41   39444.1    253.5   0.019856647   0.16573   0.09299  -0.09584   0.38458
  42   39587.3    252.6   0.067670805   0.56276  -0.03759  -0.14259   0.73554
  43   39722.7    251.7   0.005979933   0.04956  -0.18057   0.13016   0.00371
  44   39863.1    250.9   0.048709484   0.40227  -0.14431   0.30545   0.53679

FINAL SINGLE POINT ENERGY     -3728.271218104907

DIPOLE MOMENT
-------------
                                X             Y             Z
Electronic contribution:    -42.88824      13.61071     -16.06854
Nuclear contribution   :     42.51283     -14.94225      17.67822
                        -----------------------------------------
Total Dipole Moment    :     -0.37540      -1.33154       1.60969
                        -----------------------------------------
Magnitude (a.u.)       :      2.12251
Magnitude (Debye)      :      5.39498

Rotational constants in cm-1:     0.001542     0.000429     0.000396
Rotational constants in MHz :    46.228139    12.874931    11.866316

                             ****ORCA TERMINATED NORMALLY****
TOTAL RUN TIME: 0 days 0 hours 8 minutes 9 seconds 374 msec
