                         Program Version 4.2.0 -  RELEASE  -
|  1> # ORCA input file
|  2> # SCF done       -192.499673837846          0.000669061831
|  3> ! CAM-B3LYP def2-SVP def2/J RIJCOSX Grid4 TightSCF
|  4> %maxcore 5000
|  5> %tddft
|  6>     Mode sTDDFT
|  7>     Ethresh 5.0
|  8>     maxcore 5000
|  9> end
| 10>
| 11> %pal
| 12>   nprocs 6
| 13>   end
| 14> * xyz 0 1
| 15>    C        2.25136         2.08841        -1.88322
| 16>    C        2.41609         3.06596        -0.94043
| 17>    C        3.67321         3.44919        -0.42641
| 18>    N        4.67053         3.78653         0.02956
| 19>    C        1.35250         3.73630        -0.30227
| 20>    N        0.52631         4.28177         0.27881
| 21>    C        3.31098         1.23185        -2.40153
| 22>    C        2.72163         0.04743        -2.93427
| 23>    C        3.48249        -0.95498        -3.46460
| 24>    C        4.88737        -0.80941        -3.49838
| 25>    C        5.48027         0.38123        -2.98578
| 26>    C        4.66937         1.39956        -2.43510
| 27>    C        6.88248         0.51797        -3.03668
| 28>    C        7.66367        -0.47347        -3.56466
| 29>    C        7.07953        -1.64597        -4.06731
| 30>    C        5.72146        -1.81052        -4.03452
| 31>    C        1.25654         0.14123        -2.82640
| 32>    O        0.42615        -0.69064        -3.10859
| 33>    C        0.98926         1.53312        -2.34632
| 34>    C       -0.24533         2.06087        -2.49826
| 35>    C       -0.63434         3.44717        -2.44140
| 36>    C        0.23576         4.46363        -2.82015
| 37>    C       -0.14618         5.79447        -2.76904
| 38>    N        0.82148         6.74220        -3.24278
| 39>    O        1.98089         6.37800        -3.28718
| 40>    O        0.44549         7.84360        -3.59494
| 41>    C       -1.42539         6.17831        -2.30865
| 42>    C       -2.29869         5.13130        -1.96701
| 43>    C       -1.93101         3.81249        -2.04705
| 44>    C       -1.80171         7.55615        -2.13907
| 45>    C       -3.07067         8.01284        -2.19677
| 46>    C       -3.50058         9.36804        -2.06530
| 47>    C       -2.78283        10.56544        -2.13458
| 48>    C       -1.34062        10.71813        -2.45085
| 49>    C       -3.66380        11.68358        -1.92940
| 50>    C       -4.94067        11.15870        -1.76439
| 51>    C       -4.87537         9.71054        -1.85060
| 52>    C       -6.03452         8.99641        -1.70269
| 53>    C       -7.23016         9.71327        -1.48657
| 54>    C       -7.20054        11.07521        -1.41417
| 55>    O       -6.09417        11.79630        -1.54237
| 56>    C       -3.27162        13.05795        -1.87439
| 57>    C       -4.12155        14.10148        -1.79333
| 58>    C       -3.74688        15.49011        -1.71416
| 59>    C       -4.74163        16.46526        -1.82116
| 60>    C       -4.44473        17.81432        -1.75205
| 61>    N       -5.55839        18.72347        -1.81021
| 62>    O       -6.57106        18.32862        -2.35129
| 63>    O       -5.43535        19.82093        -1.30593
| 64>    C       -3.12384        18.27234        -1.57164
| 65>    C       -2.13658        17.28139        -1.45031
| 66>    C       -2.43178        15.94159        -1.51605
| 67>    C       -2.76665        19.66761        -1.57231
| 68>    C       -1.69095        20.17460        -0.92528
| 69>    C       -1.37388        21.55550        -0.97919
| 70>    C       -0.33815        22.13799        -0.30998
| 71>    C        0.01120        23.54831        -0.31046
| 72>    C       -0.46212        24.50991        -1.16381
| 73>    C       -0.07156        25.86488        -1.12075
| 74>    N        0.20325        26.97951        -1.13870
| 75>    C       -1.36043        24.28689        -2.22882
| 76>    N       -2.06715        24.18695        -3.12822
| 77>    C        1.01638        23.75645         0.72559
| 78>    C        1.36597        22.49240         1.28063
| 79>    C        0.57248        21.43422         0.63231
| 80>    O        0.65425        20.24077         0.83827
| 81>    C        2.29851        22.37175         2.27023
| 82>    C        2.93042        23.53340         2.76709
| 83>    C        2.57873        24.80311         2.22479
| 84>    C        1.61393        24.89607         1.19571
| 85>    C        3.20986        25.95668         2.73333
| 86>    C        4.14415        25.86254         3.72846
| 87>    C        4.49085        24.61160         4.26054
| 88>    C        3.89720        23.47196         3.78989
| 89>    H        3.01822        -1.84739        -3.85730
| 90>    H        5.14057         2.29715        -2.06599
| 91>    H        7.32730         1.42122        -2.64593
| 92>    H        8.73682        -0.35997        -3.59792
| 93>    H        7.71108        -2.41770        -4.48129
| 94>    H        5.26623        -2.71082        -4.42060
| 95>    H       -1.02734         1.35100        -2.74929
| 96>    H        1.21802         4.23051        -3.20519
| 97>    H       -3.28017         5.38103        -1.59627
| 98>    H       -2.62885         3.03940        -1.76199
| 99>    H       -0.99926         8.25273        -1.97144
|100>    H       -3.87061         7.30713        -2.38382
|101>    H       -1.01676         9.96091        -3.16153
|102>    H       -0.73656        10.61569        -1.54804
|103>    H       -1.14117        11.69687        -2.87943
|104>    H       -6.05669         7.91873        -1.74744
|105>    H       -8.16698         9.19561        -1.37313
|106>    H       -8.07597        11.68442        -1.24577
|107>    H       -2.20719        13.23924        -1.89777
|108>    H       -5.18553        13.91545        -1.80877
|109>    H       -5.77451        16.17564        -1.95077
|110>    H       -1.11054        17.59071        -1.32747
|111>    H       -1.63140        15.22688        -1.40715
|112>    H       -3.40978        20.35017        -2.11281
|113>    H       -1.06079        19.54408        -0.31624
|114>    H       -2.02677        22.17606        -1.58006
|115>    H        2.54843        21.40088         2.67191
|116>    H        1.36721        25.87207         0.80909
|117>    H        2.94052        26.91735         2.31948
|118>    H        4.62166        26.75201         4.11145
|119>    H        5.23021        24.55570         5.04551
|120>    H        4.15975        22.50597         4.19598
|121> *
|122>
|123>                          ****END OF INPUT****

CARTESIAN COORDINATES (ANGSTROEM)
---------------------------------
  C      2.251360    2.088410   -1.883220
  C      2.416090    3.065960   -0.940430
  C      3.673210    3.449190   -0.426410
  N      4.670530    3.786530    0.029560
  C      1.352500    3.736300   -0.302270
  N      0.526310    4.281770    0.278810
  C      3.310980    1.231850   -2.401530
  C      2.721630    0.047430   -2.934270
  C      3.482490   -0.954980   -3.464600
  C      4.887370   -0.809410   -3.498380
  C      5.480270    0.381230   -2.985780
  C      4.669370    1.399560   -2.435100
  C      6.882480    0.517970   -3.036680
  C      7.663670   -0.473470   -3.564660
  C      7.079530   -1.645970   -4.067310
  C      5.721460   -1.810520   -4.034520
  C      1.256540    0.141230   -2.826400
  O      0.426150   -0.690640   -3.108590
  C      0.989260    1.533120   -2.346320
  C     -0.245330    2.060870   -2.498260
  C     -0.634340    3.447170   -2.441400
  C      0.235760    4.463630   -2.820150
  C     -0.146180    5.794470   -2.769040
  N      0.821480    6.742200   -3.242780
  O      1.980890    6.378000   -3.287180
  O      0.445490    7.843600   -3.594940
  C     -1.425390    6.178310   -2.308650
  C     -2.298690    5.131300   -1.967010
  C     -1.931010    3.812490   -2.047050
  C     -1.801710    7.556150   -2.139070
  C     -3.070670    8.012840   -2.196770
  C     -3.500580    9.368040   -2.065300
  C     -2.782830   10.565440   -2.134580
  C     -1.340620   10.718130   -2.450850
  C     -3.663800   11.683580   -1.929400
  C     -4.940670   11.158700   -1.764390
  C     -4.875370    9.710540   -1.850600
  C     -6.034520    8.996410   -1.702690
  C     -7.230160    9.713270   -1.486570
  C     -7.200540   11.075210   -1.414170
  O     -6.094170   11.796300   -1.542370
  C     -3.271620   13.057950   -1.874390
  C     -4.121550   14.101480   -1.793330
  C     -3.746880   15.490110   -1.714160
  C     -4.741630   16.465260   -1.821160
  C     -4.444730   17.814320   -1.752050
  N     -5.558390   18.723470   -1.810210
  O     -6.571060   18.328620   -2.351290
  O     -5.435350   19.820930   -1.305930
  C     -3.123840   18.272340   -1.571640
  C     -2.136580   17.281390   -1.450310
  C     -2.431780   15.941590   -1.516050
  C     -2.766650   19.667610   -1.572310
  C     -1.690950   20.174600   -0.925280
  C     -1.373880   21.555500   -0.979190
  C     -0.338150   22.137990   -0.309980
  C      0.011200   23.548310   -0.310460
  C     -0.462120   24.509910   -1.163810
  C     -0.071560   25.864880   -1.120750
  N      0.203250   26.979510   -1.138700
  C     -1.360430   24.286890   -2.228820
  N     -2.067150   24.186950   -3.128220
  C      1.016380   23.756450    0.725590
  C      1.365970   22.492400    1.280630
  C      0.572480   21.434220    0.632310
  O      0.654250   20.240770    0.838270
  C      2.298510   22.371750    2.270230
  C      2.930420   23.533400    2.767090
  C      2.578730   24.803110    2.224790
  C      1.613930   24.896070    1.195710
  C      3.209860   25.956680    2.733330
  C      4.144150   25.862540    3.728460
  C      4.490850   24.611600    4.260540
  C      3.897200   23.471960    3.789890
  H      3.018220   -1.847390   -3.857300
  H      5.140570    2.297150   -2.065990
  H      7.327300    1.421220   -2.645930
  H      8.736820   -0.359970   -3.597920
  H      7.711080   -2.417700   -4.481290
  H      5.266230   -2.710820   -4.420600
  H     -1.027340    1.351000   -2.749290
  H      1.218020    4.230510   -3.205190
  H     -3.280170    5.381030   -1.596270
  H     -2.628850    3.039400   -1.761990
  H     -0.999260    8.252730   -1.971440
  H     -3.870610    7.307130   -2.383820
  H     -1.016760    9.960910   -3.161530
  H     -0.736560   10.615690   -1.548040
  H     -1.141170   11.696870   -2.879430
  H     -6.056690    7.918730   -1.747440
  H     -8.166980    9.195610   -1.373130
  H     -8.075970   11.684420   -1.245770
  H     -2.207190   13.239240   -1.897770
  H     -5.185530   13.915450   -1.808770
  H     -5.774510   16.175640   -1.950770
  H     -1.110540   17.590710   -1.327470
  H     -1.631400   15.226880   -1.407150
  H     -3.409780   20.350170   -2.112810
  H     -1.060790   19.544080   -0.316240
  H     -2.026770   22.176060   -1.580060
  H      2.548430   21.400880    2.671910
  H      1.367210   25.872070    0.809090
  H      2.940520   26.917350    2.319480
  H      4.621660   26.752010    4.111450
  H      5.230210   24.555700    5.045510
  H      4.159750   22.505970    4.195980

 Total Charge           Charge          ....    0
 Multiplicity           Mult            ....    1
 Number of Electrons    NEL             ....  496
 Basis Dimension        Dim             .... 1196

ORBITAL ENERGIES
----------------

  NO   OCC          E(Eh)            E(eV)
   0   2.0000     -19.336197      -526.1647
   1   2.0000     -19.244111      -523.6589
   2   2.0000     -19.243568      -523.6441
   3   2.0000     -19.241939      -523.5998
   4   2.0000     -19.241560      -523.5895
   5   2.0000     -19.217379      -522.9315
   6   2.0000     -19.211966      -522.7842
   7   2.0000     -14.648743      -398.6126
   8   2.0000     -14.648382      -398.6027
   9   2.0000     -14.416301      -392.2875
  10   2.0000     -14.415549      -392.2670
  11   2.0000     -14.409540      -392.1035
  12   2.0000     -14.408948      -392.0874
  13   2.0000     -10.374743      -282.3111
  14   2.0000     -10.368576      -282.1433
  15   2.0000     -10.362690      -281.9831
  16   2.0000     -10.352902      -281.7168
  17   2.0000     -10.345644      -281.5193
  18   2.0000     -10.343460      -281.4599
  19   2.0000     -10.335962      -281.2558
  20   2.0000     -10.334530      -281.2169
  21   2.0000     -10.332342      -281.1573
  22   2.0000     -10.329554      -281.0814
  23   2.0000     -10.321781      -280.8699
  24   2.0000     -10.318636      -280.7844
  25   2.0000     -10.317862      -280.7633
  26   2.0000     -10.317703      -280.7590
  27   2.0000     -10.314314      -280.6668
  28   2.0000     -10.312198      -280.6092
  29   2.0000     -10.311948      -280.6024
  30   2.0000     -10.309481      -280.5352
  31   2.0000     -10.307798      -280.4894
  32   2.0000     -10.307023      -280.4684
  33   2.0000     -10.305372      -280.4234
  34   2.0000     -10.302386      -280.3422
  35   2.0000     -10.301839      -280.3273
  36   2.0000     -10.301446      -280.3166
  37   2.0000     -10.300536      -280.2918
  38   2.0000     -10.299626      -280.2671
  39   2.0000     -10.299532      -280.2645
  40   2.0000     -10.299470      -280.2628
  41   2.0000     -10.299188      -280.2551
  42   2.0000     -10.298775      -280.2439
  43   2.0000     -10.298725      -280.2425
  44   2.0000     -10.298557      -280.2380
  45   2.0000     -10.297979      -280.2222
  46   2.0000     -10.293702      -280.1059
  47   2.0000     -10.293419      -280.0982
  48   2.0000     -10.293117      -280.0899
  49   2.0000     -10.292492      -280.0729
  50   2.0000     -10.292328      -280.0685
  51   2.0000     -10.292026      -280.0603
  52   2.0000     -10.291986      -280.0592
  53   2.0000     -10.291632      -280.0495
  54   2.0000     -10.291529      -280.0467
  55   2.0000     -10.291512      -280.0463
  56   2.0000     -10.290721      -280.0248
  57   2.0000     -10.288026      -279.9514
  58   2.0000     -10.287556      -279.9386
  59   2.0000     -10.287243      -279.9301
  60   2.0000     -10.286906      -279.9209
  61   2.0000     -10.286659      -279.9142
  62   2.0000     -10.285755      -279.8896
  63   2.0000     -10.283807      -279.8366
  64   2.0000     -10.283127      -279.8181
  65   2.0000     -10.282570      -279.8029
  66   2.0000     -10.282236      -279.7939
  67   2.0000     -10.281692      -279.7791
  68   2.0000     -10.279474      -279.7187
  69   2.0000     -10.274013      -279.5701
  70   2.0000     -10.273189      -279.5477
  71   2.0000     -10.271348      -279.4976
  72   2.0000     -10.268138      -279.4102
  73   2.0000     -10.266679      -279.3705
  74   2.0000      -1.323686       -36.0193
  75   2.0000      -1.322576       -35.9891
  76   2.0000      -1.245121       -33.8815
  77   2.0000      -1.141863       -31.0717
  78   2.0000      -1.139995       -31.0208
  79   2.0000      -1.132642       -30.8207
  80   2.0000      -1.126103       -30.6428
  81   2.0000      -1.020087       -27.7580
  82   2.0000      -1.012130       -27.5414
  83   2.0000      -0.999722       -27.2038
  84   2.0000      -0.996144       -27.1065
  85   2.0000      -0.993229       -27.0271
  86   2.0000      -0.990635       -26.9565
  87   2.0000      -0.989514       -26.9261
  88   2.0000      -0.987701       -26.8767
  89   2.0000      -0.987160       -26.8620
  90   2.0000      -0.972862       -26.4729
  91   2.0000      -0.966808       -26.3082
  92   2.0000      -0.940361       -25.5885
  93   2.0000      -0.931541       -25.3485
  94   2.0000      -0.928221       -25.2582
  95   2.0000      -0.919513       -25.0212
  96   2.0000      -0.918160       -24.9844
  97   2.0000      -0.909931       -24.7605
  98   2.0000      -0.902895       -24.5690
  99   2.0000      -0.895776       -24.3753
 100   2.0000      -0.891450       -24.2576
 101   2.0000      -0.883073       -24.0296
 102   2.0000      -0.880903       -23.9706
 103   2.0000      -0.878634       -23.9088
 104   2.0000      -0.876552       -23.8522
 105   2.0000      -0.869458       -23.6592
 106   2.0000      -0.858837       -23.3701
 107   2.0000      -0.841193       -22.8900
 108   2.0000      -0.830036       -22.5864
 109   2.0000      -0.828494       -22.5445
 110   2.0000      -0.823973       -22.4215
 111   2.0000      -0.813829       -22.1454
 112   2.0000      -0.805202       -21.9107
 113   2.0000      -0.797293       -21.6954
 114   2.0000      -0.796772       -21.6813
 115   2.0000      -0.784382       -21.3441
 116   2.0000      -0.771961       -21.0061
 117   2.0000      -0.762852       -20.7583
 118   2.0000      -0.756438       -20.5837
 119   2.0000      -0.750758       -20.4292
 120   2.0000      -0.746600       -20.3160
 121   2.0000      -0.720457       -19.6046
 122   2.0000      -0.719906       -19.5896
 123   2.0000      -0.709760       -19.3136
 124   2.0000      -0.704634       -19.1741
 125   2.0000      -0.704142       -19.1607
 126   2.0000      -0.700806       -19.0699
 127   2.0000      -0.698866       -19.0171
 128   2.0000      -0.694697       -18.9037
 129   2.0000      -0.688652       -18.7392
 130   2.0000      -0.678153       -18.4535
 131   2.0000      -0.674244       -18.3471
 132   2.0000      -0.671848       -18.2819
 133   2.0000      -0.665811       -18.1176
 134   2.0000      -0.661608       -18.0033
 135   2.0000      -0.656337       -17.8598
 136   2.0000      -0.644608       -17.5407
 137   2.0000      -0.638974       -17.3874
 138   2.0000      -0.637797       -17.3553
 139   2.0000      -0.632899       -17.2221
 140   2.0000      -0.631989       -17.1973
 141   2.0000      -0.628364       -17.0986
 142   2.0000      -0.623846       -16.9757
 143   2.0000      -0.618580       -16.8324
 144   2.0000      -0.612589       -16.6694
 145   2.0000      -0.609683       -16.5903
 146   2.0000      -0.609044       -16.5729
 147   2.0000      -0.602460       -16.3938
 148   2.0000      -0.599601       -16.3160
 149   2.0000      -0.598083       -16.2747
 150   2.0000      -0.595266       -16.1980
 151   2.0000      -0.591897       -16.1063
 152   2.0000      -0.590283       -16.0624
 153   2.0000      -0.587530       -15.9875
 154   2.0000      -0.583217       -15.8701
 155   2.0000      -0.580413       -15.7939
 156   2.0000      -0.572042       -15.5660
 157   2.0000      -0.567730       -15.4487
 158   2.0000      -0.559424       -15.2227
 159   2.0000      -0.559139       -15.2149
 160   2.0000      -0.553467       -15.0606
 161   2.0000      -0.548550       -14.9268
 162   2.0000      -0.547017       -14.8851
 163   2.0000      -0.545110       -14.8332
 164   2.0000      -0.542511       -14.7625
 165   2.0000      -0.541953       -14.7473
 166   2.0000      -0.540481       -14.7072
 167   2.0000      -0.534617       -14.5477
 168   2.0000      -0.533438       -14.5156
 169   2.0000      -0.530641       -14.4395
 170   2.0000      -0.528518       -14.3817
 171   2.0000      -0.528194       -14.3729
 172   2.0000      -0.524858       -14.2821
 173   2.0000      -0.521531       -14.1916
 174   2.0000      -0.519676       -14.1411
 175   2.0000      -0.515020       -14.0144
 176   2.0000      -0.513812       -13.9815
 177   2.0000      -0.509848       -13.8737
 178   2.0000      -0.509398       -13.8614
 179   2.0000      -0.509053       -13.8520
 180   2.0000      -0.505984       -13.7685
 181   2.0000      -0.503800       -13.7091
 182   2.0000      -0.501462       -13.6455
 183   2.0000      -0.498930       -13.5766
 184   2.0000      -0.495316       -13.4782
 185   2.0000      -0.491380       -13.3711
 186   2.0000      -0.489921       -13.3314
 187   2.0000      -0.488510       -13.2930
 188   2.0000      -0.483890       -13.1673
 189   2.0000      -0.482870       -13.1396
 190   2.0000      -0.481536       -13.1033
 191   2.0000      -0.474588       -12.9142
 192   2.0000      -0.472955       -12.8698
 193   2.0000      -0.470118       -12.7926
 194   2.0000      -0.466147       -12.6845
 195   2.0000      -0.463522       -12.6131
 196   2.0000      -0.461056       -12.5460
 197   2.0000      -0.458996       -12.4899
 198   2.0000      -0.455247       -12.3879
 199   2.0000      -0.452882       -12.3235
 200   2.0000      -0.450542       -12.2599
 201   2.0000      -0.449521       -12.2321
 202   2.0000      -0.444910       -12.1066
 203   2.0000      -0.442778       -12.0486
 204   2.0000      -0.440513       -11.9870
 205   2.0000      -0.439940       -11.9714
 206   2.0000      -0.439121       -11.9491
 207   2.0000      -0.435615       -11.8537
 208   2.0000      -0.435170       -11.8416
 209   2.0000      -0.433061       -11.7842
 210   2.0000      -0.432286       -11.7631
 211   2.0000      -0.428968       -11.6728
 212   2.0000      -0.427502       -11.6329
 213   2.0000      -0.426452       -11.6043
 214   2.0000      -0.425597       -11.5811
 215   2.0000      -0.423385       -11.5209
 216   2.0000      -0.421188       -11.4611
 217   2.0000      -0.419437       -11.4134
 218   2.0000      -0.416939       -11.3455
 219   2.0000      -0.415546       -11.3076
 220   2.0000      -0.414098       -11.2682
 221   2.0000      -0.406089       -11.0502
 222   2.0000      -0.401657       -10.9297
 223   2.0000      -0.399659       -10.8753
 224   2.0000      -0.392863       -10.6904
 225   2.0000      -0.386994       -10.5306
 226   2.0000      -0.383405       -10.4330
 227   2.0000      -0.380797       -10.3620
 228   2.0000      -0.380291       -10.3483
 229   2.0000      -0.378762       -10.3067
 230   2.0000      -0.376003       -10.2316
 231   2.0000      -0.372002       -10.1227
 232   2.0000      -0.367802       -10.0084
 233   2.0000      -0.365002        -9.9322
 234   2.0000      -0.356883        -9.7113
 235   2.0000      -0.346157        -9.4194
 236   2.0000      -0.344948        -9.3865
 237   2.0000      -0.338716        -9.2169
 238   2.0000      -0.334508        -9.1024
 239   2.0000      -0.330087        -8.9821
 240   2.0000      -0.319749        -8.7008
 241   2.0000      -0.313597        -8.5334
 242   2.0000      -0.310963        -8.4617
 243   2.0000      -0.299284        -8.1439
 244   2.0000      -0.295390        -8.0380
 245   2.0000      -0.287729        -7.8295
 246   2.0000      -0.272683        -7.4201
 247   2.0000      -0.239733        -6.5235
 248   0.0000      -0.094021        -2.5584
 249   0.0000      -0.092166        -2.5080
 250   0.0000      -0.061889        -1.6841
 251   0.0000      -0.057873        -1.5748
 252   0.0000      -0.054523        -1.4837

MULLIKEN ATOMIC CHARGES
-----------------------
   0 C :    0.253020
   1 C :   -0.322025
   2 C :   -0.179552
   3 N :    0.160586
   4 C :   -0.193007
   5 N :    0.175578
   6 C :    0.032058
   7 C :    0.015845
   8 C :   -0.083852
   9 C :    0.095520
  10 C :    0.094388
  11 C :   -0.077954
  12 C :   -0.016150
  13 C :    0.034151
  14 C :    0.037373
  15 C :   -0.014965
  16 C :    0.136857
  17 O :   -0.140726
  18 C :   -0.115619
  19 C :    0.042379
  20 C :    0.055222
  21 C :   -0.053229
  22 C :    0.136061
  23 N :    0.250093
  24 O :   -0.237960
  25 O :   -0.240279
  26 C :    0.087483
  27 C :   -0.031565
  28 C :    0.052102
  29 C :   -0.029014
  30 C :   -0.019446
  31 C :    0.052825
  32 C :   -0.157667
  33 C :    0.105313
  34 C :    0.022464
  35 C :    0.069888
  36 C :    0.045499
  37 C :    0.016092
  38 C :   -0.036796
  39 C :    0.180828
  40 O :   -0.147093
  41 C :    0.006911
  42 C :   -0.029492
  43 C :    0.132662
  44 C :   -0.083703
  45 C :    0.153980
  46 N :    0.247340
  47 O :   -0.232646
  48 O :   -0.234147
  49 C :    0.050237
  50 C :   -0.019883
  51 C :    0.009227
  52 C :    0.031468
  53 C :   -0.013974
  54 C :   -0.035761
  55 C :   -0.069053
  56 C :    0.322165
  57 C :   -0.345648
  58 C :   -0.182484
  59 N :    0.146429
  60 C :   -0.199716
  61 N :    0.152592
  62 C :    0.046769
  63 C :   -0.003589
  64 C :    0.150061
  65 O :   -0.156009
  66 C :   -0.077132
  67 C :    0.094689
  68 C :    0.092903
  69 C :   -0.080368
  70 C :   -0.016135
  71 C :    0.036576
  72 C :    0.031463
  73 C :   -0.013615
  74 H :   -0.011386
  75 H :   -0.001437
  76 H :   -0.009232
  77 H :   -0.002398
  78 H :   -0.004207
  79 H :   -0.017336
  80 H :    0.022386
  81 H :    0.016889
  82 H :   -0.018882
  83 H :   -0.012170
  84 H :   -0.007122
  85 H :   -0.028589
  86 H :    0.054952
  87 H :    0.040724
  88 H :    0.016475
  89 H :   -0.001967
  90 H :    0.015760
  91 H :    0.035747
  92 H :   -0.030384
  93 H :   -0.020426
  94 H :   -0.002545
  95 H :   -0.002442
  96 H :   -0.013204
  97 H :    0.025617
  98 H :    0.031784
  99 H :    0.019539
 100 H :   -0.015227
 101 H :   -0.008492
 102 H :   -0.009808
 103 H :   -0.005762
 104 H :   -0.004605
 105 H :   -0.019092
Sum of atomic charges:   -0.0000000

LOEWDIN ATOMIC CHARGES
----------------------
   0 C :    0.065405
   1 C :   -0.128350
   2 C :   -0.017451
   3 N :   -0.046602
   4 C :   -0.017000
   5 N :   -0.043852
   6 C :   -0.023455
   7 C :   -0.058391
   8 C :    0.033552
   9 C :   -0.008599
  10 C :   -0.004642
  11 C :    0.019342
  12 C :   -0.005155
  13 C :   -0.012001
  14 C :   -0.012149
  15 C :   -0.009045
  16 C :    0.085112
  17 O :   -0.140597
  18 C :   -0.082261
  19 C :    0.073806
  20 C :   -0.050349
  21 C :    0.025820
  22 C :   -0.034197
  23 N :    0.290100
  24 O :   -0.205595
  25 O :   -0.199627
  26 C :    0.023720
  27 C :   -0.009131
  28 C :    0.025463
  29 C :   -0.047693
  30 C :    0.006454
  31 C :   -0.094426
  32 C :    0.030932
  33 C :   -0.052102
  34 C :   -0.100422
  35 C :    0.062624
  36 C :   -0.018310
  37 C :    0.034246
  38 C :   -0.076895
  39 C :    0.089200
  40 O :    0.061582
  41 C :    0.000652
  42 C :   -0.046662
  43 C :   -0.007266
  44 C :    0.000158
  45 C :   -0.020075
  46 N :    0.285812
  47 O :   -0.200929
  48 O :   -0.192948
  49 C :   -0.023714
  50 C :    0.006685
  51 C :    0.003442
  52 C :    0.040937
  53 C :   -0.032422
  54 C :    0.075401
  55 C :   -0.092981
  56 C :    0.075871
  57 C :   -0.138582
  58 C :   -0.016817
  59 N :   -0.055733
  60 C :   -0.022266
  61 N :   -0.050956
  62 C :   -0.024900
  63 C :   -0.055128
  64 C :    0.086060
  65 O :   -0.148669
  66 C :    0.031100
  67 C :   -0.008752
  68 C :   -0.006462
  69 C :    0.018927
  70 C :   -0.005444
  71 C :   -0.014108
  72 C :   -0.013536
  73 C :   -0.009861
  74 H :    0.039532
  75 H :    0.040112
  76 H :    0.035045
  77 H :    0.033858
  78 H :    0.033172
  79 H :    0.031930
  80 H :    0.046527
  81 H :    0.038959
  82 H :    0.031703
  83 H :    0.035715
  84 H :    0.026573
  85 H :    0.022302
  86 H :    0.047081
  87 H :    0.045061
  88 H :    0.031772
  89 H :    0.036567
  90 H :    0.043217
  91 H :    0.036626
  92 H :    0.025517
  93 H :    0.023316
  94 H :    0.038046
  95 H :    0.039137
  96 H :    0.032289
  97 H :    0.035756
  98 H :    0.031928
  99 H :    0.044301
 100 H :    0.038075
 101 H :    0.038831
 102 H :    0.034539
 103 H :    0.032788
 104 H :    0.032535
 105 H :    0.031300

  Mayer bond orders larger than 0.100000
B(  0-C ,  1-C ) :   1.6811 B(  0-C ,  6-C ) :   1.0001 B(  0-C , 18-C ) :   1.0063
B(  1-C ,  2-C ) :   1.1322 B(  1-C ,  4-C ) :   1.1582 B(  2-C ,  3-N ) :   2.9946
B(  4-C ,  5-N ) :   3.0081 B(  6-C ,  7-C ) :   1.2132 B(  6-C , 11-C ) :   1.4554
B(  7-C ,  8-C ) :   1.4700 B(  7-C , 16-C ) :   0.9209 B(  8-C ,  9-C ) :   1.1882
B(  8-C , 74-H ) :   1.0157 B(  9-C , 10-C ) :   1.2515 B(  9-C , 15-C ) :   1.2457
B( 10-C , 11-C ) :   1.2089 B( 10-C , 12-C ) :   1.2404 B( 11-C , 75-H ) :   0.9942
B( 12-C , 13-C ) :   1.4911 B( 12-C , 76-H ) :   0.9973 B( 13-C , 14-C ) :   1.2580
B( 13-C , 77-H ) :   0.9894 B( 14-C , 15-C ) :   1.4912 B( 14-C , 78-H ) :   0.9884
B( 15-C , 79-H ) :   0.9968 B( 16-C , 17-O ) :   2.2740 B( 16-C , 18-C ) :   0.9271
B( 18-C , 19-C ) :   1.7358 B( 19-C , 20-C ) :   1.0355 B( 19-C , 80-H ) :   0.9424
B( 20-C , 21-C ) :   1.3039 B( 20-C , 28-C ) :   1.3015 B( 21-C , 22-C ) :   1.3838
B( 21-C , 81-H ) :   0.9864 B( 22-C , 23-N ) :   0.8912 B( 22-C , 26-C ) :   1.3265
B( 23-N , 24-O ) :   1.5497 B( 23-N , 25-O ) :   1.5056 B( 24-O , 25-O ) :   0.2598
B( 26-C , 27-C ) :   1.3205 B( 26-C , 29-C ) :   1.0913 B( 27-C , 28-C ) :   1.4182
B( 27-C , 82-H ) :   0.9836 B( 28-C , 83-H ) :   0.9967 B( 29-C , 30-C ) :   1.6960
B( 29-C , 84-H ) :   0.9492 B( 30-C , 31-C ) :   1.1249 B( 30-C , 85-H ) :   0.9540
B( 31-C , 32-C ) :   1.4641 B( 31-C , 36-C ) :   1.1025 B( 32-C , 33-C ) :   1.1210
B( 32-C , 34-C ) :   1.1924 B( 33-C , 86-H ) :   0.9346 B( 33-C , 87-H ) :   0.9241
B( 33-C , 88-H ) :   0.9355 B( 34-C , 35-C ) :   1.4123 B( 34-C , 41-C ) :   1.1099
B( 35-C , 36-C ) :   1.0956 B( 35-C , 40-O ) :   1.1326 B( 36-C , 37-C ) :   1.5080
B( 37-C , 38-C ) :   1.2193 B( 37-C , 89-H ) :   0.9817 B( 38-C , 39-C ) :   1.5818
B( 38-C , 90-H ) :   0.9680 B( 39-C , 40-O ) :   1.1727 B( 39-C , 91-H ) :   0.9807
B( 41-C , 42-C ) :   1.6696 B( 41-C , 92-H ) :   0.9580 B( 42-C , 43-C ) :   1.0715
B( 42-C , 93-H ) :   0.9881 B( 43-C , 44-C ) :   1.2764 B( 43-C , 51-C ) :   1.3097
B( 44-C , 45-C ) :   1.3757 B( 44-C , 94-H ) :   1.0008 B( 45-C , 46-N ) :   0.8826
B( 45-C , 49-C ) :   1.3386 B( 46-N , 47-O ) :   1.5537 B( 46-N , 48-O ) :   1.5193
B( 47-O , 48-O ) :   0.2656 B( 49-C , 50-C ) :   1.3283 B( 49-C , 52-C ) :   1.0505
B( 50-C , 51-C ) :   1.4257 B( 50-C , 95-H ) :   0.9878 B( 51-C , 96-H ) :   0.9905
B( 52-C , 53-C ) :   1.6290 B( 52-C , 97-H ) :   0.9597 B( 53-C , 54-C ) :   1.1513
B( 53-C , 98-H ) :   0.9743 B( 54-C , 55-C ) :   1.5591 B( 54-C , 99-H ) :   0.9654
B( 55-C , 56-C ) :   1.0528 B( 55-C , 64-C ) :   0.9430 B( 56-C , 57-C ) :   1.6373
B( 56-C , 62-C ) :   0.9914 B( 57-C , 58-C ) :   1.1436 B( 57-C , 60-C ) :   1.1433
B( 58-C , 59-N ) :   2.9664 B( 60-C , 61-N ) :   2.9814 B( 62-C , 63-C ) :   1.2158
B( 62-C , 69-C ) :   1.4491 B( 63-C , 64-C ) :   0.9449 B( 63-C , 66-C ) :   1.4743
B( 64-C , 65-O ) :   2.1948 B( 66-C , 67-C ) :   1.1801 B( 66-C ,100-H ) :   1.0155
B( 67-C , 68-C ) :   1.2575 B( 67-C , 73-C ) :   1.2450 B( 68-C , 69-C ) :   1.2083
B( 68-C , 70-C ) :   1.2385 B( 69-C ,101-H ) :   0.9897 B( 70-C , 71-C ) :   1.4900
B( 70-C ,102-H ) :   0.9975 B( 71-C , 72-C ) :   1.2592 B( 71-C ,103-H ) :   0.9887
B( 72-C , 73-C ) :   1.4882 B( 72-C ,104-H ) :   0.9897 B( 73-C ,105-H ) :   0.9979

-----------------------------------------------------------------------------
         ABSORPTION SPECTRUM VIA TRANSITION ELECTRIC DIPOLE MOMENTS
-----------------------------------------------------------------------------
State   Energy  Wavelength   fosc         T2         TX        TY        TZ
        (cm-1)    (nm)                  (au**2)     (au)      (au)      (au)
-----------------------------------------------------------------------------
   0   18281.3    547.0   0.925197106  16.66106  -1.47812   3.79522   0.26932
   1   18750.4    533.3   0.571468748  10.03362  -0.71591  -3.06808  -0.32857
   2   20245.2    493.9   0.443187476   7.20677   1.99754   1.68898   0.60329
   3   23243.3    430.2   0.175248454   2.48217  -1.44443   0.52200   0.35114
   4   25962.6    385.2   0.230381292   2.92129  -0.88292  -1.46099  -0.08510
   5   27084.0    369.2   0.126788544   1.54114   0.41853   0.93649   0.69926
   6   27120.6    368.7   0.028931487   0.35119   0.04278   0.27857  -0.52131
   7   27240.2    367.1   0.136227282   1.64638  -1.09246  -0.55130  -0.38597
   8   27642.2    361.8   0.063283332   0.75369   0.84867  -0.13920   0.11861
   9   28231.5    354.2   0.002784314   0.03247  -0.11784   0.13208   0.03374
  10   28498.4    350.9   0.268678975   3.10377  -0.75461   1.58533   0.14505
  11   29153.9    343.0   0.063942550   0.72205   0.28052   0.74227   0.30396
  12   29403.1    340.1   0.142427511   1.59469   0.36565  -1.12129  -0.45134
  13   29723.8    336.4   0.050669332   0.56120  -0.61329  -0.25015  -0.35000
  14   30410.5    328.8   0.166718130   1.80483  -0.34036  -1.14282  -0.61882
  15   30632.0    326.5   0.036563986   0.39296  -0.62406   0.03621  -0.04690
  16   31526.3    317.2   0.139671637   1.45851   0.97698   0.05313   0.70795
  17   31965.6    312.8   0.123132391   1.26813  -0.46778  -1.02436   0.00099
  18   32043.9    312.1   0.437436829   4.49413  -0.01183  -2.07987   0.41006
  19   33012.1    302.9   0.038319712   0.38214  -0.48197  -0.03585  -0.38544
  20   33605.8    297.6   0.447477444   4.38361  -1.24420  -0.49728  -1.60881
  21   34091.9    293.3   0.462874132   4.46979   1.92969  -0.85797  -0.09997
  22   34139.2    292.9   0.048870093   0.47127  -0.67312   0.12485   0.05080
  23   34497.8    289.9   0.339708717   3.24183   1.32370  -1.19260  -0.25952
  24   34529.8    289.6   0.501893104   4.78511  -0.85236  -0.54312  -1.94000
  25   34959.1    286.0   0.120369292   1.13353   0.69393  -0.73114  -0.34267
  26   35241.2    283.8   0.431376360   4.02978   1.35097  -1.21394  -0.85499
  27   35819.1    279.2   0.009431655   0.08669  -0.19073  -0.15810  -0.15910
  28   35907.4    278.5   0.024888135   0.22818  -0.34209  -0.33166   0.03404
  29   36602.8    273.2   0.025099721   0.22575   0.45510  -0.00399  -0.13646
  30   36802.6    271.7   0.059120016   0.52885   0.35676  -0.63369  -0.00143
  31   36908.6    270.9   0.074936811   0.66841   0.41188  -0.70254   0.07209
  32   37542.6    266.4   0.102761074   0.90111  -0.72167  -0.48635  -0.37916
  33   38235.6    261.5   0.011927444   0.10270   0.18966   0.25718  -0.02414
  34   38335.7    260.9   0.035089763   0.30134   0.17916   0.28131  -0.43601
  35   38633.0    258.8   0.003914259   0.03336  -0.14422  -0.07145  -0.08631
  36   39089.5    255.8   0.009590284   0.08077   0.16711  -0.15565   0.16917
  37   39268.8    254.7   0.028513660   0.23905   0.15984   0.38975  -0.24817
  38   39453.2    253.5   0.138897301   1.15901   0.94524   0.38931  -0.33759
  39   39663.7    252.1   0.195515416   1.62280  -0.42725   1.11336  -0.44798
  40   39842.2    251.0   0.180087935   1.48805   0.14645  -1.18580  -0.24590
  41   40289.1    248.2   0.038784778   0.31692  -0.55165  -0.10445   0.04111

FINAL SINGLE POINT ENERGY     -3194.513519085514

DIPOLE MOMENT
-------------
                                X             Y             Z
Electronic contribution:     -6.57173       7.98612      -2.54926
Nuclear contribution   :      6.48121     -12.38101       3.20637
                        -----------------------------------------
Total Dipole Moment    :     -0.09052      -4.39489       0.65711
                        -----------------------------------------
Magnitude (a.u.)       :      4.44466
Magnitude (Debye)      :     11.29744

Rotational constants in cm-1:     0.001255     0.000201     0.000179
Rotational constants in MHz :    37.629369     6.038081     5.359578

                             ****ORCA TERMINATED NORMALLY****
TOTAL RUN TIME: 0 days 0 hours 10 minutes 0 seconds 286 msec
