                         Program Version 4.2.0 -  RELEASE  -
|  1> # ORCA input file
|  2> # SCF done       -188.914934705380          0.000388498324
|  3> ! CAM-B3LYP def2-SVP def2/J RIJCOSX Grid4 TightSCF
|  4> %maxcore 5000
|  5> %tddft
|  6>     Mode sTDDFT
|  7>     Ethresh 5.0
|  8>     maxcore 5000
|  9> end
| 10>
| 11> %pal
| 12>   nprocs 6
| 13>   end
| 14> * xyz 0 1
| 15>    C       -2.44506         5.41629        -1.21716
| 16>    C       -1.10403         5.50315        -1.47414
| 17>    C       -0.56327         5.68126        -2.76484
| 18>    N       -0.07645         5.87380        -3.78622
| 19>    C       -0.11211         5.37523        -0.47917
| 20>    N        0.72107         5.24606         0.29960
| 21>    C       -3.49363         5.26201        -2.21693
| 22>    C       -4.64507         4.70111        -1.58707
| 23>    C       -5.77242         4.39566        -2.29542
| 24>    C       -5.80401         4.65064        -3.68437
| 25>    C       -4.66347         5.22822        -4.31639
| 26>    C       -3.50781         5.52863        -3.55999
| 27>    C       -4.71149         5.48211        -5.70228
| 28>    C       -5.82881         5.17764        -6.43136
| 29>    C       -6.94965         4.60757        -5.80890
| 30>    C       -6.93765         4.34940        -4.46484
| 31>    C       -4.39008         4.54494        -0.14771
| 32>    O       -5.09679         4.05517         0.69813
| 33>    C       -3.05779         5.20103         0.08152
| 34>    C       -2.72922         5.58501         1.33543
| 35>    C       -1.71369         6.51062         1.75749
| 36>    C       -1.27274         6.56638         3.04307
| 37>    C       -0.23988         7.48112         3.41845
| 38>    C        0.22409         7.57189         4.71947
| 39>    C        1.23269         8.48124         5.08001
| 40>    N        2.05397         9.23153         5.36512
| 41>    C       -0.29696         6.77413         5.75171
| 42>    N       -0.73013         6.12369         6.59311
| 43>    C        0.29024         8.28690         2.36378
| 44>    C       -0.21833         8.18986         1.10761
| 45>    O       -1.24703         7.35425         0.80121
| 46>    C        0.26779         8.90619        -0.03478
| 47>    S       -0.51317         8.66997        -1.56852
| 48>    C        0.64367         9.67630        -2.38157
| 49>    C        1.56585        10.18984        -1.46455
| 50>    C        1.34674         9.75038        -0.14783
| 51>    C        2.61934        11.07026        -1.77102
| 52>    N        3.48231        11.80107        -1.96165
| 53>    C        0.54757         9.81802        -3.78754
| 54>    C        1.43964        10.47255        -4.57577
| 55>    C        1.34916        10.56232        -5.98753
| 56>    C        2.28689        11.15056        -6.80936
| 57>    C        1.86795        11.03413        -8.16561
| 58>    C        0.56988        10.33096        -8.12838
| 59>    C        0.27747        10.04984        -6.83298
| 60>    C       -0.23857         9.99180        -9.21926
| 61>    N       -0.93365         9.69681       -10.08500
| 62>    C        2.53418        11.45897        -9.29139
| 63>    C        2.11709        11.34775       -10.64943
| 64>    C        3.09365        11.87019       -11.47222
| 65>    C        4.18393        12.34273       -10.62304
| 66>    C        3.85925        12.11034        -9.32688
| 67>    C        4.66874        12.43503        -8.23088
| 68>    N        5.35920        12.71708        -7.35783
| 69>    C        3.05144        11.93285       -12.88580
| 70>    C        4.06972        12.40087       -13.66077
| 71>    C        3.99010        12.43857       -15.07059
| 72>    C        5.00338        12.85928       -15.88625
| 73>    C        4.98994        12.92029       -17.33688
| 74>    C        3.91564        12.69609       -18.15924
| 75>    C        3.96500        12.78794       -19.56659
| 76>    N        3.93499        12.84282       -20.71279
| 77>    C        2.61106        12.36474       -17.73710
| 78>    N        1.52398        12.10201       -17.47612
| 79>    C        6.32722        13.29968       -17.77944
| 80>    C        7.14074        13.52454       -16.63219
| 81>    C        6.35129        13.28578       -15.41471
| 82>    O        6.73299        13.40746       -14.26930
| 83>    C        8.45102        13.89442       -16.73513
| 84>    C        9.02215        14.05580       -18.01671
| 85>    C        8.21693        13.82969       -19.17063
| 86>    C        6.86198        13.45043       -19.03199
| 87>    C        8.79786        13.98981       -20.44513
| 88>    C       10.11029        14.35483       -20.57522
| 89>    C       10.90191        14.57685       -19.43837
| 90>    C       10.36931        14.43106       -18.18611
| 91>    H       -6.62938         3.96256        -1.80152
| 92>    H       -2.66051         5.97080        -4.06062
| 93>    H       -3.84542         5.91637        -6.17960
| 94>    H       -5.85426         5.37386        -7.49250
| 95>    H       -7.82244         4.37391        -6.39955
| 96>    H       -7.79716         3.91032        -3.98029
| 97>    H       -3.35362         5.18906         2.12823
| 98>    H       -1.68040         5.89376         3.78075
| 99>    H        1.10222         8.96294         2.57172
|100>    H        1.97556        10.03908         0.67474
|101>    H       -0.29840         9.31688        -4.23797
|102>    H        2.29996        10.95104        -4.12936
|103>    H        3.19498        11.61898        -6.48419
|104>    H       -0.60022         9.53754        -6.48627
|105>    H        1.18830        10.91900       -10.97209
|106>    H        5.08937        12.80191       -10.97225
|107>    H        2.14547        11.57220       -13.35862
|108>    H        4.98303        12.75293       -13.20635
|109>    H        3.06327        12.09712       -15.51404
|110>    H        9.04455        14.05901       -15.84805
|111>    H        6.28227        13.28414       -19.92587
|112>    H        8.18468        13.81831       -21.31762
|113>    H       10.54610        14.47441       -21.55572
|114>    H       11.93570        14.86367       -19.55976
|115>    H       10.97357        14.60047       -17.30695
|116> *
|117>
|118>                          ****END OF INPUT****

CARTESIAN COORDINATES (ANGSTROEM)
---------------------------------
  C     -2.445060    5.416290   -1.217160
  C     -1.104030    5.503150   -1.474140
  C     -0.563270    5.681260   -2.764840
  N     -0.076450    5.873800   -3.786220
  C     -0.112110    5.375230   -0.479170
  N      0.721070    5.246060    0.299600
  C     -3.493630    5.262010   -2.216930
  C     -4.645070    4.701110   -1.587070
  C     -5.772420    4.395660   -2.295420
  C     -5.804010    4.650640   -3.684370
  C     -4.663470    5.228220   -4.316390
  C     -3.507810    5.528630   -3.559990
  C     -4.711490    5.482110   -5.702280
  C     -5.828810    5.177640   -6.431360
  C     -6.949650    4.607570   -5.808900
  C     -6.937650    4.349400   -4.464840
  C     -4.390080    4.544940   -0.147710
  O     -5.096790    4.055170    0.698130
  C     -3.057790    5.201030    0.081520
  C     -2.729220    5.585010    1.335430
  C     -1.713690    6.510620    1.757490
  C     -1.272740    6.566380    3.043070
  C     -0.239880    7.481120    3.418450
  C      0.224090    7.571890    4.719470
  C      1.232690    8.481240    5.080010
  N      2.053970    9.231530    5.365120
  C     -0.296960    6.774130    5.751710
  N     -0.730130    6.123690    6.593110
  C      0.290240    8.286900    2.363780
  C     -0.218330    8.189860    1.107610
  O     -1.247030    7.354250    0.801210
  C      0.267790    8.906190   -0.034780
  S     -0.513170    8.669970   -1.568520
  C      0.643670    9.676300   -2.381570
  C      1.565850   10.189840   -1.464550
  C      1.346740    9.750380   -0.147830
  C      2.619340   11.070260   -1.771020
  N      3.482310   11.801070   -1.961650
  C      0.547570    9.818020   -3.787540
  C      1.439640   10.472550   -4.575770
  C      1.349160   10.562320   -5.987530
  C      2.286890   11.150560   -6.809360
  C      1.867950   11.034130   -8.165610
  C      0.569880   10.330960   -8.128380
  C      0.277470   10.049840   -6.832980
  C     -0.238570    9.991800   -9.219260
  N     -0.933650    9.696810  -10.085000
  C      2.534180   11.458970   -9.291390
  C      2.117090   11.347750  -10.649430
  C      3.093650   11.870190  -11.472220
  C      4.183930   12.342730  -10.623040
  C      3.859250   12.110340   -9.326880
  C      4.668740   12.435030   -8.230880
  N      5.359200   12.717080   -7.357830
  C      3.051440   11.932850  -12.885800
  C      4.069720   12.400870  -13.660770
  C      3.990100   12.438570  -15.070590
  C      5.003380   12.859280  -15.886250
  C      4.989940   12.920290  -17.336880
  C      3.915640   12.696090  -18.159240
  C      3.965000   12.787940  -19.566590
  N      3.934990   12.842820  -20.712790
  C      2.611060   12.364740  -17.737100
  N      1.523980   12.102010  -17.476120
  C      6.327220   13.299680  -17.779440
  C      7.140740   13.524540  -16.632190
  C      6.351290   13.285780  -15.414710
  O      6.732990   13.407460  -14.269300
  C      8.451020   13.894420  -16.735130
  C      9.022150   14.055800  -18.016710
  C      8.216930   13.829690  -19.170630
  C      6.861980   13.450430  -19.031990
  C      8.797860   13.989810  -20.445130
  C     10.110290   14.354830  -20.575220
  C     10.901910   14.576850  -19.438370
  C     10.369310   14.431060  -18.186110
  H     -6.629380    3.962560   -1.801520
  H     -2.660510    5.970800   -4.060620
  H     -3.845420    5.916370   -6.179600
  H     -5.854260    5.373860   -7.492500
  H     -7.822440    4.373910   -6.399550
  H     -7.797160    3.910320   -3.980290
  H     -3.353620    5.189060    2.128230
  H     -1.680400    5.893760    3.780750
  H      1.102220    8.962940    2.571720
  H      1.975560   10.039080    0.674740
  H     -0.298400    9.316880   -4.237970
  H      2.299960   10.951040   -4.129360
  H      3.194980   11.618980   -6.484190
  H     -0.600220    9.537540   -6.486270
  H      1.188300   10.919000  -10.972090
  H      5.089370   12.801910  -10.972250
  H      2.145470   11.572200  -13.358620
  H      4.983030   12.752930  -13.206350
  H      3.063270   12.097120  -15.514040
  H      9.044550   14.059010  -15.848050
  H      6.282270   13.284140  -19.925870
  H      8.184680   13.818310  -21.317620
  H     10.546100   14.474410  -21.555720
  H     11.935700   14.863670  -19.559760
  H     10.973570   14.600470  -17.306950

 Total Charge           Charge          ....    0
 Multiplicity           Mult            ....    1
 Number of Electrons    NEL             ....  506
 Basis Dimension        Dim             .... 1193

ORBITAL ENERGIES
----------------

  NO   OCC          E(Eh)            E(eV)
   0   2.0000     -89.003324     -2421.9036
   1   2.0000     -19.338882      -526.2377
   2   2.0000     -19.239289      -523.5277
   3   2.0000     -19.224480      -523.1247
   4   2.0000     -14.441187      -392.9647
   5   2.0000     -14.436555      -392.8386
   6   2.0000     -14.424642      -392.5145
   7   2.0000     -14.422188      -392.4477
   8   2.0000     -14.421377      -392.4256
   9   2.0000     -14.419716      -392.3804
  10   2.0000     -14.415778      -392.2733
  11   2.0000     -14.409938      -392.1144
  12   2.0000     -14.409494      -392.1023
  13   2.0000     -10.404240      -283.1138
  14   2.0000     -10.401325      -283.0345
  15   2.0000     -10.390103      -282.7291
  16   2.0000     -10.374830      -282.3135
  17   2.0000     -10.369547      -282.1697
  18   2.0000     -10.365311      -282.0545
  19   2.0000     -10.355410      -281.7850
  20   2.0000     -10.350608      -281.6544
  21   2.0000     -10.348582      -281.5992
  22   2.0000     -10.346976      -281.5555
  23   2.0000     -10.346320      -281.5377
  24   2.0000     -10.344809      -281.4966
  25   2.0000     -10.343265      -281.4545
  26   2.0000     -10.339873      -281.3622
  27   2.0000     -10.338793      -281.3329
  28   2.0000     -10.336606      -281.2734
  29   2.0000     -10.336040      -281.2580
  30   2.0000     -10.335933      -281.2550
  31   2.0000     -10.332977      -281.1746
  32   2.0000     -10.329985      -281.0932
  33   2.0000     -10.329785      -281.0877
  34   2.0000     -10.327580      -281.0277
  35   2.0000     -10.326450      -280.9970
  36   2.0000     -10.325294      -280.9655
  37   2.0000     -10.324724      -280.9500
  38   2.0000     -10.324560      -280.9456
  39   2.0000     -10.323219      -280.9091
  40   2.0000     -10.323093      -280.9056
  41   2.0000     -10.322339      -280.8851
  42   2.0000     -10.322301      -280.8841
  43   2.0000     -10.320889      -280.8457
  44   2.0000     -10.319049      -280.7956
  45   2.0000     -10.318402      -280.7780
  46   2.0000     -10.317679      -280.7583
  47   2.0000     -10.317125      -280.7432
  48   2.0000     -10.317098      -280.7425
  49   2.0000     -10.316755      -280.7332
  50   2.0000     -10.316112      -280.7157
  51   2.0000     -10.315818      -280.7077
  52   2.0000     -10.315791      -280.7069
  53   2.0000     -10.314882      -280.6822
  54   2.0000     -10.314516      -280.6722
  55   2.0000     -10.312246      -280.6105
  56   2.0000     -10.312058      -280.6054
  57   2.0000     -10.310434      -280.5612
  58   2.0000     -10.308491      -280.5083
  59   2.0000     -10.308002      -280.4950
  60   2.0000     -10.302504      -280.3454
  61   2.0000     -10.302332      -280.3407
  62   2.0000     -10.302323      -280.3405
  63   2.0000     -10.302104      -280.3345
  64   2.0000     -10.301908      -280.3292
  65   2.0000     -10.301667      -280.3226
  66   2.0000     -10.301647      -280.3221
  67   2.0000     -10.301531      -280.3189
  68   2.0000     -10.301421      -280.3159
  69   2.0000     -10.299958      -280.2761
  70   2.0000     -10.298649      -280.2405
  71   2.0000     -10.293509      -280.1006
  72   2.0000     -10.290689      -280.0239
  73   2.0000     -10.290166      -280.0097
  74   2.0000     -10.289934      -280.0033
  75   2.0000     -10.289442      -279.9899
  76   2.0000      -8.097891      -220.3548
  77   2.0000      -6.067132      -165.0951
  78   2.0000      -6.062936      -164.9809
  79   2.0000      -6.060228      -164.9072
  80   2.0000      -1.250881       -34.0382
  81   2.0000      -1.155269       -31.4365
  82   2.0000      -1.138838       -30.9894
  83   2.0000      -1.041927       -28.3523
  84   2.0000      -1.038161       -28.2498
  85   2.0000      -1.028222       -27.9793
  86   2.0000      -1.023624       -27.8542
  87   2.0000      -1.020643       -27.7731
  88   2.0000      -1.017319       -27.6826
  89   2.0000      -1.011472       -27.5235
  90   2.0000      -1.010758       -27.5041
  91   2.0000      -1.005848       -27.3705
  92   2.0000      -1.003861       -27.3165
  93   2.0000      -0.999025       -27.1849
  94   2.0000      -0.996915       -27.1274
  95   2.0000      -0.992784       -27.0150
  96   2.0000      -0.992098       -26.9964
  97   2.0000      -0.988257       -26.8918
  98   2.0000      -0.976604       -26.5748
  99   2.0000      -0.974347       -26.5133
 100   2.0000      -0.967458       -26.3259
 101   2.0000      -0.943602       -25.6767
 102   2.0000      -0.939733       -25.5714
 103   2.0000      -0.933666       -25.4063
 104   2.0000      -0.924919       -25.1683
 105   2.0000      -0.917744       -24.9731
 106   2.0000      -0.902035       -24.5456
 107   2.0000      -0.900448       -24.5024
 108   2.0000      -0.897932       -24.4340
 109   2.0000      -0.892698       -24.2915
 110   2.0000      -0.886019       -24.1098
 111   2.0000      -0.882864       -24.0239
 112   2.0000      -0.878119       -23.8948
 113   2.0000      -0.871961       -23.7273
 114   2.0000      -0.863783       -23.5047
 115   2.0000      -0.847948       -23.0738
 116   2.0000      -0.847124       -23.0514
 117   2.0000      -0.836013       -22.7491
 118   2.0000      -0.832861       -22.6633
 119   2.0000      -0.820676       -22.3317
 120   2.0000      -0.807748       -21.9800
 121   2.0000      -0.802257       -21.8305
 122   2.0000      -0.785601       -21.3773
 123   2.0000      -0.779869       -21.2213
 124   2.0000      -0.771035       -20.9809
 125   2.0000      -0.767217       -20.8770
 126   2.0000      -0.758383       -20.6367
 127   2.0000      -0.742005       -20.1910
 128   2.0000      -0.733381       -19.9563
 129   2.0000      -0.729776       -19.8582
 130   2.0000      -0.725332       -19.7373
 131   2.0000      -0.719892       -19.5893
 132   2.0000      -0.709481       -19.3060
 133   2.0000      -0.707828       -19.2610
 134   2.0000      -0.705684       -19.2026
 135   2.0000      -0.701966       -19.1015
 136   2.0000      -0.697852       -18.9895
 137   2.0000      -0.692892       -18.8545
 138   2.0000      -0.690437       -18.7877
 139   2.0000      -0.685412       -18.6510
 140   2.0000      -0.677176       -18.4269
 141   2.0000      -0.669273       -18.2118
 142   2.0000      -0.660716       -17.9790
 143   2.0000      -0.658312       -17.9136
 144   2.0000      -0.650893       -17.7117
 145   2.0000      -0.647525       -17.6201
 146   2.0000      -0.637610       -17.3502
 147   2.0000      -0.634600       -17.2684
 148   2.0000      -0.627002       -17.0616
 149   2.0000      -0.625931       -17.0325
 150   2.0000      -0.621410       -16.9094
 151   2.0000      -0.618754       -16.8372
 152   2.0000      -0.611157       -16.6304
 153   2.0000      -0.608973       -16.5710
 154   2.0000      -0.605803       -16.4847
 155   2.0000      -0.601321       -16.3628
 156   2.0000      -0.598676       -16.2908
 157   2.0000      -0.583113       -15.8673
 158   2.0000      -0.580954       -15.8086
 159   2.0000      -0.571346       -15.5471
 160   2.0000      -0.569001       -15.4833
 161   2.0000      -0.568265       -15.4633
 162   2.0000      -0.566312       -15.4101
 163   2.0000      -0.565058       -15.3760
 164   2.0000      -0.559617       -15.2280
 165   2.0000      -0.554991       -15.1021
 166   2.0000      -0.552699       -15.0397
 167   2.0000      -0.551109       -14.9965
 168   2.0000      -0.546803       -14.8793
 169   2.0000      -0.546314       -14.8660
 170   2.0000      -0.542876       -14.7724
 171   2.0000      -0.539489       -14.6802
 172   2.0000      -0.537549       -14.6275
 173   2.0000      -0.535710       -14.5774
 174   2.0000      -0.531928       -14.4745
 175   2.0000      -0.530928       -14.4473
 176   2.0000      -0.528205       -14.3732
 177   2.0000      -0.527155       -14.3446
 178   2.0000      -0.525559       -14.3012
 179   2.0000      -0.522444       -14.2164
 180   2.0000      -0.520940       -14.1755
 181   2.0000      -0.517152       -14.0724
 182   2.0000      -0.514748       -14.0070
 183   2.0000      -0.512829       -13.9548
 184   2.0000      -0.510749       -13.8982
 185   2.0000      -0.507541       -13.8109
 186   2.0000      -0.506912       -13.7938
 187   2.0000      -0.504163       -13.7190
 188   2.0000      -0.503072       -13.6893
 189   2.0000      -0.502075       -13.6621
 190   2.0000      -0.501073       -13.6349
 191   2.0000      -0.499712       -13.5979
 192   2.0000      -0.494818       -13.4647
 193   2.0000      -0.491713       -13.3802
 194   2.0000      -0.491163       -13.3652
 195   2.0000      -0.485260       -13.2046
 196   2.0000      -0.482693       -13.1348
 197   2.0000      -0.474592       -12.9143
 198   2.0000      -0.473179       -12.8759
 199   2.0000      -0.469881       -12.7861
 200   2.0000      -0.468141       -12.7388
 201   2.0000      -0.466224       -12.6866
 202   2.0000      -0.464814       -12.6482
 203   2.0000      -0.464242       -12.6327
 204   2.0000      -0.458746       -12.4831
 205   2.0000      -0.456359       -12.4181
 206   2.0000      -0.454157       -12.3582
 207   2.0000      -0.453973       -12.3532
 208   2.0000      -0.452994       -12.3266
 209   2.0000      -0.451975       -12.2989
 210   2.0000      -0.450672       -12.2634
 211   2.0000      -0.450518       -12.2592
 212   2.0000      -0.449337       -12.2271
 213   2.0000      -0.448470       -12.2035
 214   2.0000      -0.444678       -12.1003
 215   2.0000      -0.443722       -12.0743
 216   2.0000      -0.442903       -12.0520
 217   2.0000      -0.439821       -11.9681
 218   2.0000      -0.438887       -11.9427
 219   2.0000      -0.438433       -11.9304
 220   2.0000      -0.438149       -11.9226
 221   2.0000      -0.437902       -11.9159
 222   2.0000      -0.433624       -11.7995
 223   2.0000      -0.431397       -11.7389
 224   2.0000      -0.430452       -11.7132
 225   2.0000      -0.427019       -11.6198
 226   2.0000      -0.426770       -11.6130
 227   2.0000      -0.426072       -11.5940
 228   2.0000      -0.424716       -11.5571
 229   2.0000      -0.422394       -11.4939
 230   2.0000      -0.421097       -11.4586
 231   2.0000      -0.418446       -11.3865
 232   2.0000      -0.411452       -11.1962
 233   2.0000      -0.410256       -11.1636
 234   2.0000      -0.407417       -11.0864
 235   2.0000      -0.404701       -11.0125
 236   2.0000      -0.395268       -10.7558
 237   2.0000      -0.390655       -10.6303
 238   2.0000      -0.380067       -10.3422
 239   2.0000      -0.368659       -10.0317
 240   2.0000      -0.360107        -9.7990
 241   2.0000      -0.356703        -9.7064
 242   2.0000      -0.349958        -9.5228
 243   2.0000      -0.342796        -9.3280
 244   2.0000      -0.337428        -9.1819
 245   2.0000      -0.334106        -9.0915
 246   2.0000      -0.331156        -9.0112
 247   2.0000      -0.321763        -8.7556
 248   2.0000      -0.312719        -8.5095
 249   2.0000      -0.304927        -8.2975
 250   2.0000      -0.299800        -8.1580
 251   2.0000      -0.290260        -7.8984
 252   2.0000      -0.273745        -7.4490
 253   0.0000      -0.143404        -3.9022
 254   0.0000      -0.123922        -3.3721
 255   0.0000      -0.094055        -2.5594
 256   0.0000      -0.079355        -2.1594
 257   0.0000      -0.078132        -2.1261

MULLIKEN ATOMIC CHARGES
-----------------------
   0 C :    0.273700
   1 C :   -0.330009
   2 C :   -0.173684
   3 N :    0.159212
   4 C :   -0.194820
   5 N :    0.173396
   6 C :    0.047393
   7 C :    0.006439
   8 C :   -0.074222
   9 C :    0.094984
  10 C :    0.100484
  11 C :   -0.085838
  12 C :   -0.019083
  13 C :    0.038792
  14 C :    0.038730
  15 C :   -0.013025
  16 C :    0.139996
  17 O :   -0.123836
  18 C :   -0.088786
  19 C :    0.010967
  20 C :    0.209257
  21 C :   -0.097684
  22 C :    0.287070
  23 C :   -0.327014
  24 C :   -0.169800
  25 N :    0.137982
  26 C :   -0.175859
  27 N :    0.142509
  28 C :   -0.155420
  29 C :    0.296977
  30 O :   -0.253098
  31 C :   -0.090027
  32 S :    0.177654
  33 C :   -0.036121
  34 C :   -0.070343
  35 C :    0.031816
  36 C :   -0.180088
  37 N :    0.137834
  38 C :    0.052104
  39 C :   -0.000012
  40 C :    0.108277
  41 C :   -0.099087
  42 C :    0.120570
  43 C :   -0.093893
  44 C :   -0.001025
  45 C :   -0.175253
  46 N :    0.135649
  47 C :    0.115269
  48 C :   -0.093150
  49 C :    0.114334
  50 C :   -0.003784
  51 C :   -0.094067
  52 C :   -0.174530
  53 N :    0.144061
  54 C :    0.026294
  55 C :   -0.003244
  56 C :   -0.033345
  57 C :   -0.068160
  58 C :    0.331466
  59 C :   -0.344818
  60 C :   -0.184010
  61 N :    0.149693
  62 C :   -0.191318
  63 N :    0.152712
  64 C :    0.047436
  65 C :    0.001248
  66 C :    0.153139
  67 O :   -0.154349
  68 C :   -0.078356
  69 C :    0.098453
  70 C :    0.096460
  71 C :   -0.082698
  72 C :   -0.018281
  73 C :    0.036142
  74 C :    0.038630
  75 C :   -0.017194
  76 H :   -0.004576
  77 H :   -0.011619
  78 H :   -0.010058
  79 H :    0.004591
  80 H :    0.002070
  81 H :   -0.011523
  82 H :    0.040293
  83 H :    0.039015
  84 H :    0.027594
  85 H :    0.016254
  86 H :   -0.014699
  87 H :    0.017015
  88 H :    0.016448
  89 H :   -0.000817
  90 H :    0.008437
  91 H :    0.017052
  92 H :    0.011810
  93 H :    0.030178
  94 H :    0.015335
  95 H :   -0.012029
  96 H :   -0.008393
  97 H :   -0.007664
  98 H :   -0.003480
  99 H :   -0.002960
 100 H :   -0.016074
Sum of atomic charges:   -0.0000000

LOEWDIN ATOMIC CHARGES
----------------------
   0 C :    0.066503
   1 C :   -0.133462
   2 C :   -0.025198
   3 N :   -0.049424
   4 C :   -0.028612
   5 N :   -0.044467
   6 C :   -0.023753
   7 C :   -0.060484
   8 C :    0.040610
   9 C :   -0.007306
  10 C :   -0.003146
  11 C :    0.015662
  12 C :   -0.006376
  13 C :   -0.005535
  14 C :   -0.006813
  15 C :   -0.005830
  16 C :    0.086278
  17 O :   -0.124560
  18 C :   -0.052067
  19 C :    0.044418
  20 C :    0.070001
  21 C :   -0.002745
  22 C :    0.051929
  23 C :   -0.155866
  24 C :   -0.028601
  25 N :   -0.054976
  26 C :   -0.030802
  27 N :   -0.055436
  28 C :   -0.038086
  29 C :    0.078884
  30 O :   -0.008815
  31 C :   -0.189121
  32 S :    0.507306
  33 C :   -0.124952
  34 C :   -0.099868
  35 C :    0.007321
  36 C :   -0.031919
  37 N :   -0.038878
  38 C :   -0.037317
  39 C :    0.017171
  40 C :   -0.014907
  41 C :   -0.008102
  42 C :    0.038313
  43 C :   -0.075889
  44 C :    0.055303
  45 C :   -0.031283
  46 N :   -0.058943
  47 C :    0.038246
  48 C :   -0.005888
  49 C :   -0.017154
  50 C :    0.059907
  51 C :   -0.076256
  52 C :   -0.032187
  53 N :   -0.051129
  54 C :    0.030284
  55 C :   -0.015210
  56 C :    0.064453
  57 C :   -0.079389
  58 C :    0.073421
  59 C :   -0.133723
  60 C :   -0.016930
  61 N :   -0.049924
  62 C :   -0.020866
  63 N :   -0.048649
  64 C :   -0.025804
  65 C :   -0.056798
  66 C :    0.086786
  67 O :   -0.145544
  68 C :    0.034472
  69 C :   -0.007810
  70 C :   -0.005282
  71 C :    0.020291
  72 C :   -0.004850
  73 C :   -0.011570
  74 C :   -0.010532
  75 C :   -0.008799
  76 H :    0.042545
  77 H :    0.036643
  78 H :    0.034456
  79 H :    0.036993
  80 H :    0.035898
  81 H :    0.034260
  82 H :    0.058736
  83 H :    0.055762
  84 H :    0.050175
  85 H :    0.048492
  86 H :    0.029886
  87 H :    0.046750
  88 H :    0.040487
  89 H :    0.035287
  90 H :    0.037938
  91 H :    0.043096
  92 H :    0.042563
  93 H :    0.032703
  94 H :    0.043451
  95 H :    0.039547
  96 H :    0.039256
  97 H :    0.035286
  98 H :    0.033870
  99 H :    0.033670
 100 H :    0.032520

  Mayer bond orders larger than 0.100000
B(  0-C ,  1-C ) :   1.6807 B(  0-C ,  6-C ) :   1.0114 B(  0-C , 18-C ) :   1.0060
B(  1-C ,  2-C ) :   1.1280 B(  1-C ,  4-C ) :   1.1586 B(  2-C ,  3-N ) :   2.9753
B(  4-C ,  5-N ) :   2.9958 B(  6-C ,  7-C ) :   1.2083 B(  6-C , 11-C ) :   1.4502
B(  7-C ,  8-C ) :   1.4684 B(  7-C , 16-C ) :   0.9286 B(  8-C ,  9-C ) :   1.1909
B(  8-C , 76-H ) :   1.0160 B(  9-C , 10-C ) :   1.2517 B(  9-C , 15-C ) :   1.2439
B( 10-C , 11-C ) :   1.2083 B( 10-C , 12-C ) :   1.2391 B( 11-C , 77-H ) :   0.9928
B( 12-C , 13-C ) :   1.4911 B( 12-C , 78-H ) :   0.9976 B( 13-C , 14-C ) :   1.2604
B( 13-C , 79-H ) :   0.9889 B( 14-C , 15-C ) :   1.4896 B( 14-C , 80-H ) :   0.9886
B( 15-C , 81-H ) :   0.9980 B( 16-C , 17-O ) :   2.2836 B( 16-C , 18-C ) :   0.9103
B( 18-C , 19-C ) :   1.7059 B( 19-C , 20-C ) :   1.0553 B( 19-C , 82-H ) :   0.9456
B( 20-C , 21-C ) :   1.5697 B( 20-C , 30-O ) :   1.0834 B( 21-C , 22-C ) :   1.0862
B( 21-C , 83-H ) :   0.9766 B( 22-C , 23-C ) :   1.5569 B( 22-C , 28-C ) :   1.1244
B( 23-C , 24-C ) :   1.1308 B( 23-C , 26-C ) :   1.1333 B( 24-C , 25-N ) :   3.0036
B( 26-C , 27-N ) :   3.0065 B( 28-C , 29-C ) :   1.5975 B( 28-C , 84-H ) :   0.9649
B( 29-C , 30-O ) :   1.1065 B( 29-C , 31-C ) :   1.0439 B( 31-C , 32-S ) :   1.1182
B( 31-C , 35-C ) :   1.5153 B( 32-S , 33-C ) :   1.1474 B( 33-C , 34-C ) :   1.4403
B( 33-C , 38-C ) :   1.1524 B( 34-C , 35-C ) :   1.3043 B( 34-C , 36-C ) :   1.1141
B( 35-C , 85-H ) :   0.9933 B( 36-C , 37-N ) :   2.9740 B( 38-C , 39-C ) :   1.6338
B( 38-C , 86-H ) :   0.9430 B( 39-C , 40-C ) :   1.1349 B( 39-C , 87-H ) :   0.9643
B( 40-C , 41-C ) :   1.5171 B( 40-C , 44-C ) :   1.0398 B( 41-C , 42-C ) :   1.1116
B( 41-C , 88-H ) :   1.0076 B( 42-C , 43-C ) :   1.1001 B( 42-C , 47-C ) :   1.4135
B( 43-C , 44-C ) :   1.6892 B( 43-C , 45-C ) :   1.0891 B( 44-C , 89-H ) :   1.0129
B( 45-C , 46-N ) :   2.9686 B( 47-C , 48-C ) :   1.1102 B( 47-C , 51-C ) :   1.1018
B( 48-C , 49-C ) :   1.5123 B( 48-C , 90-H ) :   1.0083 B( 49-C , 50-C ) :   1.0408
B( 49-C , 54-C ) :   1.0991 B( 50-C , 51-C ) :   1.6870 B( 50-C , 91-H ) :   1.0171
B( 51-C , 52-C ) :   1.0897 B( 52-C , 53-N ) :   2.9692 B( 54-C , 55-C ) :   1.5570
B( 54-C , 92-H ) :   0.9903 B( 55-C , 56-C ) :   1.1468 B( 55-C , 93-H ) :   0.9737
B( 56-C , 57-C ) :   1.5577 B( 56-C , 94-H ) :   0.9646 B( 57-C , 58-C ) :   1.0535
B( 57-C , 66-C ) :   0.9364 B( 58-C , 59-C ) :   1.6335 B( 58-C , 64-C ) :   0.9891
B( 59-C , 60-C ) :   1.1457 B( 59-C , 62-C ) :   1.1448 B( 60-C , 61-N ) :   2.9629
B( 62-C , 63-N ) :   2.9649 B( 64-C , 65-C ) :   1.2155 B( 64-C , 71-C ) :   1.4475
B( 65-C , 66-C ) :   0.9509 B( 65-C , 68-C ) :   1.4659 B( 66-C , 67-O ) :   2.1885
B( 68-C , 69-C ) :   1.1805 B( 68-C , 95-H ) :   1.0169 B( 69-C , 70-C ) :   1.2561
B( 69-C , 75-C ) :   1.2414 B( 70-C , 71-C ) :   1.2070 B( 70-C , 72-C ) :   1.2389
B( 71-C , 96-H ) :   0.9897 B( 72-C , 73-C ) :   1.4886 B( 72-C , 97-H ) :   0.9979
B( 73-C , 74-C ) :   1.2595 B( 73-C , 98-H ) :   0.9890 B( 74-C , 75-C ) :   1.4892
B( 74-C , 99-H ) :   0.9885 B( 75-C ,100-H ) :   0.9983

-----------------------------------------------------------------------------
         ABSORPTION SPECTRUM VIA TRANSITION ELECTRIC DIPOLE MOMENTS
-----------------------------------------------------------------------------
State   Energy  Wavelength   fosc         T2         TX        TY        TZ
        (cm-1)    (nm)                  (au**2)     (au)      (au)      (au)
-----------------------------------------------------------------------------
   0   13864.0    721.3   1.320447732  31.35512   1.97561   1.48726  -5.02396
   1   17279.9    578.7   0.008142581   0.15513   0.35307   0.03405  -0.17120
   2   18532.7    539.6   0.133011494   2.36279  -0.27004   0.18255  -1.50218
   3   21949.6    455.6   0.130151227   1.95208   0.13533   0.33167  -1.35047
   4   22289.0    448.7   0.479688090   7.08507   0.06309   0.08877  -2.65955
   5   22560.1    443.3   0.217194503   3.16945  -1.28535  -1.21556   0.19937
   6   23964.0    417.3   0.051604087   0.70892   0.83703  -0.00043  -0.09112
   7   24165.6    413.8   0.669404814   9.11941   0.96566   0.40546  -2.83240
   8   25083.2    398.7   0.031606109   0.41482  -0.28247  -0.11708   0.56686
   9   25259.2    395.9   0.055088595   0.71799  -0.35666  -0.13596   0.75651
  10   26016.6    384.4   0.073293415   0.92745  -0.03127   0.01072   0.96247
  11   26565.4    376.4   0.167565082   2.07655  -1.03519  -0.27922   0.96279
  12   26806.8    373.0   0.119381422   1.46612   0.00397  -0.42540   1.13364
  13   27091.3    369.1   0.219398727   2.66612   0.10451   0.13573  -1.62382
  14   27609.4    362.2   0.316798476   3.77748   0.01966  -0.52310   1.87175
  15   28329.4    353.0   0.156319375   1.81657   0.29513   0.13164   1.30849
  16   28470.9    351.2   0.045126619   0.52180   0.55241   0.09300   0.45606
  17   29509.7    338.9   0.023856201   0.26614  -0.09021   0.05337   0.50513
  18   30126.4    331.9   0.210085875   2.29576   1.34823   0.36315  -0.58835
  19   30339.8    329.6   0.112668567   1.22255  -0.63907  -0.10650   0.89599
  20   30857.2    324.1   0.178679790   1.90631   1.29735   0.45679   0.12054
  21   31271.0    319.8   0.050885386   0.53571   0.16748   0.16643   0.69279
  22   31461.7    317.8   0.055687776   0.58271   0.13024  -0.07923   0.74798
  23   31765.5    314.8   0.090655643   0.93954  -0.92673  -0.28272   0.02803
  24   32403.6    308.6   0.044793169   0.45509   0.15764   0.44711   0.47993
  25   32434.6    308.3   0.131948433   1.33928   1.06994   0.43611  -0.06568
  26   32884.4    304.1   0.451278087   4.51783  -1.58815  -0.16521  -1.40296
  27   33199.1    301.2   0.122055805   1.21034   0.73398   0.13847   0.80774
  28   33206.6    301.1   0.257654943   2.55441  -1.09935  -0.23598  -1.13584
  29   33257.3    300.7   0.019297169   0.19102   0.19032   0.29281   0.26280
  30   33334.1    300.0   0.101873956   1.00612   0.90513   0.21632   0.37426
  31   34373.5    290.9   0.008065889   0.07725   0.25231   0.09805  -0.06307
  32   34432.0    290.4   0.012269948   0.11732   0.01814  -0.20667  -0.27253
  33   34747.6    287.8   0.113733606   1.07755   0.21755   0.10346  -1.00972
  34   34831.4    287.1   0.032598182   0.30810   0.45490   0.30678  -0.08401
  35   35047.7    285.3   0.027768679   0.26084   0.12595  -0.15202  -0.47102
  36   35247.9    283.7   0.706718580   6.60069  -2.46296  -0.70715  -0.18555
  37   35582.8    281.0   0.107314856   0.99288   0.43178   0.13770   0.88740
  38   36063.9    277.3   0.014094887   0.12867  -0.24983   0.11890  -0.22829
  39   36341.5    275.2   0.001145172   0.01037   0.06036   0.06797  -0.04594
  40   36453.3    274.3   0.013512793   0.12203   0.27001   0.22058  -0.02187
  41   36916.0    270.9   0.024540808   0.21885   0.09159  -0.17212  -0.42525
  42   37293.6    268.1   0.011792399   0.10410  -0.18005  -0.04164   0.26447
  43   37806.4    264.5   0.098583882   0.85845   0.73374   0.21544   0.52313
  44   37860.9    264.1   0.044299743   0.38520   0.56820   0.24644   0.04024
  45   38078.8    262.6   0.014171879   0.12252   0.33903   0.02266   0.08406
  46   38340.2    260.8   0.051514495   0.44233  -0.53350  -0.22913   0.32437
  47   38513.0    259.7   0.002599267   0.02222   0.08701  -0.09871   0.07002
  48   38695.9    258.4   0.053809640   0.45780   0.13036  -0.09087  -0.65768
  49   39369.8    254.0   0.029568779   0.24726  -0.33435  -0.21468   0.29895
  50   39711.2    251.8   0.029118579   0.24140  -0.36633  -0.17958  -0.27377
  51   39885.8    250.7   0.068144272   0.56245   0.27335   0.01708   0.69817
  52   40105.7    249.3   0.020343755   0.16699   0.29284   0.08673   0.27151
  53   40253.0    248.4   0.221182766   1.80896  -0.17467   0.02881  -1.33327

FINAL SINGLE POINT ENERGY     -3528.038207716934

DIPOLE MOMENT
-------------
                                X             Y             Z
Electronic contribution:     -9.02029      -8.65338      43.43870
Nuclear contribution   :      7.28610       8.33633     -46.74350
                        -----------------------------------------
Total Dipole Moment    :     -1.73419      -0.31705      -3.30481
                        -----------------------------------------
Magnitude (a.u.)       :      3.74562
Magnitude (Debye)      :      9.52061

Rotational constants in cm-1:     0.001631     0.000214     0.000192
Rotational constants in MHz :    48.881538     6.404839     5.767937

                             ****ORCA TERMINATED NORMALLY****
TOTAL RUN TIME: 0 days 0 hours 10 minutes 12 seconds 494 msec
