                         Program Version 4.2.0 -  RELEASE  -
|  1> # ORCA input file
|  2> # SCF done       -196.911190511905          0.000793063190
|  3> ! CAM-B3LYP def2-SVP def2/J RIJCOSX Grid4 TightSCF
|  4> %maxcore 5000
|  5> %tddft
|  6>     Mode sTDDFT
|  7>     Ethresh 5.0
|  8>     maxcore 5000
|  9> end
| 10>
| 11> %pal
| 12>   nprocs 6
| 13>   end
| 14> * xyz 0 1
| 15>    C        0.57809         5.19671         2.70107
| 16>    C        0.15661         3.95866         2.30155
| 17>    C       -0.69005         3.13336         3.07192
| 18>    N       -1.39039         2.43211         3.65073
| 19>    C        0.57463         3.31766         1.11651
| 20>    N        0.90363         2.71572         0.19614
| 21>    C        0.36915         5.77905         4.02062
| 22>    C        1.31234         6.83194         4.21013
| 23>    C        1.37700         7.53539         5.37867
| 24>    C        0.48245         7.21862         6.42515
| 25>    C       -0.47316         6.17798         6.23655
| 26>    C       -0.51544         5.46350         5.01810
| 27>    C       -1.36432         5.87570         7.28662
| 28>    C       -1.31370         6.56464         8.46750
| 29>    C       -0.37201         7.58828         8.65261
| 30>    C        0.50690         7.90801         7.65369
| 31>    C        2.11522         6.99968         2.98612
| 32>    O        3.02759         7.76533         2.79027
| 33>    C        1.50494         6.06429         1.98983
| 34>    C        1.77033         6.21041         0.67661
| 35>    C        1.02622         5.66080        -0.43105
| 36>    C       -0.33833         5.63129        -0.51267
| 37>    S       -0.89943         4.98461        -1.99750
| 38>    C        0.69688         4.71719        -2.53299
| 39>    C        1.62745         5.13246        -1.62124
| 40>    C        3.07445         4.97877        -1.77506
| 41>    O        3.90276         5.26807        -0.94862
| 42>    O        3.38410         4.45734        -2.99020
| 43>    C        4.69554         4.21253        -3.26571
| 44>    C        5.02184         3.66648        -4.44581
| 45>    C        6.30164         3.30572        -4.96168
| 46>    N        7.55638         3.52362        -4.44286
| 47>    C        7.92513         4.16563        -3.20441
| 48>    C        7.82435         3.21299        -2.01541
| 49>    C        8.56368         2.99782        -5.28053
| 50>    O        9.74963         3.07610        -5.02396
| 51>    C        7.85081         2.42546        -6.39616
| 52>    C        6.46610         2.63967        -6.16799
| 53>    C        5.73252         2.09019        -7.28371
| 54>    O        4.54780         2.04049        -7.54071
| 55>    N        6.73679         1.57704        -8.12988
| 56>    C        6.39974         0.88332        -9.34794
| 57>    C        6.47872        -0.63253        -9.17920
| 58>    C        7.99892         1.76610        -7.61161
| 59>    C        9.18813         1.35730        -8.27073
| 60>    C       10.41777         1.53304        -7.72875
| 61>    C       11.63541         1.15943        -8.36517
| 62>    S       13.15157         1.50751        -7.58508
| 63>    C       14.03135         0.82876        -8.89437
| 64>    C       15.49862         0.88405        -8.81545
| 65>    O       16.08235         1.02945        -7.77659
| 66>    O       16.16792         0.78367        -9.98215
| 67>    C       13.19137         0.35269        -9.90348
| 68>    C       11.83503         0.54541        -9.58220
| 69>    C       13.64329        -0.35349       -11.07961
| 70>    C       13.13442        -0.21547       -12.32698
| 71>    C       13.52731        -0.97749       -13.50741
| 72>    C       14.16912        -2.18513       -13.50898
| 73>    C       14.49868        -2.90014       -14.68092
| 74>    N       14.79149        -3.52249       -15.59925
| 75>    C       14.54113        -2.90048       -12.34959
| 76>    N       14.84607        -3.54157       -11.44796
| 77>    C       13.02853        -0.26966       -14.67720
| 78>    C       12.25382         0.84365       -14.24118
| 79>    C       12.24284         0.89983       -12.77164
| 80>    O       11.67131         1.71182       -12.07915
| 81>    C       11.64546         1.68991       -15.12415
| 82>    C       11.78783         1.45783       -16.50960
| 83>    C       12.56814         0.35070       -16.95457
| 84>    C       13.18625        -0.50794       -16.01783
| 85>    C       12.70690         0.13172       -18.34051
| 86>    C       12.10326         0.96331       -19.24402
| 87>    C       11.33466         2.05202       -18.80475
| 88>    C       11.17996         2.29405       -17.46676
| 89>    H        2.10396         8.32407         5.50352
| 90>    H       -1.25510         4.68723         4.89861
| 91>    H       -2.08477         5.08433         7.14065
| 92>    H       -1.99867         6.32410         9.26662
| 93>    H       -0.34697         8.12220         9.59069
| 94>    H        1.23400         8.69495         7.79052
| 95>    H        2.60417         6.85597         0.42329
| 96>    H       -1.04282         5.99404         0.21020
| 97>    H        0.88036         4.26377        -3.48639
| 98>    H        5.37564         4.47860        -2.46892
| 99>    H        4.21361         3.43164        -5.12717
|100>    H        7.31149         5.05729        -3.05992
|101>    H        8.96806         4.47417        -3.32736
|102>    H        6.82432         2.79489        -1.92774
|103>    H        8.06529         3.74264        -1.09801
|104>    H        8.52944         2.39502        -2.14072
|105>    H        7.05326         1.22101       -10.15754
|106>    H        5.37103         1.17188        -9.58239
|107>    H        7.48255        -0.94246        -8.89651
|108>    H        6.20863        -1.12276       -10.11058
|109>    H        5.78771        -0.95430        -8.40412
|110>    H        9.08829         0.90371        -9.24529
|111>    H       10.50683         1.99747        -6.75562
|112>    H       15.58126         0.75621       -10.74983
|113>    H       11.03715         0.20955       -10.21660
|114>    H       14.45173        -1.05981       -10.92180
|115>    H       11.06229         2.52597       -14.76749
|116>    H       13.77704        -1.33205       -16.38503
|117>    H       13.29806        -0.70835       -18.67399
|118>    H       12.21455         0.78673       -20.30318
|119>    H       10.86655         2.69827       -19.53191
|120>    H       10.59015         3.13086       -17.12245
|121> *
|122>
|123>                          ****END OF INPUT****

CARTESIAN COORDINATES (ANGSTROEM)
---------------------------------
  C      0.578090    5.196710    2.701070
  C      0.156610    3.958660    2.301550
  C     -0.690050    3.133360    3.071920
  N     -1.390390    2.432110    3.650730
  C      0.574630    3.317660    1.116510
  N      0.903630    2.715720    0.196140
  C      0.369150    5.779050    4.020620
  C      1.312340    6.831940    4.210130
  C      1.377000    7.535390    5.378670
  C      0.482450    7.218620    6.425150
  C     -0.473160    6.177980    6.236550
  C     -0.515440    5.463500    5.018100
  C     -1.364320    5.875700    7.286620
  C     -1.313700    6.564640    8.467500
  C     -0.372010    7.588280    8.652610
  C      0.506900    7.908010    7.653690
  C      2.115220    6.999680    2.986120
  O      3.027590    7.765330    2.790270
  C      1.504940    6.064290    1.989830
  C      1.770330    6.210410    0.676610
  C      1.026220    5.660800   -0.431050
  C     -0.338330    5.631290   -0.512670
  S     -0.899430    4.984610   -1.997500
  C      0.696880    4.717190   -2.532990
  C      1.627450    5.132460   -1.621240
  C      3.074450    4.978770   -1.775060
  O      3.902760    5.268070   -0.948620
  O      3.384100    4.457340   -2.990200
  C      4.695540    4.212530   -3.265710
  C      5.021840    3.666480   -4.445810
  C      6.301640    3.305720   -4.961680
  N      7.556380    3.523620   -4.442860
  C      7.925130    4.165630   -3.204410
  C      7.824350    3.212990   -2.015410
  C      8.563680    2.997820   -5.280530
  O      9.749630    3.076100   -5.023960
  C      7.850810    2.425460   -6.396160
  C      6.466100    2.639670   -6.167990
  C      5.732520    2.090190   -7.283710
  O      4.547800    2.040490   -7.540710
  N      6.736790    1.577040   -8.129880
  C      6.399740    0.883320   -9.347940
  C      6.478720   -0.632530   -9.179200
  C      7.998920    1.766100   -7.611610
  C      9.188130    1.357300   -8.270730
  C     10.417770    1.533040   -7.728750
  C     11.635410    1.159430   -8.365170
  S     13.151570    1.507510   -7.585080
  C     14.031350    0.828760   -8.894370
  C     15.498620    0.884050   -8.815450
  O     16.082350    1.029450   -7.776590
  O     16.167920    0.783670   -9.982150
  C     13.191370    0.352690   -9.903480
  C     11.835030    0.545410   -9.582200
  C     13.643290   -0.353490  -11.079610
  C     13.134420   -0.215470  -12.326980
  C     13.527310   -0.977490  -13.507410
  C     14.169120   -2.185130  -13.508980
  C     14.498680   -2.900140  -14.680920
  N     14.791490   -3.522490  -15.599250
  C     14.541130   -2.900480  -12.349590
  N     14.846070   -3.541570  -11.447960
  C     13.028530   -0.269660  -14.677200
  C     12.253820    0.843650  -14.241180
  C     12.242840    0.899830  -12.771640
  O     11.671310    1.711820  -12.079150
  C     11.645460    1.689910  -15.124150
  C     11.787830    1.457830  -16.509600
  C     12.568140    0.350700  -16.954570
  C     13.186250   -0.507940  -16.017830
  C     12.706900    0.131720  -18.340510
  C     12.103260    0.963310  -19.244020
  C     11.334660    2.052020  -18.804750
  C     11.179960    2.294050  -17.466760
  H      2.103960    8.324070    5.503520
  H     -1.255100    4.687230    4.898610
  H     -2.084770    5.084330    7.140650
  H     -1.998670    6.324100    9.266620
  H     -0.346970    8.122200    9.590690
  H      1.234000    8.694950    7.790520
  H      2.604170    6.855970    0.423290
  H     -1.042820    5.994040    0.210200
  H      0.880360    4.263770   -3.486390
  H      5.375640    4.478600   -2.468920
  H      4.213610    3.431640   -5.127170
  H      7.311490    5.057290   -3.059920
  H      8.968060    4.474170   -3.327360
  H      6.824320    2.794890   -1.927740
  H      8.065290    3.742640   -1.098010
  H      8.529440    2.395020   -2.140720
  H      7.053260    1.221010  -10.157540
  H      5.371030    1.171880   -9.582390
  H      7.482550   -0.942460   -8.896510
  H      6.208630   -1.122760  -10.110580
  H      5.787710   -0.954300   -8.404120
  H      9.088290    0.903710   -9.245290
  H     10.506830    1.997470   -6.755620
  H     15.581260    0.756210  -10.749830
  H     11.037150    0.209550  -10.216600
  H     14.451730   -1.059810  -10.921800
  H     11.062290    2.525970  -14.767490
  H     13.777040   -1.332050  -16.385030
  H     13.298060   -0.708350  -18.673990
  H     12.214550    0.786730  -20.303180
  H     10.866550    2.698270  -19.531910
  H     10.590150    3.130860  -17.122450

 Total Charge           Charge          ....    0
 Multiplicity           Mult            ....    1
 Number of Electrons    NEL             ....  518
 Basis Dimension        Dim             .... 1204

ORBITAL ENERGIES
----------------

  NO   OCC          E(Eh)            E(eV)
   0   2.0000     -88.981458     -2421.3086
   1   2.0000     -88.976243     -2421.1667
   2   2.0000     -19.292773      -524.9830
   3   2.0000     -19.264941      -524.2257
   4   2.0000     -19.232141      -523.3332
   5   2.0000     -19.227124      -523.1966
   6   2.0000     -19.215859      -522.8901
   7   2.0000     -19.200459      -522.4711
   8   2.0000     -19.187959      -522.1309
   9   2.0000     -19.183172      -522.0007
  10   2.0000     -14.450304      -393.2128
  11   2.0000     -14.448319      -393.1588
  12   2.0000     -14.427693      -392.5975
  13   2.0000     -14.427303      -392.5869
  14   2.0000     -14.418543      -392.3485
  15   2.0000     -14.415677      -392.2705
  16   2.0000     -10.424314      -283.6600
  17   2.0000     -10.410608      -283.2870
  18   2.0000     -10.383940      -282.5614
  19   2.0000     -10.369728      -282.1746
  20   2.0000     -10.367840      -282.1233
  21   2.0000     -10.366846      -282.0962
  22   2.0000     -10.358644      -281.8730
  23   2.0000     -10.354444      -281.7587
  24   2.0000     -10.349836      -281.6334
  25   2.0000     -10.346241      -281.5355
  26   2.0000     -10.344134      -281.4782
  27   2.0000     -10.336751      -281.2773
  28   2.0000     -10.336632      -281.2741
  29   2.0000     -10.336167      -281.2614
  30   2.0000     -10.329401      -281.0773
  31   2.0000     -10.328776      -281.0603
  32   2.0000     -10.322890      -280.9001
  33   2.0000     -10.321738      -280.8688
  34   2.0000     -10.320832      -280.8441
  35   2.0000     -10.320796      -280.8431
  36   2.0000     -10.318503      -280.7807
  37   2.0000     -10.318246      -280.7737
  38   2.0000     -10.317156      -280.7441
  39   2.0000     -10.316352      -280.7222
  40   2.0000     -10.315892      -280.7097
  41   2.0000     -10.313737      -280.6510
  42   2.0000     -10.309442      -280.5342
  43   2.0000     -10.309292      -280.5301
  44   2.0000     -10.308998      -280.5221
  45   2.0000     -10.308884      -280.5190
  46   2.0000     -10.306900      -280.4650
  47   2.0000     -10.306506      -280.4543
  48   2.0000     -10.306459      -280.4530
  49   2.0000     -10.303652      -280.3766
  50   2.0000     -10.301840      -280.3273
  51   2.0000     -10.301718      -280.3240
  52   2.0000     -10.300652      -280.2950
  53   2.0000     -10.300308      -280.2856
  54   2.0000     -10.300005      -280.2774
  55   2.0000     -10.299981      -280.2767
  56   2.0000     -10.299406      -280.2611
  57   2.0000     -10.296653      -280.1862
  58   2.0000     -10.296459      -280.1809
  59   2.0000     -10.296179      -280.1733
  60   2.0000     -10.295867      -280.1648
  61   2.0000     -10.295372      -280.1513
  62   2.0000     -10.293734      -280.1067
  63   2.0000     -10.292086      -280.0619
  64   2.0000     -10.291709      -280.0516
  65   2.0000     -10.288962      -279.9769
  66   2.0000     -10.288525      -279.9650
  67   2.0000     -10.288319      -279.9594
  68   2.0000     -10.287893      -279.9478
  69   2.0000     -10.287569      -279.9390
  70   2.0000     -10.263137      -279.2742
  71   2.0000     -10.257775      -279.1282
  72   2.0000     -10.255134      -279.0564
  73   2.0000     -10.254281      -279.0332
  74   2.0000      -8.077618      -219.8032
  75   2.0000      -8.071478      -219.6361
  76   2.0000      -6.046770      -164.5410
  77   2.0000      -6.042195      -164.4165
  78   2.0000      -6.040510      -164.3706
  79   2.0000      -6.040348      -164.3662
  80   2.0000      -6.036265      -164.2551
  81   2.0000      -6.034109      -164.1965
  82   2.0000      -1.222518       -33.2664
  83   2.0000      -1.186024       -32.2733
  84   2.0000      -1.147810       -31.2335
  85   2.0000      -1.131652       -30.7938
  86   2.0000      -1.128737       -30.7145
  87   2.0000      -1.126394       -30.6507
  88   2.0000      -1.121358       -30.5137
  89   2.0000      -1.101136       -29.9634
  90   2.0000      -1.058496       -28.8031
  91   2.0000      -1.050244       -28.5786
  92   2.0000      -1.031261       -28.0620
  93   2.0000      -1.021854       -27.8061
  94   2.0000      -1.011131       -27.5143
  95   2.0000      -1.007916       -27.4268
  96   2.0000      -1.006503       -27.3884
  97   2.0000      -1.004976       -27.3468
  98   2.0000      -1.000492       -27.2248
  99   2.0000      -0.994344       -27.0575
 100   2.0000      -0.983411       -26.7600
 101   2.0000      -0.973595       -26.4929
 102   2.0000      -0.938700       -25.5433
 103   2.0000      -0.927749       -25.2453
 104   2.0000      -0.926718       -25.2173
 105   2.0000      -0.922880       -25.1128
 106   2.0000      -0.909866       -24.7587
 107   2.0000      -0.908520       -24.7221
 108   2.0000      -0.905097       -24.6289
 109   2.0000      -0.893465       -24.3124
 110   2.0000      -0.889450       -24.2032
 111   2.0000      -0.885370       -24.0921
 112   2.0000      -0.882157       -24.0047
 113   2.0000      -0.873040       -23.7566
 114   2.0000      -0.861368       -23.4390
 115   2.0000      -0.850050       -23.1310
 116   2.0000      -0.845827       -23.0161
 117   2.0000      -0.839682       -22.8489
 118   2.0000      -0.834243       -22.7009
 119   2.0000      -0.830825       -22.6079
 120   2.0000      -0.816953       -22.2304
 121   2.0000      -0.808018       -21.9873
 122   2.0000      -0.799745       -21.7622
 123   2.0000      -0.787090       -21.4178
 124   2.0000      -0.782443       -21.2914
 125   2.0000      -0.774783       -21.0829
 126   2.0000      -0.762244       -20.7417
 127   2.0000      -0.757228       -20.6052
 128   2.0000      -0.738239       -20.0885
 129   2.0000      -0.735782       -20.0216
 130   2.0000      -0.718409       -19.5489
 131   2.0000      -0.717238       -19.5170
 132   2.0000      -0.715643       -19.4736
 133   2.0000      -0.710259       -19.3271
 134   2.0000      -0.706204       -19.2168
 135   2.0000      -0.705437       -19.1959
 136   2.0000      -0.697869       -18.9900
 137   2.0000      -0.697215       -18.9722
 138   2.0000      -0.692756       -18.8508
 139   2.0000      -0.688004       -18.7215
 140   2.0000      -0.686483       -18.6802
 141   2.0000      -0.679803       -18.4984
 142   2.0000      -0.677356       -18.4318
 143   2.0000      -0.665549       -18.1105
 144   2.0000      -0.660138       -17.9633
 145   2.0000      -0.649358       -17.6699
 146   2.0000      -0.647568       -17.6212
 147   2.0000      -0.643888       -17.5211
 148   2.0000      -0.642500       -17.4833
 149   2.0000      -0.632342       -17.2069
 150   2.0000      -0.631971       -17.1968
 151   2.0000      -0.618307       -16.8250
 152   2.0000      -0.611252       -16.6330
 153   2.0000      -0.609971       -16.5981
 154   2.0000      -0.606002       -16.4902
 155   2.0000      -0.602510       -16.3951
 156   2.0000      -0.589609       -16.0441
 157   2.0000      -0.585439       -15.9306
 158   2.0000      -0.582685       -15.8557
 159   2.0000      -0.579605       -15.7719
 160   2.0000      -0.575585       -15.6625
 161   2.0000      -0.572683       -15.5835
 162   2.0000      -0.567728       -15.4487
 163   2.0000      -0.564632       -15.3644
 164   2.0000      -0.558434       -15.1958
 165   2.0000      -0.554626       -15.0921
 166   2.0000      -0.553964       -15.0741
 167   2.0000      -0.550442       -14.9783
 168   2.0000      -0.549743       -14.9593
 169   2.0000      -0.547468       -14.8974
 170   2.0000      -0.545834       -14.8529
 171   2.0000      -0.544174       -14.8077
 172   2.0000      -0.539842       -14.6899
 173   2.0000      -0.538209       -14.6454
 174   2.0000      -0.536686       -14.6040
 175   2.0000      -0.534984       -14.5576
 176   2.0000      -0.533075       -14.5057
 177   2.0000      -0.531482       -14.4624
 178   2.0000      -0.529535       -14.4094
 179   2.0000      -0.529442       -14.4069
 180   2.0000      -0.524111       -14.2618
 181   2.0000      -0.520956       -14.1759
 182   2.0000      -0.518559       -14.1107
 183   2.0000      -0.517256       -14.0753
 184   2.0000      -0.515026       -14.0146
 185   2.0000      -0.514677       -14.0051
 186   2.0000      -0.513635       -13.9767
 187   2.0000      -0.509414       -13.8619
 188   2.0000      -0.508320       -13.8321
 189   2.0000      -0.505964       -13.7680
 190   2.0000      -0.502498       -13.6737
 191   2.0000      -0.501481       -13.6460
 192   2.0000      -0.499704       -13.5976
 193   2.0000      -0.498034       -13.5522
 194   2.0000      -0.496663       -13.5149
 195   2.0000      -0.494804       -13.4643
 196   2.0000      -0.493016       -13.4156
 197   2.0000      -0.490006       -13.3337
 198   2.0000      -0.487837       -13.2747
 199   2.0000      -0.482791       -13.1374
 200   2.0000      -0.480555       -13.0766
 201   2.0000      -0.477707       -12.9991
 202   2.0000      -0.472948       -12.8696
 203   2.0000      -0.467929       -12.7330
 204   2.0000      -0.465505       -12.6670
 205   2.0000      -0.460373       -12.5274
 206   2.0000      -0.459526       -12.5043
 207   2.0000      -0.457313       -12.4441
 208   2.0000      -0.455624       -12.3982
 209   2.0000      -0.454603       -12.3704
 210   2.0000      -0.453981       -12.3535
 211   2.0000      -0.452331       -12.3086
 212   2.0000      -0.451616       -12.2891
 213   2.0000      -0.450464       -12.2577
 214   2.0000      -0.448303       -12.1989
 215   2.0000      -0.446897       -12.1607
 216   2.0000      -0.445918       -12.1340
 217   2.0000      -0.444973       -12.1083
 218   2.0000      -0.444284       -12.0896
 219   2.0000      -0.442308       -12.0358
 220   2.0000      -0.439326       -11.9547
 221   2.0000      -0.439009       -11.9460
 222   2.0000      -0.436452       -11.8765
 223   2.0000      -0.436167       -11.8687
 224   2.0000      -0.432973       -11.7818
 225   2.0000      -0.432521       -11.7695
 226   2.0000      -0.430879       -11.7248
 227   2.0000      -0.427253       -11.6262
 228   2.0000      -0.425314       -11.5734
 229   2.0000      -0.424535       -11.5522
 230   2.0000      -0.421239       -11.4625
 231   2.0000      -0.420702       -11.4479
 232   2.0000      -0.415519       -11.3068
 233   2.0000      -0.414031       -11.2664
 234   2.0000      -0.412499       -11.2247
 235   2.0000      -0.402601       -10.9553
 236   2.0000      -0.398292       -10.8381
 237   2.0000      -0.390284       -10.6202
 238   2.0000      -0.382778       -10.4159
 239   2.0000      -0.378902       -10.3104
 240   2.0000      -0.376692       -10.2503
 241   2.0000      -0.365205        -9.9377
 242   2.0000      -0.358615        -9.7584
 243   2.0000      -0.356510        -9.7011
 244   2.0000      -0.354938        -9.6584
 245   2.0000      -0.344015        -9.3611
 246   2.0000      -0.341884        -9.3031
 247   2.0000      -0.336013        -9.1434
 248   2.0000      -0.329778        -8.9737
 249   2.0000      -0.329112        -8.9556
 250   2.0000      -0.326771        -8.8919
 251   2.0000      -0.321037        -8.7359
 252   2.0000      -0.318459        -8.6657
 253   2.0000      -0.310788        -8.4570
 254   2.0000      -0.309292        -8.4163
 255   2.0000      -0.305292        -8.3074
 256   2.0000      -0.300229        -8.1696
 257   2.0000      -0.295253        -8.0343
 258   2.0000      -0.235118        -6.3979
 259   0.0000      -0.105600        -2.8735
 260   0.0000      -0.089074        -2.4238
 261   0.0000      -0.079650        -2.1674
 262   0.0000      -0.070407        -1.9159
 263   0.0000      -0.054872        -1.4932

MULLIKEN ATOMIC CHARGES
-----------------------
   0 C :    0.271434
   1 C :   -0.337320
   2 C :   -0.183365
   3 N :    0.155485
   4 C :   -0.183280
   5 N :    0.172445
   6 C :    0.036462
   7 C :    0.007681
   8 C :   -0.083151
   9 C :    0.097910
  10 C :    0.097788
  11 C :   -0.085427
  12 C :   -0.020578
  13 C :    0.036880
  14 C :    0.037582
  15 C :   -0.017413
  16 C :    0.140699
  17 O :   -0.131813
  18 C :   -0.127121
  19 C :    0.063711
  20 C :    0.010602
  21 C :   -0.103430
  22 S :    0.167440
  23 C :   -0.070349
  24 C :    0.032074
  25 C :    0.217470
  26 O :   -0.188770
  27 O :   -0.238651
  28 C :    0.146916
  29 C :   -0.017582
  30 C :    0.091477
  31 N :   -0.264649
  32 C :    0.094251
  33 C :    0.005818
  34 C :    0.162148
  35 O :   -0.214862
  36 C :   -0.064150
  37 C :   -0.041939
  38 C :    0.146775
  39 O :   -0.199771
  40 N :   -0.269964
  41 C :    0.102208
  42 C :    0.004313
  43 C :    0.139797
  44 C :   -0.018493
  45 C :    0.085324
  46 C :   -0.105022
  47 S :    0.245210
  48 C :   -0.229383
  49 C :    0.182673
  50 O :   -0.165348
  51 O :   -0.155876
  52 C :    0.132263
  53 C :    0.038767
  54 C :   -0.153801
  55 C :   -0.069842
  56 C :    0.294452
  57 C :   -0.325225
  58 C :   -0.178227
  59 N :    0.157160
  60 C :   -0.204538
  61 N :    0.175915
  62 C :    0.055087
  63 C :   -0.010171
  64 C :    0.138989
  65 O :   -0.131012
  66 C :   -0.074421
  67 C :    0.096674
  68 C :    0.096321
  69 C :   -0.080843
  70 C :   -0.016841
  71 C :    0.037487
  72 C :    0.038468
  73 C :   -0.015383
  74 H :   -0.009501
  75 H :   -0.005019
  76 H :   -0.008824
  77 H :   -0.003404
  78 H :   -0.004292
  79 H :   -0.015492
  80 H :    0.041931
  81 H :    0.037079
  82 H :    0.046372
  83 H :    0.033829
  84 H :    0.020899
  85 H :    0.022825
  86 H :    0.042424
  87 H :    0.019301
  88 H :    0.026504
  89 H :    0.029216
  90 H :    0.021362
  91 H :    0.041633
  92 H :    0.013265
  93 H :    0.020499
  94 H :    0.031289
  95 H :   -0.028370
  96 H :    0.008409
  97 H :    0.173991
  98 H :   -0.012316
  99 H :    0.055074
 100 H :   -0.009608
 101 H :   -0.004556
 102 H :   -0.005759
 103 H :    0.000123
 104 H :   -0.000618
 105 H :   -0.014403
Sum of atomic charges:   -0.0000000

LOEWDIN ATOMIC CHARGES
----------------------
   0 C :    0.068879
   1 C :   -0.133052
   2 C :   -0.018404
   3 N :   -0.050152
   4 C :   -0.016907
   5 N :   -0.047790
   6 C :   -0.025434
   7 C :   -0.057770
   8 C :    0.033585
   9 C :   -0.008131
  10 C :   -0.005549
  11 C :    0.017000
  12 C :   -0.005993
  13 C :   -0.012379
  14 C :   -0.011686
  15 C :   -0.008817
  16 C :    0.084528
  17 O :   -0.133299
  18 C :   -0.083334
  19 C :    0.086984
  20 C :   -0.057229
  21 C :   -0.164942
  22 S :    0.497878
  23 C :   -0.130688
  24 C :   -0.101537
  25 C :    0.112860
  26 O :   -0.154154
  27 O :   -0.036343
  28 C :    0.080176
  29 C :   -0.061714
  30 C :    0.074402
  31 N :   -0.001829
  32 C :    0.034263
  33 C :   -0.062118
  34 C :    0.082196
  35 O :   -0.202744
  36 C :   -0.126932
  37 C :   -0.121299
  38 C :    0.078439
  39 O :   -0.202899
  40 N :   -0.006038
  41 C :    0.035368
  42 C :   -0.061253
  43 C :    0.078704
  44 C :   -0.039312
  45 C :    0.011144
  46 C :   -0.165274
  47 S :    0.536399
  48 C :   -0.220240
  49 C :    0.057299
  50 O :   -0.152265
  51 O :   -0.026536
  52 C :   -0.062474
  53 C :   -0.013632
  54 C :    0.042967
  55 C :   -0.073449
  56 C :    0.069036
  57 C :   -0.125135
  58 C :   -0.016955
  59 N :   -0.041341
  60 C :   -0.027355
  61 N :   -0.034116
  62 C :   -0.027546
  63 C :   -0.059454
  64 C :    0.081370
  65 O :   -0.126824
  66 C :    0.036540
  67 C :   -0.007300
  68 C :   -0.004342
  69 C :    0.022148
  70 C :   -0.003968
  71 C :   -0.009118
  72 C :   -0.008332
  73 C :   -0.007960
  74 H :    0.040091
  75 H :    0.038722
  76 H :    0.034706
  77 H :    0.033692
  78 H :    0.033252
  79 H :    0.032485
  80 H :    0.051511
  81 H :    0.028198
  82 H :    0.035756
  83 H :    0.023819
  84 H :    0.053506
  85 H :    0.021995
  86 H :    0.037720
  87 H :    0.021751
  88 H :    0.032666
  89 H :    0.033019
  90 H :    0.021709
  91 H :    0.037356
  92 H :    0.021097
  93 H :    0.029389
  94 H :    0.033085
  95 H :    0.028701
  96 H :    0.037330
  97 H :    0.082850
  98 H :    0.029802
  99 H :    0.047378
 100 H :    0.040414
 101 H :    0.040097
 102 H :    0.036067
 103 H :    0.035147
 104 H :    0.034709
 105 H :    0.033163

  Mayer bond orders larger than 0.100000
B(  0-C ,  1-C ) :   1.6784 B(  0-C ,  6-C ) :   1.0037 B(  0-C , 18-C ) :   1.0025
B(  1-C ,  2-C ) :   1.1296 B(  1-C ,  4-C ) :   1.1607 B(  2-C ,  3-N ) :   2.9872
B(  4-C ,  5-N ) :   3.0104 B(  6-C ,  7-C ) :   1.2131 B(  6-C , 11-C ) :   1.4489
B(  7-C ,  8-C ) :   1.4703 B(  7-C , 16-C ) :   0.9187 B(  8-C ,  9-C ) :   1.1867
B(  8-C , 74-H ) :   1.0170 B(  9-C , 10-C ) :   1.2536 B(  9-C , 15-C ) :   1.2423
B( 10-C , 11-C ) :   1.2084 B( 10-C , 12-C ) :   1.2377 B( 11-C , 75-H ) :   0.9937
B( 12-C , 13-C ) :   1.4921 B( 12-C , 76-H ) :   0.9984 B( 13-C , 14-C ) :   1.2565
B( 13-C , 77-H ) :   0.9887 B( 14-C , 15-C ) :   1.4922 B( 14-C , 78-H ) :   0.9887
B( 15-C , 79-H ) :   0.9984 B( 16-C , 17-O ) :   2.2883 B( 16-C , 18-C ) :   0.9224
B( 18-C , 19-C ) :   1.7679 B( 19-C , 20-C ) :   1.0024 B( 19-C , 80-H ) :   0.9294
B( 20-C , 21-C ) :   1.5548 B( 20-C , 24-C ) :   1.2554 B( 21-C , 22-S ) :   1.1794
B( 21-C , 81-H ) :   0.9655 B( 22-S , 23-C ) :   1.2176 B( 23-C , 24-C ) :   1.5242
B( 23-C , 82-H ) :   0.9599 B( 24-C , 25-C ) :   0.9510 B( 25-C , 26-O ) :   2.0887
B( 25-C , 27-O ) :   1.1470 B( 27-O , 28-C ) :   1.0300 B( 28-C , 29-C ) :   1.6339
B( 28-C , 83-H ) :   0.9709 B( 29-C , 30-C ) :   1.1742 B( 29-C , 84-H ) :   0.9423
B( 30-C , 31-N ) :   1.1657 B( 30-C , 37-C ) :   1.3793 B( 31-N , 32-C ) :   0.9419
B( 31-N , 34-C ) :   1.0569 B( 32-C , 33-C ) :   1.1181 B( 32-C , 85-H ) :   0.9508
B( 32-C , 86-H ) :   0.9252 B( 33-C , 87-H ) :   0.9673 B( 33-C , 88-H ) :   0.9684
B( 33-C , 89-H ) :   0.9606 B( 34-C , 35-O ) :   2.0169 B( 34-C , 36-C ) :   0.9949
B( 35-O , 96-H ) :   0.1120 B( 36-C , 37-C ) :   1.2262 B( 36-C , 43-C ) :   1.3505
B( 37-C , 38-C ) :   0.9823 B( 38-C , 39-O ) :   2.1309 B( 38-C , 40-N ) :   1.0296
B( 40-N , 41-C ) :   0.9496 B( 40-N , 43-C ) :   1.1589 B( 41-C , 42-C ) :   1.1184
B( 41-C , 90-H ) :   0.9499 B( 41-C , 91-H ) :   0.9268 B( 42-C , 92-H ) :   0.9686
B( 42-C , 93-H ) :   0.9682 B( 42-C , 94-H ) :   0.9641 B( 43-C , 44-C ) :   1.1551
B( 44-C , 45-C ) :   1.6468 B( 44-C , 95-H ) :   0.9607 B( 45-C , 46-C ) :   1.1019
B( 45-C , 96-H ) :   0.9397 B( 46-C , 47-S ) :   1.1387 B( 46-C , 53-C ) :   1.4999
B( 47-S , 48-C ) :   1.1846 B( 48-C , 49-C ) :   0.9413 B( 48-C , 52-C ) :   1.4159
B( 49-C , 50-O ) :   2.2051 B( 49-C , 51-O ) :   1.2215 B( 51-O , 97-H ) :   0.9555
B( 52-C , 53-C ) :   1.2955 B( 52-C , 54-C ) :   1.0375 B( 53-C , 98-H ) :   0.9842
B( 54-C , 55-C ) :   1.7075 B( 54-C , 99-H ) :   0.9348 B( 55-C , 56-C ) :   1.0169
B( 55-C , 64-C ) :   0.9154 B( 56-C , 57-C ) :   1.6736 B( 56-C , 62-C ) :   1.0013
B( 57-C , 58-C ) :   1.1378 B( 57-C , 60-C ) :   1.1354 B( 58-C , 59-N ) :   2.9708
B( 60-C , 61-N ) :   2.9938 B( 62-C , 63-C ) :   1.2075 B( 62-C , 69-C ) :   1.4435
B( 63-C , 64-C ) :   0.9481 B( 63-C , 66-C ) :   1.4661 B( 64-C , 65-O ) :   2.2407
B( 66-C , 67-C ) :   1.1858 B( 66-C ,100-H ) :   1.0164 B( 67-C , 68-C ) :   1.2507
B( 67-C , 73-C ) :   1.2426 B( 68-C , 69-C ) :   1.2114 B( 68-C , 70-C ) :   1.2388
B( 69-C ,101-H ) :   0.9906 B( 70-C , 71-C ) :   1.4901 B( 70-C ,102-H ) :   0.9976
B( 71-C , 72-C ) :   1.2581 B( 71-C ,103-H ) :   0.9891 B( 72-C , 73-C ) :   1.4910
B( 72-C ,104-H ) :   0.9889 B( 73-C ,105-H ) :   0.9979

-----------------------------------------------------------------------------
         ABSORPTION SPECTRUM VIA TRANSITION ELECTRIC DIPOLE MOMENTS
-----------------------------------------------------------------------------
State   Energy  Wavelength   fosc         T2         TX        TY        TZ
        (cm-1)    (nm)                  (au**2)     (au)      (au)      (au)
-----------------------------------------------------------------------------
   0   15911.7    628.5   0.019496804   0.40339  -0.62420   0.11033   0.03979
   1   17898.6    558.7   0.826698941  15.20564  -2.07672   1.46442   2.95776
   2   21778.2    459.2   0.001799373   0.02720   0.07551  -0.01456  -0.14590
   3   23753.4    421.0   0.001951332   0.02704   0.08052  -0.01104   0.14296
   4   25212.9    396.6   0.170976659   2.23249   0.42585  -0.80291  -1.18595
   5   26215.6    381.5   0.010224500   0.12840  -0.07626  -0.29970   0.18100
   6   26671.7    374.9   0.160087526   1.97598   0.12910   0.00479   1.39975
   7   27120.6    368.7   0.057960268   0.70357   0.09098  -0.69829   0.45572
   8   27474.7    364.0   0.076874900   0.92114   0.33208  -0.42670  -0.79296
   9   28232.0    354.2   0.226627208   2.64269  -0.36816  -0.09813   1.58036
  10   28920.6    345.8   0.050372224   0.57340  -0.16800   0.23988   0.69831
  11   28929.6    345.7   0.026241249   0.29862  -0.18886   0.50322   0.09858
  12   29263.5    341.7   0.028215603   0.31742  -0.03665  -0.38178  -0.41270
  13   30029.4    333.0   0.001333881   0.01462  -0.06033  -0.02557   0.10164
  14   30212.7    331.0   0.013051559   0.14222   0.26039  -0.12568  -0.24211
  15   30498.5    327.9   0.036789975   0.39712   0.24404  -0.18713  -0.55005
  16   30600.0    326.8   0.284620433   3.06211  -1.30139   0.79937   0.85411
  17   31449.9    318.0   0.267372388   2.79881  -1.56925  -0.39793   0.42180
  18   32547.6    307.2   0.208008624   2.10396   1.25789   0.15217  -0.70605
  19   33239.8    300.8   0.064212750   0.63597   0.14583   0.63714   0.45690
  20   33376.9    299.6   0.749879802   7.39642  -1.11948   1.12723  -2.20738
  21   33525.6    298.3   0.112399162   1.10373  -0.39639   0.84307  -0.48564
  22   33580.4    297.8   0.100625194   0.98650  -0.26246   0.77759  -0.55943
  23   33752.8    296.3   0.005372885   0.05241  -0.08251  -0.05392  -0.20661
  24   33831.0    295.6   0.269446690   2.62200   0.50704  -0.34790   1.49796
  25   34147.2    292.8   0.048678976   0.46931  -0.54365   0.40144  -0.11224
  26   34304.5    291.5   0.180651862   1.73367   0.74738  -0.49090  -0.96650
  27   34512.9    289.7   0.263274732   2.51132   1.33224  -0.18461   0.83808
  28   34917.2    286.4   1.181659141  11.14111   0.14331   1.74134   2.84400
  29   35479.8    281.9   0.068672186   0.63720  -0.49302   0.40354   0.48092
  30   36306.3    275.4   0.089987175   0.81597  -0.29389  -0.38786  -0.76103
  31   36484.0    274.1   0.002917584   0.02633  -0.06099  -0.07177  -0.13212
  32   37175.9    269.0   0.000352407   0.00312  -0.03660  -0.00546   0.04185
  33   37347.1    267.8   0.063072636   0.55598  -0.52757   0.23462   0.47181
  34   37772.3    264.7   0.005958371   0.05193  -0.22060  -0.00557   0.05690
  35   37990.4    263.2   0.022201518   0.19239  -0.16192   0.40247  -0.06470
  36   38138.1    262.2   0.044847831   0.38713   0.12638  -0.44120  -0.42012
  37   38280.6    261.2   0.002079421   0.01788   0.11297  -0.01443  -0.07008
  38   38696.5    258.4   0.126122232   1.07299   0.66169  -0.79287  -0.08066
  39   38797.1    257.8   0.049983614   0.42414  -0.60975   0.16265   0.16090
  40   39186.6    255.2   0.000046007   0.00039   0.00909  -0.00860  -0.01516
  41   39503.2    253.1   0.000205314   0.00171   0.03322  -0.00794  -0.02333
  42   39602.9    252.5   0.013523995   0.11242  -0.16956  -0.15085  -0.24681
  43   40112.5    249.3   0.025697025   0.21090   0.08115  -0.20258  -0.40408

FINAL SINGLE POINT ENERGY     -3951.910848597132

DIPOLE MOMENT
-------------
                                X             Y             Z
Electronic contribution:      7.28362      -2.86039       3.05611
Nuclear contribution   :    -10.64794       5.83211      -4.48214
                        -----------------------------------------
Total Dipole Moment    :     -3.36432       2.97172      -1.42603
                        -----------------------------------------
Magnitude (a.u.)       :      4.70992
Magnitude (Debye)      :     11.97166

Rotational constants in cm-1:     0.002286     0.000190     0.000182
Rotational constants in MHz :    68.525355     5.697919     5.464091

                             ****ORCA TERMINATED NORMALLY****
TOTAL RUN TIME: 0 days 0 hours 10 minutes 33 seconds 959 msec
