                         Program Version 4.2.0 -  RELEASE  -
|  1> # ORCA input file
|  2> # SCF done       -178.982247322482          0.000553995248
|  3> ! CAM-B3LYP def2-SVP def2/J RIJCOSX Grid4 TightSCF
|  4> %maxcore 5000
|  5> %tddft
|  6>     Mode sTDDFT
|  7>     Ethresh 5.0
|  8>     maxcore 5000
|  9> end
| 10>
| 11> %pal
| 12>   nprocs 6
| 13>   end
| 14> * xyz 0 1
| 15>    C       -2.59142         1.53583        -6.08531
| 16>    C       -3.36355         2.65737        -6.22607
| 17>    C       -3.30406         3.52560        -7.33420
| 18>    N       -3.27187         4.29350        -8.18748
| 19>    C       -4.35684         3.04371        -5.30131
| 20>    N       -5.20869         3.36951        -4.60451
| 21>    C       -1.78706         0.93093        -7.13999
| 22>    C       -1.56308        -0.43801        -6.80897
| 23>    C       -0.87202        -1.27119        -7.64083
| 24>    C       -0.35531        -0.76177        -8.85359
| 25>    C       -0.56309         0.60959        -9.18202
| 26>    C       -1.29024         1.44770        -8.30615
| 27>    C       -0.03510         1.10592       -10.39131
| 28>    C        0.66376         0.28905       -11.23767
| 29>    C        0.86758        -1.06074       -10.91388
| 30>    C        0.36806        -1.57504        -9.74821
| 31>    C       -2.15882        -0.72905        -5.49101
| 32>    O       -2.21747        -1.78871        -4.91628
| 33>    C       -2.61694         0.59851        -4.97690
| 34>    C       -2.79133         0.77717        -3.64082
| 35>    C       -2.81130         2.01043        -2.94272
| 36>    O       -2.45148         3.15085        -3.56814
| 37>    C       -2.55982         4.16748        -2.68836
| 38>    C       -2.97065         3.69120        -1.46096
| 39>    C       -3.13068         2.29778        -1.60987
| 40>    C       -3.56082         1.31928        -0.59604
| 41>    O       -3.61878         0.13407        -0.82941
| 42>    C       -3.91460         1.90592         0.74438
| 43>    C       -2.31688         5.47084        -3.19923
| 44>    S       -1.98037         5.63552        -4.88806
| 45>    C       -1.95054         7.34894        -4.75826
| 46>    C       -2.18013         7.77127        -3.45251
| 47>    C       -2.37766         6.69698        -2.54530
| 48>    O       -2.66223         6.72520        -1.23472
| 49>    C       -2.46670         7.93005        -0.49794
| 50>    C       -0.98996         8.20255        -0.23600
| 51>    O       -2.24642         9.08984        -3.12343
| 52>    N       -1.04967         9.89680        -3.37487
| 53>    O       -1.24231        11.03355        -3.19643
| 54>    O       -0.08325         9.28196        -3.64576
| 55>    C       -1.76503         8.17522        -5.89737
| 56>    S       -1.56821         7.53369        -7.51098
| 57>    C       -1.50822         9.22325        -8.02254
| 58>    N       -1.62360        10.04962        -7.02372
| 59>    N       -1.75926         9.48385        -5.86242
| 60>    C       -1.36602         9.57900        -9.39069
| 61>    C       -1.43854        10.85366        -9.84413
| 62>    C       -1.31864        11.13691       -11.22977
| 63>    C       -1.45799        12.36673       -11.79665
| 64>    C       -1.36886        12.68358       -13.21341
| 65>    C       -0.94051        11.85177       -14.21446
| 66>    C       -0.86215        12.22487       -15.57351
| 67>    N       -0.77168        12.46146       -16.69310
| 68>    C       -0.49543        10.52331       -14.04718
| 69>    N       -0.10912         9.44291       -13.99851
| 70>    C       -1.78074        14.07132       -13.38416
| 71>    C       -2.04062        14.63305       -12.10128
| 72>    C       -1.82048        13.61362       -11.06122
| 73>    O       -1.92530        13.76242        -9.86461
| 74>    C       -2.44544        15.92794       -11.94889
| 75>    C       -2.62001        16.73494       -13.09506
| 76>    C       -2.36955        16.17867       -14.38303
| 77>    C       -1.94590        14.83644       -14.50931
| 78>    C       -2.55471        16.99025       -15.52112
| 79>    C       -2.96706        18.28865       -15.39495
| 80>    C       -3.21217        18.83563       -14.12638
| 81>    C       -3.04184        18.07571       -13.00099
| 82>    H       -0.71949        -2.30706        -7.37684
| 83>    H       -1.42667         2.48454        -8.57192
| 84>    H       -0.19730         2.14492       -10.63772
| 85>    H        1.06338         0.67857       -12.16190
| 86>    H        1.42263        -1.69083       -11.59258
| 87>    H        0.52166        -2.61353        -9.49397
| 88>    H       -2.84910        -0.11056        -3.02158
| 89>    H       -3.13778         4.29075        -0.59182
| 90>    H       -4.71481         2.63298         0.62632
| 91>    H       -3.04954         2.41201         1.16721
| 92>    H       -4.23621         1.11395         1.41510
| 93>    H       -2.99056         7.75032         0.44375
| 94>    H       -2.94200         8.77081        -1.01046
| 95>    H       -0.56489         7.41248         0.37820
| 96>    H       -0.88034         9.15064         0.28234
| 97>    H       -0.42661         8.24395        -1.16573
| 98>    H       -1.21298         8.76015       -10.08182
| 99>    H       -1.60342        11.66425        -9.15003
|100>    H       -1.12530        10.28621       -11.87181
|101>    H       -2.63429        16.32949       -10.96441
|102>    H       -1.76875        14.44485       -15.49829
|103>    H       -2.36361        16.56479       -16.49532
|104>    H       -3.10667        18.90201       -16.27245
|105>    H       -3.53725        19.86204       -14.04559
|106>    H       -3.22962        18.49121       -12.02187
|107> *
|108>
|109>                          ****END OF INPUT****

CARTESIAN COORDINATES (ANGSTROEM)
---------------------------------
  C     -2.591420    1.535830   -6.085310
  C     -3.363550    2.657370   -6.226070
  C     -3.304060    3.525600   -7.334200
  N     -3.271870    4.293500   -8.187480
  C     -4.356840    3.043710   -5.301310
  N     -5.208690    3.369510   -4.604510
  C     -1.787060    0.930930   -7.139990
  C     -1.563080   -0.438010   -6.808970
  C     -0.872020   -1.271190   -7.640830
  C     -0.355310   -0.761770   -8.853590
  C     -0.563090    0.609590   -9.182020
  C     -1.290240    1.447700   -8.306150
  C     -0.035100    1.105920  -10.391310
  C      0.663760    0.289050  -11.237670
  C      0.867580   -1.060740  -10.913880
  C      0.368060   -1.575040   -9.748210
  C     -2.158820   -0.729050   -5.491010
  O     -2.217470   -1.788710   -4.916280
  C     -2.616940    0.598510   -4.976900
  C     -2.791330    0.777170   -3.640820
  C     -2.811300    2.010430   -2.942720
  O     -2.451480    3.150850   -3.568140
  C     -2.559820    4.167480   -2.688360
  C     -2.970650    3.691200   -1.460960
  C     -3.130680    2.297780   -1.609870
  C     -3.560820    1.319280   -0.596040
  O     -3.618780    0.134070   -0.829410
  C     -3.914600    1.905920    0.744380
  C     -2.316880    5.470840   -3.199230
  S     -1.980370    5.635520   -4.888060
  C     -1.950540    7.348940   -4.758260
  C     -2.180130    7.771270   -3.452510
  C     -2.377660    6.696980   -2.545300
  O     -2.662230    6.725200   -1.234720
  C     -2.466700    7.930050   -0.497940
  C     -0.989960    8.202550   -0.236000
  O     -2.246420    9.089840   -3.123430
  N     -1.049670    9.896800   -3.374870
  O     -1.242310   11.033550   -3.196430
  O     -0.083250    9.281960   -3.645760
  C     -1.765030    8.175220   -5.897370
  S     -1.568210    7.533690   -7.510980
  C     -1.508220    9.223250   -8.022540
  N     -1.623600   10.049620   -7.023720
  N     -1.759260    9.483850   -5.862420
  C     -1.366020    9.579000   -9.390690
  C     -1.438540   10.853660   -9.844130
  C     -1.318640   11.136910  -11.229770
  C     -1.457990   12.366730  -11.796650
  C     -1.368860   12.683580  -13.213410
  C     -0.940510   11.851770  -14.214460
  C     -0.862150   12.224870  -15.573510
  N     -0.771680   12.461460  -16.693100
  C     -0.495430   10.523310  -14.047180
  N     -0.109120    9.442910  -13.998510
  C     -1.780740   14.071320  -13.384160
  C     -2.040620   14.633050  -12.101280
  C     -1.820480   13.613620  -11.061220
  O     -1.925300   13.762420   -9.864610
  C     -2.445440   15.927940  -11.948890
  C     -2.620010   16.734940  -13.095060
  C     -2.369550   16.178670  -14.383030
  C     -1.945900   14.836440  -14.509310
  C     -2.554710   16.990250  -15.521120
  C     -2.967060   18.288650  -15.394950
  C     -3.212170   18.835630  -14.126380
  C     -3.041840   18.075710  -13.000990
  H     -0.719490   -2.307060   -7.376840
  H     -1.426670    2.484540   -8.571920
  H     -0.197300    2.144920  -10.637720
  H      1.063380    0.678570  -12.161900
  H      1.422630   -1.690830  -11.592580
  H      0.521660   -2.613530   -9.493970
  H     -2.849100   -0.110560   -3.021580
  H     -3.137780    4.290750   -0.591820
  H     -4.714810    2.632980    0.626320
  H     -3.049540    2.412010    1.167210
  H     -4.236210    1.113950    1.415100
  H     -2.990560    7.750320    0.443750
  H     -2.942000    8.770810   -1.010460
  H     -0.564890    7.412480    0.378200
  H     -0.880340    9.150640    0.282340
  H     -0.426610    8.243950   -1.165730
  H     -1.212980    8.760150  -10.081820
  H     -1.603420   11.664250   -9.150030
  H     -1.125300   10.286210  -11.871810
  H     -2.634290   16.329490  -10.964410
  H     -1.768750   14.444850  -15.498290
  H     -2.363610   16.564790  -16.495320
  H     -3.106670   18.902010  -16.272450
  H     -3.537250   19.862040  -14.045590
  H     -3.229620   18.491210  -12.021870

 Total Charge           Charge          ....    0
 Multiplicity           Mult            ....    1
 Number of Electrons    NEL             ....  470
 Basis Dimension        Dim             .... 1071

ORBITAL ENERGIES
----------------

  NO   OCC          E(Eh)            E(eV)
   0   2.0000     -88.988533     -2421.5011
   1   2.0000     -88.985091     -2421.4074
   2   2.0000     -19.316649      -525.6327
   3   2.0000     -19.305027      -525.3165
   4   2.0000     -19.288901      -524.8777
   5   2.0000     -19.287426      -524.8375
   6   2.0000     -19.273382      -524.4554
   7   2.0000     -19.217337      -522.9303
   8   2.0000     -19.215686      -522.8854
   9   2.0000     -19.211021      -522.7585
  10   2.0000     -14.719393      -400.5351
  11   2.0000     -14.451271      -393.2391
  12   2.0000     -14.449948      -393.2031
  13   2.0000     -14.418964      -392.3600
  14   2.0000     -14.417954      -392.3325
  15   2.0000     -14.416435      -392.2911
  16   2.0000     -14.411035      -392.1442
  17   2.0000     -10.371462      -282.2218
  18   2.0000     -10.370659      -282.2000
  19   2.0000     -10.368090      -282.1301
  20   2.0000     -10.365605      -282.0624
  21   2.0000     -10.365318      -282.0547
  22   2.0000     -10.362757      -281.9849
  23   2.0000     -10.362178      -281.9692
  24   2.0000     -10.356455      -281.8135
  25   2.0000     -10.351892      -281.6893
  26   2.0000     -10.344872      -281.4983
  27   2.0000     -10.342518      -281.4342
  28   2.0000     -10.340986      -281.3925
  29   2.0000     -10.339263      -281.3456
  30   2.0000     -10.337113      -281.2871
  31   2.0000     -10.336413      -281.2681
  32   2.0000     -10.326785      -281.0061
  33   2.0000     -10.321586      -280.8646
  34   2.0000     -10.320946      -280.8472
  35   2.0000     -10.319134      -280.7979
  36   2.0000     -10.316810      -280.7347
  37   2.0000     -10.314292      -280.6662
  38   2.0000     -10.313735      -280.6510
  39   2.0000     -10.313384      -280.6415
  40   2.0000     -10.303851      -280.3820
  41   2.0000     -10.303051      -280.3603
  42   2.0000     -10.302081      -280.3339
  43   2.0000     -10.300888      -280.3014
  44   2.0000     -10.298583      -280.2387
  45   2.0000     -10.298482      -280.2359
  46   2.0000     -10.298243      -280.2294
  47   2.0000     -10.297669      -280.2138
  48   2.0000     -10.296984      -280.1952
  49   2.0000     -10.296476      -280.1813
  50   2.0000     -10.295916      -280.1661
  51   2.0000     -10.295450      -280.1534
  52   2.0000     -10.294924      -280.1391
  53   2.0000     -10.294686      -280.1326
  54   2.0000     -10.293787      -280.1082
  55   2.0000     -10.289022      -279.9785
  56   2.0000     -10.287482      -279.9366
  57   2.0000     -10.287223      -279.9296
  58   2.0000     -10.286646      -279.9139
  59   2.0000     -10.286464      -279.9089
  60   2.0000     -10.286009      -279.8965
  61   2.0000     -10.284852      -279.8651
  62   2.0000     -10.284515      -279.8559
  63   2.0000     -10.284260      -279.8489
  64   2.0000     -10.283915      -279.8396
  65   2.0000     -10.275608      -279.6135
  66   2.0000     -10.275202      -279.6025
  67   2.0000      -8.083276      -219.9571
  68   2.0000      -8.081500      -219.9088
  69   2.0000      -6.052664      -164.7014
  70   2.0000      -6.050235      -164.6353
  71   2.0000      -6.048706      -164.5937
  72   2.0000      -6.046709      -164.5393
  73   2.0000      -6.045013      -164.4932
  74   2.0000      -6.043758      -164.4590
  75   2.0000      -1.398138       -38.0453
  76   2.0000      -1.239959       -33.7410
  77   2.0000      -1.220574       -33.2135
  78   2.0000      -1.186076       -32.2748
  79   2.0000      -1.169042       -31.8113
  80   2.0000      -1.155486       -31.4424
  81   2.0000      -1.133471       -30.8433
  82   2.0000      -1.132563       -30.8186
  83   2.0000      -1.126977       -30.6666
  84   2.0000      -1.020042       -27.7568
  85   2.0000      -1.017148       -27.6780
  86   2.0000      -1.015630       -27.6367
  87   2.0000      -0.999925       -27.2093
  88   2.0000      -0.997358       -27.1395
  89   2.0000      -0.995709       -27.0946
  90   2.0000      -0.992693       -27.0125
  91   2.0000      -0.972874       -26.4733
  92   2.0000      -0.970215       -26.4009
  93   2.0000      -0.956776       -26.0352
  94   2.0000      -0.939262       -25.5586
  95   2.0000      -0.930288       -25.3144
  96   2.0000      -0.926378       -25.2080
  97   2.0000      -0.925388       -25.1811
  98   2.0000      -0.913219       -24.8499
  99   2.0000      -0.911229       -24.7958
 100   2.0000      -0.891741       -24.2655
 101   2.0000      -0.886836       -24.1320
 102   2.0000      -0.881439       -23.9852
 103   2.0000      -0.880768       -23.9669
 104   2.0000      -0.879672       -23.9371
 105   2.0000      -0.869485       -23.6599
 106   2.0000      -0.848516       -23.0893
 107   2.0000      -0.848264       -23.0824
 108   2.0000      -0.839259       -22.8374
 109   2.0000      -0.829009       -22.5585
 110   2.0000      -0.826767       -22.4975
 111   2.0000      -0.824361       -22.4320
 112   2.0000      -0.799673       -21.7602
 113   2.0000      -0.794562       -21.6211
 114   2.0000      -0.781765       -21.2729
 115   2.0000      -0.762925       -20.7602
 116   2.0000      -0.759679       -20.6719
 117   2.0000      -0.750506       -20.4223
 118   2.0000      -0.747060       -20.3285
 119   2.0000      -0.738387       -20.0925
 120   2.0000      -0.733350       -19.9555
 121   2.0000      -0.713935       -19.4271
 122   2.0000      -0.705503       -19.1977
 123   2.0000      -0.702445       -19.1145
 124   2.0000      -0.701935       -19.1006
 125   2.0000      -0.699683       -19.0393
 126   2.0000      -0.693278       -18.8650
 127   2.0000      -0.688786       -18.7428
 128   2.0000      -0.685064       -18.6415
 129   2.0000      -0.681726       -18.5507
 130   2.0000      -0.677064       -18.4239
 131   2.0000      -0.672673       -18.3044
 132   2.0000      -0.671794       -18.2804
 133   2.0000      -0.663494       -18.0546
 134   2.0000      -0.642231       -17.4760
 135   2.0000      -0.641307       -17.4508
 136   2.0000      -0.631823       -17.1928
 137   2.0000      -0.628692       -17.1076
 138   2.0000      -0.626954       -17.0603
 139   2.0000      -0.618069       -16.8185
 140   2.0000      -0.611828       -16.6487
 141   2.0000      -0.607613       -16.5340
 142   2.0000      -0.605744       -16.4831
 143   2.0000      -0.603157       -16.4127
 144   2.0000      -0.594073       -16.1655
 145   2.0000      -0.590921       -16.0798
 146   2.0000      -0.590090       -16.0572
 147   2.0000      -0.589712       -16.0469
 148   2.0000      -0.574095       -15.6219
 149   2.0000      -0.569964       -15.5095
 150   2.0000      -0.564192       -15.3525
 151   2.0000      -0.557491       -15.1701
 152   2.0000      -0.554512       -15.0891
 153   2.0000      -0.553009       -15.0481
 154   2.0000      -0.548892       -14.9361
 155   2.0000      -0.548046       -14.9131
 156   2.0000      -0.546346       -14.8668
 157   2.0000      -0.545148       -14.8342
 158   2.0000      -0.539684       -14.6855
 159   2.0000      -0.538289       -14.6476
 160   2.0000      -0.536439       -14.5973
 161   2.0000      -0.535049       -14.5594
 162   2.0000      -0.533274       -14.5111
 163   2.0000      -0.531447       -14.4614
 164   2.0000      -0.527344       -14.3497
 165   2.0000      -0.526155       -14.3174
 166   2.0000      -0.520344       -14.1593
 167   2.0000      -0.517383       -14.0787
 168   2.0000      -0.515661       -14.0319
 169   2.0000      -0.515172       -14.0185
 170   2.0000      -0.512937       -13.9577
 171   2.0000      -0.510816       -13.9000
 172   2.0000      -0.510162       -13.8822
 173   2.0000      -0.506132       -13.7725
 174   2.0000      -0.503918       -13.7123
 175   2.0000      -0.500206       -13.6113
 176   2.0000      -0.498285       -13.5590
 177   2.0000      -0.492609       -13.4046
 178   2.0000      -0.489025       -13.3070
 179   2.0000      -0.487069       -13.2538
 180   2.0000      -0.486261       -13.2318
 181   2.0000      -0.481322       -13.0974
 182   2.0000      -0.480536       -13.0761
 183   2.0000      -0.477778       -13.0010
 184   2.0000      -0.476410       -12.9638
 185   2.0000      -0.470609       -12.8059
 186   2.0000      -0.469767       -12.7830
 187   2.0000      -0.464370       -12.6361
 188   2.0000      -0.463543       -12.6136
 189   2.0000      -0.462106       -12.5745
 190   2.0000      -0.452113       -12.3026
 191   2.0000      -0.451590       -12.2884
 192   2.0000      -0.451107       -12.2753
 193   2.0000      -0.449055       -12.2194
 194   2.0000      -0.446988       -12.1632
 195   2.0000      -0.446173       -12.1410
 196   2.0000      -0.442856       -12.0507
 197   2.0000      -0.442424       -12.0390
 198   2.0000      -0.441032       -12.0011
 199   2.0000      -0.439555       -11.9609
 200   2.0000      -0.434946       -11.8355
 201   2.0000      -0.433755       -11.8031
 202   2.0000      -0.433292       -11.7905
 203   2.0000      -0.430658       -11.7188
 204   2.0000      -0.428059       -11.6481
 205   2.0000      -0.426189       -11.5972
 206   2.0000      -0.425343       -11.5742
 207   2.0000      -0.423494       -11.5239
 208   2.0000      -0.421038       -11.4570
 209   2.0000      -0.419048       -11.4029
 210   2.0000      -0.414883       -11.2895
 211   2.0000      -0.410216       -11.1625
 212   2.0000      -0.408511       -11.1162
 213   2.0000      -0.408082       -11.1045
 214   2.0000      -0.403940       -10.9918
 215   2.0000      -0.400377       -10.8948
 216   2.0000      -0.395947       -10.7743
 217   2.0000      -0.388332       -10.5671
 218   2.0000      -0.380785       -10.3617
 219   2.0000      -0.379739       -10.3332
 220   2.0000      -0.376587       -10.2475
 221   2.0000      -0.369302       -10.0492
 222   2.0000      -0.360398        -9.8069
 223   2.0000      -0.338782        -9.2187
 224   2.0000      -0.338243        -9.2041
 225   2.0000      -0.335703        -9.1349
 226   2.0000      -0.334260        -9.0957
 227   2.0000      -0.329410        -8.9637
 228   2.0000      -0.319991        -8.7074
 229   2.0000      -0.318272        -8.6606
 230   2.0000      -0.313263        -8.5243
 231   2.0000      -0.301068        -8.1925
 232   2.0000      -0.293452        -7.9852
 233   2.0000      -0.290264        -7.8985
 234   2.0000      -0.260556        -7.0901
 235   0.0000      -0.108838        -2.9616
 236   0.0000      -0.096623        -2.6292
 237   0.0000      -0.064046        -1.7428
 238   0.0000      -0.054502        -1.4831
 239   0.0000      -0.050355        -1.3702

MULLIKEN ATOMIC CHARGES
-----------------------
   0 C :    0.271502
   1 C :   -0.333737
   2 C :   -0.174512
   3 N :    0.143398
   4 C :   -0.205442
   5 N :    0.161737
   6 C :    0.041283
   7 C :    0.007711
   8 C :   -0.081694
   9 C :    0.095615
  10 C :    0.096273
  11 C :   -0.083494
  12 C :   -0.018882
  13 C :    0.036602
  14 C :    0.034818
  15 C :   -0.015179
  16 C :    0.136623
  17 O :   -0.134852
  18 C :   -0.100270
  19 C :    0.019080
  20 C :    0.083188
  21 O :   -0.213713
  22 C :    0.234017
  23 C :   -0.104333
  24 C :    0.065337
  25 C :   -0.011311
  26 O :   -0.163704
  27 C :    0.043974
  28 C :   -0.141333
  29 S :    0.206095
  30 C :   -0.036539
  31 C :    0.092159
  32 C :    0.187827
  33 O :   -0.296986
  34 C :    0.160070
  35 C :   -0.034552
  36 O :   -0.241184
  37 N :    0.379136
  38 O :   -0.127613
  39 O :   -0.153885
  40 C :   -0.089953
  41 S :    0.145764
  42 C :   -0.094392
  43 N :   -0.016332
  44 N :   -0.084885
  45 C :    0.079954
  46 C :    0.017477
  47 C :   -0.053495
  48 C :   -0.050835
  49 C :    0.329114
  50 C :   -0.348918
  51 C :   -0.180371
  52 N :    0.147074
  53 C :   -0.191296
  54 N :    0.149376
  55 C :    0.048278
  56 C :   -0.002153
  57 C :    0.146705
  58 O :   -0.137004
  59 C :   -0.080274
  60 C :    0.100047
  61 C :    0.097821
  62 C :   -0.086349
  63 C :   -0.019366
  64 C :    0.036370
  65 C :    0.039254
  66 C :   -0.017868
  67 H :   -0.010968
  68 H :   -0.009332
  69 H :   -0.012316
  70 H :   -0.004527
  71 H :   -0.004128
  72 H :   -0.016881
  73 H :    0.042103
  74 H :   -0.007091
  75 H :    0.047182
  76 H :    0.039930
  77 H :    0.038713
  78 H :    0.026039
  79 H :    0.045136
  80 H :    0.030232
  81 H :    0.033967
  82 H :    0.023235
  83 H :    0.014192
  84 H :    0.055075
  85 H :    0.016169
  86 H :   -0.011141
  87 H :   -0.008358
  88 H :   -0.009087
  89 H :   -0.004019
  90 H :   -0.004211
  91 H :   -0.016884
Sum of atomic charges:   -0.0000000

LOEWDIN ATOMIC CHARGES
----------------------
   0 C :    0.070869
   1 C :   -0.142207
   2 C :   -0.021229
   3 N :   -0.065577
   4 C :   -0.029615
   5 N :   -0.056068
   6 C :   -0.022070
   7 C :   -0.056378
   8 C :    0.032287
   9 C :   -0.008958
  10 C :   -0.005559
  11 C :    0.012795
  12 C :   -0.007532
  13 C :   -0.012524
  14 C :   -0.013241
  15 C :   -0.009020
  16 C :    0.082727
  17 O :   -0.134428
  18 C :   -0.077798
  19 C :    0.051331
  20 C :    0.044709
  21 O :    0.030174
  22 C :    0.048007
  23 C :   -0.045234
  24 C :   -0.066933
  25 C :    0.084513
  26 O :   -0.132148
  27 C :   -0.073519
  28 C :   -0.212739
  29 S :    0.501564
  30 C :   -0.210023
  31 C :   -0.034012
  32 C :    0.026871
  33 O :   -0.083943
  34 C :    0.082827
  35 C :   -0.072245
  36 O :   -0.095987
  37 N :    0.334716
  38 O :   -0.106326
  39 O :   -0.143430
  40 C :   -0.162010
  41 S :    0.422354
  42 C :   -0.148657
  43 N :   -0.053842
  44 N :   -0.088510
  45 C :   -0.011771
  46 C :    0.012340
  47 C :    0.062219
  48 C :   -0.078183
  49 C :    0.075242
  50 C :   -0.135055
  51 C :   -0.016704
  52 N :   -0.051490
  53 C :   -0.020424
  54 N :   -0.051791
  55 C :   -0.026265
  56 C :   -0.055791
  57 C :    0.083824
  58 O :   -0.131977
  59 C :    0.033648
  60 C :   -0.007390
  61 C :   -0.005849
  62 C :    0.019905
  63 C :   -0.005113
  64 C :   -0.012860
  65 C :   -0.011219
  66 C :   -0.008982
  67 H :    0.039649
  68 H :    0.037189
  69 H :    0.033518
  70 H :    0.033371
  71 H :    0.032932
  72 H :    0.032065
  73 H :    0.057342
  74 H :    0.034118
  75 H :    0.046703
  76 H :    0.044114
  77 H :    0.042084
  78 H :    0.026596
  79 H :    0.019470
  80 H :    0.031205
  81 H :    0.037697
  82 H :    0.022406
  83 H :    0.039340
  84 H :    0.045059
  85 H :    0.042263
  86 H :    0.039826
  87 H :    0.038993
  88 H :    0.034793
  89 H :    0.033496
  90 H :    0.033182
  91 H :    0.032291

  Mayer bond orders larger than 0.100000
B(  0-C ,  1-C ) :   1.6619 B(  0-C ,  6-C ) :   1.0093 B(  0-C , 18-C ) :   1.0274
B(  1-C ,  2-C ) :   1.1390 B(  1-C ,  4-C ) :   1.1564 B(  2-C ,  3-N ) :   2.9732
B(  4-C ,  5-N ) :   3.0041 B(  6-C ,  7-C ) :   1.2119 B(  6-C , 11-C ) :   1.4567
B(  7-C ,  8-C ) :   1.4774 B(  7-C , 16-C ) :   0.9186 B(  8-C ,  9-C ) :   1.1852
B(  8-C , 67-H ) :   1.0157 B(  9-C , 10-C ) :   1.2581 B(  9-C , 15-C ) :   1.2444
B( 10-C , 11-C ) :   1.2032 B( 10-C , 12-C ) :   1.2402 B( 11-C , 68-H ) :   0.9928
B( 12-C , 13-C ) :   1.4905 B( 12-C , 69-H ) :   0.9975 B( 13-C , 14-C ) :   1.2606
B( 13-C , 70-H ) :   0.9885 B( 14-C , 15-C ) :   1.4891 B( 14-C , 71-H ) :   0.9887
B( 15-C , 72-H ) :   0.9978 B( 16-C , 17-O ) :   2.2774 B( 16-C , 18-C ) :   0.9304
B( 18-C , 19-C ) :   1.5936 B( 19-C , 20-C ) :   1.1648 B( 19-C , 73-H ) :   0.9384
B( 20-C , 21-O ) :   1.1205 B( 20-C , 22-C ) :   0.1050 B( 20-C , 24-C ) :   1.4070
B( 21-O , 22-C ) :   1.1551 B( 22-C , 23-C ) :   1.4798 B( 22-C , 28-C ) :   1.0686
B( 23-C , 24-C ) :   1.2105 B( 23-C , 74-H ) :   1.0025 B( 24-C , 25-C ) :   0.9088
B( 25-C , 26-O ) :   2.1757 B( 25-C , 27-C ) :   1.0801 B( 27-C , 75-H ) :   0.9441
B( 27-C , 76-H ) :   0.9428 B( 27-C , 77-H ) :   0.9472 B( 28-C , 29-S ) :   1.1141
B( 28-C , 30-C ) :   0.1567 B( 28-C , 32-C ) :   1.5054 B( 29-S , 30-C ) :   1.1468
B( 30-C , 31-C ) :   1.4767 B( 30-C , 40-C ) :   1.1009 B( 31-C , 32-C ) :   1.2138
B( 31-C , 36-O ) :   1.0994 B( 32-C , 33-O ) :   1.2222 B( 33-O , 34-C ) :   0.9076
B( 34-C , 35-C ) :   1.1083 B( 34-C , 78-H ) :   0.9575 B( 34-C , 79-H ) :   0.9499
B( 35-C , 80-H ) :   0.9656 B( 35-C , 81-H ) :   0.9630 B( 35-C , 82-H ) :   0.9634
B( 36-O , 37-N ) :   0.8049 B( 37-N , 38-O ) :   1.7575 B( 37-N , 39-O ) :   1.6437
B( 38-O , 39-O ) :   0.2462 B( 40-C , 41-S ) :   1.1400 B( 40-C , 44-N ) :   1.6363
B( 41-S , 42-C ) :   1.0837 B( 42-C , 43-N ) :   1.6790 B( 42-C , 45-C ) :   1.0816
B( 43-N , 44-N ) :   1.2491 B( 45-C , 46-C ) :   1.6402 B( 45-C , 83-H ) :   0.9560
B( 46-C , 47-C ) :   1.1221 B( 46-C , 84-H ) :   0.9853 B( 47-C , 48-C ) :   1.5772
B( 47-C , 85-H ) :   0.9615 B( 48-C , 49-C ) :   1.0555 B( 48-C , 57-C ) :   0.9292
B( 49-C , 50-C ) :   1.6365 B( 49-C , 55-C ) :   0.9903 B( 50-C , 51-C ) :   1.1436
B( 50-C , 53-C ) :   1.1434 B( 51-C , 52-N ) :   2.9644 B( 53-C , 54-N ) :   2.9706
B( 55-C , 56-C ) :   1.2157 B( 55-C , 62-C ) :   1.4431 B( 56-C , 57-C ) :   0.9409
B( 56-C , 59-C ) :   1.4688 B( 57-C , 58-O ) :   2.2260 B( 59-C , 60-C ) :   1.1808
B( 59-C , 86-H ) :   1.0168 B( 60-C , 61-C ) :   1.2548 B( 60-C , 66-C ) :   1.2418
B( 61-C , 62-C ) :   1.2083 B( 61-C , 63-C ) :   1.2387 B( 62-C , 87-H ) :   0.9906
B( 63-C , 64-C ) :   1.4894 B( 63-C , 88-H ) :   0.9980 B( 64-C , 65-C ) :   1.2581
B( 64-C , 89-H ) :   0.9891 B( 65-C , 66-C ) :   1.4901 B( 65-C , 90-H ) :   0.9884
B( 66-C , 91-H ) :   0.9985

-----------------------------------------------------------------------------
         ABSORPTION SPECTRUM VIA TRANSITION ELECTRIC DIPOLE MOMENTS
-----------------------------------------------------------------------------
State   Energy  Wavelength   fosc         T2         TX        TY        TZ
        (cm-1)    (nm)                  (au**2)     (au)      (au)      (au)
-----------------------------------------------------------------------------
   0   17111.1    584.4   0.503988635   9.69660   0.26388   3.10024  -0.12427
   1   21221.9    471.2   1.110714817  17.23035   0.17059   1.74954  -3.76037
   2   24724.0    404.5   0.041643559   0.55451   0.39848  -0.37907   0.50202
   3   25184.4    397.1   0.070403731   0.92032  -0.51987   0.77830   0.21049
   4   26384.1    379.0   0.062500352   0.77986  -0.02911  -0.38888   0.79233
   5   26649.4    375.2   0.269789838   3.33284   0.01712  -0.82366   1.62915
   6   27198.3    367.7   0.164465681   1.99072   0.10427   0.52652  -1.30485
   7   27815.8    359.5   0.006213838   0.07354   0.03460   0.22114  -0.15310
   8   28255.7    353.9   0.103698443   1.20821  -0.02956   1.09685   0.06530
   9   28555.4    350.2   0.144159252   1.66200   0.25585  -1.24999   0.18458
  10   28795.5    347.3   0.066907080   0.76493  -0.34866   0.75123   0.28109
  11   29094.3    343.7   0.094729317   1.07190  -0.37521   0.92920   0.26019
  12   29871.2    334.8   0.154148003   1.69887   0.03138   0.91736  -0.92539
  13   29991.4    333.4   0.224029010   2.45914  -0.21962  -0.65544   1.40759
  14   30459.8    328.3   0.022037794   0.23819  -0.37794   0.02427   0.30782
  15   30910.2    323.5   0.058302627   0.62096   0.25289  -0.06722  -0.74329
  16   32103.1    311.5   0.288601585   2.95956  -0.69228   1.57068   0.11522
  17   33243.1    300.8   0.158033086   1.56503   0.82559  -0.29926  -0.89100
  18   33473.0    298.7   0.464950353   4.57285   0.76769  -1.99587  -0.00430
  19   33712.0    296.6   0.032510718   0.31748   0.19913  -0.52269   0.06798
  20   33783.7    296.0   0.193207284   1.88275   0.35203  -1.31001  -0.20662
  21   33840.6    295.5   0.063000579   0.61289  -0.23723   0.48595   0.56609
  22   34164.6    292.7   0.010719841   0.10330  -0.00522  -0.30994   0.08489
  23   34718.3    288.0   0.556743566   5.27925  -1.11455   0.52401   1.93970
  24   35209.5    284.0   0.265689621   2.48422  -0.78956   1.16471   0.71011
  25   35772.4    279.5   0.009288914   0.08549   0.18540  -0.21603   0.06668
  26   35842.3    279.0   0.001737589   0.01596   0.00553   0.07769   0.09947
  27   36055.7    277.3   0.023805551   0.21736   0.12863  -0.42755  -0.13422
  28   36364.7    275.0   0.063090653   0.57116  -0.03359   0.20999  -0.72522
  29   37202.6    268.8   0.093654318   0.82876  -0.32914  -0.48320   0.69782
  30   37768.7    264.8   0.074912893   0.65298   0.06831   0.80048  -0.08687
  31   38181.6    261.9   0.069790929   0.60176   0.43450  -0.55672  -0.32097
  32   38801.2    257.7   0.226983356   1.92586  -0.34778   0.78086   1.09324
  33   39279.2    254.6   0.084857385   0.71122   0.29089  -0.76715   0.19516
  34   39830.7    251.1   0.058780916   0.48584   0.03807  -0.26926  -0.64179
  35   40111.6    249.3   0.004984934   0.04091   0.02320   0.13338  -0.15028
  36   40315.3    248.0   0.101341668   0.82755   0.11456   0.77660  -0.45970

FINAL SINGLE POINT ENERGY     -3697.721745601153

DIPOLE MOMENT
-------------
                                X             Y             Z
Electronic contribution:     -1.69190      -5.47661      -8.65105
Nuclear contribution   :      2.48995       6.77773       9.66077
                        -----------------------------------------
Total Dipole Moment    :      0.79805       1.30112       1.00972
                        -----------------------------------------
Magnitude (a.u.)       :      1.83012
Magnitude (Debye)      :      4.65179

Rotational constants in cm-1:     0.001499     0.000421     0.000341
Rotational constants in MHz :    44.953050    12.631215    10.235292

                             ****ORCA TERMINATED NORMALLY****
TOTAL RUN TIME: 0 days 0 hours 8 minutes 34 seconds 882 msec
