                         Program Version 4.2.0 -  RELEASE  -
|  1> # ORCA input file
|  2> # SCF done       -203.457307933064          0.000420677601
|  3> ! CAM-B3LYP def2-SVP def2/J RIJCOSX Grid4 TightSCF
|  4> %maxcore 5000
|  5> %tddft
|  6>     Mode sTDDFT
|  7>     Ethresh 5.0
|  8>     maxcore 5000
|  9> end
| 10>
| 11> %pal
| 12>   nprocs 6
| 13>   end
| 14> * xyz 0 1
| 15>    C       -2.97385         0.94978        -0.07065
| 16>    C       -2.97263         1.44559         1.20673
| 17>    C       -3.83378         0.98938         2.22409
| 18>    N       -4.52851         0.66771         3.07940
| 19>    C       -2.03821         2.40078         1.65697
| 20>    N       -1.26088         3.14243         2.06140
| 21>    C       -3.68349        -0.24284        -0.51717
| 22>    C       -3.02875        -0.74658        -1.67996
| 23>    C       -3.44765        -1.88941        -2.29781
| 24>    C       -4.56653        -2.58154        -1.78145
| 25>    C       -5.23583        -2.07174        -0.63105
| 26>    C       -4.77312        -0.89197        -0.00388
| 27>    C       -6.35696        -2.76674        -0.13419
| 28>    C       -6.79580        -3.91230        -0.74037
| 29>    C       -6.13476        -4.41509        -1.87094
| 30>    C       -5.04369        -3.76435        -2.37984
| 31>    C       -1.92335         0.15630        -2.04877
| 32>    O       -1.11345         0.02813        -2.93684
| 33>    C       -2.05679         1.32335        -1.12689
| 34>    C       -1.46830         2.50174        -1.45887
| 35>    C       -1.76928         3.81834        -1.03104
| 36>    S       -3.27032         4.27782        -0.26821
| 37>    C       -2.82689         5.95397        -0.24653
| 38>    C       -1.55733         6.12980        -0.80637
| 39>    C       -0.98584         4.93227        -1.25748
| 40>    C       -0.85922         7.34957        -0.86662
| 41>    N       -0.23179         8.30841        -0.91296
| 42>    C       -3.72806         6.89618         0.30758
| 43>    C       -3.64966         8.23838         0.11328
| 44>    C       -4.49381         9.25423         0.62712
| 45>    N       -5.37387         9.22140         1.69121
| 46>    C       -5.56055         8.18022         2.67539
| 47>    C       -4.30808         7.94364         3.51331
| 48>    C       -6.01611        10.45861         1.86705
| 49>    O       -6.82189        10.67647         2.75732
| 50>    C       -5.50710        11.29499         0.80859
| 51>    C       -4.56926        10.53133         0.07812
| 52>    C       -4.07850        11.34093        -1.01828
| 53>    O       -3.30224        11.11444        -1.91782
| 54>    N       -4.75497        12.57114        -0.85986
| 55>    C       -4.49660        13.68360        -1.74113
| 56>    C       -3.55036        14.70014        -1.10723
| 57>    C       -5.60281        12.55949         0.21847
| 58>    C       -6.42028        13.64675         0.60668
| 59>    C       -7.23443        13.55858         1.69116
| 60>    C       -8.10196        14.57456         2.14644
| 61>    S       -8.21164        16.13399         1.39091
| 62>    C       -9.43529        16.64789         2.51007
| 63>    C       -9.71335        15.65554         3.43859
| 64>    C       -8.97966        14.48195         3.22000
| 65>    C       -9.11739        13.25079         4.05911
| 66>    C      -10.38479        13.28611         4.90600
| 67>    N      -11.57677        12.90985         4.07778
| 68>    O      -12.61293        13.48274         4.31136
| 69>    O      -11.42361        12.04166         3.26339
| 70>    C      -10.62473        14.65068         5.54539
| 71>    N       -9.52230        14.94964         6.51769
| 72>    O       -9.35824        16.10215         6.81789
| 73>    O       -8.90510        14.01286         6.95615
| 74>    C      -10.74312        15.77592         4.52159
| 75>    C       -9.95222        17.98331         2.44575
| 76>    S      -10.12377        18.93564         3.88691
| 77>    C      -10.57953        20.32878         3.03053
| 78>    C      -10.61432        20.10549         1.67324
| 79>    C      -10.26189        18.75447         1.32391
| 80>    C      -10.34690        18.38100        -0.03964
| 81>    F      -10.13136        17.11168        -0.41388
| 82>    C      -10.68802        19.30219        -0.99298
| 83>    F      -10.76525        18.94868        -2.28045
| 84>    C      -10.98461        20.64756        -0.64684
| 85>    F      -11.30390        21.50095        -1.62434
| 86>    C      -10.96000        21.03609         0.66135
| 87>    F      -11.26612        22.29026         1.01862
| 88>    H       -2.93337        -2.26159        -3.17136
| 89>    H       -5.30000        -0.52113         0.86179
| 90>    H       -6.86048        -2.37761         0.73857
| 91>    H       -7.65499        -4.43787        -0.35146
| 92>    H       -6.49447        -5.32022        -2.33685
| 93>    H       -4.53085        -4.14675        -3.25020
| 94>    H       -0.71494         2.43618        -2.23878
| 95>    H       -0.01209         4.87876        -1.71191
| 96>    H       -4.54173         6.46564         0.87197
| 97>    H       -2.89606         8.62371        -0.56180
| 98>    H       -5.89357         7.25793         2.19248
| 99>    H       -6.37118         8.53687         3.31867
|100>    H       -3.47543         7.61370         2.89693
|101>    H       -4.50857         7.18329         4.26290
|102>    H       -4.02081         8.86240         4.01885
|103>    H       -5.44250        14.15401        -2.02380
|104>    H       -4.03213        13.25822        -2.63514
|105>    H       -3.97196        15.10729        -0.19072
|106>    H       -3.36803        15.51532        -1.80171
|107>    H       -2.60123        14.22533        -0.87155
|108>    H       -6.39832        14.55377         0.01891
|109>    H       -7.23614        12.64110         2.26386
|110>    H       -8.25043        13.15114         4.71875
|111>    H       -9.13582        12.35793         3.42924
|112>    H      -10.31312        12.51374         5.68246
|113>    H      -11.54253        14.62464         6.14731
|114>    H      -10.63620        16.72518         5.04882
|115>    H      -11.74485        15.75266         4.08273
|116>    H      -10.80359        21.23987         3.54717
|117> *
|118>
|119>                          ****END OF INPUT****

CARTESIAN COORDINATES (ANGSTROEM)
---------------------------------
  C     -2.973850    0.949780   -0.070650
  C     -2.972630    1.445590    1.206730
  C     -3.833780    0.989380    2.224090
  N     -4.528510    0.667710    3.079400
  C     -2.038210    2.400780    1.656970
  N     -1.260880    3.142430    2.061400
  C     -3.683490   -0.242840   -0.517170
  C     -3.028750   -0.746580   -1.679960
  C     -3.447650   -1.889410   -2.297810
  C     -4.566530   -2.581540   -1.781450
  C     -5.235830   -2.071740   -0.631050
  C     -4.773120   -0.891970   -0.003880
  C     -6.356960   -2.766740   -0.134190
  C     -6.795800   -3.912300   -0.740370
  C     -6.134760   -4.415090   -1.870940
  C     -5.043690   -3.764350   -2.379840
  C     -1.923350    0.156300   -2.048770
  O     -1.113450    0.028130   -2.936840
  C     -2.056790    1.323350   -1.126890
  C     -1.468300    2.501740   -1.458870
  C     -1.769280    3.818340   -1.031040
  S     -3.270320    4.277820   -0.268210
  C     -2.826890    5.953970   -0.246530
  C     -1.557330    6.129800   -0.806370
  C     -0.985840    4.932270   -1.257480
  C     -0.859220    7.349570   -0.866620
  N     -0.231790    8.308410   -0.912960
  C     -3.728060    6.896180    0.307580
  C     -3.649660    8.238380    0.113280
  C     -4.493810    9.254230    0.627120
  N     -5.373870    9.221400    1.691210
  C     -5.560550    8.180220    2.675390
  C     -4.308080    7.943640    3.513310
  C     -6.016110   10.458610    1.867050
  O     -6.821890   10.676470    2.757320
  C     -5.507100   11.294990    0.808590
  C     -4.569260   10.531330    0.078120
  C     -4.078500   11.340930   -1.018280
  O     -3.302240   11.114440   -1.917820
  N     -4.754970   12.571140   -0.859860
  C     -4.496600   13.683600   -1.741130
  C     -3.550360   14.700140   -1.107230
  C     -5.602810   12.559490    0.218470
  C     -6.420280   13.646750    0.606680
  C     -7.234430   13.558580    1.691160
  C     -8.101960   14.574560    2.146440
  S     -8.211640   16.133990    1.390910
  C     -9.435290   16.647890    2.510070
  C     -9.713350   15.655540    3.438590
  C     -8.979660   14.481950    3.220000
  C     -9.117390   13.250790    4.059110
  C    -10.384790   13.286110    4.906000
  N    -11.576770   12.909850    4.077780
  O    -12.612930   13.482740    4.311360
  O    -11.423610   12.041660    3.263390
  C    -10.624730   14.650680    5.545390
  N     -9.522300   14.949640    6.517690
  O     -9.358240   16.102150    6.817890
  O     -8.905100   14.012860    6.956150
  C    -10.743120   15.775920    4.521590
  C     -9.952220   17.983310    2.445750
  S    -10.123770   18.935640    3.886910
  C    -10.579530   20.328780    3.030530
  C    -10.614320   20.105490    1.673240
  C    -10.261890   18.754470    1.323910
  C    -10.346900   18.381000   -0.039640
  F    -10.131360   17.111680   -0.413880
  C    -10.688020   19.302190   -0.992980
  F    -10.765250   18.948680   -2.280450
  C    -10.984610   20.647560   -0.646840
  F    -11.303900   21.500950   -1.624340
  C    -10.960000   21.036090    0.661350
  F    -11.266120   22.290260    1.018620
  H     -2.933370   -2.261590   -3.171360
  H     -5.300000   -0.521130    0.861790
  H     -6.860480   -2.377610    0.738570
  H     -7.654990   -4.437870   -0.351460
  H     -6.494470   -5.320220   -2.336850
  H     -4.530850   -4.146750   -3.250200
  H     -0.714940    2.436180   -2.238780
  H     -0.012090    4.878760   -1.711910
  H     -4.541730    6.465640    0.871970
  H     -2.896060    8.623710   -0.561800
  H     -5.893570    7.257930    2.192480
  H     -6.371180    8.536870    3.318670
  H     -3.475430    7.613700    2.896930
  H     -4.508570    7.183290    4.262900
  H     -4.020810    8.862400    4.018850
  H     -5.442500   14.154010   -2.023800
  H     -4.032130   13.258220   -2.635140
  H     -3.971960   15.107290   -0.190720
  H     -3.368030   15.515320   -1.801710
  H     -2.601230   14.225330   -0.871550
  H     -6.398320   14.553770    0.018910
  H     -7.236140   12.641100    2.263860
  H     -8.250430   13.151140    4.718750
  H     -9.135820   12.357930    3.429240
  H    -10.313120   12.513740    5.682460
  H    -11.542530   14.624640    6.147310
  H    -10.636200   16.725180    5.048820
  H    -11.744850   15.752660    4.082730
  H    -10.803590   21.239870    3.547170

 Total Charge           Charge          ....    0
 Multiplicity           Mult            ....    1
 Number of Electrons    NEL             ....  530
 Basis Dimension        Dim             .... 1179

ORBITAL ENERGIES
----------------

  NO   OCC          E(Eh)            E(eV)
   0   2.0000     -88.996672     -2421.7226
   1   2.0000     -88.981003     -2421.2962
   2   2.0000     -88.972764     -2421.0720
   3   2.0000     -24.807509      -675.0466
   4   2.0000     -24.806849      -675.0287
   5   2.0000     -24.806217      -675.0115
   6   2.0000     -24.806024      -675.0062
   7   2.0000     -19.268877      -524.3328
   8   2.0000     -19.268561      -524.3242
   9   2.0000     -19.265769      -524.2482
  10   2.0000     -19.265459      -524.2398
  11   2.0000     -19.214739      -522.8596
  12   2.0000     -19.197604      -522.3934
  13   2.0000     -19.190271      -522.1938
  14   2.0000     -14.667909      -399.1341
  15   2.0000     -14.664918      -399.0527
  16   2.0000     -14.457530      -393.4094
  17   2.0000     -14.454272      -393.3207
  18   2.0000     -14.417581      -392.3223
  19   2.0000     -14.414397      -392.2357
  20   2.0000     -14.405994      -392.0070
  21   2.0000     -10.388424      -282.6834
  22   2.0000     -10.387375      -282.6548
  23   2.0000     -10.385606      -282.6067
  24   2.0000     -10.385413      -282.6015
  25   2.0000     -10.379847      -282.4500
  26   2.0000     -10.373525      -282.2780
  27   2.0000     -10.366647      -282.0908
  28   2.0000     -10.358763      -281.8763
  29   2.0000     -10.356409      -281.8122
  30   2.0000     -10.349592      -281.6267
  31   2.0000     -10.345161      -281.5062
  32   2.0000     -10.342919      -281.4451
  33   2.0000     -10.340435      -281.3775
  34   2.0000     -10.337688      -281.3028
  35   2.0000     -10.334476      -281.2154
  36   2.0000     -10.331022      -281.1214
  37   2.0000     -10.325098      -280.9602
  38   2.0000     -10.325096      -280.9602
  39   2.0000     -10.324254      -280.9372
  40   2.0000     -10.322341      -280.8852
  41   2.0000     -10.320125      -280.8249
  42   2.0000     -10.319903      -280.8188
  43   2.0000     -10.318693      -280.7859
  44   2.0000     -10.316324      -280.7214
  45   2.0000     -10.314095      -280.6608
  46   2.0000     -10.311090      -280.5790
  47   2.0000     -10.310433      -280.5612
  48   2.0000     -10.306662      -280.4585
  49   2.0000     -10.305989      -280.4402
  50   2.0000     -10.304645      -280.4037
  51   2.0000     -10.304596      -280.4023
  52   2.0000     -10.303811      -280.3810
  53   2.0000     -10.303477      -280.3719
  54   2.0000     -10.303411      -280.3701
  55   2.0000     -10.302896      -280.3560
  56   2.0000     -10.302540      -280.3464
  57   2.0000     -10.299646      -280.2676
  58   2.0000     -10.298765      -280.2436
  59   2.0000     -10.298531      -280.2373
  60   2.0000     -10.298309      -280.2312
  61   2.0000     -10.297896      -280.2200
  62   2.0000     -10.297754      -280.2161
  63   2.0000     -10.294839      -280.1368
  64   2.0000     -10.290401      -280.0160
  65   2.0000     -10.287108      -279.9264
  66   2.0000     -10.286727      -279.9161
  67   2.0000     -10.286482      -279.9094
  68   2.0000     -10.286047      -279.8976
  69   2.0000     -10.269145      -279.4376
  70   2.0000     -10.265624      -279.3418
  71   2.0000     -10.261529      -279.2304
  72   2.0000     -10.259747      -279.1819
  73   2.0000      -8.091527      -220.1817
  74   2.0000      -8.076198      -219.7645
  75   2.0000      -8.068160      -219.5458
  76   2.0000      -6.060507      -164.9148
  77   2.0000      -6.056047      -164.7934
  78   2.0000      -6.054688      -164.7564
  79   2.0000      -6.045460      -164.5053
  80   2.0000      -6.041304      -164.3922
  81   2.0000      -6.038331      -164.3113
  82   2.0000      -6.037264      -164.2823
  83   2.0000      -6.033337      -164.1754
  84   2.0000      -6.030338      -164.0938
  85   2.0000      -1.351713       -36.7820
  86   2.0000      -1.348371       -36.6910
  87   2.0000      -1.333954       -36.2987
  88   2.0000      -1.326141       -36.0861
  89   2.0000      -1.317224       -35.8435
  90   2.0000      -1.309235       -35.6261
  91   2.0000      -1.173190       -31.9241
  92   2.0000      -1.170004       -31.8374
  93   2.0000      -1.137502       -30.9530
  94   2.0000      -1.130276       -30.7564
  95   2.0000      -1.127898       -30.6917
  96   2.0000      -1.067498       -29.0481
  97   2.0000      -1.055416       -28.7193
  98   2.0000      -1.031831       -28.0775
  99   2.0000      -1.022889       -27.8342
 100   2.0000      -1.014860       -27.6157
 101   2.0000      -1.014633       -27.6096
 102   2.0000      -0.999109       -27.1871
 103   2.0000      -0.994292       -27.0561
 104   2.0000      -0.986094       -26.8330
 105   2.0000      -0.984849       -26.7991
 106   2.0000      -0.972327       -26.4584
 107   2.0000      -0.964857       -26.2551
 108   2.0000      -0.932845       -25.3840
 109   2.0000      -0.930511       -25.3205
 110   2.0000      -0.924177       -25.1481
 111   2.0000      -0.920468       -25.0472
 112   2.0000      -0.907196       -24.6861
 113   2.0000      -0.902291       -24.5526
 114   2.0000      -0.893933       -24.3251
 115   2.0000      -0.883487       -24.0409
 116   2.0000      -0.881093       -23.9758
 117   2.0000      -0.877796       -23.8861
 118   2.0000      -0.873928       -23.7808
 119   2.0000      -0.867173       -23.5970
 120   2.0000      -0.866004       -23.5652
 121   2.0000      -0.858413       -23.3586
 122   2.0000      -0.842634       -22.9292
 123   2.0000      -0.830025       -22.5861
 124   2.0000      -0.829127       -22.5617
 125   2.0000      -0.821599       -22.3568
 126   2.0000      -0.817044       -22.2329
 127   2.0000      -0.804311       -21.8864
 128   2.0000      -0.780903       -21.2494
 129   2.0000      -0.777506       -21.1570
 130   2.0000      -0.770193       -20.9580
 131   2.0000      -0.761424       -20.7194
 132   2.0000      -0.760749       -20.7010
 133   2.0000      -0.753600       -20.5065
 134   2.0000      -0.735747       -20.0207
 135   2.0000      -0.723963       -19.7000
 136   2.0000      -0.720302       -19.6004
 137   2.0000      -0.712970       -19.4009
 138   2.0000      -0.710773       -19.3411
 139   2.0000      -0.710005       -19.3202
 140   2.0000      -0.706031       -19.2121
 141   2.0000      -0.701313       -19.0837
 142   2.0000      -0.698155       -18.9978
 143   2.0000      -0.689865       -18.7722
 144   2.0000      -0.685231       -18.6461
 145   2.0000      -0.683609       -18.6019
 146   2.0000      -0.676974       -18.4214
 147   2.0000      -0.674134       -18.3441
 148   2.0000      -0.668697       -18.1962
 149   2.0000      -0.665846       -18.1186
 150   2.0000      -0.660743       -17.9797
 151   2.0000      -0.655087       -17.8258
 152   2.0000      -0.652274       -17.7493
 153   2.0000      -0.649334       -17.6693
 154   2.0000      -0.641928       -17.4677
 155   2.0000      -0.638926       -17.3861
 156   2.0000      -0.634191       -17.2572
 157   2.0000      -0.629894       -17.1403
 158   2.0000      -0.628355       -17.0984
 159   2.0000      -0.625451       -17.0194
 160   2.0000      -0.616356       -16.7719
 161   2.0000      -0.612545       -16.6682
 162   2.0000      -0.609129       -16.5753
 163   2.0000      -0.608443       -16.5566
 164   2.0000      -0.607764       -16.5381
 165   2.0000      -0.604417       -16.4470
 166   2.0000      -0.600309       -16.3352
 167   2.0000      -0.597263       -16.2524
 168   2.0000      -0.588550       -16.0153
 169   2.0000      -0.584292       -15.8994
 170   2.0000      -0.581827       -15.8323
 171   2.0000      -0.579700       -15.7744
 172   2.0000      -0.578194       -15.7334
 173   2.0000      -0.569055       -15.4848
 174   2.0000      -0.561369       -15.2756
 175   2.0000      -0.560350       -15.2479
 176   2.0000      -0.559540       -15.2259
 177   2.0000      -0.552877       -15.0445
 178   2.0000      -0.551188       -14.9986
 179   2.0000      -0.549956       -14.9651
 180   2.0000      -0.547499       -14.8982
 181   2.0000      -0.545705       -14.8494
 182   2.0000      -0.545355       -14.8399
 183   2.0000      -0.543248       -14.7825
 184   2.0000      -0.537406       -14.6236
 185   2.0000      -0.535545       -14.5729
 186   2.0000      -0.534102       -14.5337
 187   2.0000      -0.532612       -14.4931
 188   2.0000      -0.529499       -14.4084
 189   2.0000      -0.526969       -14.3396
 190   2.0000      -0.525433       -14.2978
 191   2.0000      -0.520961       -14.1761
 192   2.0000      -0.520077       -14.1520
 193   2.0000      -0.519784       -14.1440
 194   2.0000      -0.518355       -14.1051
 195   2.0000      -0.515275       -14.0214
 196   2.0000      -0.514263       -13.9938
 197   2.0000      -0.511634       -13.9223
 198   2.0000      -0.509043       -13.8518
 199   2.0000      -0.507379       -13.8065
 200   2.0000      -0.505288       -13.7496
 201   2.0000      -0.502394       -13.6708
 202   2.0000      -0.501415       -13.6442
 203   2.0000      -0.497673       -13.5424
 204   2.0000      -0.496508       -13.5107
 205   2.0000      -0.494315       -13.4510
 206   2.0000      -0.486077       -13.2268
 207   2.0000      -0.485016       -13.1980
 208   2.0000      -0.478719       -13.0266
 209   2.0000      -0.478343       -13.0164
 210   2.0000      -0.476790       -12.9741
 211   2.0000      -0.475634       -12.9427
 212   2.0000      -0.471244       -12.8232
 213   2.0000      -0.469270       -12.7695
 214   2.0000      -0.465897       -12.6777
 215   2.0000      -0.464127       -12.6295
 216   2.0000      -0.457940       -12.4612
 217   2.0000      -0.455795       -12.4028
 218   2.0000      -0.454531       -12.3684
 219   2.0000      -0.452320       -12.3083
 220   2.0000      -0.450333       -12.2542
 221   2.0000      -0.446723       -12.1559
 222   2.0000      -0.446047       -12.1376
 223   2.0000      -0.444091       -12.0843
 224   2.0000      -0.443651       -12.0723
 225   2.0000      -0.441863       -12.0237
 226   2.0000      -0.439654       -11.9636
 227   2.0000      -0.438704       -11.9377
 228   2.0000      -0.435427       -11.8486
 229   2.0000      -0.433745       -11.8028
 230   2.0000      -0.433184       -11.7875
 231   2.0000      -0.430189       -11.7060
 232   2.0000      -0.427158       -11.6236
 233   2.0000      -0.426402       -11.6030
 234   2.0000      -0.423686       -11.5291
 235   2.0000      -0.419781       -11.4228
 236   2.0000      -0.418329       -11.3833
 237   2.0000      -0.417821       -11.3695
 238   2.0000      -0.411993       -11.2109
 239   2.0000      -0.409255       -11.1364
 240   2.0000      -0.407277       -11.0826
 241   2.0000      -0.405196       -11.0259
 242   2.0000      -0.404175       -10.9982
 243   2.0000      -0.403484       -10.9794
 244   2.0000      -0.401265       -10.9190
 245   2.0000      -0.390726       -10.6322
 246   2.0000      -0.390255       -10.6194
 247   2.0000      -0.386417       -10.5149
 248   2.0000      -0.384336       -10.4583
 249   2.0000      -0.374056       -10.1786
 250   2.0000      -0.364878        -9.9288
 251   2.0000      -0.351335        -9.5603
 252   2.0000      -0.348839        -9.4924
 253   2.0000      -0.337213        -9.1760
 254   2.0000      -0.336956        -9.1690
 255   2.0000      -0.335012        -9.1162
 256   2.0000      -0.334662        -9.1066
 257   2.0000      -0.329265        -8.9597
 258   2.0000      -0.319021        -8.6810
 259   2.0000      -0.317172        -8.6307
 260   2.0000      -0.312110        -8.4929
 261   2.0000      -0.297990        -8.1087
 262   2.0000      -0.290248        -7.8981
 263   2.0000      -0.271732        -7.3942
 264   2.0000      -0.235652        -6.4124
 265   0.0000      -0.108136        -2.9425
 266   0.0000      -0.085420        -2.3244
 267   0.0000      -0.062172        -1.6918
 268   0.0000      -0.053704        -1.4613
 269   0.0000      -0.041553        -1.1307

MULLIKEN ATOMIC CHARGES
-----------------------
   0 C :    0.249237
   1 C :   -0.318865
   2 C :   -0.173028
   3 N :    0.153795
   4 C :   -0.210863
   5 N :    0.170670
   6 C :    0.035983
   7 C :    0.013765
   8 C :   -0.077146
   9 C :    0.090675
  10 C :    0.092828
  11 C :   -0.075999
  12 C :   -0.016121
  13 C :    0.035755
  14 C :    0.036162
  15 C :   -0.013869
  16 C :    0.139055
  17 O :   -0.140564
  18 C :   -0.136925
  19 C :    0.058227
  20 C :   -0.083511
  21 S :    0.164134
  22 C :   -0.051030
  23 C :   -0.053062
  24 C :    0.058725
  25 C :   -0.193071
  26 N :    0.141580
  27 C :    0.041845
  28 C :   -0.036285
  29 C :    0.088537
  30 N :   -0.260701
  31 C :    0.096983
  32 C :   -0.003758
  33 C :    0.170769
  34 O :   -0.240145
  35 C :   -0.081751
  36 C :   -0.016727
  37 C :    0.155935
  38 O :   -0.168816
  39 N :   -0.266574
  40 C :    0.100001
  41 C :    0.000727
  42 C :    0.155677
  43 C :   -0.038147
  44 C :    0.000378
  45 C :   -0.091592
  46 S :    0.170992
  47 C :   -0.127803
  48 C :   -0.069576
  49 C :   -0.101899
  50 C :    0.145152
  51 C :    0.027579
  52 N :    0.222313
  53 O :   -0.229133
  54 O :   -0.199994
  55 C :    0.010773
  56 N :    0.223060
  57 O :   -0.209550
  58 O :   -0.219032
  59 C :    0.155465
  60 C :   -0.214803
  61 S :    0.202573
  62 C :   -0.126690
  63 C :    0.002051
  64 C :    0.125091
  65 C :    0.150392
  66 F :   -0.166917
  67 C :    0.148932
  68 F :   -0.161215
  69 C :    0.140608
  70 F :   -0.158911
  71 C :    0.192666
  72 F :   -0.167135
  73 H :   -0.011526
  74 H :   -0.006731
  75 H :   -0.011279
  76 H :   -0.004237
  77 H :   -0.004997
  78 H :   -0.017173
  79 H :    0.029479
  80 H :    0.008464
  81 H :   -0.019066
  82 H :    0.035124
  83 H :    0.024521
  84 H :    0.044410
  85 H :    0.032521
  86 H :    0.027140
  87 H :    0.024219
  88 H :    0.024994
  89 H :    0.046269
  90 H :    0.014936
  91 H :    0.025799
  92 H :    0.034118
  93 H :   -0.023628
  94 H :    0.024940
  95 H :    0.063560
  96 H :    0.074635
  97 H :    0.077718
  98 H :    0.075173
  99 H :    0.045846
 100 H :    0.057415
 101 H :    0.039476
Sum of atomic charges:    0.0000000

LOEWDIN ATOMIC CHARGES
----------------------
   0 C :    0.061534
   1 C :   -0.143115
   2 C :   -0.019378
   3 N :   -0.050795
   4 C :   -0.039433
   5 N :   -0.046277
   6 C :   -0.022641
   7 C :   -0.056777
   8 C :    0.033423
   9 C :   -0.009085
  10 C :   -0.005320
  11 C :    0.015421
  12 C :   -0.006627
  13 C :   -0.012527
  14 C :   -0.012805
  15 C :   -0.008643
  16 C :    0.083934
  17 O :   -0.141551
  18 C :   -0.094815
  19 C :    0.051314
  20 C :   -0.182159
  21 S :    0.490607
  22 C :   -0.112965
  23 C :   -0.109006
  24 C :    0.020240
  25 C :   -0.034224
  26 N :   -0.044772
  27 C :   -0.052729
  28 C :    0.007534
  29 C :    0.048927
  30 N :   -0.000757
  31 C :    0.035166
  32 C :   -0.061677
  33 C :    0.078967
  34 O :   -0.221881
  35 C :   -0.136483
  36 C :   -0.089798
  37 C :    0.085810
  38 O :   -0.171147
  39 N :   -0.004061
  40 C :    0.036937
  41 C :   -0.060658
  42 C :    0.096421
  43 C :   -0.065490
  44 C :    0.030192
  45 C :   -0.183112
  46 S :    0.472392
  47 C :   -0.181186
  48 C :   -0.069027
  49 C :   -0.043135
  50 C :   -0.028258
  51 C :    0.007131
  52 N :    0.273431
  53 O :   -0.195349
  54 O :   -0.169990
  55 C :    0.006287
  56 N :    0.273736
  57 O :   -0.180293
  58 O :   -0.186157
  59 C :   -0.037438
  60 C :   -0.203861
  61 S :    0.536488
  62 C :   -0.182770
  63 C :   -0.073110
  64 C :   -0.067829
  65 C :    0.044023
  66 F :   -0.047564
  67 C :    0.035144
  68 F :   -0.038811
  69 C :    0.027407
  70 F :   -0.038866
  71 C :    0.056371
  72 F :   -0.046548
  73 H :    0.039630
  74 H :    0.038381
  75 H :    0.034067
  76 H :    0.033266
  77 H :    0.032841
  78 H :    0.032005
  79 H :    0.053702
  80 H :    0.046323
  81 H :    0.029631
  82 H :    0.053804
  83 H :    0.018391
  84 H :    0.037092
  85 H :    0.024994
  86 H :    0.032920
  87 H :    0.030919
  88 H :    0.023842
  89 H :    0.038931
  90 H :    0.021633
  91 H :    0.031622
  92 H :    0.033945
  93 H :    0.023221
  94 H :    0.042386
  95 H :    0.052476
  96 H :    0.052505
  97 H :    0.058062
  98 H :    0.056663
  99 H :    0.025386
 100 H :    0.048670
 101 H :    0.034755

  Mayer bond orders larger than 0.100000
B(  0-C ,  1-C ) :   1.6564 B(  0-C ,  6-C ) :   1.0040 B(  0-C , 18-C ) :   1.0281
B(  1-C ,  2-C ) :   1.1351 B(  1-C ,  4-C ) :   1.1486 B(  2-C ,  3-N ) :   2.9900
B(  4-C ,  5-N ) :   3.0239 B(  6-C ,  7-C ) :   1.2153 B(  6-C , 11-C ) :   1.4607
B(  7-C ,  8-C ) :   1.4769 B(  7-C , 16-C ) :   0.9218 B(  8-C ,  9-C ) :   1.1854
B(  8-C , 73-H ) :   1.0157 B(  9-C , 10-C ) :   1.2593 B(  9-C , 15-C ) :   1.2455
B( 10-C , 11-C ) :   1.2043 B( 10-C , 12-C ) :   1.2409 B( 11-C , 74-H ) :   0.9938
B( 12-C , 13-C ) :   1.4897 B( 12-C , 75-H ) :   0.9975 B( 13-C , 14-C ) :   1.2612
B( 13-C , 76-H ) :   0.9887 B( 14-C , 15-C ) :   1.4901 B( 14-C , 77-H ) :   0.9886
B( 15-C , 78-H ) :   0.9974 B( 16-C , 17-O ) :   2.2729 B( 16-C , 18-C ) :   0.9337
B( 18-C , 19-C ) :   1.6533 B( 19-C , 20-C ) :   1.1322 B( 19-C , 79-H ) :   0.9469
B( 20-C , 21-S ) :   1.0974 B( 20-C , 24-C ) :   1.4325 B( 21-S , 22-C ) :   1.1617
B( 22-C , 23-C ) :   1.4181 B( 22-C , 27-C ) :   1.1655 B( 23-C , 24-C ) :   1.3040
B( 23-C , 25-C ) :   1.1081 B( 24-C , 80-H ) :   1.0083 B( 25-C , 26-N ) :   2.9983
B( 27-C , 28-C ) :   1.5791 B( 27-C , 81-H ) :   0.9493 B( 28-C , 29-C ) :   1.2008
B( 28-C , 82-H ) :   0.9371 B( 29-C , 30-N ) :   1.1524 B( 29-C , 36-C ) :   1.3610
B( 30-N , 31-C ) :   0.9429 B( 30-N , 33-C ) :   1.0803 B( 31-C , 32-C ) :   1.1165
B( 31-C , 83-H ) :   0.9496 B( 31-C , 84-H ) :   0.9233 B( 32-C , 85-H ) :   0.9661
B( 32-C , 86-H ) :   0.9670 B( 32-C , 87-H ) :   0.9627 B( 33-C , 34-O ) :   1.9653
B( 33-C , 35-C ) :   1.0155 B( 34-O , 94-H ) :   0.1240 B( 35-C , 36-C ) :   1.2566
B( 35-C , 42-C ) :   1.2914 B( 36-C , 37-C ) :   0.9586 B( 37-C , 38-O ) :   2.1560
B( 37-C , 39-N ) :   1.0205 B( 39-N , 40-C ) :   0.9423 B( 39-N , 42-C ) :   1.1785
B( 40-C , 41-C ) :   1.1205 B( 40-C , 88-H ) :   0.9504 B( 40-C , 89-H ) :   0.9284
B( 41-C , 90-H ) :   0.9687 B( 41-C , 91-H ) :   0.9681 B( 41-C , 92-H ) :   0.9643
B( 42-C , 43-C ) :   1.1823 B( 43-C , 44-C ) :   1.5465 B( 43-C , 93-H ) :   0.9704
B( 44-C , 45-C ) :   1.1837 B( 44-C , 94-H ) :   0.9380 B( 45-C , 46-S ) :   1.1134
B( 45-C , 47-C ) :   0.1079 B( 45-C , 49-C ) :   1.4587 B( 46-S , 47-C ) :   1.1680
B( 47-C , 48-C ) :   1.4990 B( 47-C , 60-C ) :   1.0797 B( 48-C , 49-C ) :   1.3369
B( 48-C , 59-C ) :   1.0285 B( 49-C , 50-C ) :   1.0383 B( 50-C , 51-C ) :   1.0409
B( 50-C , 95-H ) :   0.9017 B( 50-C , 96-H ) :   0.8831 B( 51-C , 52-N ) :   0.8235
B( 51-C , 55-C ) :   1.0229 B( 51-C , 97-H ) :   0.8912 B( 52-N , 53-O ) :   1.5488
B( 52-N , 54-O ) :   1.5940 B( 53-O , 54-O ) :   0.2720 B( 55-C , 56-N ) :   0.8236
B( 55-C , 59-C ) :   1.0453 B( 55-C , 98-H ) :   0.8927 B( 56-N , 57-O ) :   1.5827
B( 56-N , 58-O ) :   1.5614 B( 57-O , 58-O ) :   0.2715 B( 59-C , 99-H ) :   0.8828
B( 59-C ,100-H ) :   0.8974 B( 60-C , 61-S ) :   1.2036 B( 60-C , 62-C ) :   0.1205
B( 60-C , 64-C ) :   1.3967 B( 61-S , 62-C ) :   1.2178 B( 62-C , 63-C ) :   1.4386
B( 62-C ,101-H ) :   0.9770 B( 63-C , 64-C ) :   1.1920 B( 63-C , 71-C ) :   1.1118
B( 64-C , 65-C ) :   1.1103 B( 65-C , 66-F ) :   1.1626 B( 65-C , 67-C ) :   1.4546
B( 67-C , 68-F ) :   1.1576 B( 67-C , 69-C ) :   1.1224 B( 69-C , 70-F ) :   1.1693
B( 69-C , 71-C ) :   1.4472 B( 71-C , 72-F ) :   1.1953

-----------------------------------------------------------------------------
         ABSORPTION SPECTRUM VIA TRANSITION ELECTRIC DIPOLE MOMENTS
-----------------------------------------------------------------------------
State   Energy  Wavelength   fosc         T2         TX        TY        TZ
        (cm-1)    (nm)                  (au**2)     (au)      (au)      (au)
-----------------------------------------------------------------------------
   0   13216.1    756.7   1.380162167  34.37969  -1.91828   5.53259   0.30060
   1   19273.2    518.9   0.070516575   1.20452   1.02243  -0.35230  -0.18719
   2   22898.6    436.7   0.203414010   2.92448   1.25840  -0.97608  -0.62304
   3   23747.1    421.1   0.273597037   3.79294  -0.50287   1.87895  -0.09797
   4   24564.9    407.1   0.032085465   0.43000  -0.25159   0.58800  -0.14479
   5   25990.8    384.8   0.112244367   1.42174   0.45095   1.08101   0.22319
   6   26628.0    375.5   0.002226801   0.02753   0.05659  -0.15595  -0.00273
   7   27506.7    363.5   0.107332993   1.28461   0.19640  -1.05211  -0.37296
   8   27985.7    357.3   0.010888864   0.12809  -0.15700   0.31810   0.04748
   9   28282.9    353.6   0.135657150   1.57904   0.06206  -1.08771  -0.62616
  10   28542.3    350.4   0.006481461   0.07476   0.07462   0.26270  -0.01335
  11   28926.6    345.7   0.027291610   0.31060   0.05160   0.10658   0.54459
  12   29384.5    340.3   0.038950004   0.43638  -0.52019  -0.11359   0.39099
  13   29490.3    339.1   0.010034049   0.11201   0.31785  -0.04956  -0.09235
  14   29679.5    336.9   0.054305689   0.60237   0.29480   0.00651  -0.71793
  15   30274.3    330.3   0.106154462   1.15436  -0.28764   0.90716   0.49868
  16   31194.7    320.6   0.066168232   0.69830  -0.55735   0.34920   0.51548
  17   31922.9    313.3   0.001252195   0.01291   0.05238   0.09257  -0.04000
  18   32400.1    308.6   0.058255985   0.59193   0.49713   0.23699  -0.53724
  19   33070.6    302.4   0.097787685   0.97346  -0.23830   0.28279   0.91471
  20   33445.9    299.0   0.736623996   7.25067   1.28986   2.18973   0.88994
  21   34171.1    292.6   0.035284825   0.33994  -0.24997  -0.40259   0.33967
  22   34375.0    290.9   0.054184021   0.51892   0.41607   0.57200   0.13649
  23   34773.0    287.6   0.008687707   0.08225  -0.04255  -0.03972   0.28082
  24   34927.8    286.3   0.072095571   0.67954   0.71029  -0.13906  -0.39457
  25   35336.1    283.0   0.227003394   2.11490   1.19016  -0.40208  -0.73262
  26   35620.4    280.7   0.154128298   1.42449  -0.35046  -1.04448  -0.45904
  27   36081.8    277.1   0.039529328   0.36067  -0.49580  -0.15496   0.30140
  28   36630.6    273.0   0.000338375   0.00304   0.04410   0.02047  -0.02603
  29   36895.2    271.0   0.037914721   0.33831   0.26753  -0.17739  -0.48505
  30   37094.8    269.6   0.029424059   0.26114   0.32169   0.35626   0.17530
  31   37651.2    265.6   0.113251687   0.99024  -0.88920  -0.39306   0.21229
  32   38076.9    262.6   0.022599912   0.19540   0.43409   0.00293   0.08340
  33   38430.7    260.2   0.081178030   0.69540  -0.13584  -0.07649  -0.81921
  34   38855.5    257.4   0.206782511   1.75201  -0.48080   0.55686   1.10034
  35   38946.4    256.8   0.056363595   0.47644  -0.34879  -0.52535  -0.28069
  36   39104.8    255.7   0.042473288   0.35757   0.00893   0.38129   0.46055
  37   39565.6    252.7   0.059912475   0.49851  -0.20152  -0.67284  -0.07199
  38   39844.4    251.0   0.018144067   0.14991   0.29112  -0.24013  -0.08660

FINAL SINGLE POINT ENERGY     -4498.146575521706

DIPOLE MOMENT
-------------
                                X             Y             Z
Electronic contribution:    -34.38428      77.97429     -10.88746
Nuclear contribution   :     31.93408     -77.77790      10.88022
                        -----------------------------------------
Total Dipole Moment    :     -2.45020       0.19639      -0.00724
                        -----------------------------------------
Magnitude (a.u.)       :      2.45807
Magnitude (Debye)      :      6.24791

Rotational constants in cm-1:     0.001734     0.000241     0.000230
Rotational constants in MHz :    51.986394     7.233812     6.909547

                             ****ORCA TERMINATED NORMALLY****
TOTAL RUN TIME: 0 days 0 hours 9 minutes 58 seconds 486 msec
