                         Program Version 4.2.0 -  RELEASE  -
|  1> # ORCA input file
|  2> # SCF done       -155.817234323997          0.000953546387
|  3> ! CAM-B3LYP def2-SVP def2/J RIJCOSX Grid4 TightSCF
|  4> %maxcore 5000
|  5> %tddft
|  6>     Mode sTDDFT
|  7>     Ethresh 5.0
|  8>     maxcore 5000
|  9> end
| 10>
| 11> %pal
| 12>   nprocs 6
| 13>   end
| 14> * xyz 0 1
| 15>    C        3.07618         3.83322         1.31991
| 16>    C        3.27977         3.97754         2.66912
| 17>    C        4.36076         3.39727         3.36806
| 18>    N        5.21427         2.96004         3.99886
| 19>    C        2.46992         4.69298         3.57614
| 20>    N        1.87245         5.24139         4.39128
| 21>    C        3.91945         3.04725         0.42745
| 22>    C        3.35800         3.08920        -0.87976
| 23>    C        3.92502         2.43491        -1.93520
| 24>    C        5.10781         1.69140        -1.72859
| 25>    C        5.68063         1.64603        -0.42456
| 26>    C        5.06954         2.33466         0.64822
| 27>    C        6.86165         0.90127        -0.22829
| 28>    C        7.44808         0.23216        -1.26796
| 29>    C        6.88268         0.27767        -2.55115
| 30>    C        5.73736         0.99215        -2.77680
| 31>    C        2.13983         3.91294        -0.87010
| 32>    O        1.42685         4.13896        -1.82566
| 33>    C        1.99002         4.39564         0.52657
| 34>    C        1.04846         5.24119         1.03730
| 35>    C       -0.07495         5.87382         0.45950
| 36>    S       -1.00480         6.90169         1.53317
| 37>    C       -2.13707         7.29359         0.29146
| 38>    C       -1.79230         6.64798        -0.90429
| 39>    C       -0.64080         5.85708        -0.80150
| 40>    C       -2.51344         6.76272        -2.10584
| 41>    N       -3.08568         6.84120        -3.09690
| 42>    C       -3.21337         8.15506         0.62400
| 43>    C       -4.21542         8.55949        -0.19304
| 44>    C       -5.25738         9.40935         0.28076
| 45>    S       -6.56393         9.92478        -0.74148
| 46>    C       -7.31276        10.82165         0.55308
| 47>    C       -8.56267        11.55567         0.33711
| 48>    O       -9.10756        12.19034         1.20275
| 49>    O       -9.09236        11.49558        -0.89641
| 50>    C       -6.56327        10.71341         1.71979
| 51>    C       -5.41086         9.91864         1.54427
| 52>    C       -6.77981        11.25269         3.03639
| 53>    O       -5.83120        10.89950         3.93547
| 54>    C       -6.18223        11.47099         5.09323
| 55>    N       -7.29220        12.16814         4.99729
| 56>    C       -7.68741        12.04621         3.71318
| 57>    C       -5.31104        11.22214         6.19371
| 58>    N       -5.48572        11.65860         7.47492
| 59>    C       -6.55478        12.50514         7.94629
| 60>    C       -6.30286        13.96945         7.60134
| 61>    C       -4.43835        11.22060         8.31383
| 62>    O       -4.38359        11.48197         9.49805
| 63>    C       -3.57488        10.45406         7.44261
| 64>    C       -4.14695        10.47135         6.13686
| 65>    C       -3.28242         9.71699         5.25933
| 66>    O       -3.33798         9.44829         4.07209
| 67>    N       -2.23045         9.29775         6.09195
| 68>    C       -1.13991         8.50464         5.57276
| 69>    C       -1.29796         7.01911         5.88511
| 70>    C       -2.39726         9.72396         7.39003
| 71>    C       -1.46455         9.43352         8.44137
| 72>    C       -1.64490         9.84092         9.69956
| 73>    H        3.47458         2.48472        -2.91544
| 74>    H        5.53202         2.27925         1.62047
| 75>    H        7.29383         0.86932         0.76106
| 76>    H        8.35213        -0.33575        -1.10742
| 77>    H        7.35854        -0.25679        -3.35962
| 78>    H        5.29680         1.03054        -3.76227
| 79>    H        1.16072         5.49206         2.08500
| 80>    H       -0.23222         5.29059        -1.61939
| 81>    H       -3.20462         8.49767         1.65012
| 82>    H       -4.26048         8.24250        -1.22463
| 83>    H       -8.57697        10.96321        -1.51719
| 84>    H       -4.72089         9.73736         2.34906
| 85>    H       -8.57378        12.51720         3.34556
| 86>    H       -6.59260        12.37494         9.03103
| 87>    H       -7.49122        12.17376         7.49315
| 88>    H       -5.35129        14.29675         8.01375
| 89>    H       -7.09514        14.58306         8.01936
| 90>    H       -6.29315        14.10257         6.52295
| 91>    H       -0.19396         8.88375         5.96804
| 92>    H       -1.14825         8.65141         4.48885
| 93>    H       -1.34801         6.85024         6.95834
| 94>    H       -0.45087         6.46965         5.48341
| 95>    H       -2.21059         6.63769         5.43342
| 96>    H       -0.58831         8.85988         8.17363
| 97>    H       -2.51124        10.41140         9.99023
| 98>    H       -0.92771         9.60790        10.46766
| 99> *
|100>
|101>                          ****END OF INPUT****

CARTESIAN COORDINATES (ANGSTROEM)
---------------------------------
  C      3.076180    3.833220    1.319910
  C      3.279770    3.977540    2.669120
  C      4.360760    3.397270    3.368060
  N      5.214270    2.960040    3.998860
  C      2.469920    4.692980    3.576140
  N      1.872450    5.241390    4.391280
  C      3.919450    3.047250    0.427450
  C      3.358000    3.089200   -0.879760
  C      3.925020    2.434910   -1.935200
  C      5.107810    1.691400   -1.728590
  C      5.680630    1.646030   -0.424560
  C      5.069540    2.334660    0.648220
  C      6.861650    0.901270   -0.228290
  C      7.448080    0.232160   -1.267960
  C      6.882680    0.277670   -2.551150
  C      5.737360    0.992150   -2.776800
  C      2.139830    3.912940   -0.870100
  O      1.426850    4.138960   -1.825660
  C      1.990020    4.395640    0.526570
  C      1.048460    5.241190    1.037300
  C     -0.074950    5.873820    0.459500
  S     -1.004800    6.901690    1.533170
  C     -2.137070    7.293590    0.291460
  C     -1.792300    6.647980   -0.904290
  C     -0.640800    5.857080   -0.801500
  C     -2.513440    6.762720   -2.105840
  N     -3.085680    6.841200   -3.096900
  C     -3.213370    8.155060    0.624000
  C     -4.215420    8.559490   -0.193040
  C     -5.257380    9.409350    0.280760
  S     -6.563930    9.924780   -0.741480
  C     -7.312760   10.821650    0.553080
  C     -8.562670   11.555670    0.337110
  O     -9.107560   12.190340    1.202750
  O     -9.092360   11.495580   -0.896410
  C     -6.563270   10.713410    1.719790
  C     -5.410860    9.918640    1.544270
  C     -6.779810   11.252690    3.036390
  O     -5.831200   10.899500    3.935470
  C     -6.182230   11.470990    5.093230
  N     -7.292200   12.168140    4.997290
  C     -7.687410   12.046210    3.713180
  C     -5.311040   11.222140    6.193710
  N     -5.485720   11.658600    7.474920
  C     -6.554780   12.505140    7.946290
  C     -6.302860   13.969450    7.601340
  C     -4.438350   11.220600    8.313830
  O     -4.383590   11.481970    9.498050
  C     -3.574880   10.454060    7.442610
  C     -4.146950   10.471350    6.136860
  C     -3.282420    9.716990    5.259330
  O     -3.337980    9.448290    4.072090
  N     -2.230450    9.297750    6.091950
  C     -1.139910    8.504640    5.572760
  C     -1.297960    7.019110    5.885110
  C     -2.397260    9.723960    7.390030
  C     -1.464550    9.433520    8.441370
  C     -1.644900    9.840920    9.699560
  H      3.474580    2.484720   -2.915440
  H      5.532020    2.279250    1.620470
  H      7.293830    0.869320    0.761060
  H      8.352130   -0.335750   -1.107420
  H      7.358540   -0.256790   -3.359620
  H      5.296800    1.030540   -3.762270
  H      1.160720    5.492060    2.085000
  H     -0.232220    5.290590   -1.619390
  H     -3.204620    8.497670    1.650120
  H     -4.260480    8.242500   -1.224630
  H     -8.576970   10.963210   -1.517190
  H     -4.720890    9.737360    2.349060
  H     -8.573780   12.517200    3.345560
  H     -6.592600   12.374940    9.031030
  H     -7.491220   12.173760    7.493150
  H     -5.351290   14.296750    8.013750
  H     -7.095140   14.583060    8.019360
  H     -6.293150   14.102570    6.522950
  H     -0.193960    8.883750    5.968040
  H     -1.148250    8.651410    4.488850
  H     -1.348010    6.850240    6.958340
  H     -0.450870    6.469650    5.483410
  H     -2.210590    6.637690    5.433420
  H     -0.588310    8.859880    8.173630
  H     -2.511240   10.411400    9.990230
  H     -0.927710    9.607900   10.467660

 Total Charge           Charge          ....    0
 Multiplicity           Mult            ....    1
 Number of Electrons    NEL             ....  412
 Basis Dimension        Dim             ....  950

ORBITAL ENERGIES
----------------

  NO   OCC          E(Eh)            E(eV)
   0   2.0000     -88.988698     -2421.5056
   1   2.0000     -88.983232     -2421.3568
   2   2.0000     -19.308991      -525.4243
   3   2.0000     -19.265196      -524.2326
   4   2.0000     -19.226588      -523.1820
   5   2.0000     -19.204508      -522.5812
   6   2.0000     -19.199880      -522.4553
   7   2.0000     -19.189396      -522.1700
   8   2.0000     -14.457581      -393.4108
   9   2.0000     -14.455967      -393.3668
  10   2.0000     -14.429947      -392.6588
  11   2.0000     -14.420633      -392.4054
  12   2.0000     -14.420129      -392.3917
  13   2.0000     -14.417851      -392.3297
  14   2.0000     -10.414618      -283.3962
  15   2.0000     -10.382543      -282.5234
  16   2.0000     -10.377177      -282.3773
  17   2.0000     -10.376821      -282.3676
  18   2.0000     -10.373940      -282.2893
  19   2.0000     -10.350128      -281.6413
  20   2.0000     -10.349350      -281.6201
  21   2.0000     -10.349163      -281.6151
  22   2.0000     -10.348226      -281.5895
  23   2.0000     -10.347065      -281.5579
  24   2.0000     -10.342614      -281.4368
  25   2.0000     -10.334590      -281.2185
  26   2.0000     -10.333185      -281.1803
  27   2.0000     -10.331748      -281.1412
  28   2.0000     -10.327750      -281.0324
  29   2.0000     -10.327700      -281.0310
  30   2.0000     -10.324209      -280.9360
  31   2.0000     -10.323920      -280.9281
  32   2.0000     -10.318771      -280.7880
  33   2.0000     -10.316641      -280.7301
  34   2.0000     -10.313103      -280.6338
  35   2.0000     -10.310512      -280.5633
  36   2.0000     -10.309495      -280.5356
  37   2.0000     -10.309364      -280.5321
  38   2.0000     -10.309081      -280.5244
  39   2.0000     -10.305730      -280.4332
  40   2.0000     -10.304318      -280.3947
  41   2.0000     -10.303305      -280.3672
  42   2.0000     -10.303134      -280.3625
  43   2.0000     -10.302863      -280.3551
  44   2.0000     -10.302235      -280.3381
  45   2.0000     -10.295643      -280.1587
  46   2.0000     -10.294317      -280.1226
  47   2.0000     -10.291740      -280.0525
  48   2.0000     -10.291089      -280.0348
  49   2.0000     -10.290905      -280.0298
  50   2.0000     -10.290453      -280.0175
  51   2.0000     -10.288997      -279.9778
  52   2.0000     -10.286575      -279.9119
  53   2.0000     -10.281559      -279.7754
  54   2.0000     -10.268882      -279.4305
  55   2.0000     -10.260966      -279.2151
  56   2.0000     -10.259049      -279.1629
  57   2.0000     -10.249200      -278.8949
  58   2.0000      -8.084214      -219.9826
  59   2.0000      -8.078892      -219.8378
  60   2.0000      -6.053263      -164.7177
  61   2.0000      -6.049208      -164.6073
  62   2.0000      -6.048089      -164.5769
  63   2.0000      -6.046651      -164.5377
  64   2.0000      -6.044052      -164.4670
  65   2.0000      -6.041125      -164.3874
  66   2.0000      -1.246725       -33.9251
  67   2.0000      -1.189521       -32.3685
  68   2.0000      -1.141248       -31.0549
  69   2.0000      -1.137400       -30.9502
  70   2.0000      -1.128379       -30.7048
  71   2.0000      -1.103065       -30.0159
  72   2.0000      -1.067396       -29.0453
  73   2.0000      -1.058658       -28.8075
  74   2.0000      -1.028670       -27.9915
  75   2.0000      -1.025028       -27.8924
  76   2.0000      -1.023295       -27.8453
  77   2.0000      -1.007664       -27.4199
  78   2.0000      -1.007213       -27.4077
  79   2.0000      -1.001630       -27.2557
  80   2.0000      -0.997665       -27.1478
  81   2.0000      -0.977894       -26.6098
  82   2.0000      -0.937625       -25.5141
  83   2.0000      -0.930217       -25.3125
  84   2.0000      -0.927622       -25.2419
  85   2.0000      -0.915668       -24.9166
  86   2.0000      -0.906732       -24.6734
  87   2.0000      -0.893631       -24.3169
  88   2.0000      -0.890250       -24.2249
  89   2.0000      -0.886572       -24.1248
  90   2.0000      -0.877088       -23.8668
  91   2.0000      -0.868906       -23.6441
  92   2.0000      -0.856790       -23.3144
  93   2.0000      -0.854159       -23.2428
  94   2.0000      -0.834162       -22.6987
  95   2.0000      -0.824556       -22.4373
  96   2.0000      -0.816282       -22.2122
  97   2.0000      -0.801658       -21.8142
  98   2.0000      -0.794660       -21.6238
  99   2.0000      -0.777677       -21.1617
 100   2.0000      -0.770161       -20.9572
 101   2.0000      -0.756807       -20.5938
 102   2.0000      -0.755270       -20.5519
 103   2.0000      -0.741465       -20.1763
 104   2.0000      -0.737408       -20.0659
 105   2.0000      -0.726869       -19.7791
 106   2.0000      -0.710750       -19.3405
 107   2.0000      -0.706477       -19.2242
 108   2.0000      -0.705045       -19.1852
 109   2.0000      -0.702512       -19.1163
 110   2.0000      -0.695934       -18.9373
 111   2.0000      -0.689909       -18.7734
 112   2.0000      -0.686606       -18.6835
 113   2.0000      -0.674997       -18.3676
 114   2.0000      -0.665864       -18.1191
 115   2.0000      -0.663981       -18.0678
 116   2.0000      -0.657155       -17.8821
 117   2.0000      -0.646182       -17.5835
 118   2.0000      -0.642260       -17.4768
 119   2.0000      -0.641278       -17.4501
 120   2.0000      -0.623047       -16.9540
 121   2.0000      -0.613192       -16.6858
 122   2.0000      -0.610343       -16.6083
 123   2.0000      -0.602933       -16.4066
 124   2.0000      -0.599849       -16.3227
 125   2.0000      -0.592817       -16.1314
 126   2.0000      -0.589399       -16.0384
 127   2.0000      -0.585694       -15.9375
 128   2.0000      -0.572869       -15.5885
 129   2.0000      -0.568966       -15.4824
 130   2.0000      -0.565749       -15.3948
 131   2.0000      -0.562995       -15.3199
 132   2.0000      -0.555637       -15.1197
 133   2.0000      -0.553032       -15.0488
 134   2.0000      -0.551652       -15.0112
 135   2.0000      -0.546463       -14.8700
 136   2.0000      -0.545441       -14.8422
 137   2.0000      -0.544770       -14.8240
 138   2.0000      -0.542124       -14.7519
 139   2.0000      -0.534102       -14.5337
 140   2.0000      -0.530603       -14.4384
 141   2.0000      -0.527071       -14.3423
 142   2.0000      -0.526453       -14.3255
 143   2.0000      -0.523990       -14.2585
 144   2.0000      -0.522276       -14.2119
 145   2.0000      -0.521431       -14.1889
 146   2.0000      -0.519194       -14.1280
 147   2.0000      -0.517761       -14.0890
 148   2.0000      -0.513200       -13.9649
 149   2.0000      -0.509785       -13.8719
 150   2.0000      -0.505629       -13.7589
 151   2.0000      -0.505129       -13.7453
 152   2.0000      -0.503321       -13.6961
 153   2.0000      -0.502411       -13.6713
 154   2.0000      -0.493957       -13.4412
 155   2.0000      -0.492140       -13.3918
 156   2.0000      -0.491387       -13.3713
 157   2.0000      -0.488759       -13.2998
 158   2.0000      -0.482014       -13.1163
 159   2.0000      -0.475309       -12.9338
 160   2.0000      -0.473107       -12.8739
 161   2.0000      -0.470382       -12.7997
 162   2.0000      -0.465588       -12.6693
 163   2.0000      -0.464193       -12.6313
 164   2.0000      -0.463339       -12.6081
 165   2.0000      -0.461120       -12.5477
 166   2.0000      -0.454736       -12.3740
 167   2.0000      -0.453385       -12.3372
 168   2.0000      -0.451201       -12.2778
 169   2.0000      -0.449215       -12.2238
 170   2.0000      -0.446046       -12.1375
 171   2.0000      -0.445548       -12.1240
 172   2.0000      -0.444888       -12.1060
 173   2.0000      -0.441570       -12.0157
 174   2.0000      -0.440503       -11.9867
 175   2.0000      -0.438804       -11.9405
 176   2.0000      -0.437084       -11.8937
 177   2.0000      -0.435910       -11.8617
 178   2.0000      -0.434542       -11.8245
 179   2.0000      -0.433896       -11.8069
 180   2.0000      -0.428359       -11.6562
 181   2.0000      -0.426996       -11.6192
 182   2.0000      -0.422671       -11.5015
 183   2.0000      -0.415731       -11.3126
 184   2.0000      -0.414709       -11.2848
 185   2.0000      -0.412794       -11.2327
 186   2.0000      -0.408714       -11.1217
 187   2.0000      -0.405656       -11.0385
 188   2.0000      -0.398266       -10.8374
 189   2.0000      -0.384621       -10.4661
 190   2.0000      -0.375744       -10.2245
 191   2.0000      -0.373246       -10.1565
 192   2.0000      -0.364079        -9.9071
 193   2.0000      -0.360453        -9.8084
 194   2.0000      -0.353080        -9.6078
 195   2.0000      -0.351594        -9.5674
 196   2.0000      -0.347967        -9.4687
 197   2.0000      -0.347071        -9.4443
 198   2.0000      -0.334352        -9.0982
 199   2.0000      -0.329626        -8.9696
 200   2.0000      -0.322075        -8.7641
 201   2.0000      -0.315963        -8.5978
 202   2.0000      -0.304422        -8.2838
 203   2.0000      -0.299571        -8.1517
 204   2.0000      -0.274980        -7.4826
 205   2.0000      -0.247515        -6.7352
 206   0.0000      -0.108928        -2.9641
 207   0.0000      -0.080070        -2.1788
 208   0.0000      -0.071360        -1.9418
 209   0.0000      -0.059224        -1.6116
 210   0.0000      -0.028738        -0.7820

MULLIKEN ATOMIC CHARGES
-----------------------
   0 C :    0.329740
   1 C :   -0.365412
   2 C :   -0.183295
   3 N :    0.149341
   4 C :   -0.179103
   5 N :    0.154927
   6 C :    0.046629
   7 C :   -0.003164
   8 C :   -0.079965
   9 C :    0.098728
  10 C :    0.095884
  11 C :   -0.080435
  12 C :   -0.018192
  13 C :    0.036520
  14 C :    0.038858
  15 C :   -0.016403
  16 C :    0.162680
  17 O :   -0.153706
  18 C :   -0.083634
  19 C :    0.058640
  20 C :   -0.103524
  21 S :    0.174135
  22 C :   -0.035264
  23 C :   -0.090947
  24 C :    0.031778
  25 C :   -0.168330
  26 N :    0.125127
  27 C :    0.035997
  28 C :    0.052723
  29 C :   -0.044879
  30 S :    0.113395
  31 C :   -0.229886
  32 C :    0.189052
  33 O :   -0.175724
  34 O :   -0.157503
  35 C :    0.110644
  36 C :   -0.035445
  37 C :    0.163176
  38 O :   -0.168729
  39 C :    0.033697
  40 N :   -0.065629
  41 C :   -0.031686
  42 C :    0.082985
  43 N :   -0.247719
  44 C :    0.119805
  45 C :    0.002846
  46 C :    0.166616
  47 O :   -0.199934
  48 C :   -0.070935
  49 C :   -0.041208
  50 C :    0.166890
  51 O :   -0.199479
  52 N :   -0.263988
  53 C :    0.097375
  54 C :   -0.000588
  55 C :    0.114810
  56 C :   -0.037991
  57 C :    0.017311
  58 H :   -0.011251
  59 H :   -0.008036
  60 H :   -0.008104
  61 H :   -0.003058
  62 H :   -0.002924
  63 H :   -0.015916
  64 H :   -0.003132
  65 H :    0.026674
  66 H :    0.010647
  67 H :    0.004743
  68 H :    0.180434
  69 H :    0.024017
  70 H :    0.030053
  71 H :    0.036228
  72 H :    0.033878
  73 H :    0.018509
  74 H :    0.019826
  75 H :    0.022031
  76 H :    0.028303
  77 H :    0.027850
  78 H :    0.014711
  79 H :    0.036622
  80 H :    0.018759
  81 H :   -0.012249
  82 H :    0.059366
  83 H :    0.034410
Sum of atomic charges:    0.0000000

LOEWDIN ATOMIC CHARGES
----------------------
   0 C :    0.080924
   1 C :   -0.144468
   2 C :   -0.017177
   3 N :   -0.052687
   4 C :   -0.014115
   5 N :   -0.059328
   6 C :   -0.027925
   7 C :   -0.055905
   8 C :    0.033973
   9 C :   -0.007287
  10 C :   -0.006157
  11 C :    0.022090
  12 C :   -0.004359
  13 C :   -0.011961
  14 C :   -0.009760
  15 C :   -0.008944
  16 C :    0.088899
  17 O :   -0.140980
  18 C :   -0.091160
  19 C :    0.046200
  20 C :   -0.182759
  21 S :    0.492640
  22 C :   -0.115392
  23 C :   -0.113579
  24 C :    0.024330
  25 C :   -0.025172
  26 N :   -0.054037
  27 C :   -0.037569
  28 C :   -0.001503
  29 C :   -0.157721
  30 S :    0.440603
  31 C :   -0.231673
  32 C :    0.068438
  33 O :   -0.157590
  34 O :   -0.030882
  35 C :   -0.034231
  36 C :   -0.023678
  37 C :    0.025621
  38 O :    0.047514
  39 C :    0.029997
  40 N :   -0.084957
  41 C :   -0.004063
  42 C :    0.048600
  43 N :    0.013505
  44 C :    0.038174
  45 C :   -0.060013
  46 C :    0.082604
  47 O :   -0.194388
  48 C :   -0.128923
  49 C :   -0.113147
  50 C :    0.091518
  51 O :   -0.209630
  52 N :    0.000751
  53 C :    0.036397
  54 C :   -0.063548
  55 C :    0.089309
  56 C :   -0.054992
  57 C :    0.032424
  58 H :    0.039749
  59 H :    0.039329
  60 H :    0.035231
  61 H :    0.033998
  62 H :    0.033722
  63 H :    0.032602
  64 H :    0.041107
  65 H :    0.043213
  66 H :    0.039664
  67 H :    0.038826
  68 H :    0.076304
  69 H :    0.035719
  70 H :    0.031912
  71 H :    0.033062
  72 H :    0.028465
  73 H :    0.025816
  74 H :    0.030636
  75 H :    0.022669
  76 H :    0.025608
  77 H :    0.028685
  78 H :    0.022651
  79 H :    0.033530
  80 H :    0.027456
  81 H :    0.031974
  82 H :    0.033741
  83 H :    0.031483

  Mayer bond orders larger than 0.100000
B(  0-C ,  1-C ) :   1.6115 B(  0-C ,  6-C ) :   0.9863 B(  0-C , 18-C ) :   1.0796
B(  1-C ,  2-C ) :   1.1513 B(  1-C ,  4-C ) :   1.1371 B(  2-C ,  3-N ) :   2.9617
B(  4-C ,  5-N ) :   2.9619 B(  6-C ,  7-C ) :   1.2147 B(  6-C , 11-C ) :   1.4438
B(  7-C ,  8-C ) :   1.4676 B(  7-C , 16-C ) :   0.9566 B(  8-C ,  9-C ) :   1.1774
B(  8-C , 58-H ) :   1.0169 B(  9-C , 10-C ) :   1.2554 B(  9-C , 15-C ) :   1.2435
B( 10-C , 11-C ) :   1.2078 B( 10-C , 12-C ) :   1.2399 B( 11-C , 59-H ) :   0.9894
B( 12-C , 13-C ) :   1.4876 B( 12-C , 60-H ) :   0.9974 B( 13-C , 14-C ) :   1.2605
B( 13-C , 61-H ) :   0.9889 B( 14-C , 15-C ) :   1.4869 B( 14-C , 62-H ) :   0.9892
B( 15-C , 63-H ) :   0.9984 B( 16-C , 17-O ) :   2.1702 B( 16-C , 18-C ) :   0.9306
B( 18-C , 19-C ) :   1.6158 B( 19-C , 20-C ) :   1.1959 B( 19-C , 64-H ) :   0.9003
B( 20-C , 21-S ) :   1.0981 B( 20-C , 24-C ) :   1.4343 B( 21-S , 22-C ) :   1.1899
B( 22-C , 23-C ) :   1.3974 B( 22-C , 27-C ) :   1.1537 B( 23-C , 24-C ) :   1.2984
B( 23-C , 25-C ) :   1.1208 B( 24-C , 65-H ) :   0.9837 B( 25-C , 26-N ) :   2.9726
B( 27-C , 28-C ) :   1.6926 B( 27-C , 66-H ) :   0.9346 B( 28-C , 29-C ) :   1.1126
B( 28-C , 67-H ) :   0.9602 B( 29-C , 30-S ) :   1.1284 B( 29-C , 36-C ) :   1.4789
B( 30-S , 31-C ) :   1.0923 B( 31-C , 32-C ) :   0.9491 B( 31-C , 35-C ) :   1.4947
B( 32-C , 33-O ) :   2.1315 B( 32-C , 34-O ) :   1.2480 B( 34-O , 68-H ) :   0.9485
B( 35-C , 36-C ) :   1.2743 B( 35-C , 37-C ) :   1.0098 B( 36-C , 69-H ) :   0.9715
B( 37-C , 38-O ) :   1.1369 B( 37-C , 39-C ) :   0.1234 B( 37-C , 41-C ) :   1.4871
B( 38-O , 39-C ) :   1.2649 B( 39-C , 40-N ) :   1.6255 B( 39-C , 42-C ) :   1.0412
B( 40-N , 41-C ) :   1.3463 B( 41-C , 70-H ) :   0.9811 B( 42-C , 43-N ) :   1.2337
B( 42-C , 49-C ) :   1.3839 B( 43-N , 44-C ) :   0.9335 B( 43-N , 46-C ) :   1.0358
B( 44-C , 45-C ) :   1.1247 B( 44-C , 71-H ) :   0.9311 B( 44-C , 72-H ) :   0.9397
B( 45-C , 73-H ) :   0.9663 B( 45-C , 74-H ) :   0.9676 B( 45-C , 75-H ) :   0.9653
B( 46-C , 47-O ) :   2.0587 B( 46-C , 48-C ) :   0.9856 B( 48-C , 49-C ) :   1.2175
B( 48-C , 55-C ) :   1.3777 B( 49-C , 50-C ) :   0.9698 B( 50-C , 51-O ) :   2.0177
B( 50-C , 52-N ) :   1.0656 B( 52-N , 53-C ) :   0.9354 B( 52-N , 55-C ) :   1.1659
B( 53-C , 54-C ) :   1.1227 B( 53-C , 76-H ) :   0.9499 B( 53-C , 77-H ) :   0.9292
B( 54-C , 78-H ) :   0.9671 B( 54-C , 79-H ) :   0.9604 B( 54-C , 80-H ) :   0.9614
B( 55-C , 56-C ) :   1.1281 B( 56-C , 57-C ) :   1.8847 B( 56-C , 81-H ) :   0.9545
B( 57-C , 82-H ) :   0.9265 B( 57-C , 83-H ) :   0.9445

-----------------------------------------------------------------------------
         ABSORPTION SPECTRUM VIA TRANSITION ELECTRIC DIPOLE MOMENTS
-----------------------------------------------------------------------------
State   Energy  Wavelength   fosc         T2         TX        TY        TZ
        (cm-1)    (nm)                  (au**2)     (au)      (au)      (au)
-----------------------------------------------------------------------------
   0   17845.1    560.4   0.069684881   1.28557  -0.90659   0.43122  -0.52698
   1   19672.0    508.3   0.133877239   2.24044  -0.77425   0.94469   0.86518
   2   21105.2    473.8   1.810720378  28.24471   4.44086  -2.82567   0.73419
   3   25780.4    387.9   0.074848496   0.95581   0.67569  -0.55150  -0.44170
   4   25813.6    387.4   0.065835539   0.83963  -0.66782   0.51996   0.35112
   5   27836.3    359.2   0.095287100   1.12693   0.83577  -0.60974  -0.23799
   6   27917.3    358.2   0.030544758   0.36020  -0.40628   0.34899   0.27082
   7   28131.1    355.5   0.005447074   0.06375   0.21109  -0.12297  -0.06375
   8   28411.2    352.0   0.024186179   0.28026   0.11137  -0.20683  -0.47442
   9   29238.9    342.0   0.223114351   2.51213  -0.95360   0.82478   0.96048
  10   29615.5    337.7   0.468902101   5.21242  -0.34257   0.81963   2.10316
  11   30405.2    328.9   0.008462434   0.09163  -0.16214   0.23636   0.09732
  12   30704.0    325.7   0.000849351   0.00911   0.05492  -0.03443  -0.07004
  13   31211.1    320.4   0.030890661   0.32583  -0.07640  -0.13744  -0.54873
  14   31875.0    313.7   0.215956128   2.23044  -1.13076   0.53598  -0.81520
  15   32626.8    306.5   0.170320044   1.71857  -0.07624   0.33145   1.26606
  16   33063.5    302.4   0.162690394   1.61990   1.08994  -0.65645   0.03164
  17   33222.6    301.0   0.053007638   0.52527   0.16063  -0.28343  -0.64740
  18   33476.4    298.7   0.580243530   5.70621  -0.89619   1.12672   1.90619
  19   34013.9    294.0   0.000576942   0.00558   0.01868  -0.05161  -0.05071
  20   34048.2    293.7   0.000733784   0.00709   0.00731  -0.01277  -0.08294
  21   34426.9    290.5   0.020398602   0.19506   0.06430  -0.17529  -0.40026
  22   35837.5    279.0   0.000034288   0.00031   0.00335   0.01557   0.00783
  23   37014.1    270.2   0.030043354   0.26721   0.21276  -0.27234  -0.38442
  24   37528.1    266.5   0.021571100   0.18923  -0.19387   0.02411  -0.38867
  25   37821.2    264.4   0.039925174   0.34753   0.31332  -0.08919   0.49132
  26   38806.6    257.7   0.136306455   1.15634   0.22119   0.10666   1.04692
  27   39588.5    252.6   0.076339148   0.63482  -0.43631   0.20750  -0.63356
  28   39775.2    251.4   0.135980542   1.12549   0.38661   0.01977   0.98774
  29   40061.2    249.6   0.023308338   0.19154   0.14033  -0.19340  -0.36667

FINAL SINGLE POINT ENERGY     -3265.242838932413

DIPOLE MOMENT
-------------
                                X             Y             Z
Electronic contribution:     -7.96405      -5.32637     -29.65342
Nuclear contribution   :     10.30212       3.67252      28.36355
                        -----------------------------------------
Total Dipole Moment    :      2.33807      -1.65384      -1.28987
                        -----------------------------------------
Magnitude (a.u.)       :      3.14094
Magnitude (Debye)      :      7.98364

Rotational constants in cm-1:     0.002155     0.000566     0.000450
Rotational constants in MHz :    64.606889    16.978883    13.488395

                             ****ORCA TERMINATED NORMALLY****
TOTAL RUN TIME: 0 days 0 hours 7 minutes 2 seconds 665 msec
