                         Program Version 4.2.0 -  RELEASE  -
|  1> # ORCA input file
|  2> # SCF done       -195.401208643094          0.000955722206
|  3> ! CAM-B3LYP def2-SVP def2/J RIJCOSX Grid4 TightSCF
|  4> %maxcore 5000
|  5> %tddft
|  6>     Mode sTDDFT
|  7>     Ethresh 5.0
|  8>     maxcore 5000
|  9> end
| 10>
| 11> %pal
| 12>   nprocs 6
| 13>   end
| 14> * xyz 0 1
| 15>    C        1.61739         6.90750        -2.00846
| 16>    C        1.62860         7.70807        -0.89830
| 17>    C        2.73269         8.50025        -0.52281
| 18>    N        3.62444         9.13574        -0.17841
| 19>    C        0.52250         7.87847        -0.03951
| 20>    N       -0.36716         8.08972         0.65308
| 21>    C        2.65105         6.84651        -3.03426
| 22>    C        2.12875         6.16696        -4.17320
| 23>    C        2.88885         5.93639        -5.28363
| 24>    C        4.21956         6.40953        -5.31909
| 25>    C        4.73684         7.12115        -4.19888
| 26>    C        3.93669         7.31891        -3.05178
| 27>    C        6.05068         7.62935        -4.26502
| 28>    C        6.82056         7.44001        -5.38007
| 29>    C        6.31879         6.71732        -6.47331
| 30>    C        5.04627         6.21431        -6.44345
| 31>    C        0.73055         5.78097        -3.91756
| 32>    O       -0.04863         5.24483        -4.66576
| 33>    C        0.50143         6.10026        -2.46996
| 34>    C       -0.51831         5.49808        -1.81844
| 35>    C       -0.66538         5.28880        -0.39283
| 36>    C       -1.90018         5.49019         0.22146
| 37>    C       -3.19777         5.88014        -0.37438
| 38>    O       -3.47511         6.04581        -1.52847
| 39>    O       -4.09075         5.99971         0.63259
| 40>    C       -3.49238         5.75412         1.89546
| 41>    C       -2.07061         5.40507         1.59633
| 42>    C       -1.01101         5.08233         2.42405
| 43>    C        0.21111         4.81967         1.83238
| 44>    C        0.39543         4.89242         0.44834
| 45>    C        1.72177         4.63373        -0.08750
| 46>    N        1.99876         3.88892        -1.20942
| 47>    C        1.15204         2.88905        -1.81496
| 48>    C        0.78665         1.78819        -0.82541
| 49>    C        3.34849         4.02803        -1.59563
| 50>    O        3.81400         3.48704        -2.58270
| 51>    C        3.92074         4.90227        -0.60537
| 52>    C        2.89642         5.21509         0.33738
| 53>    C        3.44460         6.14267         1.30656
| 54>    O        2.96823         6.65825         2.29289
| 55>    N        4.76654         6.35012         0.86923
| 56>    C        5.65464         7.23611         1.58168
| 57>    C        6.67539         6.46852         2.41678
| 58>    C        5.05281         5.63978        -0.27310
| 59>    C        6.27259         5.74712        -0.99085
| 60>    C        6.48081         5.05353        -2.13848
| 61>    C        7.62835         5.15819        -2.96413
| 62>    S        7.68627         4.24432        -4.44211
| 63>    C        9.24017         4.89421        -4.86139
| 64>    C        9.67397         5.78978        -3.87689
| 65>    C        8.76519         5.92988        -2.81953
| 66>    C       10.84823         6.56355        -3.93139
| 67>    N       11.76148         7.25705        -3.92191
| 68>    C        9.86681         4.48108        -6.06164
| 69>    C       11.16786         4.69426        -6.39429
| 70>    C       11.69013         4.22941        -7.62501
| 71>    C       13.01001         4.24835        -7.96984
| 72>    C       13.58729         3.81346        -9.22927
| 73>    C       12.90569         3.45869       -10.36522
| 74>    C       13.52585         3.05016       -11.56485
| 75>    N       13.96448         2.70650       -12.56864
| 76>    C       11.50366         3.46875       -10.51549
| 77>    N       10.37291         3.46034       -10.71884
| 78>    C       15.03841         3.86226        -9.09381
| 79>    C       15.35997         4.37262        -7.80354
| 80>    C       14.11992         4.64194        -7.05624
| 81>    O       14.03212         5.05818        -5.92197
| 82>    C       16.65129         4.53451        -7.39175
| 83>    C       17.70281         4.17947        -8.26573
| 84>    C       17.39050         3.66102        -9.55586
| 85>    C       16.04334         3.51070        -9.95673
| 86>    C       18.44735         3.30026       -10.41656
| 87>    C       19.75011         3.44319       -10.02329
| 88>    C       20.05629         3.95503        -8.75337
| 89>    C       19.05456         4.31645        -7.89377
| 90>    H        2.47651         5.40718        -6.12948
| 91>    H        4.36337         7.83838        -2.20852
| 92>    H        6.43253         8.18407        -3.42028
| 93>    H        7.82155         7.84419        -5.42559
| 94>    H        6.94428         6.56743        -7.34061
| 95>    H        4.65255         5.66552        -7.28588
| 96>    H       -1.31655         5.10382        -2.44191
| 97>    H       -4.03891         4.94491         2.39216
| 98>    H       -3.57262         6.65993         2.50647
| 99>    H       -1.12542         5.04165         3.49513
|100>    H        1.05940         4.55885         2.44580
|101>    H        1.73371         2.47967        -2.64625
|102>    H        0.24436         3.34633        -2.21957
|103>    H        1.68536         1.32462        -0.42467
|104>    H        0.19748         1.02745        -1.32921
|105>    H        0.20283         2.19004         0.00053
|106>    H        5.01566         7.83686         2.23425
|107>    H        6.14791         7.90596         0.87254
|108>    H        6.16523         5.85054         3.15151
|109>    H        7.32075         7.16790         2.94062
|110>    H        7.29001         5.82445         1.79103
|111>    H        7.02279         6.42599        -0.61410
|112>    H        5.71328         4.37553        -2.48738
|113>    H        8.94397         6.58245        -1.98381
|114>    H        9.24079         3.91087        -6.73845
|115>    H       11.83716         5.20194        -5.71615
|116>    H       10.97276         3.81831        -8.32444
|117>    H       16.86636         4.92601        -6.40856
|118>    H       15.84157         3.11298       -10.93856
|119>    H       18.20673         2.90768       -11.39364
|120>    H       20.55243         3.16227       -10.68891
|121>    H       21.08988         4.06087        -8.45956
|122>    H       19.28393         4.71099        -6.91476
|123> *
|124>
|125>                          ****END OF INPUT****

CARTESIAN COORDINATES (ANGSTROEM)
---------------------------------
  C      1.617390    6.907500   -2.008460
  C      1.628600    7.708070   -0.898300
  C      2.732690    8.500250   -0.522810
  N      3.624440    9.135740   -0.178410
  C      0.522500    7.878470   -0.039510
  N     -0.367160    8.089720    0.653080
  C      2.651050    6.846510   -3.034260
  C      2.128750    6.166960   -4.173200
  C      2.888850    5.936390   -5.283630
  C      4.219560    6.409530   -5.319090
  C      4.736840    7.121150   -4.198880
  C      3.936690    7.318910   -3.051780
  C      6.050680    7.629350   -4.265020
  C      6.820560    7.440010   -5.380070
  C      6.318790    6.717320   -6.473310
  C      5.046270    6.214310   -6.443450
  C      0.730550    5.780970   -3.917560
  O     -0.048630    5.244830   -4.665760
  C      0.501430    6.100260   -2.469960
  C     -0.518310    5.498080   -1.818440
  C     -0.665380    5.288800   -0.392830
  C     -1.900180    5.490190    0.221460
  C     -3.197770    5.880140   -0.374380
  O     -3.475110    6.045810   -1.528470
  O     -4.090750    5.999710    0.632590
  C     -3.492380    5.754120    1.895460
  C     -2.070610    5.405070    1.596330
  C     -1.011010    5.082330    2.424050
  C      0.211110    4.819670    1.832380
  C      0.395430    4.892420    0.448340
  C      1.721770    4.633730   -0.087500
  N      1.998760    3.888920   -1.209420
  C      1.152040    2.889050   -1.814960
  C      0.786650    1.788190   -0.825410
  C      3.348490    4.028030   -1.595630
  O      3.814000    3.487040   -2.582700
  C      3.920740    4.902270   -0.605370
  C      2.896420    5.215090    0.337380
  C      3.444600    6.142670    1.306560
  O      2.968230    6.658250    2.292890
  N      4.766540    6.350120    0.869230
  C      5.654640    7.236110    1.581680
  C      6.675390    6.468520    2.416780
  C      5.052810    5.639780   -0.273100
  C      6.272590    5.747120   -0.990850
  C      6.480810    5.053530   -2.138480
  C      7.628350    5.158190   -2.964130
  S      7.686270    4.244320   -4.442110
  C      9.240170    4.894210   -4.861390
  C      9.673970    5.789780   -3.876890
  C      8.765190    5.929880   -2.819530
  C     10.848230    6.563550   -3.931390
  N     11.761480    7.257050   -3.921910
  C      9.866810    4.481080   -6.061640
  C     11.167860    4.694260   -6.394290
  C     11.690130    4.229410   -7.625010
  C     13.010010    4.248350   -7.969840
  C     13.587290    3.813460   -9.229270
  C     12.905690    3.458690  -10.365220
  C     13.525850    3.050160  -11.564850
  N     13.964480    2.706500  -12.568640
  C     11.503660    3.468750  -10.515490
  N     10.372910    3.460340  -10.718840
  C     15.038410    3.862260   -9.093810
  C     15.359970    4.372620   -7.803540
  C     14.119920    4.641940   -7.056240
  O     14.032120    5.058180   -5.921970
  C     16.651290    4.534510   -7.391750
  C     17.702810    4.179470   -8.265730
  C     17.390500    3.661020   -9.555860
  C     16.043340    3.510700   -9.956730
  C     18.447350    3.300260  -10.416560
  C     19.750110    3.443190  -10.023290
  C     20.056290    3.955030   -8.753370
  C     19.054560    4.316450   -7.893770
  H      2.476510    5.407180   -6.129480
  H      4.363370    7.838380   -2.208520
  H      6.432530    8.184070   -3.420280
  H      7.821550    7.844190   -5.425590
  H      6.944280    6.567430   -7.340610
  H      4.652550    5.665520   -7.285880
  H     -1.316550    5.103820   -2.441910
  H     -4.038910    4.944910    2.392160
  H     -3.572620    6.659930    2.506470
  H     -1.125420    5.041650    3.495130
  H      1.059400    4.558850    2.445800
  H      1.733710    2.479670   -2.646250
  H      0.244360    3.346330   -2.219570
  H      1.685360    1.324620   -0.424670
  H      0.197480    1.027450   -1.329210
  H      0.202830    2.190040    0.000530
  H      5.015660    7.836860    2.234250
  H      6.147910    7.905960    0.872540
  H      6.165230    5.850540    3.151510
  H      7.320750    7.167900    2.940620
  H      7.290010    5.824450    1.791030
  H      7.022790    6.425990   -0.614100
  H      5.713280    4.375530   -2.487380
  H      8.943970    6.582450   -1.983810
  H      9.240790    3.910870   -6.738450
  H     11.837160    5.201940   -5.716150
  H     10.972760    3.818310   -8.324440
  H     16.866360    4.926010   -6.408560
  H     15.841570    3.112980  -10.938560
  H     18.206730    2.907680  -11.393640
  H     20.552430    3.162270  -10.688910
  H     21.089880    4.060870   -8.459560
  H     19.283930    4.710990   -6.914760

 Total Charge           Charge          ....    0
 Multiplicity           Mult            ....    1
 Number of Electrons    NEL             ....  512
 Basis Dimension        Dim             .... 1219

ORBITAL ENERGIES
----------------

  NO   OCC          E(Eh)            E(eV)
   0   2.0000     -88.992004     -2421.5955
   1   2.0000     -19.261377      -524.1287
   2   2.0000     -19.219021      -522.9762
   3   2.0000     -19.217916      -522.9461
   4   2.0000     -19.201988      -522.5127
   5   2.0000     -19.201624      -522.5028
   6   2.0000     -19.199055      -522.4328
   7   2.0000     -14.463947      -393.5840
   8   2.0000     -14.461342      -393.5131
   9   2.0000     -14.423413      -392.4810
  10   2.0000     -14.421252      -392.4222
  11   2.0000     -14.419660      -392.3789
  12   2.0000     -14.418072      -392.3357
  13   2.0000     -14.415982      -392.2788
  14   2.0000     -10.401185      -283.0306
  15   2.0000     -10.383602      -282.5522
  16   2.0000     -10.383026      -282.5365
  17   2.0000     -10.369678      -282.1733
  18   2.0000     -10.368205      -282.1332
  19   2.0000     -10.352741      -281.7124
  20   2.0000     -10.348018      -281.5839
  21   2.0000     -10.346435      -281.5408
  22   2.0000     -10.346183      -281.5340
  23   2.0000     -10.345978      -281.5284
  24   2.0000     -10.345249      -281.5085
  25   2.0000     -10.344415      -281.4858
  26   2.0000     -10.343125      -281.4507
  27   2.0000     -10.335913      -281.2545
  28   2.0000     -10.335726      -281.2494
  29   2.0000     -10.325954      -280.9835
  30   2.0000     -10.324056      -280.9319
  31   2.0000     -10.321749      -280.8691
  32   2.0000     -10.320784      -280.8428
  33   2.0000     -10.320077      -280.8236
  34   2.0000     -10.319122      -280.7976
  35   2.0000     -10.318360      -280.7769
  36   2.0000     -10.317934      -280.7653
  37   2.0000     -10.316942      -280.7383
  38   2.0000     -10.315025      -280.6861
  39   2.0000     -10.313749      -280.6514
  40   2.0000     -10.312670      -280.6220
  41   2.0000     -10.311346      -280.5860
  42   2.0000     -10.309791      -280.5437
  43   2.0000     -10.306970      -280.4669
  44   2.0000     -10.306196      -280.4458
  45   2.0000     -10.305858      -280.4367
  46   2.0000     -10.305464      -280.4259
  47   2.0000     -10.305263      -280.4205
  48   2.0000     -10.303824      -280.3813
  49   2.0000     -10.301310      -280.3129
  50   2.0000     -10.300348      -280.2867
  51   2.0000     -10.299921      -280.2751
  52   2.0000     -10.299729      -280.2699
  53   2.0000     -10.299690      -280.2688
  54   2.0000     -10.299244      -280.2567
  55   2.0000     -10.299227      -280.2562
  56   2.0000     -10.298972      -280.2493
  57   2.0000     -10.298932      -280.2482
  58   2.0000     -10.298422      -280.2343
  59   2.0000     -10.298063      -280.2245
  60   2.0000     -10.297294      -280.2036
  61   2.0000     -10.290493      -280.0185
  62   2.0000     -10.290475      -280.0181
  63   2.0000     -10.289330      -279.9869
  64   2.0000     -10.288762      -279.9714
  65   2.0000     -10.288643      -279.9682
  66   2.0000     -10.288352      -279.9603
  67   2.0000     -10.288006      -279.9509
  68   2.0000     -10.288002      -279.9508
  69   2.0000     -10.287802      -279.9453
  70   2.0000     -10.287333      -279.9326
  71   2.0000     -10.273145      -279.5465
  72   2.0000     -10.270276      -279.4684
  73   2.0000     -10.269365      -279.4436
  74   2.0000     -10.268666      -279.4246
  75   2.0000      -8.086955      -220.0572
  76   2.0000      -6.056057      -164.7937
  77   2.0000      -6.051888      -164.6802
  78   2.0000      -6.049494      -164.6151
  79   2.0000      -1.196311       -32.5533
  80   2.0000      -1.143242       -31.1092
  81   2.0000      -1.136234       -30.9185
  82   2.0000      -1.134107       -30.8606
  83   2.0000      -1.133744       -30.8508
  84   2.0000      -1.108133       -30.1538
  85   2.0000      -1.074147       -29.2290
  86   2.0000      -1.065425       -28.9917
  87   2.0000      -1.028281       -27.9809
  88   2.0000      -1.022552       -27.8250
  89   2.0000      -1.021929       -27.8081
  90   2.0000      -1.002048       -27.2671
  91   2.0000      -1.001723       -27.2583
  92   2.0000      -0.999086       -27.1865
  93   2.0000      -0.998565       -27.1723
  94   2.0000      -0.997530       -27.1442
  95   2.0000      -0.987707       -26.8769
  96   2.0000      -0.974447       -26.5161
  97   2.0000      -0.973410       -26.4878
  98   2.0000      -0.945254       -25.7217
  99   2.0000      -0.937537       -25.5117
 100   2.0000      -0.928737       -25.2722
 101   2.0000      -0.928228       -25.2584
 102   2.0000      -0.920118       -25.0377
 103   2.0000      -0.913167       -24.8485
 104   2.0000      -0.900899       -24.5147
 105   2.0000      -0.896669       -24.3996
 106   2.0000      -0.887718       -24.1560
 107   2.0000      -0.884117       -24.0580
 108   2.0000      -0.883464       -24.0403
 109   2.0000      -0.882947       -24.0262
 110   2.0000      -0.878070       -23.8935
 111   2.0000      -0.872012       -23.7286
 112   2.0000      -0.850849       -23.1528
 113   2.0000      -0.841374       -22.8949
 114   2.0000      -0.830722       -22.6051
 115   2.0000      -0.830485       -22.5987
 116   2.0000      -0.830186       -22.5905
 117   2.0000      -0.826829       -22.4992
 118   2.0000      -0.810904       -22.0658
 119   2.0000      -0.802706       -21.8427
 120   2.0000      -0.785996       -21.3880
 121   2.0000      -0.777645       -21.1608
 122   2.0000      -0.767631       -20.8883
 123   2.0000      -0.764538       -20.8041
 124   2.0000      -0.762999       -20.7622
 125   2.0000      -0.745801       -20.2943
 126   2.0000      -0.742151       -20.1949
 127   2.0000      -0.732076       -19.9208
 128   2.0000      -0.719667       -19.5831
 129   2.0000      -0.715809       -19.4782
 130   2.0000      -0.709672       -19.3112
 131   2.0000      -0.706827       -19.2337
 132   2.0000      -0.704920       -19.1818
 133   2.0000      -0.702651       -19.1201
 134   2.0000      -0.696530       -18.9535
 135   2.0000      -0.692062       -18.8320
 136   2.0000      -0.689206       -18.7543
 137   2.0000      -0.687293       -18.7022
 138   2.0000      -0.679633       -18.4938
 139   2.0000      -0.674579       -18.3562
 140   2.0000      -0.658681       -17.9236
 141   2.0000      -0.656021       -17.8513
 142   2.0000      -0.647385       -17.6163
 143   2.0000      -0.637461       -17.3462
 144   2.0000      -0.635509       -17.2931
 145   2.0000      -0.632570       -17.2131
 146   2.0000      -0.625171       -17.0118
 147   2.0000      -0.618152       -16.8208
 148   2.0000      -0.615398       -16.7458
 149   2.0000      -0.611327       -16.6351
 150   2.0000      -0.608988       -16.5714
 151   2.0000      -0.608154       -16.5487
 152   2.0000      -0.600882       -16.3508
 153   2.0000      -0.596528       -16.2324
 154   2.0000      -0.594619       -16.1804
 155   2.0000      -0.592078       -16.1113
 156   2.0000      -0.591455       -16.0943
 157   2.0000      -0.585107       -15.9216
 158   2.0000      -0.573818       -15.6144
 159   2.0000      -0.568864       -15.4796
 160   2.0000      -0.564455       -15.3596
 161   2.0000      -0.562525       -15.3071
 162   2.0000      -0.556385       -15.1400
 163   2.0000      -0.554337       -15.0843
 164   2.0000      -0.553762       -15.0686
 165   2.0000      -0.552413       -15.0319
 166   2.0000      -0.548722       -14.9315
 167   2.0000      -0.548329       -14.9208
 168   2.0000      -0.542233       -14.7549
 169   2.0000      -0.541586       -14.7373
 170   2.0000      -0.539952       -14.6929
 171   2.0000      -0.537432       -14.6243
 172   2.0000      -0.535986       -14.5849
 173   2.0000      -0.530926       -14.4472
 174   2.0000      -0.528904       -14.3922
 175   2.0000      -0.525665       -14.3041
 176   2.0000      -0.523257       -14.2386
 177   2.0000      -0.521741       -14.1973
 178   2.0000      -0.520419       -14.1613
 179   2.0000      -0.520046       -14.1512
 180   2.0000      -0.517209       -14.0740
 181   2.0000      -0.516583       -14.0570
 182   2.0000      -0.515141       -14.0177
 183   2.0000      -0.511934       -13.9304
 184   2.0000      -0.510469       -13.8906
 185   2.0000      -0.508446       -13.8355
 186   2.0000      -0.507027       -13.7969
 187   2.0000      -0.504328       -13.7235
 188   2.0000      -0.502739       -13.6802
 189   2.0000      -0.499731       -13.5984
 190   2.0000      -0.498316       -13.5599
 191   2.0000      -0.492972       -13.4144
 192   2.0000      -0.490439       -13.3455
 193   2.0000      -0.489068       -13.3082
 194   2.0000      -0.486274       -13.2322
 195   2.0000      -0.484794       -13.1919
 196   2.0000      -0.484000       -13.1703
 197   2.0000      -0.479439       -13.0462
 198   2.0000      -0.477169       -12.9844
 199   2.0000      -0.473583       -12.8869
 200   2.0000      -0.469948       -12.7879
 201   2.0000      -0.468469       -12.7477
 202   2.0000      -0.467030       -12.7085
 203   2.0000      -0.462842       -12.5946
 204   2.0000      -0.461414       -12.5557
 205   2.0000      -0.460303       -12.5255
 206   2.0000      -0.459842       -12.5129
 207   2.0000      -0.456752       -12.4289
 208   2.0000      -0.454916       -12.3789
 209   2.0000      -0.453454       -12.3391
 210   2.0000      -0.451259       -12.2794
 211   2.0000      -0.448313       -12.1992
 212   2.0000      -0.448033       -12.1916
 213   2.0000      -0.446796       -12.1579
 214   2.0000      -0.444729       -12.1017
 215   2.0000      -0.443642       -12.0721
 216   2.0000      -0.442789       -12.0489
 217   2.0000      -0.442194       -12.0327
 218   2.0000      -0.440074       -11.9750
 219   2.0000      -0.437457       -11.9038
 220   2.0000      -0.436725       -11.8839
 221   2.0000      -0.435683       -11.8555
 222   2.0000      -0.435351       -11.8465
 223   2.0000      -0.431266       -11.7354
 224   2.0000      -0.430013       -11.7013
 225   2.0000      -0.428810       -11.6685
 226   2.0000      -0.425682       -11.5834
 227   2.0000      -0.423412       -11.5216
 228   2.0000      -0.420260       -11.4359
 229   2.0000      -0.418911       -11.3991
 230   2.0000      -0.416704       -11.3391
 231   2.0000      -0.414145       -11.2694
 232   2.0000      -0.409772       -11.1504
 233   2.0000      -0.404539       -11.0081
 234   2.0000      -0.395207       -10.7541
 235   2.0000      -0.384654       -10.4670
 236   2.0000      -0.378100       -10.2886
 237   2.0000      -0.376400       -10.2424
 238   2.0000      -0.372184       -10.1276
 239   2.0000      -0.363212        -9.8835
 240   2.0000      -0.356973        -9.7137
 241   2.0000      -0.350800        -9.5458
 242   2.0000      -0.348690        -9.4884
 243   2.0000      -0.343427        -9.3451
 244   2.0000      -0.339255        -9.2316
 245   2.0000      -0.338007        -9.1976
 246   2.0000      -0.337210        -9.1760
 247   2.0000      -0.336170        -9.1476
 248   2.0000      -0.329165        -8.9570
 249   2.0000      -0.321824        -8.7573
 250   2.0000      -0.319275        -8.6879
 251   2.0000      -0.308421        -8.3926
 252   2.0000      -0.301422        -8.2021
 253   2.0000      -0.296128        -8.0581
 254   2.0000      -0.284470        -7.7408
 255   2.0000      -0.252171        -6.8619
 256   0.0000      -0.115981        -3.1560
 257   0.0000      -0.094519        -2.5720
 258   0.0000      -0.079576        -2.1654
 259   0.0000      -0.062167        -1.6916
 260   0.0000      -0.057362        -1.5609

MULLIKEN ATOMIC CHARGES
-----------------------
   0 C :    0.306928
   1 C :   -0.344994
   2 C :   -0.178737
   3 N :    0.144878
   4 C :   -0.168045
   5 N :    0.176947
   6 C :    0.048549
   7 C :    0.015668
   8 C :   -0.075621
   9 C :    0.103032
  10 C :    0.094815
  11 C :   -0.087851
  12 C :   -0.002285
  13 C :    0.023358
  14 C :    0.029479
  15 C :   -0.018800
  16 C :    0.142144
  17 O :   -0.127293
  18 C :   -0.123881
  19 C :   -0.013018
  20 C :    0.001676
  21 C :   -0.060315
  22 C :    0.217753
  23 O :   -0.159041
  24 O :   -0.286065
  25 C :    0.331112
  26 C :   -0.064864
  27 C :   -0.021968
  28 C :    0.042927
  29 C :    0.005053
  30 C :   -0.008404
  31 N :   -0.258466
  32 C :    0.100777
  33 C :    0.003014
  34 C :    0.183193
  35 O :   -0.213679
  36 C :   -0.108531
  37 C :    0.017407
  38 C :    0.131850
  39 O :   -0.176712
  40 N :   -0.266002
  41 C :    0.098802
  42 C :    0.008075
  43 C :    0.142294
  44 C :   -0.043738
  45 C :    0.105990
  46 C :   -0.076238
  47 S :    0.207058
  48 C :   -0.069860
  49 C :   -0.048455
  50 C :    0.001791
  51 C :   -0.196764
  52 N :    0.154885
  53 C :    0.049689
  54 C :   -0.014553
  55 C :   -0.047828
  56 C :   -0.060971
  57 C :    0.333284
  58 C :   -0.349131
  59 C :   -0.182892
  60 N :    0.154115
  61 C :   -0.195369
  62 N :    0.147359
  63 C :    0.045190
  64 C :   -0.006887
  65 C :    0.149317
  66 O :   -0.134226
  67 C :   -0.075701
  68 C :    0.097853
  69 C :    0.094524
  70 C :   -0.081407
  71 C :   -0.016664
  72 C :    0.036446
  73 C :    0.035179
  74 C :   -0.014021
  75 H :   -0.011405
  76 H :   -0.013786
  77 H :   -0.020987
  78 H :    0.000523
  79 H :   -0.003657
  80 H :   -0.015117
  81 H :    0.056886
  82 H :    0.044414
  83 H :    0.054996
  84 H :   -0.010261
  85 H :   -0.000156
  86 H :    0.048912
  87 H :    0.033786
  88 H :    0.022918
  89 H :    0.028933
  90 H :    0.023529
  91 H :    0.052730
  92 H :    0.028139
  93 H :    0.027178
  94 H :    0.027338
  95 H :    0.010889
  96 H :   -0.025195
  97 H :    0.011481
  98 H :    0.000383
  99 H :    0.007716
 100 H :    0.056058
 101 H :    0.013734
 102 H :   -0.010925
 103 H :   -0.008633
 104 H :   -0.009690
 105 H :   -0.003727
 106 H :   -0.003798
 107 H :   -0.016338
Sum of atomic charges:   -0.0000000

LOEWDIN ATOMIC CHARGES
----------------------
   0 C :    0.067142
   1 C :   -0.124622
   2 C :   -0.007546
   3 N :   -0.055111
   4 C :   -0.012519
   5 N :   -0.043563
   6 C :   -0.022406
   7 C :   -0.055098
   8 C :    0.041401
   9 C :   -0.007831
  10 C :   -0.006770
  11 C :    0.017380
  12 C :   -0.008290
  13 C :   -0.018489
  14 C :   -0.020675
  15 C :   -0.008402
  16 C :    0.087238
  17 O :   -0.128178
  18 C :   -0.070742
  19 C :    0.065440
  20 C :   -0.005449
  21 C :   -0.056145
  22 C :    0.087230
  23 O :   -0.149513
  24 O :   -0.081109
  25 C :    0.105759
  26 C :   -0.006606
  27 C :   -0.005514
  28 C :    0.033645
  29 C :   -0.028872
  30 C :    0.063585
  31 N :    0.006218
  32 C :    0.035858
  33 C :   -0.059434
  34 C :    0.075960
  35 O :   -0.203075
  36 C :   -0.134071
  37 C :   -0.112410
  38 C :    0.074715
  39 O :   -0.182269
  40 N :    0.004097
  41 C :    0.036799
  42 C :   -0.061789
  43 C :    0.082584
  44 C :   -0.044275
  45 C :    0.015939
  46 C :   -0.162020
  47 S :    0.513130
  48 C :   -0.147855
  49 C :   -0.089952
  50 C :   -0.013814
  51 C :   -0.036032
  52 N :   -0.034692
  53 C :   -0.007674
  54 C :   -0.007636
  55 C :    0.060927
  56 C :   -0.079175
  57 C :    0.074874
  58 C :   -0.136387
  59 C :   -0.017389
  60 N :   -0.050827
  61 C :   -0.019669
  62 N :   -0.054109
  63 C :   -0.026472
  64 C :   -0.055873
  65 C :    0.083607
  66 O :   -0.131829
  67 C :    0.034293
  68 C :   -0.007505
  69 C :   -0.005999
  70 C :    0.020183
  71 C :   -0.004922
  72 C :   -0.012709
  73 C :   -0.011209
  74 C :   -0.008829
  75 H :    0.040612
  76 H :    0.033714
  77 H :    0.029618
  78 H :    0.033324
  79 H :    0.032367
  80 H :    0.033125
  81 H :    0.053930
  82 H :    0.037396
  83 H :    0.043285
  84 H :    0.036733
  85 H :    0.041282
  86 H :    0.038768
  87 H :    0.026055
  88 H :    0.028827
  89 H :    0.033878
  90 H :    0.024748
  91 H :    0.041530
  92 H :    0.023390
  93 H :    0.031512
  94 H :    0.032296
  95 H :    0.019796
  96 H :    0.028938
  97 H :    0.037003
  98 H :    0.039673
  99 H :    0.036983
 100 H :    0.041542
 101 H :    0.041915
 102 H :    0.040090
 103 H :    0.038951
 104 H :    0.034712
 105 H :    0.033681
 106 H :    0.033254
 107 H :    0.032419

  Mayer bond orders larger than 0.100000
B(  0-C ,  1-C ) :   1.6727 B(  0-C ,  6-C ) :   1.0119 B(  0-C , 18-C ) :   1.0062
B(  1-C ,  2-C ) :   1.1373 B(  1-C ,  4-C ) :   1.1678 B(  2-C ,  3-N ) :   2.9302
B(  4-C ,  5-N ) :   2.9979 B(  6-C ,  7-C ) :   1.2150 B(  6-C , 11-C ) :   1.4546
B(  7-C ,  8-C ) :   1.4683 B(  7-C , 16-C ) :   0.9191 B(  8-C ,  9-C ) :   1.1845
B(  8-C , 75-H ) :   1.0132 B(  9-C , 10-C ) :   1.2606 B(  9-C , 15-C ) :   1.2390
B( 10-C , 11-C ) :   1.2055 B( 10-C , 12-C ) :   1.2389 B( 11-C , 76-H ) :   0.9860
B( 12-C , 13-C ) :   1.4813 B( 12-C , 77-H ) :   0.9981 B( 13-C , 14-C ) :   1.2521
B( 13-C , 78-H ) :   0.9874 B( 14-C , 15-C ) :   1.4836 B( 14-C , 79-H ) :   0.9915
B( 15-C , 80-H ) :   0.9983 B( 16-C , 17-O ) :   2.2854 B( 16-C , 18-C ) :   0.9188
B( 18-C , 19-C ) :   1.7543 B( 19-C , 20-C ) :   1.0201 B( 19-C , 81-H ) :   0.9081
B( 20-C , 21-C ) :   1.3574 B( 20-C , 29-C ) :   1.3594 B( 21-C , 22-C ) :   0.9024
B( 21-C , 26-C ) :   1.4327 B( 22-C , 23-O ) :   2.1833 B( 22-C , 24-O ) :   1.1360
B( 24-O , 25-C ) :   0.9706 B( 25-C , 26-C ) :   1.0092 B( 25-C , 82-H ) :   0.9268
B( 25-C , 83-H ) :   0.9219 B( 26-C , 27-C ) :   1.3310 B( 27-C , 28-C ) :   1.3678
B( 27-C , 84-H ) :   1.0096 B( 28-C , 29-C ) :   1.3592 B( 28-C , 85-H ) :   0.9952
B( 29-C , 30-C ) :   1.0103 B( 30-C , 31-N ) :   1.1826 B( 30-C , 37-C ) :   1.4576
B( 31-N , 32-C ) :   0.9450 B( 31-N , 34-C ) :   1.0507 B( 32-C , 33-C ) :   1.1170
B( 32-C , 86-H ) :   0.9283 B( 32-C , 87-H ) :   0.9271 B( 33-C , 88-H ) :   0.9658
B( 33-C , 89-H ) :   0.9663 B( 33-C , 90-H ) :   0.9641 B( 34-C , 35-O ) :   1.9992
B( 34-C , 36-C ) :   1.0057 B( 35-O , 97-H ) :   0.1262 B( 36-C , 37-C ) :   1.2095
B( 36-C , 43-C ) :   1.3496 B( 37-C , 38-C ) :   0.9482 B( 38-C , 39-O ) :   2.1539
B( 38-C , 40-N ) :   1.0368 B( 40-N , 41-C ) :   0.9360 B( 40-N , 43-C ) :   1.1628
B( 41-C , 42-C ) :   1.1151 B( 41-C , 91-H ) :   0.9266 B( 41-C , 92-H ) :   0.9474
B( 42-C , 93-H ) :   0.9630 B( 42-C , 94-H ) :   0.9686 B( 42-C , 95-H ) :   0.9679
B( 43-C , 44-C ) :   1.1620 B( 44-C , 45-C ) :   1.6222 B( 44-C , 96-H ) :   0.9689
B( 45-C , 46-C ) :   1.1185 B( 45-C , 97-H ) :   0.9247 B( 46-C , 47-S ) :   1.1496
B( 46-C , 50-C ) :   1.4411 B( 47-S , 48-C ) :   1.1519 B( 48-C , 49-C ) :   1.4211
B( 48-C , 53-C ) :   1.1240 B( 49-C , 50-C ) :   1.3292 B( 49-C , 51-C ) :   1.1104
B( 50-C , 98-H ) :   1.0018 B( 51-C , 52-N ) :   3.0004 B( 53-C , 54-C ) :   1.5974
B( 53-C , 99-H ) :   0.9592 B( 54-C , 55-C ) :   1.1527 B( 54-C ,100-H ) :   0.9655
B( 55-C , 56-C ) :   1.5625 B( 55-C ,101-H ) :   0.9628 B( 56-C , 57-C ) :   1.0540
B( 56-C , 65-C ) :   0.9329 B( 57-C , 58-C ) :   1.6301 B( 57-C , 63-C ) :   0.9904
B( 58-C , 59-C ) :   1.1462 B( 58-C , 61-C ) :   1.1482 B( 59-C , 60-N ) :   2.9652
B( 61-C , 62-N ) :   2.9662 B( 63-C , 64-C ) :   1.2136 B( 63-C , 70-C ) :   1.4481
B( 64-C , 65-C ) :   0.9462 B( 64-C , 67-C ) :   1.4716 B( 65-C , 66-O ) :   2.2135
B( 67-C , 68-C ) :   1.1805 B( 67-C ,102-H ) :   1.0158 B( 68-C , 69-C ) :   1.2530
B( 68-C , 74-C ) :   1.2429 B( 69-C , 70-C ) :   1.2080 B( 69-C , 71-C ) :   1.2415
B( 70-C ,103-H ) :   0.9882 B( 71-C , 72-C ) :   1.4897 B( 71-C ,104-H ) :   0.9964
B( 72-C , 73-C ) :   1.2582 B( 72-C ,105-H ) :   0.9888 B( 73-C , 74-C ) :   1.4895
B( 73-C ,106-H ) :   0.9891 B( 74-C ,107-H ) :   0.9974

-----------------------------------------------------------------------------
         ABSORPTION SPECTRUM VIA TRANSITION ELECTRIC DIPOLE MOMENTS
-----------------------------------------------------------------------------
State   Energy  Wavelength   fosc         T2         TX        TY        TZ
        (cm-1)    (nm)                  (au**2)     (au)      (au)      (au)
-----------------------------------------------------------------------------
   0   13916.7    718.6   0.217626299   5.14815  -2.17270   0.26155   0.59927
   1   16950.8    589.9   0.632192012  12.27820  -2.75440  -0.13426   2.16182
   2   21193.2    471.8   0.702938661  10.91933   2.02179  -0.90086  -2.45360
   3   22284.0    448.8   0.129130993   1.90772  -1.32919  -0.28113   0.24889
   4   24069.4    415.5   0.080624432   1.10275  -0.26432  -0.39481  -0.93649
   5   24195.4    413.3   0.017775015   0.24185   0.08468   0.07191  -0.47907
   6   24977.6    400.4   0.320679147   4.22664  -1.66963   0.14713   1.19052
   7   25223.8    396.5   0.014433438   0.18838   0.02760  -0.36647  -0.23091
   8   25894.7    386.2   0.038481257   0.48923   0.51815  -0.10297  -0.45841
   9   26661.5    375.1   0.019785946   0.24431  -0.31805   0.27706   0.25768
  10   27802.8    359.7   0.037303179   0.44170  -0.65833   0.00530  -0.09097
  11   28243.0    354.1   0.076999847   0.89754   0.74012   0.02055  -0.59105
  12   28280.3    353.6   0.102557165   1.19387   0.84550   0.69206  -0.00761
  13   28659.0    348.9   0.008668955   0.09958  -0.12139  -0.04246  -0.28817
  14   29129.7    343.3   0.005437626   0.06145  -0.13787   0.18893  -0.08216
  15   29194.3    342.5   0.005777350   0.06515  -0.12093  -0.17161   0.14517
  16   29422.5    339.9   0.045719111   0.51156   0.37537   0.44361  -0.41698
  17   29823.4    335.3   0.027333261   0.30172  -0.37306  -0.36252   0.17644
  18   30056.7    332.7   0.209524780   2.29493   1.49987  -0.14986  -0.15124
  19   30609.3    326.7   0.015113337   0.16255   0.11404   0.04374  -0.38423
  20   31022.4    322.3   0.021391465   0.22701   0.06686   0.31473  -0.35140
  21   31512.1    317.3   0.055045802   0.57507   0.61279  -0.02497   0.44603
  22   32203.5    310.5   0.012791085   0.13076  -0.22879  -0.20818   0.18729
  23   32458.7    308.1   0.380988140   3.86417   1.93650   0.22630  -0.25083
  24   32512.9    307.6   0.051718414   0.52368   0.60665  -0.36692  -0.14500
  25   32960.9    303.4   0.147126216   1.46949   1.07257   0.04510   0.56307
  26   33332.2    300.0   0.225109316   2.22333  -1.04630   0.37487   0.99401
  27   33574.4    297.8   0.162291605   1.59134   1.04013  -0.16698  -0.69396
  28   33645.7    297.2   0.124910404   1.22221   0.87082  -0.08460  -0.67581
  29   33837.3    295.5   0.139896973   1.36110   1.13119   0.27428  -0.07916
  30   33967.9    294.4   0.012274164   0.11896   0.30914   0.11642   0.09918
  31   34078.8    293.4   0.043810634   0.42322  -0.63297   0.06444   0.13575
  32   34391.6    290.8   0.010295484   0.09855  -0.00767   0.12909   0.28606
  33   34519.1    289.7   0.192995015   1.84061  -1.31395  -0.33780   0.00663
  34   34677.9    288.4   0.164338113   1.56013  -0.34996  -0.03557   1.19850
  35   34880.6    286.7   0.054331740   0.51280   0.15672   0.14194   0.68417
  36   35388.0    282.6   0.041258398   0.38382   0.07464   0.41408   0.45474
  37   35771.0    279.6   0.017610883   0.16208  -0.07479  -0.21102  -0.33460
  38   36045.3    277.4   0.011803334   0.10780   0.07534   0.20489  -0.24525
  39   36142.3    276.7   0.095303692   0.86810   0.76971   0.12750  -0.50930
  40   36538.7    273.7   0.080688343   0.72700  -0.14878   0.03385   0.83888
  41   36795.8    271.8   0.035183848   0.31479  -0.23938  -0.35227  -0.36523
  42   37182.0    268.9   0.146486040   1.29700   0.49089  -0.38907  -0.95113
  43   37272.6    268.3   0.015664458   0.13836   0.05678   0.19703   0.31034
  44   37985.5    263.3   0.004447540   0.03855   0.09222   0.05744   0.16353
  45   38065.5    262.7   0.170350586   1.47329  -1.17085  -0.01512   0.31965
  46   38226.5    261.6   0.085922313   0.73998   0.21488  -0.35362  -0.75416
  47   38584.8    259.2   0.096849308   0.82634  -0.00604   0.03603  -0.90830
  48   38782.7    257.8   0.190789354   1.61954  -0.27470  -0.39162  -1.17928
  49   39333.5    254.2   0.059713894   0.49979  -0.26986  -0.22069  -0.61503
  50   39625.8    252.4   0.077079207   0.64038  -0.68810  -0.25594   0.31843
  51   39689.9    252.0   0.017042428   0.14136   0.25725   0.21597   0.16894
  52   39757.7    251.5   0.002009083   0.01664   0.12035  -0.01987   0.04190
  53   40223.4    248.6   0.265362831   2.17188  -1.11201  -0.37307   0.89227
  54   40291.2    248.2   0.159756891   1.30534  -1.02188  -0.23254  -0.45500

FINAL SINGLE POINT ENERGY     -3572.991272243291

DIPOLE MOMENT
-------------
                                X             Y             Z
Electronic contribution:     -9.13756       6.82143     -19.41911
Nuclear contribution   :     11.70672      -8.53187      21.40372
                        -----------------------------------------
Total Dipole Moment    :      2.56916      -1.71045       1.98461
                        -----------------------------------------
Magnitude (a.u.)       :      3.66945
Magnitude (Debye)      :      9.32701

Rotational constants in cm-1:     0.002832     0.000315     0.000300
Rotational constants in MHz :    84.911758     9.454991     8.979992

                             ****ORCA TERMINATED NORMALLY****
TOTAL RUN TIME: 0 days 0 hours 12 minutes 58 seconds 368 msec
