                         Program Version 4.2.0 -  RELEASE  -
|  1> # ORCA input file
|  2> # SCF done       -188.043222012901          0.000811671063
|  3> ! CAM-B3LYP def2-SVP def2/J RIJCOSX Grid4 TightSCF
|  4> %maxcore 5000
|  5> %tddft
|  6>     Mode sTDDFT
|  7>     Ethresh 5.0
|  8>     maxcore 5000
|  9> end
| 10>
| 11> %pal
| 12>   nprocs 6
| 13>   end
| 14> * xyz 0 1
| 15>    C        4.08051         3.35970         1.08502
| 16>    C        4.92432         2.63708         0.28446
| 17>    C        6.14068         2.06905         0.72101
| 18>    N        7.14106         1.57928         0.99885
| 19>    C        4.77225         2.45062        -1.10485
| 20>    N        4.76602         2.30267        -2.24447
| 21>    C        4.34936         3.76960         2.45392
| 22>    C        3.38539         4.74673         2.83805
| 23>    C        3.43614         5.36053         4.05605
| 24>    C        4.46172         5.01245         4.96417
| 25>    C        5.42027         4.02578         4.59119
| 26>    C        5.34849         3.41099         3.32178
| 27>    C        6.43996         3.68733         5.50466
| 28>    C        6.51318         4.29522         6.72793
| 29>    C        5.57011         5.26753         7.09417
| 30>    C        4.56657         5.61775         6.23190
| 31>    C        2.42818         4.95898         1.73809
| 32>    O        1.52658         5.76001         1.69076
| 33>    C        2.83565         3.99007         0.67448
| 34>    C        2.19307         3.81118        -0.49815
| 35>    C        1.00725         4.53056        -0.89046
| 36>    C        0.94205         5.17862        -2.12372
| 37>    N       -0.16104         5.80364        -2.60560
| 38>    C       -1.24493         5.89699        -1.90600
| 39>    C       -1.32256         5.30205        -0.62391
| 40>    C       -0.17837         4.58378        -0.12110
| 41>    N       -0.53581         4.03577         1.02653
| 42>    O       -1.79288         4.40549         1.22972
| 43>    N       -2.29094         5.16116         0.26122
| 44>    C        2.14010         5.20898        -2.94545
| 45>    N        2.14752         4.99202        -4.28899
| 46>    C        1.00422         4.80876        -5.14981
| 47>    C        0.49359         6.14376        -5.68237
| 48>    C        3.46814         4.93205        -4.80736
| 49>    O        3.71481         4.72545        -5.97111
| 50>    C        4.30218         5.18600        -3.65353
| 51>    C        3.45550         5.36710        -2.52071
| 52>    C        4.30647         5.71819        -1.40342
| 53>    O        4.07307         6.04701        -0.25557
| 54>    N        5.61591         5.62567        -1.90966
| 55>    C        6.72083         6.16490        -1.14459
| 56>    C        7.16254         5.25369        -0.00387
| 57>    C        5.62013         5.29455        -3.24653
| 58>    C        6.79037         5.02866        -4.02261
| 59>    C        7.89840         4.45438        -3.51008
| 60>    C        9.08490         4.18314        -4.24872
| 61>    S       10.34861         3.16545        -3.57119
| 62>    C       11.24659         3.53639        -5.04215
| 63>    N       10.57929         4.31589        -5.84563
| 64>    N        9.40357         4.66342        -5.41786
| 65>    C       12.55702         3.02631        -5.24443
| 66>    C       13.39828         3.44707        -6.21950
| 67>    C       14.70645         2.90425        -6.31438
| 68>    C       15.68864         3.33710        -7.15177
| 69>    C       17.03948         2.80649        -7.24739
| 70>    C       17.52917         1.68772        -6.62572
| 71>    C       18.85281         1.21841        -6.76727
| 72>    N       19.91248         0.78197        -6.83397
| 73>    C       16.80231         0.83201        -5.77102
| 74>    N       16.28778         0.08447        -5.06710
| 75>    C       17.79089         3.66798        -8.15175
| 76>    C       16.92068         4.67872        -8.65193
| 77>    C       15.57672         4.50328        -8.07462
| 78>    O       14.59669         5.17939        -8.29507
| 79>    C       17.35447         5.63859        -9.52062
| 80>    C       18.70511         5.63450        -9.93482
| 81>    C       19.58261         4.62746        -9.43810
| 82>    C       19.10455         3.64505        -8.54201
| 83>    C       20.92978         4.63398        -9.85426
| 84>    C       21.39026         5.58929       -10.71861
| 85>    C       20.52581         6.58094       -11.20649
| 86>    C       19.21203         6.60285       -10.82360
| 87>    H        2.70313         6.10697         4.32298
| 88>    H        6.08720         2.66751         3.06573
| 89>    H        7.16434         2.93974         5.21619
| 90>    H        7.29860         4.03116         7.42008
| 91>    H        5.64339         5.73771         8.06336
| 92>    H        3.83850         6.36574         6.50936
| 93>    H        2.61159         3.15407        -1.25001
| 94>    H       -2.08436         6.41779        -2.34186
| 95>    H        0.21649         4.29546        -4.59466
| 96>    H        1.33930         4.18101        -5.98019
| 97>    H        0.17103         6.77234        -4.85696
| 98>    H       -0.34692         5.97400        -6.34891
| 99>    H        1.28149         6.64888        -6.23521
|100>    H        6.37956         7.11230        -0.71261
|101>    H        7.54682         6.36584        -1.82910
|102>    H        6.36218         5.16368         0.72584
|103>    H        8.02956         5.68500         0.48912
|104>    H        7.42632         4.26031        -0.36012
|105>    H        6.72463         5.22757        -5.08277
|106>    H        7.91698         4.12362        -2.48201
|107>    H       12.88567         2.27792        -4.53395
|108>    H       13.08779         4.21411        -6.91290
|109>    H       14.92833         2.09227        -5.63260
|110>    H       16.67446         6.39458        -9.88436
|111>    H       19.79540         2.89969        -8.18162
|112>    H       21.59075         3.86806        -9.47582
|113>    H       22.42366         5.58633       -11.03133
|114>    H       20.90654         7.32764       -11.88713
|115>    H       18.54232         7.36416       -11.19590
|116> *
|117>
|118>                          ****END OF INPUT****

CARTESIAN COORDINATES (ANGSTROEM)
---------------------------------
  C      4.080510    3.359700    1.085020
  C      4.924320    2.637080    0.284460
  C      6.140680    2.069050    0.721010
  N      7.141060    1.579280    0.998850
  C      4.772250    2.450620   -1.104850
  N      4.766020    2.302670   -2.244470
  C      4.349360    3.769600    2.453920
  C      3.385390    4.746730    2.838050
  C      3.436140    5.360530    4.056050
  C      4.461720    5.012450    4.964170
  C      5.420270    4.025780    4.591190
  C      5.348490    3.410990    3.321780
  C      6.439960    3.687330    5.504660
  C      6.513180    4.295220    6.727930
  C      5.570110    5.267530    7.094170
  C      4.566570    5.617750    6.231900
  C      2.428180    4.958980    1.738090
  O      1.526580    5.760010    1.690760
  C      2.835650    3.990070    0.674480
  C      2.193070    3.811180   -0.498150
  C      1.007250    4.530560   -0.890460
  C      0.942050    5.178620   -2.123720
  N     -0.161040    5.803640   -2.605600
  C     -1.244930    5.896990   -1.906000
  C     -1.322560    5.302050   -0.623910
  C     -0.178370    4.583780   -0.121100
  N     -0.535810    4.035770    1.026530
  O     -1.792880    4.405490    1.229720
  N     -2.290940    5.161160    0.261220
  C      2.140100    5.208980   -2.945450
  N      2.147520    4.992020   -4.288990
  C      1.004220    4.808760   -5.149810
  C      0.493590    6.143760   -5.682370
  C      3.468140    4.932050   -4.807360
  O      3.714810    4.725450   -5.971110
  C      4.302180    5.186000   -3.653530
  C      3.455500    5.367100   -2.520710
  C      4.306470    5.718190   -1.403420
  O      4.073070    6.047010   -0.255570
  N      5.615910    5.625670   -1.909660
  C      6.720830    6.164900   -1.144590
  C      7.162540    5.253690   -0.003870
  C      5.620130    5.294550   -3.246530
  C      6.790370    5.028660   -4.022610
  C      7.898400    4.454380   -3.510080
  C      9.084900    4.183140   -4.248720
  S     10.348610    3.165450   -3.571190
  C     11.246590    3.536390   -5.042150
  N     10.579290    4.315890   -5.845630
  N      9.403570    4.663420   -5.417860
  C     12.557020    3.026310   -5.244430
  C     13.398280    3.447070   -6.219500
  C     14.706450    2.904250   -6.314380
  C     15.688640    3.337100   -7.151770
  C     17.039480    2.806490   -7.247390
  C     17.529170    1.687720   -6.625720
  C     18.852810    1.218410   -6.767270
  N     19.912480    0.781970   -6.833970
  C     16.802310    0.832010   -5.771020
  N     16.287780    0.084470   -5.067100
  C     17.790890    3.667980   -8.151750
  C     16.920680    4.678720   -8.651930
  C     15.576720    4.503280   -8.074620
  O     14.596690    5.179390   -8.295070
  C     17.354470    5.638590   -9.520620
  C     18.705110    5.634500   -9.934820
  C     19.582610    4.627460   -9.438100
  C     19.104550    3.645050   -8.542010
  C     20.929780    4.633980   -9.854260
  C     21.390260    5.589290  -10.718610
  C     20.525810    6.580940  -11.206490
  C     19.212030    6.602850  -10.823600
  H      2.703130    6.106970    4.322980
  H      6.087200    2.667510    3.065730
  H      7.164340    2.939740    5.216190
  H      7.298600    4.031160    7.420080
  H      5.643390    5.737710    8.063360
  H      3.838500    6.365740    6.509360
  H      2.611590    3.154070   -1.250010
  H     -2.084360    6.417790   -2.341860
  H      0.216490    4.295460   -4.594660
  H      1.339300    4.181010   -5.980190
  H      0.171030    6.772340   -4.856960
  H     -0.346920    5.974000   -6.348910
  H      1.281490    6.648880   -6.235210
  H      6.379560    7.112300   -0.712610
  H      7.546820    6.365840   -1.829100
  H      6.362180    5.163680    0.725840
  H      8.029560    5.685000    0.489120
  H      7.426320    4.260310   -0.360120
  H      6.724630    5.227570   -5.082770
  H      7.916980    4.123620   -2.482010
  H     12.885670    2.277920   -4.533950
  H     13.087790    4.214110   -6.912900
  H     14.928330    2.092270   -5.632600
  H     16.674460    6.394580   -9.884360
  H     19.795400    2.899690   -8.181620
  H     21.590750    3.868060   -9.475820
  H     22.423660    5.586330  -11.031330
  H     20.906540    7.327640  -11.887130
  H     18.542320    7.364160  -11.195900

 Total Charge           Charge          ....    0
 Multiplicity           Mult            ....    1
 Number of Electrons    NEL             ....  492
 Basis Dimension        Dim             .... 1157

ORBITAL ENERGIES
----------------

  NO   OCC          E(Eh)            E(eV)
   0   2.0000     -88.981045     -2421.2973
   1   2.0000     -19.372181      -527.1438
   2   2.0000     -19.217257      -522.9281
   3   2.0000     -19.214347      -522.8490
   4   2.0000     -19.205877      -522.6185
   5   2.0000     -19.197327      -522.3858
   6   2.0000     -14.497540      -394.4981
   7   2.0000     -14.490697      -394.3119
   8   2.0000     -14.464577      -393.6012
   9   2.0000     -14.462693      -393.5499
  10   2.0000     -14.447402      -393.1338
  11   2.0000     -14.446391      -393.1063
  12   2.0000     -14.444714      -393.0606
  13   2.0000     -14.423279      -392.4774
  14   2.0000     -14.421953      -392.4413
  15   2.0000     -14.418695      -392.3526
  16   2.0000     -14.416294      -392.2873
  17   2.0000     -10.385897      -282.6146
  18   2.0000     -10.380875      -282.4780
  19   2.0000     -10.368007      -282.1278
  20   2.0000     -10.365083      -282.0483
  21   2.0000     -10.356933      -281.8265
  22   2.0000     -10.352482      -281.7054
  23   2.0000     -10.351639      -281.6824
  24   2.0000     -10.350370      -281.6479
  25   2.0000     -10.350107      -281.6407
  26   2.0000     -10.348959      -281.6095
  27   2.0000     -10.347065      -281.5580
  28   2.0000     -10.344588      -281.4906
  29   2.0000     -10.344208      -281.4802
  30   2.0000     -10.342324      -281.4289
  31   2.0000     -10.340125      -281.3691
  32   2.0000     -10.338196      -281.3166
  33   2.0000     -10.330662      -281.1116
  34   2.0000     -10.326428      -280.9964
  35   2.0000     -10.324807      -280.9523
  36   2.0000     -10.321283      -280.8564
  37   2.0000     -10.319005      -280.7944
  38   2.0000     -10.316797      -280.7343
  39   2.0000     -10.315641      -280.7029
  40   2.0000     -10.315505      -280.6992
  41   2.0000     -10.313180      -280.6359
  42   2.0000     -10.310156      -280.5536
  43   2.0000     -10.306009      -280.4408
  44   2.0000     -10.305024      -280.4140
  45   2.0000     -10.304489      -280.3994
  46   2.0000     -10.304171      -280.3908
  47   2.0000     -10.303769      -280.3798
  48   2.0000     -10.302716      -280.3512
  49   2.0000     -10.299319      -280.2587
  50   2.0000     -10.299033      -280.2509
  51   2.0000     -10.298797      -280.2445
  52   2.0000     -10.298552      -280.2378
  53   2.0000     -10.298279      -280.2304
  54   2.0000     -10.297506      -280.2094
  55   2.0000     -10.297067      -280.1974
  56   2.0000     -10.296194      -280.1737
  57   2.0000     -10.295027      -280.1419
  58   2.0000     -10.289104      -279.9807
  59   2.0000     -10.288673      -279.9690
  60   2.0000     -10.287954      -279.9495
  61   2.0000     -10.287466      -279.9362
  62   2.0000     -10.287328      -279.9324
  63   2.0000     -10.287080      -279.9257
  64   2.0000     -10.286903      -279.9209
  65   2.0000     -10.286694      -279.9152
  66   2.0000     -10.286528      -279.9106
  67   2.0000     -10.286068      -279.8982
  68   2.0000     -10.279620      -279.7227
  69   2.0000     -10.271755      -279.5087
  70   2.0000     -10.266356      -279.3618
  71   2.0000     -10.251496      -278.9574
  72   2.0000      -8.077521      -219.8005
  73   2.0000      -6.046033      -164.5209
  74   2.0000      -6.042806      -164.4331
  75   2.0000      -6.040022      -164.3573
  76   2.0000      -1.326275       -36.0898
  77   2.0000      -1.151579       -31.3361
  78   2.0000      -1.145889       -31.1812
  79   2.0000      -1.136792       -30.9337
  80   2.0000      -1.132151       -30.8074
  81   2.0000      -1.130403       -30.7598
  82   2.0000      -1.085416       -29.5357
  83   2.0000      -1.072075       -29.1726
  84   2.0000      -1.061275       -28.8788
  85   2.0000      -1.026107       -27.9218
  86   2.0000      -1.024097       -27.8671
  87   2.0000      -1.019912       -27.7532
  88   2.0000      -1.002089       -27.2682
  89   2.0000      -1.000443       -27.2234
  90   2.0000      -0.999830       -27.2068
  91   2.0000      -0.995538       -27.0900
  92   2.0000      -0.981960       -26.7205
  93   2.0000      -0.973113       -26.4797
  94   2.0000      -0.972828       -26.4720
  95   2.0000      -0.958089       -26.0709
  96   2.0000      -0.943314       -25.6689
  97   2.0000      -0.940511       -25.5926
  98   2.0000      -0.932194       -25.3663
  99   2.0000      -0.925678       -25.1890
 100   2.0000      -0.923272       -25.1235
 101   2.0000      -0.910724       -24.7821
 102   2.0000      -0.898311       -24.4443
 103   2.0000      -0.893670       -24.3180
 104   2.0000      -0.885602       -24.0984
 105   2.0000      -0.882492       -24.0138
 106   2.0000      -0.881219       -23.9792
 107   2.0000      -0.875828       -23.8325
 108   2.0000      -0.863460       -23.4959
 109   2.0000      -0.846560       -23.0361
 110   2.0000      -0.833351       -22.6766
 111   2.0000      -0.829686       -22.5769
 112   2.0000      -0.828984       -22.5578
 113   2.0000      -0.823471       -22.4078
 114   2.0000      -0.814954       -22.1760
 115   2.0000      -0.799323       -21.7507
 116   2.0000      -0.793703       -21.5978
 117   2.0000      -0.789284       -21.4775
 118   2.0000      -0.763621       -20.7792
 119   2.0000      -0.762968       -20.7614
 120   2.0000      -0.762929       -20.7604
 121   2.0000      -0.756858       -20.5952
 122   2.0000      -0.742292       -20.1988
 123   2.0000      -0.730602       -19.8807
 124   2.0000      -0.726900       -19.7799
 125   2.0000      -0.712487       -19.3878
 126   2.0000      -0.706586       -19.2272
 127   2.0000      -0.705612       -19.2007
 128   2.0000      -0.703218       -19.1355
 129   2.0000      -0.701266       -19.0824
 130   2.0000      -0.695264       -18.9191
 131   2.0000      -0.690898       -18.8003
 132   2.0000      -0.686930       -18.6923
 133   2.0000      -0.686155       -18.6712
 134   2.0000      -0.677846       -18.4451
 135   2.0000      -0.671902       -18.2834
 136   2.0000      -0.664764       -18.0892
 137   2.0000      -0.655953       -17.8494
 138   2.0000      -0.650901       -17.7119
 139   2.0000      -0.642154       -17.4739
 140   2.0000      -0.637912       -17.3585
 141   2.0000      -0.628489       -17.1021
 142   2.0000      -0.623887       -16.9768
 143   2.0000      -0.621510       -16.9122
 144   2.0000      -0.616067       -16.7640
 145   2.0000      -0.608466       -16.5572
 146   2.0000      -0.607563       -16.5326
 147   2.0000      -0.606183       -16.4951
 148   2.0000      -0.598845       -16.2954
 149   2.0000      -0.592714       -16.1286
 150   2.0000      -0.590613       -16.0714
 151   2.0000      -0.588928       -16.0255
 152   2.0000      -0.583474       -15.8771
 153   2.0000      -0.579245       -15.7621
 154   2.0000      -0.570645       -15.5280
 155   2.0000      -0.566547       -15.4165
 156   2.0000      -0.559159       -15.2155
 157   2.0000      -0.557895       -15.1811
 158   2.0000      -0.552905       -15.0453
 159   2.0000      -0.550692       -14.9851
 160   2.0000      -0.549098       -14.9417
 161   2.0000      -0.547453       -14.8970
 162   2.0000      -0.547059       -14.8862
 163   2.0000      -0.544435       -14.8148
 164   2.0000      -0.540166       -14.6987
 165   2.0000      -0.538226       -14.6459
 166   2.0000      -0.536561       -14.6006
 167   2.0000      -0.535367       -14.5681
 168   2.0000      -0.534190       -14.5360
 169   2.0000      -0.525542       -14.3007
 170   2.0000      -0.521766       -14.1980
 171   2.0000      -0.520999       -14.1771
 172   2.0000      -0.519857       -14.1460
 173   2.0000      -0.519612       -14.1394
 174   2.0000      -0.516922       -14.0662
 175   2.0000      -0.516370       -14.0512
 176   2.0000      -0.514810       -14.0087
 177   2.0000      -0.513657       -13.9773
 178   2.0000      -0.512571       -13.9478
 179   2.0000      -0.508439       -13.8353
 180   2.0000      -0.505161       -13.7461
 181   2.0000      -0.504254       -13.7215
 182   2.0000      -0.501589       -13.6489
 183   2.0000      -0.500278       -13.6133
 184   2.0000      -0.498245       -13.5579
 185   2.0000      -0.493476       -13.4282
 186   2.0000      -0.489193       -13.3116
 187   2.0000      -0.486930       -13.2500
 188   2.0000      -0.483826       -13.1656
 189   2.0000      -0.478237       -13.0135
 190   2.0000      -0.476179       -12.9575
 191   2.0000      -0.474207       -12.9038
 192   2.0000      -0.471987       -12.8434
 193   2.0000      -0.467802       -12.7295
 194   2.0000      -0.465286       -12.6611
 195   2.0000      -0.464248       -12.6328
 196   2.0000      -0.460375       -12.5274
 197   2.0000      -0.456474       -12.4213
 198   2.0000      -0.451527       -12.2867
 199   2.0000      -0.450762       -12.2658
 200   2.0000      -0.448776       -12.2118
 201   2.0000      -0.448339       -12.1999
 202   2.0000      -0.445961       -12.1352
 203   2.0000      -0.444273       -12.0893
 204   2.0000      -0.441904       -12.0248
 205   2.0000      -0.440839       -11.9959
 206   2.0000      -0.439215       -11.9517
 207   2.0000      -0.436554       -11.8792
 208   2.0000      -0.434814       -11.8319
 209   2.0000      -0.433618       -11.7993
 210   2.0000      -0.433347       -11.7920
 211   2.0000      -0.429904       -11.6983
 212   2.0000      -0.427834       -11.6420
 213   2.0000      -0.427082       -11.6215
 214   2.0000      -0.425696       -11.5838
 215   2.0000      -0.424076       -11.5397
 216   2.0000      -0.420782       -11.4500
 217   2.0000      -0.419219       -11.4075
 218   2.0000      -0.416264       -11.3271
 219   2.0000      -0.412732       -11.2310
 220   2.0000      -0.409913       -11.1543
 221   2.0000      -0.407579       -11.0908
 222   2.0000      -0.405110       -11.0236
 223   2.0000      -0.397795       -10.8246
 224   2.0000      -0.396181       -10.7806
 225   2.0000      -0.393607       -10.7106
 226   2.0000      -0.388968       -10.5843
 227   2.0000      -0.379332       -10.3221
 228   2.0000      -0.376322       -10.2403
 229   2.0000      -0.369157       -10.0453
 230   2.0000      -0.368041       -10.0149
 231   2.0000      -0.360149        -9.8001
 232   2.0000      -0.350912        -9.5488
 233   2.0000      -0.341820        -9.3014
 234   2.0000      -0.338554        -9.2125
 235   2.0000      -0.336591        -9.1591
 236   2.0000      -0.333278        -9.0690
 237   2.0000      -0.329650        -8.9702
 238   2.0000      -0.323183        -8.7942
 239   2.0000      -0.319683        -8.6990
 240   2.0000      -0.318073        -8.6552
 241   2.0000      -0.313174        -8.5219
 242   2.0000      -0.299721        -8.1558
 243   2.0000      -0.295070        -8.0293
 244   2.0000      -0.289454        -7.8764
 245   2.0000      -0.258584        -7.0364
 246   0.0000      -0.109311        -2.9745
 247   0.0000      -0.098211        -2.6724
 248   0.0000      -0.081907        -2.2288
 249   0.0000      -0.067889        -1.8474
 250   0.0000      -0.058090        -1.5807

MULLIKEN ATOMIC CHARGES
-----------------------
   0 C :    0.320667
   1 C :   -0.371831
   2 C :   -0.199124
   3 N :    0.156527
   4 C :   -0.199907
   5 N :    0.160701
   6 C :    0.049552
   7 C :    0.004117
   8 C :   -0.084244
   9 C :    0.099411
  10 C :    0.098835
  11 C :   -0.092409
  12 C :   -0.019932
  13 C :    0.036421
  14 C :    0.039186
  15 C :   -0.018638
  16 C :    0.190974
  17 O :   -0.136252
  18 C :   -0.013301
  19 C :   -0.138553
  20 C :    0.119827
  21 C :   -0.120875
  22 N :   -0.028844
  23 C :    0.014252
  24 C :   -0.025501
  25 C :   -0.030680
  26 N :    0.069438
  27 O :   -0.087838
  28 N :    0.076312
  29 C :    0.112061
  30 N :   -0.260632
  31 C :    0.126950
  32 C :    0.001323
  33 C :    0.158524
  34 O :   -0.164769
  35 C :   -0.003262
  36 C :   -0.047475
  37 C :    0.166277
  38 O :   -0.199761
  39 N :   -0.265888
  40 C :    0.108648
  41 C :   -0.013496
  42 C :    0.084117
  43 C :    0.008416
  44 C :    0.079930
  45 C :   -0.115355
  46 S :    0.117238
  47 C :   -0.104550
  48 N :   -0.024879
  49 N :   -0.030796
  50 C :    0.083544
  51 C :    0.019430
  52 C :   -0.061068
  53 C :   -0.049111
  54 C :    0.336019
  55 C :   -0.348199
  56 C :   -0.184141
  57 N :    0.150846
  58 C :   -0.192469
  59 N :    0.149481
  60 C :    0.044188
  61 C :   -0.006608
  62 C :    0.147487
  63 O :   -0.137680
  64 C :   -0.077850
  65 C :    0.098147
  66 C :    0.096231
  67 C :   -0.082429
  68 C :   -0.019032
  69 C :    0.037352
  70 C :    0.036556
  71 C :   -0.016685
  72 H :   -0.011833
  73 H :   -0.007520
  74 H :   -0.010693
  75 H :   -0.004557
  76 H :   -0.005238
  77 H :   -0.016480
  78 H :    0.054409
  79 H :    0.018895
  80 H :    0.020172
  81 H :    0.039119
  82 H :    0.025595
  83 H :    0.016059
  84 H :    0.023864
  85 H :    0.029674
  86 H :    0.034424
  87 H :    0.042778
  88 H :    0.021992
  89 H :    0.036216
  90 H :    0.047130
  91 H :   -0.009974
  92 H :    0.015027
  93 H :    0.053878
  94 H :    0.015132
  95 H :   -0.011158
  96 H :   -0.008380
  97 H :   -0.008711
  98 H :   -0.004386
  99 H :   -0.004385
 100 H :   -0.015972
Sum of atomic charges:    0.0000000

LOEWDIN ATOMIC CHARGES
----------------------
   0 C :    0.082208
   1 C :   -0.140796
   2 C :   -0.017434
   3 N :   -0.056735
   4 C :   -0.025277
   5 N :   -0.054924
   6 C :   -0.024587
   7 C :   -0.046146
   8 C :    0.033976
   9 C :   -0.006224
  10 C :   -0.006961
  11 C :    0.017243
  12 C :   -0.006186
  13 C :   -0.013902
  14 C :   -0.011269
  15 C :   -0.009112
  16 C :    0.092330
  17 O :   -0.126689
  18 C :   -0.053947
  19 C :    0.041021
  20 C :   -0.005160
  21 C :   -0.004780
  22 N :   -0.040331
  23 C :    0.056614
  24 C :   -0.079814
  25 C :   -0.039934
  26 N :   -0.008254
  27 O :    0.095494
  28 N :   -0.004750
  29 C :    0.086863
  30 N :    0.013546
  31 C :    0.039885
  32 C :   -0.062782
  33 C :    0.087588
  34 O :   -0.170029
  35 C :   -0.106099
  36 C :   -0.112705
  37 C :    0.081649
  38 O :   -0.184232
  39 N :    0.002853
  40 C :    0.040118
  41 C :   -0.063352
  42 C :    0.081734
  43 C :    0.016812
  44 C :   -0.032241
  45 C :   -0.145601
  46 S :    0.404053
  47 C :   -0.151788
  48 N :   -0.055868
  49 N :   -0.064429
  50 C :   -0.012090
  51 C :    0.011476
  52 C :    0.062655
  53 C :   -0.079557
  54 C :    0.075188
  55 C :   -0.135151
  56 C :   -0.016880
  57 N :   -0.051210
  58 C :   -0.020631
  59 N :   -0.050845
  60 C :   -0.026505
  61 C :   -0.055895
  62 C :    0.083682
  63 O :   -0.133573
  64 C :    0.033331
  65 C :   -0.007470
  66 C :   -0.005921
  67 C :    0.019985
  68 C :   -0.005184
  69 C :   -0.012866
  70 C :   -0.011356
  71 C :   -0.009194
  72 H :    0.039870
  73 H :    0.038212
  74 H :    0.034141
  75 H :    0.033254
  76 H :    0.032957
  77 H :    0.032380
  78 H :    0.048424
  79 H :    0.035427
  80 H :    0.023990
  81 H :    0.034800
  82 H :    0.020691
  83 H :    0.028066
  84 H :    0.027947
  85 H :    0.033614
  86 H :    0.028290
  87 H :    0.029878
  88 H :    0.033059
  89 H :    0.020265
  90 H :    0.056701
  91 H :    0.034881
  92 H :    0.038979
  93 H :    0.045422
  94 H :    0.042259
  95 H :    0.039824
  96 H :    0.039071
  97 H :    0.034965
  98 H :    0.033462
  99 H :    0.033119
 100 H :    0.032417

  Mayer bond orders larger than 0.100000
B(  0-C ,  1-C ) :   1.6396 B(  0-C ,  6-C ) :   1.0021 B(  0-C , 18-C ) :   1.0542
B(  1-C ,  2-C ) :   1.1486 B(  1-C ,  4-C ) :   1.1611 B(  2-C ,  3-N ) :   2.9456
B(  4-C ,  5-N ) :   2.9372 B(  6-C ,  7-C ) :   1.2139 B(  6-C , 11-C ) :   1.4293
B(  7-C ,  8-C ) :   1.4730 B(  7-C , 16-C ) :   0.9477 B(  8-C ,  9-C ) :   1.1777
B(  8-C , 72-H ) :   1.0167 B(  9-C , 10-C ) :   1.2559 B(  9-C , 15-C ) :   1.2427
B( 10-C , 11-C ) :   1.2083 B( 10-C , 12-C ) :   1.2363 B( 11-C , 73-H ) :   0.9932
B( 12-C , 13-C ) :   1.4902 B( 12-C , 74-H ) :   0.9983 B( 13-C , 14-C ) :   1.2575
B( 13-C , 75-H ) :   0.9888 B( 14-C , 15-C ) :   1.4897 B( 14-C , 76-H ) :   0.9886
B( 15-C , 77-H ) :   0.9984 B( 16-C , 17-O ) :   2.2327 B( 16-C , 18-C ) :   0.9046
B( 18-C , 19-C ) :   1.7198 B( 19-C , 20-C ) :   1.0461 B( 19-C , 78-H ) :   0.9078
B( 20-C , 21-C ) :   1.4917 B( 20-C , 25-C ) :   1.1478 B( 21-C , 22-N ) :   1.3530
B( 21-C , 29-C ) :   1.0212 B( 22-N , 23-C ) :   1.7432 B( 23-C , 24-C ) :   1.1013
B( 23-C , 79-H ) :   0.9890 B( 24-C , 25-C ) :   1.1738 B( 24-C , 28-N ) :   1.5904
B( 25-C , 26-N ) :   1.5841 B( 26-N , 27-O ) :   1.0696 B( 26-N , 28-N ) :   0.1878
B( 27-O , 28-N ) :   1.0913 B( 29-C , 30-N ) :   1.2582 B( 29-C , 36-C ) :   1.3596
B( 30-N , 31-C ) :   0.9362 B( 30-N , 33-C ) :   0.9980 B( 31-C , 32-C ) :   1.1200
B( 31-C , 80-H ) :   0.9440 B( 31-C , 81-H ) :   0.9314 B( 32-C , 82-H ) :   0.9597
B( 32-C , 83-H ) :   0.9668 B( 32-C , 84-H ) :   0.9651 B( 33-C , 34-O ) :   2.1796
B( 33-C , 35-C ) :   0.9648 B( 35-C , 36-C ) :   1.2216 B( 35-C , 42-C ) :   1.3902
B( 36-C , 37-C ) :   0.9837 B( 37-C , 38-O ) :   2.0405 B( 37-C , 39-N ) :   1.0475
B( 39-N , 40-C ) :   0.9324 B( 39-N , 42-C ) :   1.1714 B( 40-C , 41-C ) :   1.1185
B( 40-C , 85-H ) :   0.9361 B( 40-C , 86-H ) :   0.9490 B( 41-C , 87-H ) :   0.9605
B( 41-C , 88-H ) :   0.9564 B( 41-C , 89-H ) :   0.9551 B( 42-C , 43-C ) :   1.1164
B( 43-C , 44-C ) :   1.7038 B( 43-C , 90-H ) :   0.9606 B( 44-C , 45-C ) :   1.1021
B( 44-C , 91-H ) :   0.9400 B( 45-C , 46-S ) :   1.1096 B( 45-C , 49-N ) :   1.6757
B( 46-S , 47-C ) :   1.0968 B( 47-C , 48-N ) :   1.6705 B( 47-C , 50-C ) :   1.0788
B( 48-N , 49-N ) :   1.2444 B( 50-C , 51-C ) :   1.6405 B( 50-C , 92-H ) :   0.9562
B( 51-C , 52-C ) :   1.1193 B( 51-C , 93-H ) :   0.9896 B( 52-C , 53-C ) :   1.5751
B( 52-C , 94-H ) :   0.9611 B( 53-C , 54-C ) :   1.0542 B( 53-C , 62-C ) :   0.9302
B( 54-C , 55-C ) :   1.6331 B( 54-C , 60-C ) :   0.9916 B( 55-C , 56-C ) :   1.1447
B( 55-C , 58-C ) :   1.1452 B( 56-C , 57-N ) :   2.9638 B( 58-C , 59-N ) :   2.9658
B( 60-C , 61-C ) :   1.2147 B( 60-C , 67-C ) :   1.4460 B( 61-C , 62-C ) :   0.9394
B( 61-C , 64-C ) :   1.4715 B( 62-C , 63-O ) :   2.2284 B( 64-C , 65-C ) :   1.1816
B( 64-C , 95-H ) :   1.0154 B( 65-C , 66-C ) :   1.2542 B( 65-C , 71-C ) :   1.2430
B( 66-C , 67-C ) :   1.2098 B( 66-C , 68-C ) :   1.2383 B( 67-C , 96-H ) :   0.9884
B( 68-C , 69-C ) :   1.4907 B( 68-C , 97-H ) :   0.9970 B( 69-C , 70-C ) :   1.2586
B( 69-C , 98-H ) :   0.9882 B( 70-C , 71-C ) :   1.4895 B( 70-C , 99-H ) :   0.9890
B( 71-C ,100-H ) :   0.9977

-----------------------------------------------------------------------------
         ABSORPTION SPECTRUM VIA TRANSITION ELECTRIC DIPOLE MOMENTS
-----------------------------------------------------------------------------
State   Energy  Wavelength   fosc         T2         TX        TY        TZ
        (cm-1)    (nm)                  (au**2)     (au)      (au)      (au)
-----------------------------------------------------------------------------
   0   16504.2    605.9   0.566513360  11.30030   2.78539   0.43209  -1.83172
   1   20261.8    493.5   0.730169458  11.86375  -3.37211   0.68126  -0.16884
   2   22564.0    443.2   0.130546348   1.90469  -0.93021   0.41197   0.93257
   3   24758.1    403.9   0.212108143   2.82044  -1.36544   0.79617   0.56755
   4   25315.6    395.0   0.051074988   0.66420  -0.74391   0.27193   0.19197
   5   25862.1    386.7   0.133976711   1.70546  -0.75624  -0.00054   1.06469
   6   26052.8    383.8   0.007970159   0.10071  -0.30949  -0.04891  -0.05035
   7   26457.8    378.0   0.444168885   5.52675  -2.13510   0.00686   0.98390
   8   26598.6    376.0   0.042639659   0.52775   0.01859   0.02801   0.72569
   9   26824.8    372.8   0.019296303   0.23682  -0.40839   0.06582   0.25633
  10   26895.0    371.8   0.093544515   1.14504  -0.90987   0.14844  -0.54327
  11   28077.3    356.2   0.139672849   1.63769   1.00360  -0.43697   0.66297
  12   28525.8    350.6   0.063755289   0.73579   0.73694   0.25001  -0.36084
  13   28875.5    346.3   0.065933623   0.75171   0.64297  -0.05306   0.57921
  14   29017.8    344.6   0.055946578   0.63472  -0.24197   0.14755  -0.74458
  15   29374.0    340.4   0.142783917   1.60027  -1.03435   0.30452  -0.66155
  16   30030.3    333.0   0.169611427   1.85939   0.46148  -0.29864  -1.24789
  17   30416.2    328.8   0.014861965   0.16086  -0.17965  -0.18704   0.30594
  18   31213.8    320.4   0.218498917   2.30451  -0.05404   0.19295   1.50478
  19   31615.9    316.3   0.314820223   3.27818   1.61124   0.59396  -0.57383
  20   31922.5    313.3   0.241017110   2.48557   0.15696   0.68329  -1.41211
  21   32243.1    310.1   0.051345481   0.52425  -0.53656  -0.34953  -0.33791
  22   32501.4    307.7   0.142857512   1.44702  -0.42744   0.40652  -1.04836
  23   32788.0    305.0   0.084368026   0.84711  -0.05779   0.55723   0.73025
  24   32979.0    303.2   0.180868832   1.80552  -0.49328  -0.86362   0.90352
  25   33144.1    301.7   0.017100633   0.16986   0.16916   0.16868  -0.33584
  26   33159.8    301.6   0.028654958   0.28449   0.22088   0.44710  -0.18921
  27   33381.3    299.6   0.193375693   1.90710  -0.84107  -0.92605   0.58493
  28   33499.7    298.5   0.085192474   0.83721   0.20103   0.53648  -0.71344
  29   33699.9    296.7   0.011643597   0.11375   0.16729   0.22789   0.18392
  30   33753.2    296.3   0.086222978   0.84098  -0.23698   0.16300   0.87077
  31   34048.2    293.7   0.014575306   0.14093   0.36190   0.09446  -0.03213
  32   34983.2    285.9   0.024427032   0.22987   0.37247   0.03967   0.29927
  33   35456.4    282.0   0.439091770   4.07696  -0.03366   0.96283   1.77448
  34   35482.2    281.8   0.044402165   0.41197  -0.28523   0.52731  -0.22926
  35   35832.0    279.1   0.029596115   0.27192  -0.23232  -0.22030  -0.41160
  36   36469.7    274.2   0.164354830   1.48363  -0.25550  -1.03283   0.59297
  37   36559.7    273.5   0.056107351   0.50523   0.42950  -0.55321  -0.12134
  38   36915.4    270.9   0.041810310   0.37287   0.23840  -0.32324   0.45994
  39   37038.2    270.0   0.014672428   0.13042  -0.10602  -0.22731  -0.25981
  40   37296.6    268.1   0.037398967   0.33012   0.16278  -0.22672  -0.50221
  41   37943.7    263.5   0.039465629   0.34242   0.44144  -0.26075  -0.28206
  42   38071.0    262.7   0.047697538   0.41246   0.39780  -0.36914  -0.34344
  43   38163.8    262.0   0.033168944   0.28613   0.03428  -0.52657  -0.08757
  44   38274.1    261.3   0.051495429   0.44293  -0.29136  -0.25063   0.54335
  45   38759.6    258.0   0.055759691   0.47361   0.51494  -0.45595  -0.02359
  46   38806.0    257.7   0.018338950   0.15558  -0.33148  -0.12855   0.17081
  47   38994.2    256.4   0.065484745   0.55286  -0.52191   0.47773  -0.22857
  48   39259.3    254.7   0.021112888   0.17704  -0.21765   0.31938  -0.16634
  49   39419.5    253.7   0.067590949   0.56449  -0.27883  -0.46394   0.52106
  50   39619.5    252.4   0.043381603   0.36047  -0.28662   0.52752  -0.00634
  51   39750.2    251.6   0.020583813   0.17048  -0.31019   0.25266   0.10209
  52   39875.8    250.8   0.044380446   0.36640  -0.22969   0.52126   0.20477
  53   40012.8    249.9   0.093595156   0.77007   0.86097  -0.13936   0.09683

FINAL SINGLE POINT ENERGY     -3485.715762479912

DIPOLE MOMENT
-------------
                                X             Y             Z
Electronic contribution:    -10.35571     -17.27121       2.94249
Nuclear contribution   :     10.53189      19.55596      -1.75514
                        -----------------------------------------
Total Dipole Moment    :      0.17618       2.28475       1.18735
                        -----------------------------------------
Magnitude (a.u.)       :      2.58088
Magnitude (Debye)      :      6.56007

Rotational constants in cm-1:     0.001810     0.000291     0.000263
Rotational constants in MHz :    54.266635     8.722744     7.885820

                             ****ORCA TERMINATED NORMALLY****
TOTAL RUN TIME: 0 days 0 hours 9 minutes 39 seconds 727 msec
