                         Program Version 4.2.0 -  RELEASE  -
|  1> # ORCA input file
|  2> # SCF done       -196.732158871218          0.000654001821
|  3> ! CAM-B3LYP def2-SVP def2/J RIJCOSX Grid4 TightSCF
|  4> %maxcore 5000
|  5> %tddft
|  6>     Mode sTDDFT
|  7>     Ethresh 5.0
|  8>     maxcore 5000
|  9> end
| 10>
| 11> %pal
| 12>   nprocs 6
| 13>   end
| 14> * xyz 0 1
| 15>    C       -0.97847        -0.23365        -4.53004
| 16>    C       -2.15784        -0.74660        -5.01079
| 17>    C       -2.27959        -2.01868        -5.60801
| 18>    N       -2.46158        -3.04027        -6.10055
| 19>    C       -3.41277        -0.10359        -5.02297
| 20>    N       -4.47162         0.33842        -5.09418
| 21>    C        0.31246        -0.90868        -4.61114
| 22>    C        1.31195        -0.02645        -4.11611
| 23>    C        2.63043        -0.37505        -4.07301
| 24>    C        3.01927        -1.65294        -4.53361
| 25>    C        2.02521        -2.54517        -5.02792
| 26>    C        0.66660        -2.15387        -5.05870
| 27>    C        2.42299        -3.81789        -5.48516
| 28>    C        3.73880        -4.19246        -5.45718
| 29>    C        4.71672        -3.31292        -4.96975
| 30>    C        4.36445        -2.07010        -4.51770
| 31>    C        0.68736         1.23862        -3.69152
| 32>    O        1.27862         2.19787        -3.23645
| 33>    C       -0.76546         1.06787        -3.91932
| 34>    C       -1.78776         1.91262        -3.57152
| 35>    C       -1.78877         3.21408        -3.03879
| 36>    S       -3.36392         3.91524        -2.68572
| 37>    C       -2.66860         5.41580        -2.17644
| 38>    C       -1.26637         5.35452        -2.27938
| 39>    C       -0.79082         4.12984        -2.75718
| 40>    C       -0.38735         6.40304        -1.96349
| 41>    N        0.36310         7.23972        -1.72601
| 42>    C       -3.52549         6.45854        -1.75809
| 43>    C       -3.11446         7.69726        -1.37574
| 44>    C       -3.92671         8.78464        -0.97175
| 45>    C       -3.48202        10.11455        -0.86448
| 46>    C       -2.10238        10.61072        -1.10141
| 47>    C       -4.56018        10.97435        -0.50432
| 48>    C       -5.67906        10.16527        -0.35582
| 49>    C       -5.31996         8.77939        -0.62523
| 50>    C       -6.28323         7.82500        -0.43022
| 51>    C       -7.57393         8.24443        -0.04154
| 52>    C       -7.82985         9.56949         0.14870
| 53>    O       -6.91515        10.51850         0.00760
| 54>    C       -4.47174        12.40173        -0.32549
| 55>    C       -5.49758        13.20279        -0.03487
| 56>    C       -5.36696        14.67106         0.18906
| 57>    C       -5.61762        15.02622         1.66102
| 58>    O       -5.21223        14.44445         2.62001
| 59>    O       -6.38805        16.12356         1.73827
| 60>    C       -6.63787        16.68313         0.45494
| 61>    C       -6.42388        15.51821        -0.52884
| 62>    C       -6.07549        15.91959        -1.95715
| 63>    C       -4.98476        16.97762        -2.03502
| 64>    C       -5.27598        18.20467        -1.18311
| 65>    C       -5.69863        17.89631         0.26277
| 66>    O       -6.35531        19.08233         0.70026
| 67>    C       -6.76109        19.84038        -0.32036
| 68>    O       -7.35251        20.86735        -0.19389
| 69>    C       -6.37280        19.17321        -1.65838
| 70>    C       -7.62714        18.58663        -2.19218
| 71>    C       -8.14842        18.86461        -3.40184
| 72>    C       -9.45176        18.43549        -3.90711
| 73>    C      -10.20944        17.40532        -3.42282
| 74>    C      -11.45625        17.01972        -3.96293
| 75>    N      -12.46895        16.65659        -4.36121
| 76>    C       -9.82565        16.55972        -2.36200
| 77>    N       -9.55225        15.82360        -1.52349
| 78>    C       -9.76278        19.26130        -5.06245
| 79>    C       -8.62620        20.06439        -5.37330
| 80>    C       -7.55177        19.79506        -4.40768
| 81>    O       -6.42119        20.22858        -4.42464
| 82>    C       -8.62785        20.93921        -6.42216
| 83>    C       -9.79015        21.06253        -7.21486
| 84>    C      -10.93480        20.27091        -6.90390
| 85>    C      -10.90204        19.36747        -5.81841
| 86>    C      -12.09251        20.41031        -7.69694
| 87>    C      -12.11998        21.28783        -8.74644
| 88>    C      -10.99245        22.06511        -9.05233
| 89>    C       -9.85211        21.95439        -8.30354
| 90>    H        3.36755         0.31661        -3.69272
| 91>    H       -0.05974        -2.85603        -5.43528
| 92>    H        1.66635        -4.49138        -5.86041
| 93>    H        4.03337        -5.16923        -5.81096
| 94>    H        5.75046        -3.62480        -4.95428
| 95>    H        5.11290        -1.38809        -4.14119
| 96>    H       -2.78850         1.52711        -3.72813
| 97>    H        0.25328         3.91200        -2.89426
| 98>    H       -4.57734         6.22041        -1.79727
| 99>    H       -2.05461         7.89941        -1.41384
|100>    H       -1.39512         9.80154        -1.25213
|101>    H       -1.77040        11.20472        -0.25061
|102>    H       -2.08178        11.25166        -1.98349
|103>    H       -6.09090         6.77122        -0.54450
|104>    H       -8.35831         7.52298         0.10877
|105>    H       -8.79347         9.95938         0.44100
|106>    H       -3.48333        12.82526        -0.43923
|107>    H       -6.49273        12.80414         0.08821
|108>    H       -4.35110        14.99976        -0.05447
|109>    H       -7.67407        17.03400         0.46589
|110>    H       -7.35633        14.94397        -0.55918
|111>    H       -6.97566        16.28770        -2.45074
|112>    H       -5.75299        15.02533        -2.49396
|113>    H       -4.85220        17.29272        -3.07122
|114>    H       -4.03652        16.55199        -1.69953
|115>    H       -4.35744        18.80103        -1.12962
|116>    H       -4.83339        17.75418         0.91929
|117>    H       -5.98045        19.90869        -2.36205
|118>    H       -8.20380        17.98983        -1.49766
|119>    H       -7.75381        21.53501        -6.63918
|120>    H      -11.78540        18.78718        -5.60284
|121>    H      -12.95753        19.80920        -7.45850
|122>    H      -13.01139        21.38852        -9.34696
|123>    H      -11.03238        22.75277        -9.88359
|124>    H       -8.98162        22.55079        -8.53382
|125> *
|126>
|127>                          ****END OF INPUT****

CARTESIAN COORDINATES (ANGSTROEM)
---------------------------------
  C     -0.978470   -0.233650   -4.530040
  C     -2.157840   -0.746600   -5.010790
  C     -2.279590   -2.018680   -5.608010
  N     -2.461580   -3.040270   -6.100550
  C     -3.412770   -0.103590   -5.022970
  N     -4.471620    0.338420   -5.094180
  C      0.312460   -0.908680   -4.611140
  C      1.311950   -0.026450   -4.116110
  C      2.630430   -0.375050   -4.073010
  C      3.019270   -1.652940   -4.533610
  C      2.025210   -2.545170   -5.027920
  C      0.666600   -2.153870   -5.058700
  C      2.422990   -3.817890   -5.485160
  C      3.738800   -4.192460   -5.457180
  C      4.716720   -3.312920   -4.969750
  C      4.364450   -2.070100   -4.517700
  C      0.687360    1.238620   -3.691520
  O      1.278620    2.197870   -3.236450
  C     -0.765460    1.067870   -3.919320
  C     -1.787760    1.912620   -3.571520
  C     -1.788770    3.214080   -3.038790
  S     -3.363920    3.915240   -2.685720
  C     -2.668600    5.415800   -2.176440
  C     -1.266370    5.354520   -2.279380
  C     -0.790820    4.129840   -2.757180
  C     -0.387350    6.403040   -1.963490
  N      0.363100    7.239720   -1.726010
  C     -3.525490    6.458540   -1.758090
  C     -3.114460    7.697260   -1.375740
  C     -3.926710    8.784640   -0.971750
  C     -3.482020   10.114550   -0.864480
  C     -2.102380   10.610720   -1.101410
  C     -4.560180   10.974350   -0.504320
  C     -5.679060   10.165270   -0.355820
  C     -5.319960    8.779390   -0.625230
  C     -6.283230    7.825000   -0.430220
  C     -7.573930    8.244430   -0.041540
  C     -7.829850    9.569490    0.148700
  O     -6.915150   10.518500    0.007600
  C     -4.471740   12.401730   -0.325490
  C     -5.497580   13.202790   -0.034870
  C     -5.366960   14.671060    0.189060
  C     -5.617620   15.026220    1.661020
  O     -5.212230   14.444450    2.620010
  O     -6.388050   16.123560    1.738270
  C     -6.637870   16.683130    0.454940
  C     -6.423880   15.518210   -0.528840
  C     -6.075490   15.919590   -1.957150
  C     -4.984760   16.977620   -2.035020
  C     -5.275980   18.204670   -1.183110
  C     -5.698630   17.896310    0.262770
  O     -6.355310   19.082330    0.700260
  C     -6.761090   19.840380   -0.320360
  O     -7.352510   20.867350   -0.193890
  C     -6.372800   19.173210   -1.658380
  C     -7.627140   18.586630   -2.192180
  C     -8.148420   18.864610   -3.401840
  C     -9.451760   18.435490   -3.907110
  C    -10.209440   17.405320   -3.422820
  C    -11.456250   17.019720   -3.962930
  N    -12.468950   16.656590   -4.361210
  C     -9.825650   16.559720   -2.362000
  N     -9.552250   15.823600   -1.523490
  C     -9.762780   19.261300   -5.062450
  C     -8.626200   20.064390   -5.373300
  C     -7.551770   19.795060   -4.407680
  O     -6.421190   20.228580   -4.424640
  C     -8.627850   20.939210   -6.422160
  C     -9.790150   21.062530   -7.214860
  C    -10.934800   20.270910   -6.903900
  C    -10.902040   19.367470   -5.818410
  C    -12.092510   20.410310   -7.696940
  C    -12.119980   21.287830   -8.746440
  C    -10.992450   22.065110   -9.052330
  C     -9.852110   21.954390   -8.303540
  H      3.367550    0.316610   -3.692720
  H     -0.059740   -2.856030   -5.435280
  H      1.666350   -4.491380   -5.860410
  H      4.033370   -5.169230   -5.810960
  H      5.750460   -3.624800   -4.954280
  H      5.112900   -1.388090   -4.141190
  H     -2.788500    1.527110   -3.728130
  H      0.253280    3.912000   -2.894260
  H     -4.577340    6.220410   -1.797270
  H     -2.054610    7.899410   -1.413840
  H     -1.395120    9.801540   -1.252130
  H     -1.770400   11.204720   -0.250610
  H     -2.081780   11.251660   -1.983490
  H     -6.090900    6.771220   -0.544500
  H     -8.358310    7.522980    0.108770
  H     -8.793470    9.959380    0.441000
  H     -3.483330   12.825260   -0.439230
  H     -6.492730   12.804140    0.088210
  H     -4.351100   14.999760   -0.054470
  H     -7.674070   17.034000    0.465890
  H     -7.356330   14.943970   -0.559180
  H     -6.975660   16.287700   -2.450740
  H     -5.752990   15.025330   -2.493960
  H     -4.852200   17.292720   -3.071220
  H     -4.036520   16.551990   -1.699530
  H     -4.357440   18.801030   -1.129620
  H     -4.833390   17.754180    0.919290
  H     -5.980450   19.908690   -2.362050
  H     -8.203800   17.989830   -1.497660
  H     -7.753810   21.535010   -6.639180
  H    -11.785400   18.787180   -5.602840
  H    -12.957530   19.809200   -7.458500
  H    -13.011390   21.388520   -9.346960
  H    -11.032380   22.752770   -9.883590
  H     -8.981620   22.550790   -8.533820

 Total Charge           Charge          ....    0
 Multiplicity           Mult            ....    1
 Number of Electrons    NEL             ....  514
 Basis Dimension        Dim             .... 1229

ORBITAL ENERGIES
----------------

  NO   OCC          E(Eh)            E(eV)
   0   2.0000     -88.968727     -2420.9621
   1   2.0000     -19.336108      -526.1622
   2   2.0000     -19.271013      -524.3909
   3   2.0000     -19.258958      -524.0629
   4   2.0000     -19.234207      -523.3894
   5   2.0000     -19.210094      -522.7332
   6   2.0000     -19.209436      -522.7153
   7   2.0000     -19.196607      -522.3662
   8   2.0000     -14.439134      -392.9088
   9   2.0000     -14.430551      -392.6753
  10   2.0000     -14.409328      -392.0977
  11   2.0000     -14.405476      -391.9929
  12   2.0000     -14.404082      -391.9550
  13   2.0000     -10.407676      -283.2073
  14   2.0000     -10.392526      -282.7950
  15   2.0000     -10.384972      -282.5894
  16   2.0000     -10.374483      -282.3040
  17   2.0000     -10.361034      -281.9381
  18   2.0000     -10.360860      -281.9333
  19   2.0000     -10.358972      -281.8820
  20   2.0000     -10.356025      -281.8018
  21   2.0000     -10.348173      -281.5881
  22   2.0000     -10.342710      -281.4395
  23   2.0000     -10.342438      -281.4320
  24   2.0000     -10.336868      -281.2805
  25   2.0000     -10.335733      -281.2496
  26   2.0000     -10.332846      -281.1710
  27   2.0000     -10.332759      -281.1687
  28   2.0000     -10.331484      -281.1340
  29   2.0000     -10.321847      -280.8717
  30   2.0000     -10.318203      -280.7726
  31   2.0000     -10.317746      -280.7601
  32   2.0000     -10.317588      -280.7558
  33   2.0000     -10.312799      -280.6255
  34   2.0000     -10.312092      -280.6063
  35   2.0000     -10.311724      -280.5963
  36   2.0000     -10.310895      -280.5737
  37   2.0000     -10.310668      -280.5676
  38   2.0000     -10.310446      -280.5615
  39   2.0000     -10.309329      -280.5311
  40   2.0000     -10.308150      -280.4990
  41   2.0000     -10.306497      -280.4540
  42   2.0000     -10.306291      -280.4484
  43   2.0000     -10.305690      -280.4321
  44   2.0000     -10.305152      -280.4175
  45   2.0000     -10.303224      -280.3650
  46   2.0000     -10.301704      -280.3236
  47   2.0000     -10.298127      -280.2263
  48   2.0000     -10.297490      -280.2090
  49   2.0000     -10.297307      -280.2040
  50   2.0000     -10.296920      -280.1934
  51   2.0000     -10.296849      -280.1915
  52   2.0000     -10.294974      -280.1405
  53   2.0000     -10.294904      -280.1386
  54   2.0000     -10.294687      -280.1327
  55   2.0000     -10.291864      -280.0559
  56   2.0000     -10.291038      -280.0334
  57   2.0000     -10.290873      -280.0289
  58   2.0000     -10.290546      -280.0200
  59   2.0000     -10.289134      -279.9816
  60   2.0000     -10.289121      -279.9812
  61   2.0000     -10.288865      -279.9743
  62   2.0000     -10.287295      -279.9315
  63   2.0000     -10.281608      -279.7768
  64   2.0000     -10.280914      -279.7579
  65   2.0000     -10.280679      -279.7515
  66   2.0000     -10.280491      -279.7464
  67   2.0000     -10.280041      -279.7341
  68   2.0000     -10.279863      -279.7293
  69   2.0000     -10.279316      -279.7144
  70   2.0000     -10.277731      -279.6713
  71   2.0000     -10.272866      -279.5389
  72   2.0000     -10.272600      -279.5317
  73   2.0000     -10.272200      -279.5208
  74   2.0000     -10.272133      -279.5189
  75   2.0000      -8.064563      -219.4479
  76   2.0000      -6.033735      -164.1863
  77   2.0000      -6.029737      -164.0775
  78   2.0000      -6.026686      -163.9945
  79   2.0000      -1.245936       -33.9037
  80   2.0000      -1.209417       -32.9099
  81   2.0000      -1.193903       -32.4878
  82   2.0000      -1.149180       -31.2708
  83   2.0000      -1.124397       -30.5964
  84   2.0000      -1.118638       -30.4397
  85   2.0000      -1.104493       -30.0548
  86   2.0000      -1.036897       -28.2154
  87   2.0000      -1.016399       -27.6576
  88   2.0000      -1.011351       -27.5203
  89   2.0000      -1.010898       -27.5079
  90   2.0000      -1.007719       -27.4214
  91   2.0000      -0.991491       -26.9798
  92   2.0000      -0.990288       -26.9471
  93   2.0000      -0.986267       -26.8377
  94   2.0000      -0.985693       -26.8221
  95   2.0000      -0.983133       -26.7524
  96   2.0000      -0.964198       -26.2372
  97   2.0000      -0.961164       -26.1546
  98   2.0000      -0.941019       -25.6064
  99   2.0000      -0.938857       -25.5476
 100   2.0000      -0.929257       -25.2864
 101   2.0000      -0.921186       -25.0667
 102   2.0000      -0.911537       -24.8042
 103   2.0000      -0.909127       -24.7386
 104   2.0000      -0.895483       -24.3673
 105   2.0000      -0.893911       -24.3246
 106   2.0000      -0.890651       -24.2358
 107   2.0000      -0.879651       -23.9365
 108   2.0000      -0.875345       -23.8193
 109   2.0000      -0.873043       -23.7567
 110   2.0000      -0.867713       -23.6117
 111   2.0000      -0.858248       -23.3541
 112   2.0000      -0.854693       -23.2574
 113   2.0000      -0.844562       -22.9817
 114   2.0000      -0.841720       -22.9044
 115   2.0000      -0.829006       -22.5584
 116   2.0000      -0.821382       -22.3509
 117   2.0000      -0.815511       -22.1912
 118   2.0000      -0.813663       -22.1409
 119   2.0000      -0.796562       -21.6756
 120   2.0000      -0.786363       -21.3980
 121   2.0000      -0.779119       -21.2009
 122   2.0000      -0.777299       -21.1514
 123   2.0000      -0.754980       -20.5440
 124   2.0000      -0.753651       -20.5079
 125   2.0000      -0.745494       -20.2859
 126   2.0000      -0.735568       -20.0158
 127   2.0000      -0.725014       -19.7286
 128   2.0000      -0.724255       -19.7080
 129   2.0000      -0.717380       -19.5209
 130   2.0000      -0.711389       -19.3579
 131   2.0000      -0.705440       -19.1960
 132   2.0000      -0.699230       -19.0270
 133   2.0000      -0.696735       -18.9591
 134   2.0000      -0.691537       -18.8177
 135   2.0000      -0.688667       -18.7396
 136   2.0000      -0.678837       -18.4721
 137   2.0000      -0.672996       -18.3132
 138   2.0000      -0.672014       -18.2864
 139   2.0000      -0.666136       -18.1265
 140   2.0000      -0.665088       -18.0980
 141   2.0000      -0.657934       -17.9033
 142   2.0000      -0.649510       -17.6741
 143   2.0000      -0.646456       -17.5910
 144   2.0000      -0.637834       -17.3563
 145   2.0000      -0.631319       -17.1791
 146   2.0000      -0.627829       -17.0841
 147   2.0000      -0.623189       -16.9578
 148   2.0000      -0.620195       -16.8764
 149   2.0000      -0.617472       -16.8023
 150   2.0000      -0.614952       -16.7337
 151   2.0000      -0.610241       -16.6055
 152   2.0000      -0.603971       -16.4349
 153   2.0000      -0.599248       -16.3064
 154   2.0000      -0.597141       -16.2490
 155   2.0000      -0.591135       -16.0856
 156   2.0000      -0.588074       -16.0023
 157   2.0000      -0.580007       -15.7828
 158   2.0000      -0.575927       -15.6718
 159   2.0000      -0.573266       -15.5994
 160   2.0000      -0.567041       -15.4300
 161   2.0000      -0.564529       -15.3616
 162   2.0000      -0.559882       -15.2352
 163   2.0000      -0.556667       -15.1477
 164   2.0000      -0.554716       -15.0946
 165   2.0000      -0.552165       -15.0252
 166   2.0000      -0.550803       -14.9881
 167   2.0000      -0.548459       -14.9243
 168   2.0000      -0.544737       -14.8230
 169   2.0000      -0.543338       -14.7850
 170   2.0000      -0.540530       -14.7086
 171   2.0000      -0.539598       -14.6832
 172   2.0000      -0.537178       -14.6174
 173   2.0000      -0.534658       -14.5488
 174   2.0000      -0.531377       -14.4595
 175   2.0000      -0.530459       -14.4345
 176   2.0000      -0.530198       -14.4274
 177   2.0000      -0.528195       -14.3729
 178   2.0000      -0.522743       -14.2246
 179   2.0000      -0.519457       -14.1352
 180   2.0000      -0.518186       -14.1006
 181   2.0000      -0.517195       -14.0736
 182   2.0000      -0.513842       -13.9824
 183   2.0000      -0.513627       -13.9765
 184   2.0000      -0.512932       -13.9576
 185   2.0000      -0.508480       -13.8364
 186   2.0000      -0.507372       -13.8063
 187   2.0000      -0.506510       -13.7828
 188   2.0000      -0.505098       -13.7444
 189   2.0000      -0.500374       -13.6159
 190   2.0000      -0.499782       -13.5998
 191   2.0000      -0.497113       -13.5271
 192   2.0000      -0.495288       -13.4775
 193   2.0000      -0.491355       -13.3705
 194   2.0000      -0.488871       -13.3029
 195   2.0000      -0.485314       -13.2061
 196   2.0000      -0.481304       -13.0970
 197   2.0000      -0.479317       -13.0429
 198   2.0000      -0.475029       -12.9262
 199   2.0000      -0.470715       -12.8088
 200   2.0000      -0.469918       -12.7871
 201   2.0000      -0.466042       -12.6816
 202   2.0000      -0.464687       -12.6448
 203   2.0000      -0.463064       -12.6006
 204   2.0000      -0.461266       -12.5517
 205   2.0000      -0.458769       -12.4837
 206   2.0000      -0.458158       -12.4671
 207   2.0000      -0.456768       -12.4293
 208   2.0000      -0.455795       -12.4028
 209   2.0000      -0.451191       -12.2775
 210   2.0000      -0.449414       -12.2292
 211   2.0000      -0.447876       -12.1873
 212   2.0000      -0.444650       -12.0995
 213   2.0000      -0.443827       -12.0772
 214   2.0000      -0.442661       -12.0454
 215   2.0000      -0.442117       -12.0306
 216   2.0000      -0.439583       -11.9617
 217   2.0000      -0.437847       -11.9144
 218   2.0000      -0.437353       -11.9010
 219   2.0000      -0.435569       -11.8524
 220   2.0000      -0.434716       -11.8292
 221   2.0000      -0.433262       -11.7897
 222   2.0000      -0.430787       -11.7223
 223   2.0000      -0.428097       -11.6491
 224   2.0000      -0.426340       -11.6013
 225   2.0000      -0.425407       -11.5759
 226   2.0000      -0.424919       -11.5626
 227   2.0000      -0.422884       -11.5073
 228   2.0000      -0.419244       -11.4082
 229   2.0000      -0.417208       -11.3528
 230   2.0000      -0.414903       -11.2901
 231   2.0000      -0.413078       -11.2404
 232   2.0000      -0.410868       -11.1803
 233   2.0000      -0.405717       -11.0401
 234   2.0000      -0.404064       -10.9951
 235   2.0000      -0.398324       -10.8390
 236   2.0000      -0.396390       -10.7863
 237   2.0000      -0.391484       -10.6528
 238   2.0000      -0.389816       -10.6074
 239   2.0000      -0.388882       -10.5820
 240   2.0000      -0.372208       -10.1283
 241   2.0000      -0.366410        -9.9705
 242   2.0000      -0.364945        -9.9307
 243   2.0000      -0.359703        -9.7880
 244   2.0000      -0.349759        -9.5174
 245   2.0000      -0.346672        -9.4334
 246   2.0000      -0.338309        -9.2058
 247   2.0000      -0.335376        -9.1260
 248   2.0000      -0.333090        -9.0638
 249   2.0000      -0.330511        -8.9937
 250   2.0000      -0.329251        -8.9594
 251   2.0000      -0.312091        -8.4924
 252   2.0000      -0.306789        -8.3482
 253   2.0000      -0.303384        -8.2555
 254   2.0000      -0.288016        -7.8373
 255   2.0000      -0.278023        -7.5654
 256   2.0000      -0.239255        -6.5105
 257   0.0000      -0.100509        -2.7350
 258   0.0000      -0.089655        -2.4396
 259   0.0000      -0.069311        -1.8860
 260   0.0000      -0.059780        -1.6267
 261   0.0000      -0.051446        -1.3999

MULLIKEN ATOMIC CHARGES
-----------------------
   0 C :    0.327277
   1 C :   -0.370088
   2 C :   -0.183441
   3 N :    0.143423
   4 C :   -0.190877
   5 N :    0.145797
   6 C :    0.043851
   7 C :   -0.002772
   8 C :   -0.081726
   9 C :    0.096735
  10 C :    0.094074
  11 C :   -0.080836
  12 C :   -0.019286
  13 C :    0.037191
  14 C :    0.033797
  15 C :   -0.014812
  16 C :    0.159142
  17 O :   -0.160805
  18 C :   -0.098512
  19 C :    0.056202
  20 C :   -0.104952
  21 S :    0.144252
  22 C :   -0.024551
  23 C :   -0.104979
  24 C :    0.035012
  25 C :   -0.161351
  26 N :    0.108640
  27 C :    0.000477
  28 C :    0.001277
  29 C :    0.056195
  30 C :   -0.139383
  31 C :    0.110581
  32 C :    0.013501
  33 C :    0.066667
  34 C :    0.052012
  35 C :    0.009001
  36 C :   -0.036202
  37 C :    0.182961
  38 O :   -0.142971
  39 C :    0.011407
  40 C :    0.011685
  41 C :   -0.095742
  42 C :    0.191043
  43 O :   -0.148096
  44 O :   -0.258904
  45 C :    0.160053
  46 C :   -0.079039
  47 C :    0.098647
  48 C :    0.110058
  49 C :   -0.085672
  50 C :    0.158960
  51 O :   -0.246121
  52 C :    0.171985
  53 O :   -0.146423
  54 C :   -0.063421
  55 C :   -0.071443
  56 C :   -0.036789
  57 C :    0.311061
  58 C :   -0.335854
  59 C :   -0.182215
  60 N :    0.164285
  61 C :   -0.192391
  62 N :    0.153659
  63 C :    0.043563
  64 C :   -0.004867
  65 C :    0.158940
  66 O :   -0.142273
  67 C :   -0.070206
  68 C :    0.095486
  69 C :    0.093615
  70 C :   -0.074975
  71 C :   -0.015165
  72 C :    0.038497
  73 C :    0.036898
  74 C :   -0.013630
  75 H :   -0.015268
  76 H :   -0.010588
  77 H :   -0.010241
  78 H :   -0.007766
  79 H :   -0.006940
  80 H :   -0.019142
  81 H :    0.003478
  82 H :    0.024415
  83 H :   -0.043769
  84 H :   -0.018703
  85 H :    0.030861
  86 H :    0.040034
  87 H :    0.035232
  88 H :    0.004322
  89 H :    0.019903
  90 H :    0.038824
  91 H :   -0.039055
  92 H :   -0.004177
  93 H :    0.021660
  94 H :    0.030748
  95 H :    0.030062
  96 H :    0.011958
  97 H :    0.007139
  98 H :    0.017004
  99 H :    0.005532
 100 H :    0.027338
 101 H :    0.022808
 102 H :    0.058576
 103 H :    0.028580
 104 H :   -0.007752
 105 H :   -0.003615
 106 H :   -0.006275
 107 H :    0.000233
 108 H :    0.000914
 109 H :   -0.013468
Sum of atomic charges:   -0.0000000

LOEWDIN ATOMIC CHARGES
----------------------
   0 C :    0.078688
   1 C :   -0.149690
   2 C :   -0.016880
   3 N :   -0.061433
   4 C :   -0.024314
   5 N :   -0.059633
   6 C :   -0.026084
   7 C :   -0.053836
   8 C :    0.029664
   9 C :   -0.008882
  10 C :   -0.007310
  11 C :    0.018238
  12 C :   -0.005952
  13 C :   -0.015523
  14 C :   -0.014173
  15 C :   -0.010416
  16 C :    0.086794
  17 O :   -0.148652
  18 C :   -0.104261
  19 C :    0.048471
  20 C :   -0.191422
  21 S :    0.457457
  22 C :   -0.100576
  23 C :   -0.132837
  24 C :    0.031442
  25 C :   -0.023745
  26 N :   -0.071437
  27 C :   -0.103489
  28 C :    0.041624
  29 C :   -0.099259
  30 C :    0.041493
  31 C :   -0.047599
  32 C :   -0.099802
  33 C :    0.072786
  34 C :   -0.018347
  35 C :    0.038843
  36 C :   -0.075550
  37 C :    0.093598
  38 O :    0.064833
  39 C :   -0.021930
  40 C :   -0.022722
  41 C :   -0.061628
  42 C :    0.077409
  43 O :   -0.142633
  44 O :   -0.070058
  45 C :    0.065733
  46 C :   -0.032351
  47 C :   -0.027723
  48 C :   -0.026283
  49 C :   -0.026703
  50 C :    0.068383
  51 O :   -0.060932
  52 C :    0.079042
  53 O :   -0.138054
  54 C :   -0.058016
  55 C :    0.080083
  56 C :   -0.079184
  57 C :    0.083511
  58 C :   -0.135369
  59 C :   -0.018944
  60 N :   -0.042848
  61 C :   -0.008769
  62 N :   -0.053190
  63 C :   -0.027681
  64 C :   -0.056631
  65 C :    0.090628
  66 O :   -0.133495
  67 C :    0.038369
  68 C :   -0.005731
  69 C :   -0.004702
  70 C :    0.025315
  71 C :   -0.003411
  72 C :   -0.009021
  73 C :   -0.007097
  74 C :   -0.007392
  75 H :    0.038123
  76 H :    0.038491
  77 H :    0.034344
  78 H :    0.032112
  79 H :    0.031948
  80 H :    0.031319
  81 H :    0.042295
  82 H :    0.042033
  83 H :    0.019821
  84 H :    0.037759
  85 H :    0.039723
  86 H :    0.043838
  87 H :    0.044476
  88 H :    0.037603
  89 H :    0.044880
  90 H :    0.038270
  91 H :    0.025235
  92 H :    0.020831
  93 H :    0.037333
  94 H :    0.028247
  95 H :    0.035281
  96 H :    0.022347
  97 H :    0.034323
  98 H :    0.035736
  99 H :    0.025315
 100 H :    0.041699
 101 H :    0.032632
 102 H :    0.048796
 103 H :    0.034751
 104 H :    0.041305
 105 H :    0.040304
 106 H :    0.035981
 107 H :    0.035297
 108 H :    0.035102
 109 H :    0.033643

  Mayer bond orders larger than 0.100000
B(  0-C ,  1-C ) :   1.6030 B(  0-C ,  6-C ) :   0.9787 B(  0-C , 18-C ) :   1.0936
B(  1-C ,  2-C ) :   1.1547 B(  1-C ,  4-C ) :   1.1422 B(  2-C ,  3-N ) :   2.9595
B(  4-C ,  5-N ) :   2.9667 B(  6-C ,  7-C ) :   1.2174 B(  6-C , 11-C ) :   1.4504
B(  7-C ,  8-C ) :   1.4753 B(  7-C , 16-C ) :   0.9527 B(  8-C ,  9-C ) :   1.1729
B(  8-C , 75-H ) :   1.0154 B(  9-C , 10-C ) :   1.2601 B(  9-C , 15-C ) :   1.2465
B( 10-C , 11-C ) :   1.2050 B( 10-C , 12-C ) :   1.2397 B( 11-C , 76-H ) :   0.9883
B( 12-C , 13-C ) :   1.4894 B( 12-C , 77-H ) :   0.9965 B( 13-C , 14-C ) :   1.2612
B( 13-C , 78-H ) :   0.9876 B( 14-C , 15-C ) :   1.4867 B( 14-C , 79-H ) :   0.9890
B( 15-C , 80-H ) :   0.9969 B( 16-C , 17-O ) :   2.1619 B( 16-C , 18-C ) :   0.9445
B( 18-C , 19-C ) :   1.5632 B( 19-C , 20-C ) :   1.2349 B( 19-C , 81-H ) :   0.9085
B( 20-C , 21-S ) :   1.0713 B( 20-C , 24-C ) :   1.4158 B( 21-S , 22-C ) :   1.1727
B( 22-C , 23-C ) :   1.3597 B( 22-C , 27-C ) :   1.2001 B( 23-C , 24-C ) :   1.3179
B( 23-C , 25-C ) :   1.1201 B( 24-C , 82-H ) :   0.9812 B( 25-C , 26-N ) :   2.9844
B( 27-C , 28-C ) :   1.5819 B( 27-C , 83-H ) :   0.9449 B( 28-C , 29-C ) :   1.2058
B( 28-C , 84-H ) :   0.9475 B( 29-C , 30-C ) :   1.3919 B( 29-C , 34-C ) :   1.0824
B( 30-C , 31-C ) :   1.1215 B( 30-C , 32-C ) :   1.2309 B( 31-C , 85-H ) :   0.9407
B( 31-C , 86-H ) :   0.9322 B( 31-C , 87-H ) :   0.9324 B( 32-C , 33-C ) :   1.4141
B( 32-C , 39-C ) :   1.0777 B( 33-C , 34-C ) :   1.1017 B( 33-C , 38-O ) :   1.1415
B( 34-C , 35-C ) :   1.5066 B( 35-C , 36-C ) :   1.2200 B( 35-C , 88-H ) :   0.9852
B( 36-C , 37-C ) :   1.5845 B( 36-C , 89-H ) :   0.9679 B( 37-C , 38-O ) :   1.1701
B( 37-C , 90-H ) :   0.9808 B( 39-C , 40-C ) :   1.8100 B( 39-C , 91-H ) :   0.9616
B( 40-C , 41-C ) :   1.0058 B( 40-C , 92-H ) :   0.9627 B( 41-C , 42-C ) :   0.8807
B( 41-C , 46-C ) :   0.9522 B( 41-C , 93-H ) :   0.9019 B( 42-C , 43-O ) :   2.2596
B( 42-C , 44-O ) :   1.1298 B( 44-O , 45-C ) :   0.9572 B( 45-C , 46-C ) :   1.0186
B( 45-C , 50-C ) :   0.9691 B( 45-C , 94-H ) :   0.9080 B( 46-C , 47-C ) :   1.0742
B( 46-C , 95-H ) :   0.9007 B( 47-C , 48-C ) :   1.0663 B( 47-C , 96-H ) :   0.9250
B( 47-C , 97-H ) :   0.9153 B( 48-C , 49-C ) :   1.0621 B( 48-C , 98-H ) :   0.9247
B( 48-C , 99-H ) :   0.9317 B( 49-C , 50-C ) :   1.0078 B( 49-C , 54-C ) :   0.9911
B( 49-C ,100-H ) :   0.9102 B( 50-C , 51-O ) :   0.9561 B( 50-C ,101-H ) :   0.9174
B( 51-O , 52-C ) :   1.1439 B( 52-C , 53-O ) :   2.2471 B( 52-C , 54-C ) :   0.8674
B( 54-C , 55-C ) :   0.9874 B( 54-C ,102-H ) :   0.8965 B( 55-C , 56-C ) :   1.7881
B( 55-C ,103-H ) :   0.9233 B( 56-C , 57-C ) :   1.0174 B( 56-C , 65-C ) :   0.9210
B( 57-C , 58-C ) :   1.6638 B( 57-C , 63-C ) :   1.0057 B( 58-C , 59-C ) :   1.1303
B( 58-C , 61-C ) :   1.1546 B( 59-C , 60-N ) :   2.9802 B( 61-C , 62-N ) :   2.9515
B( 63-C , 64-C ) :   1.2108 B( 63-C , 70-C ) :   1.4398 B( 64-C , 65-C ) :   0.9473
B( 64-C , 67-C ) :   1.4658 B( 65-C , 66-O ) :   2.2066 B( 67-C , 68-C ) :   1.1873
B( 67-C ,104-H ) :   1.0155 B( 68-C , 69-C ) :   1.2511 B( 68-C , 74-C ) :   1.2426
B( 69-C , 70-C ) :   1.2136 B( 69-C , 71-C ) :   1.2384 B( 70-C ,105-H ) :   0.9904
B( 71-C , 72-C ) :   1.4907 B( 71-C ,106-H ) :   0.9973 B( 72-C , 73-C ) :   1.2586
B( 72-C ,107-H ) :   0.9884 B( 73-C , 74-C ) :   1.4902 B( 73-C ,108-H ) :   0.9892
B( 74-C ,109-H ) :   0.9978

-----------------------------------------------------------------------------
         ABSORPTION SPECTRUM VIA TRANSITION ELECTRIC DIPOLE MOMENTS
-----------------------------------------------------------------------------
State   Energy  Wavelength   fosc         T2         TX        TY        TZ
        (cm-1)    (nm)                  (au**2)     (au)      (au)      (au)
-----------------------------------------------------------------------------
   0   17335.8    576.8   1.349810971  25.63326   1.95346  -4.36128  -1.67226
   1   19375.9    516.1   0.277380493   4.71292   0.52406  -1.96987  -0.74692
   2   20906.7    478.3   0.000084751   0.00133   0.02332  -0.01528   0.02361
   3   26143.1    382.5   0.138997679   1.75035  -1.19535   0.56201   0.07518
   4   26694.5    374.6   0.168035635   2.07231  -1.39169   0.35840  -0.08401
   5   27227.4    367.3   0.081406201   0.98430  -0.16202   0.66607  -0.71722
   6   28125.4    355.6   0.082170158   0.96181   0.19895  -0.92954  -0.24124
   7   28627.0    349.3   0.000026885   0.00031   0.00065   0.01345   0.01131
   8   28822.6    346.9   0.072183616   0.82448   0.15907  -0.86694  -0.21815
   9   29066.1    344.0   0.144309957   1.63450  -0.54445   1.06992   0.43972
  10   29086.6    343.8   0.008710955   0.09859   0.04654  -0.24726  -0.18786
  11   29437.7    339.7   0.019233753   0.21510  -0.28459  -0.35739   0.07986
  12   29739.6    336.3   0.081501060   0.90220  -0.71383   0.62574   0.03296
  13   30084.3    332.4   0.024439783   0.26744  -0.03531  -0.39418   0.33289
  14   31064.4    321.9   0.049008511   0.51938  -0.61148  -0.24561   0.29179
  15   31922.1    313.3   0.229872499   2.37067   1.16912   0.59773   0.80408
  16   32114.3    311.4   0.013303714   0.13638  -0.27806  -0.00113  -0.24302
  17   33174.0    301.4   0.082118478   0.81493  -0.17408   0.44153  -0.76790
  18   33708.7    296.7   0.090781438   0.88661  -0.87440   0.34932  -0.00037
  19   33882.0    295.1   0.787700022   7.65363   2.52951  -1.12019   0.01965
  20   34339.2    291.2   1.103911031  10.58325  -0.11736   2.06174  -2.51370
  21   35109.3    284.8   0.000044573   0.00042  -0.00455   0.00916  -0.01770
  22   35138.2    284.6   0.008229745   0.07710   0.22018  -0.16800  -0.02005
  23   36577.0    273.4   0.052759545   0.47486  -0.61910   0.29594   0.06324
  24   36811.7    271.7   0.000470187   0.00420   0.00262  -0.02501   0.05977
  25   36922.1    270.8   0.128575452   1.14643   0.96677   0.42732   0.17085
  26   37299.9    268.1   0.000871146   0.00769  -0.04029   0.07760  -0.00666
  27   37606.3    265.9   0.022313372   0.19533  -0.05580  -0.41411  -0.14401
  28   37622.8    265.8   0.043344349   0.37928   0.16301   0.58010  -0.12724
  29   38386.2    260.5   0.072991117   0.62600   0.50870   0.59768  -0.10003
  30   38452.0    260.1   0.033351420   0.28554  -0.24108   0.26628  -0.39562
  31   38879.8    257.2   0.411299053   3.48265   1.06889   1.51398  -0.21908
  32   39089.5    255.8   0.184270123   1.55192  -0.76321  -0.80345  -0.56912
  33   39514.5    253.1   0.081180916   0.67635  -0.21340   0.26830  -0.74755
  34   39673.1    252.1   0.004008770   0.03327  -0.06326  -0.11864   0.12323
  35   40002.6    250.0   0.162624686   1.33836   1.03587   0.43428   0.27702

FINAL SINGLE POINT ENERGY     -3577.986903091567

DIPOLE MOMENT
-------------
                                X             Y             Z
Electronic contribution:     -6.56050     -31.27851       0.45704
Nuclear contribution   :      6.00172      33.64622      -2.76095
                        -----------------------------------------
Total Dipole Moment    :     -0.55878       2.36771      -2.30391
                        -----------------------------------------
Magnitude (a.u.)       :      3.35056
Magnitude (Debye)      :      8.51645

Rotational constants in cm-1:     0.001623     0.000194     0.000186
Rotational constants in MHz :    48.649476     5.829868     5.576295

                             ****ORCA TERMINATED NORMALLY****
TOTAL RUN TIME: 0 days 0 hours 11 minutes 2 seconds 806 msec
