                         Program Version 4.2.0 -  RELEASE  -
|  1> # ORCA input file
|  2> # SCF done       -192.091466805428          0.000496841191
|  3> ! CAM-B3LYP def2-SVP def2/J RIJCOSX Grid4 TightSCF
|  4> %maxcore 5000
|  5> %tddft
|  6>     Mode sTDDFT
|  7>     Ethresh 5.0
|  8>     maxcore 5000
|  9> end
| 10>
| 11> %pal
| 12>   nprocs 6
| 13>   end
| 14> * xyz 0 1
| 15>    C        0.44513         1.71599         2.19094
| 16>    C       -0.81707         1.75021         1.66564
| 17>    C       -1.88463         0.95838         2.14123
| 18>    N       -2.78589         0.33964         2.48915
| 19>    C       -1.18922         2.52414         0.54911
| 20>    N       -1.53584         3.11881        -0.37003
| 21>    C        0.91335         0.79482         3.21766
| 22>    C        2.33846         0.74645         3.17653
| 23>    C        3.05419        -0.05459         4.01992
| 24>    C        2.36671        -0.84820         4.96495
| 25>    C        0.94319        -0.79355         5.02079
| 26>    C        0.22742         0.03941         4.13120
| 27>    C        0.27069        -1.58367         5.97548
| 28>    C        0.96796        -2.39001         6.83323
| 29>    C        2.36899        -2.44325         6.77729
| 30>    C        3.05327        -1.68969         5.86264
| 31>    C        2.82852         1.67819         2.14982
| 32>    O        3.96134         1.86010         1.77305
| 33>    C        1.61169         2.42422         1.68928
| 34>    C        1.77455         3.59425         1.03839
| 35>    C        0.81384         4.64053         0.77326
| 36>    C        0.92330         5.40293        -0.39136
| 37>    C        0.00305         6.38663        -0.67438
| 38>    F        0.18146         7.10672        -1.79682
| 39>    C       -1.05381         6.69421         0.18788
| 40>    C       -1.10713         6.00089         1.39847
| 41>    C       -0.20567         4.99722         1.66566
| 42>    F       -0.30282         4.35585         2.84519
| 43>    C       -2.03317         7.73896        -0.05271
| 44>    N       -2.69911         7.98162        -1.22289
| 45>    C       -2.76562         7.13505        -2.39340
| 46>    C       -3.31266         5.74860        -2.06770
| 47>    C       -3.56128         9.09610        -1.09846
| 48>    O       -4.26280         9.50000        -2.00528
| 49>    C       -3.37584         9.55041         0.25763
| 50>    C       -2.44082         8.67325         0.87894
| 51>    C       -2.23783         9.12147         2.23933
| 52>    O       -1.55563         8.69587         3.14707
| 53>    N       -3.08212        10.24249         2.35656
| 54>    C       -3.13057        11.01123         3.57655
| 55>    C       -2.29747        12.28689         3.47722
| 56>    C       -3.75617        10.51004         1.18703
| 57>    C       -4.67696        11.58797         1.05105
| 58>    C       -5.27393        11.88308        -0.12449
| 59>    C       -6.19815        12.96549        -0.35691
| 60>    C       -6.41943        13.38660        -1.67538
| 61>    C       -7.23706        14.45693        -1.95081
| 62>    F       -7.43370        14.80299        -3.23302
| 63>    C       -7.92262        15.14998        -0.94532
| 64>    C       -7.77671        14.68221         0.35997
| 65>    C       -6.91929        13.64150         0.63871
| 66>    F       -6.81510        13.26441         1.92990
| 67>    C       -8.78313        16.28313        -1.23150
| 68>    C       -8.41644        17.33521        -1.99324
| 69>    C       -9.23871        18.46490        -2.41061
| 70>    C      -10.59352        18.58043        -2.26110
| 71>    C      -11.34951        19.68415        -2.71263
| 72>    N      -12.01847        20.55286        -3.05135
| 73>    C      -11.42744        17.62313        -1.64426
| 74>    N      -12.16598        16.89219        -1.15619
| 75>    C       -8.36554        19.42843        -3.06583
| 76>    C       -7.03677        18.91424        -3.07926
| 77>    C       -7.00430        17.60321        -2.41411
| 78>    O       -6.02927        16.92981        -2.17198
| 79>    C       -5.99860        19.61073        -3.62901
| 80>    C       -6.24566        20.87642        -4.20468
| 81>    C       -7.57117        21.40081        -4.19195
| 82>    C       -8.62532        20.65820        -3.61434
| 83>    C       -7.80511        22.66958        -4.76157
| 84>    C       -6.78103        23.38657        -5.31769
| 85>    C       -5.47686        22.86853        -5.33088
| 86>    C       -5.21497        21.64022        -4.78739
| 87>    H        4.13265        -0.07922         3.96984
| 88>    H       -0.84832         0.07382         4.20417
| 89>    H       -0.80784        -1.54095         6.01334
| 90>    H        0.44372        -2.99171         7.56043
| 91>    H        2.90310        -3.08369         7.46309
| 92>    H        4.13179        -1.72619         5.81523
| 93>    H        2.78800         3.79757         0.70493
| 94>    H        1.71684         5.20620        -1.09516
| 95>    H       -1.86224         6.24251         2.12841
| 96>    H       -1.78633         7.06064        -2.86852
| 97>    H       -3.44153         7.65310        -3.08044
| 98>    H       -2.64195         5.19432        -1.41519
| 99>    H       -3.43353         5.18491        -2.98837
|100>    H       -4.28316         5.83018        -1.58283
|101>    H       -2.71735        10.36382         4.35526
|102>    H       -4.16981        11.24291         3.82546
|103>    H       -1.26155        12.03716         3.26084
|104>    H       -2.33559        12.82481         4.42035
|105>    H       -2.66917        12.93677         2.68807
|106>    H       -4.86925        12.17568         1.93447
|107>    H       -5.02546        11.29356        -0.99743
|108>    H       -5.92096        12.88054        -2.48731
|109>    H       -8.30523        15.16052         1.17020
|110>    H       -9.76083        16.25679        -0.76782
|111>    H       -5.00082        19.19757        -3.62493
|112>    H       -9.61549        21.08560        -3.61525
|113>    H       -8.81079        23.06358        -4.75001
|114>    H       -6.96997        24.35740        -5.75083
|115>    H       -4.68090        23.44845        -5.77368
|116>    H       -4.21313        21.23629        -4.79436
|117> *
|118>
|119>                          ****END OF INPUT****

CARTESIAN COORDINATES (ANGSTROEM)
---------------------------------
  C      0.445130    1.715990    2.190940
  C     -0.817070    1.750210    1.665640
  C     -1.884630    0.958380    2.141230
  N     -2.785890    0.339640    2.489150
  C     -1.189220    2.524140    0.549110
  N     -1.535840    3.118810   -0.370030
  C      0.913350    0.794820    3.217660
  C      2.338460    0.746450    3.176530
  C      3.054190   -0.054590    4.019920
  C      2.366710   -0.848200    4.964950
  C      0.943190   -0.793550    5.020790
  C      0.227420    0.039410    4.131200
  C      0.270690   -1.583670    5.975480
  C      0.967960   -2.390010    6.833230
  C      2.368990   -2.443250    6.777290
  C      3.053270   -1.689690    5.862640
  C      2.828520    1.678190    2.149820
  O      3.961340    1.860100    1.773050
  C      1.611690    2.424220    1.689280
  C      1.774550    3.594250    1.038390
  C      0.813840    4.640530    0.773260
  C      0.923300    5.402930   -0.391360
  C      0.003050    6.386630   -0.674380
  F      0.181460    7.106720   -1.796820
  C     -1.053810    6.694210    0.187880
  C     -1.107130    6.000890    1.398470
  C     -0.205670    4.997220    1.665660
  F     -0.302820    4.355850    2.845190
  C     -2.033170    7.738960   -0.052710
  N     -2.699110    7.981620   -1.222890
  C     -2.765620    7.135050   -2.393400
  C     -3.312660    5.748600   -2.067700
  C     -3.561280    9.096100   -1.098460
  O     -4.262800    9.500000   -2.005280
  C     -3.375840    9.550410    0.257630
  C     -2.440820    8.673250    0.878940
  C     -2.237830    9.121470    2.239330
  O     -1.555630    8.695870    3.147070
  N     -3.082120   10.242490    2.356560
  C     -3.130570   11.011230    3.576550
  C     -2.297470   12.286890    3.477220
  C     -3.756170   10.510040    1.187030
  C     -4.676960   11.587970    1.051050
  C     -5.273930   11.883080   -0.124490
  C     -6.198150   12.965490   -0.356910
  C     -6.419430   13.386600   -1.675380
  C     -7.237060   14.456930   -1.950810
  F     -7.433700   14.802990   -3.233020
  C     -7.922620   15.149980   -0.945320
  C     -7.776710   14.682210    0.359970
  C     -6.919290   13.641500    0.638710
  F     -6.815100   13.264410    1.929900
  C     -8.783130   16.283130   -1.231500
  C     -8.416440   17.335210   -1.993240
  C     -9.238710   18.464900   -2.410610
  C    -10.593520   18.580430   -2.261100
  C    -11.349510   19.684150   -2.712630
  N    -12.018470   20.552860   -3.051350
  C    -11.427440   17.623130   -1.644260
  N    -12.165980   16.892190   -1.156190
  C     -8.365540   19.428430   -3.065830
  C     -7.036770   18.914240   -3.079260
  C     -7.004300   17.603210   -2.414110
  O     -6.029270   16.929810   -2.171980
  C     -5.998600   19.610730   -3.629010
  C     -6.245660   20.876420   -4.204680
  C     -7.571170   21.400810   -4.191950
  C     -8.625320   20.658200   -3.614340
  C     -7.805110   22.669580   -4.761570
  C     -6.781030   23.386570   -5.317690
  C     -5.476860   22.868530   -5.330880
  C     -5.214970   21.640220   -4.787390
  H      4.132650   -0.079220    3.969840
  H     -0.848320    0.073820    4.204170
  H     -0.807840   -1.540950    6.013340
  H      0.443720   -2.991710    7.560430
  H      2.903100   -3.083690    7.463090
  H      4.131790   -1.726190    5.815230
  H      2.788000    3.797570    0.704930
  H      1.716840    5.206200   -1.095160
  H     -1.862240    6.242510    2.128410
  H     -1.786330    7.060640   -2.868520
  H     -3.441530    7.653100   -3.080440
  H     -2.641950    5.194320   -1.415190
  H     -3.433530    5.184910   -2.988370
  H     -4.283160    5.830180   -1.582830
  H     -2.717350   10.363820    4.355260
  H     -4.169810   11.242910    3.825460
  H     -1.261550   12.037160    3.260840
  H     -2.335590   12.824810    4.420350
  H     -2.669170   12.936770    2.688070
  H     -4.869250   12.175680    1.934470
  H     -5.025460   11.293560   -0.997430
  H     -5.920960   12.880540   -2.487310
  H     -8.305230   15.160520    1.170200
  H     -9.760830   16.256790   -0.767820
  H     -5.000820   19.197570   -3.624930
  H     -9.615490   21.085600   -3.615250
  H     -8.810790   23.063580   -4.750010
  H     -6.969970   24.357400   -5.750830
  H     -4.680900   23.448450   -5.773680
  H     -4.213130   21.236290   -4.794360

 Total Charge           Charge          ....    0
 Multiplicity           Mult            ....    1
 Number of Electrons    NEL             ....  488
 Basis Dimension        Dim             .... 1158

ORBITAL ENERGIES
----------------

  NO   OCC          E(Eh)            E(eV)
   0   2.0000     -24.796945      -674.7592
   1   2.0000     -24.795630      -674.7234
   2   2.0000     -24.792903      -674.6492
   3   2.0000     -24.786324      -674.4702
   4   2.0000     -19.220222      -523.0088
   5   2.0000     -19.219843      -522.9985
   6   2.0000     -19.188172      -522.1367
   7   2.0000     -19.188120      -522.1353
   8   2.0000     -14.451363      -393.2416
   9   2.0000     -14.451075      -393.2337
  10   2.0000     -14.422430      -392.4543
  11   2.0000     -14.421241      -392.4219
  12   2.0000     -14.420100      -392.3909
  13   2.0000     -14.418824      -392.3561
  14   2.0000     -10.373472      -282.2765
  15   2.0000     -10.373106      -282.2666
  16   2.0000     -10.372413      -282.2477
  17   2.0000     -10.370944      -282.2077
  18   2.0000     -10.370407      -282.1931
  19   2.0000     -10.370243      -282.1887
  20   2.0000     -10.368423      -282.1391
  21   2.0000     -10.367720      -282.1200
  22   2.0000     -10.349126      -281.6140
  23   2.0000     -10.347925      -281.5813
  24   2.0000     -10.345803      -281.5236
  25   2.0000     -10.344539      -281.4892
  26   2.0000     -10.340313      -281.3742
  27   2.0000     -10.339331      -281.3475
  28   2.0000     -10.324070      -280.9322
  29   2.0000     -10.323349      -280.9126
  30   2.0000     -10.323156      -280.9073
  31   2.0000     -10.322379      -280.8862
  32   2.0000     -10.321622      -280.8656
  33   2.0000     -10.320979      -280.8481
  34   2.0000     -10.314164      -280.6627
  35   2.0000     -10.312285      -280.6115
  36   2.0000     -10.307375      -280.4779
  37   2.0000     -10.307369      -280.4778
  38   2.0000     -10.307072      -280.4697
  39   2.0000     -10.306486      -280.4537
  40   2.0000     -10.306405      -280.4515
  41   2.0000     -10.305898      -280.4377
  42   2.0000     -10.305235      -280.4197
  43   2.0000     -10.301687      -280.3231
  44   2.0000     -10.301446      -280.3166
  45   2.0000     -10.300983      -280.3040
  46   2.0000     -10.300637      -280.2946
  47   2.0000     -10.300451      -280.2895
  48   2.0000     -10.300355      -280.2869
  49   2.0000     -10.300149      -280.2813
  50   2.0000     -10.299659      -280.2680
  51   2.0000     -10.299598      -280.2663
  52   2.0000     -10.297765      -280.2164
  53   2.0000     -10.295382      -280.1516
  54   2.0000     -10.293896      -280.1112
  55   2.0000     -10.292648      -280.0772
  56   2.0000     -10.292475      -280.0725
  57   2.0000     -10.292180      -280.0645
  58   2.0000     -10.290372      -280.0153
  59   2.0000     -10.290063      -280.0068
  60   2.0000     -10.289447      -279.9901
  61   2.0000     -10.289279      -279.9855
  62   2.0000     -10.289122      -279.9812
  63   2.0000     -10.288838      -279.9735
  64   2.0000     -10.288808      -279.9727
  65   2.0000     -10.288357      -279.9604
  66   2.0000     -10.288107      -279.9536
  67   2.0000     -10.287535      -279.9381
  68   2.0000     -10.262282      -279.2509
  69   2.0000     -10.260145      -279.1927
  70   2.0000     -10.257579      -279.1229
  71   2.0000     -10.246154      -278.8120
  72   2.0000      -1.311146       -35.6781
  73   2.0000      -1.310295       -35.6549
  74   2.0000      -1.306512       -35.5520
  75   2.0000      -1.301773       -35.4230
  76   2.0000      -1.135736       -30.9049
  77   2.0000      -1.135337       -30.8941
  78   2.0000      -1.131034       -30.7770
  79   2.0000      -1.124038       -30.5866
  80   2.0000      -1.061810       -28.8933
  81   2.0000      -1.053297       -28.6617
  82   2.0000      -1.022995       -27.8371
  83   2.0000      -1.022787       -27.8314
  84   2.0000      -1.002729       -27.2856
  85   2.0000      -1.002571       -27.2813
  86   2.0000      -0.998865       -27.1805
  87   2.0000      -0.998840       -27.1798
  88   2.0000      -0.984578       -26.7917
  89   2.0000      -0.983292       -26.7567
  90   2.0000      -0.973968       -26.5030
  91   2.0000      -0.973651       -26.4944
  92   2.0000      -0.932151       -25.3651
  93   2.0000      -0.929700       -25.2984
  94   2.0000      -0.925397       -25.1813
  95   2.0000      -0.921104       -25.0645
  96   2.0000      -0.915686       -24.9171
  97   2.0000      -0.901717       -24.5370
  98   2.0000      -0.893086       -24.3021
  99   2.0000      -0.885531       -24.0965
 100   2.0000      -0.884094       -24.0574
 101   2.0000      -0.881919       -23.9982
 102   2.0000      -0.867674       -23.6106
 103   2.0000      -0.858955       -23.3733
 104   2.0000      -0.854547       -23.2534
 105   2.0000      -0.849894       -23.1268
 106   2.0000      -0.842041       -22.9131
 107   2.0000      -0.832047       -22.6411
 108   2.0000      -0.831248       -22.6194
 109   2.0000      -0.814658       -22.1680
 110   2.0000      -0.813690       -22.1416
 111   2.0000      -0.805531       -21.9196
 112   2.0000      -0.783389       -21.3171
 113   2.0000      -0.771757       -21.0006
 114   2.0000      -0.765863       -20.8402
 115   2.0000      -0.762830       -20.7577
 116   2.0000      -0.754588       -20.5334
 117   2.0000      -0.739516       -20.1233
 118   2.0000      -0.731013       -19.8919
 119   2.0000      -0.727780       -19.8039
 120   2.0000      -0.725280       -19.7359
 121   2.0000      -0.711687       -19.3660
 122   2.0000      -0.707958       -19.2645
 123   2.0000      -0.705520       -19.1982
 124   2.0000      -0.704665       -19.1749
 125   2.0000      -0.701284       -19.0829
 126   2.0000      -0.695448       -18.9241
 127   2.0000      -0.690430       -18.7876
 128   2.0000      -0.686292       -18.6749
 129   2.0000      -0.680113       -18.5068
 130   2.0000      -0.678897       -18.4737
 131   2.0000      -0.666906       -18.1474
 132   2.0000      -0.655473       -17.8363
 133   2.0000      -0.647660       -17.6237
 134   2.0000      -0.646037       -17.5795
 135   2.0000      -0.639821       -17.4104
 136   2.0000      -0.635363       -17.2891
 137   2.0000      -0.634030       -17.2528
 138   2.0000      -0.630325       -17.1520
 139   2.0000      -0.628935       -17.1142
 140   2.0000      -0.613716       -16.7001
 141   2.0000      -0.611642       -16.6436
 142   2.0000      -0.610671       -16.6172
 143   2.0000      -0.609518       -16.5858
 144   2.0000      -0.602789       -16.4027
 145   2.0000      -0.597757       -16.2658
 146   2.0000      -0.592248       -16.1159
 147   2.0000      -0.583612       -15.8809
 148   2.0000      -0.581965       -15.8361
 149   2.0000      -0.576211       -15.6795
 150   2.0000      -0.570429       -15.5222
 151   2.0000      -0.567408       -15.4400
 152   2.0000      -0.566843       -15.4246
 153   2.0000      -0.562188       -15.2979
 154   2.0000      -0.561319       -15.2743
 155   2.0000      -0.558971       -15.2104
 156   2.0000      -0.554126       -15.0785
 157   2.0000      -0.551344       -15.0028
 158   2.0000      -0.550493       -14.9797
 159   2.0000      -0.549453       -14.9514
 160   2.0000      -0.546810       -14.8795
 161   2.0000      -0.545192       -14.8354
 162   2.0000      -0.543186       -14.7809
 163   2.0000      -0.540442       -14.7062
 164   2.0000      -0.539678       -14.6854
 165   2.0000      -0.537900       -14.6370
 166   2.0000      -0.534561       -14.5461
 167   2.0000      -0.530261       -14.4291
 168   2.0000      -0.527640       -14.3578
 169   2.0000      -0.526466       -14.3259
 170   2.0000      -0.523382       -14.2419
 171   2.0000      -0.522206       -14.2100
 172   2.0000      -0.521880       -14.2011
 173   2.0000      -0.519063       -14.1244
 174   2.0000      -0.516681       -14.0596
 175   2.0000      -0.515148       -14.0179
 176   2.0000      -0.513750       -13.9799
 177   2.0000      -0.512303       -13.9405
 178   2.0000      -0.510640       -13.8952
 179   2.0000      -0.507952       -13.8221
 180   2.0000      -0.504884       -13.7386
 181   2.0000      -0.501107       -13.6358
 182   2.0000      -0.500419       -13.6171
 183   2.0000      -0.498967       -13.5776
 184   2.0000      -0.497021       -13.5246
 185   2.0000      -0.494663       -13.4605
 186   2.0000      -0.492437       -13.3999
 187   2.0000      -0.488222       -13.2852
 188   2.0000      -0.486110       -13.2277
 189   2.0000      -0.482328       -13.1248
 190   2.0000      -0.478102       -13.0098
 191   2.0000      -0.469895       -12.7865
 192   2.0000      -0.469692       -12.7810
 193   2.0000      -0.468699       -12.7539
 194   2.0000      -0.466930       -12.7058
 195   2.0000      -0.462684       -12.5903
 196   2.0000      -0.461973       -12.5709
 197   2.0000      -0.457679       -12.4541
 198   2.0000      -0.457195       -12.4409
 199   2.0000      -0.455522       -12.3954
 200   2.0000      -0.453617       -12.3436
 201   2.0000      -0.449540       -12.2326
 202   2.0000      -0.448671       -12.2090
 203   2.0000      -0.448633       -12.2079
 204   2.0000      -0.445873       -12.1328
 205   2.0000      -0.443886       -12.0787
 206   2.0000      -0.441110       -12.0032
 207   2.0000      -0.439342       -11.9551
 208   2.0000      -0.438224       -11.9247
 209   2.0000      -0.436796       -11.8858
 210   2.0000      -0.435946       -11.8627
 211   2.0000      -0.433628       -11.7996
 212   2.0000      -0.433195       -11.7878
 213   2.0000      -0.431382       -11.7385
 214   2.0000      -0.430433       -11.7127
 215   2.0000      -0.429537       -11.6883
 216   2.0000      -0.425499       -11.5784
 217   2.0000      -0.423621       -11.5273
 218   2.0000      -0.422260       -11.4903
 219   2.0000      -0.418777       -11.3955
 220   2.0000      -0.412387       -11.2216
 221   2.0000      -0.409549       -11.1444
 222   2.0000      -0.407938       -11.1006
 223   2.0000      -0.404916       -11.0183
 224   2.0000      -0.396540       -10.7904
 225   2.0000      -0.385449       -10.4886
 226   2.0000      -0.380017       -10.3408
 227   2.0000      -0.377460       -10.2712
 228   2.0000      -0.364644        -9.9225
 229   2.0000      -0.345974        -9.4144
 230   2.0000      -0.345453        -9.4003
 231   2.0000      -0.341687        -9.2978
 232   2.0000      -0.340677        -9.2703
 233   2.0000      -0.331512        -9.0209
 234   2.0000      -0.327748        -8.9185
 235   2.0000      -0.326801        -8.8927
 236   2.0000      -0.320353        -8.7172
 237   2.0000      -0.317294        -8.6340
 238   2.0000      -0.313827        -8.5397
 239   2.0000      -0.311586        -8.4787
 240   2.0000      -0.301494        -8.2041
 241   2.0000      -0.296506        -8.0683
 242   2.0000      -0.294818        -8.0224
 243   2.0000      -0.243195        -6.6177
 244   0.0000      -0.099684        -2.7125
 245   0.0000      -0.092891        -2.5277
 246   0.0000      -0.070357        -1.9145
 247   0.0000      -0.058819        -1.6005
 248   0.0000      -0.054830        -1.4920

MULLIKEN ATOMIC CHARGES
-----------------------
   0 C :    0.290863
   1 C :   -0.320659
   2 C :   -0.185365
   3 N :    0.159516
   4 C :   -0.201572
   5 N :    0.186022
   6 C :    0.035494
   7 C :    0.013917
   8 C :   -0.078897
   9 C :    0.094742
  10 C :    0.094005
  11 C :   -0.077707
  12 C :   -0.018777
  13 C :    0.036994
  14 C :    0.036572
  15 C :   -0.016217
  16 C :    0.133896
  17 O :   -0.135788
  18 C :   -0.105311
  19 C :    0.020925
  20 C :    0.010468
  21 C :   -0.071907
  22 C :    0.285579
  23 F :   -0.179160
  24 C :   -0.066604
  25 C :   -0.027632
  26 C :    0.262529
  27 F :   -0.179754
  28 C :    0.100313
  29 N :   -0.249851
  30 C :    0.093613
  31 C :   -0.015111
  32 C :    0.170451
  33 O :   -0.209094
  34 C :   -0.083451
  35 C :   -0.030057
  36 C :    0.136043
  37 O :   -0.194003
  38 N :   -0.267680
  39 C :    0.099045
  40 C :    0.003230
  41 C :    0.133534
  42 C :   -0.001336
  43 C :   -0.001683
  44 C :    0.054869
  45 C :   -0.098064
  46 C :    0.323225
  47 F :   -0.181927
  48 C :   -0.011026
  49 C :   -0.064555
  50 C :    0.249140
  51 F :   -0.191391
  52 C :   -0.025840
  53 C :   -0.069354
  54 C :    0.312762
  55 C :   -0.337229
  56 C :   -0.180829
  57 N :    0.152476
  58 C :   -0.194898
  59 N :    0.160810
  60 C :    0.050879
  61 C :   -0.004785
  62 C :    0.149475
  63 O :   -0.138221
  64 C :   -0.078197
  65 C :    0.099759
  66 C :    0.098132
  67 C :   -0.086051
  68 C :   -0.019872
  69 C :    0.039151
  70 C :    0.039456
  71 C :   -0.017814
  72 H :   -0.009102
  73 H :   -0.002449
  74 H :   -0.007491
  75 H :   -0.003256
  76 H :   -0.003767
  77 H :   -0.014641
  78 H :    0.031598
  79 H :   -0.001424
  80 H :    0.009485
  81 H :    0.031473
  82 H :    0.040922
  83 H :    0.040394
  84 H :    0.021190
  85 H :    0.015231
  86 H :    0.041999
  87 H :    0.027567
  88 H :    0.028698
  89 H :    0.023300
  90 H :    0.017356
  91 H :   -0.012793
  92 H :    0.019584
  93 H :    0.009387
  94 H :   -0.005427
  95 H :    0.042612
  96 H :   -0.011597
  97 H :   -0.007798
  98 H :   -0.008308
  99 H :   -0.003779
 100 H :   -0.003250
 101 H :   -0.015934
Sum of atomic charges:   -0.0000000

LOEWDIN ATOMIC CHARGES
----------------------
   0 C :    0.073068
   1 C :   -0.129905
   2 C :   -0.017612
   3 N :   -0.046460
   4 C :   -0.009746
   5 N :   -0.042946
   6 C :   -0.021629
   7 C :   -0.058065
   8 C :    0.034831
   9 C :   -0.008157
  10 C :   -0.004271
  11 C :    0.019608
  12 C :   -0.005539
  13 C :   -0.011404
  14 C :   -0.011579
  15 C :   -0.008803
  16 C :    0.086439
  17 O :   -0.135468
  18 C :   -0.071972
  19 C :    0.068529
  20 C :   -0.053110
  21 C :   -0.015637
  22 C :    0.090554
  23 F :   -0.053877
  24 C :   -0.039937
  25 C :    0.002641
  26 C :    0.091818
  27 F :   -0.052409
  28 C :    0.075104
  29 N :    0.007798
  30 C :    0.030851
  31 C :   -0.064559
  32 C :    0.082202
  33 O :   -0.198897
  34 C :   -0.127699
  35 C :   -0.119131
  36 C :    0.078944
  37 O :   -0.196468
  38 N :   -0.003864
  39 C :    0.035960
  40 C :   -0.061039
  41 C :    0.085048
  42 C :   -0.040326
  43 C :    0.034877
  44 C :   -0.036953
  45 C :   -0.018941
  46 C :    0.099854
  47 F :   -0.055508
  48 C :   -0.049748
  49 C :   -0.021805
  50 C :    0.088019
  51 F :   -0.062955
  52 C :    0.075717
  53 C :   -0.071480
  54 C :    0.075012
  55 C :   -0.129576
  56 C :   -0.016549
  57 N :   -0.047354
  58 C :   -0.020933
  59 N :   -0.044414
  60 C :   -0.026694
  61 C :   -0.055683
  62 C :    0.084448
  63 O :   -0.128379
  64 C :    0.034884
  65 C :   -0.007041
  66 C :   -0.005438
  67 C :    0.021153
  68 C :   -0.004640
  69 C :   -0.011734
  70 C :   -0.010247
  71 C :   -0.008800
  72 H :    0.040196
  73 H :    0.039772
  74 H :    0.035203
  75 H :    0.033771
  76 H :    0.033309
  77 H :    0.032581
  78 H :    0.049987
  79 H :    0.045320
  80 H :    0.051313
  81 H :    0.019571
  82 H :    0.034344
  83 H :    0.023128
  84 H :    0.032265
  85 H :    0.026181
  86 H :    0.037357
  87 H :    0.024619
  88 H :    0.031891
  89 H :    0.030765
  90 H :    0.022637
  91 H :    0.027198
  92 H :    0.040482
  93 H :    0.049248
  94 H :    0.043645
  95 H :    0.048690
  96 H :    0.039975
  97 H :    0.039334
  98 H :    0.035214
  99 H :    0.033846
 100 H :    0.033586
 101 H :    0.032601

  Mayer bond orders larger than 0.100000
B(  0-C ,  1-C ) :   1.6694 B(  0-C ,  6-C ) :   1.0091 B(  0-C , 18-C ) :   1.0056
B(  1-C ,  2-C ) :   1.1340 B(  1-C ,  4-C ) :   1.1614 B(  2-C ,  3-N ) :   2.9903
B(  4-C ,  5-N ) :   2.9867 B(  6-C ,  7-C ) :   1.2109 B(  6-C , 11-C ) :   1.4545
B(  7-C ,  8-C ) :   1.4717 B(  7-C , 16-C ) :   0.9238 B(  8-C ,  9-C ) :   1.1903
B(  8-C , 72-H ) :   1.0146 B(  9-C , 10-C ) :   1.2536 B(  9-C , 15-C ) :   1.2447
B( 10-C , 11-C ) :   1.2107 B( 10-C , 12-C ) :   1.2407 B( 11-C , 73-H ) :   0.9922
B( 12-C , 13-C ) :   1.4919 B( 12-C , 74-H ) :   0.9967 B( 13-C , 14-C ) :   1.2604
B( 13-C , 75-H ) :   0.9881 B( 14-C , 15-C ) :   1.4912 B( 14-C , 76-H ) :   0.9884
B( 15-C , 77-H ) :   0.9967 B( 16-C , 17-O ) :   2.2761 B( 16-C , 18-C ) :   0.9217
B( 18-C , 19-C ) :   1.7618 B( 19-C , 20-C ) :   1.0235 B( 19-C , 78-H ) :   0.9388
B( 20-C , 21-C ) :   1.2863 B( 20-C , 26-C ) :   1.2980 B( 21-C , 22-C ) :   1.3672
B( 21-C , 79-H ) :   1.0033 B( 22-C , 23-F ) :   1.1169 B( 22-C , 24-C ) :   1.3082
B( 24-C , 25-C ) :   1.3359 B( 24-C , 28-C ) :   0.9716 B( 25-C , 26-C ) :   1.3711
B( 25-C , 80-H ) :   0.9969 B( 26-C , 27-F ) :   1.1016 B( 28-C , 29-N ) :   1.2184
B( 28-C , 35-C ) :   1.4517 B( 29-N , 30-C ) :   0.9383 B( 29-N , 32-C ) :   1.0468
B( 30-C , 31-C ) :   1.1175 B( 30-C , 81-H ) :   0.9432 B( 30-C , 82-H ) :   0.9285
B( 31-C , 83-H ) :   0.9588 B( 31-C , 84-H ) :   0.9633 B( 31-C , 85-H ) :   0.9617
B( 32-C , 33-O ) :   2.0236 B( 32-C , 34-C ) :   0.9984 B( 33-O , 92-H ) :   0.1100
B( 34-C , 35-C ) :   1.2088 B( 34-C , 41-C ) :   1.3686 B( 35-C , 36-C ) :   0.9584
B( 36-C , 37-O ) :   2.1363 B( 36-C , 38-N ) :   1.0388 B( 38-N , 39-C ) :   0.9465
B( 38-N , 41-C ) :   1.1573 B( 39-C , 40-C ) :   1.1205 B( 39-C , 86-H ) :   0.9269
B( 39-C , 87-H ) :   0.9497 B( 40-C , 88-H ) :   0.9636 B( 40-C , 89-H ) :   0.9681
B( 40-C , 90-H ) :   0.9684 B( 41-C , 42-C ) :   1.1420 B( 42-C , 43-C ) :   1.6330
B( 42-C , 91-H ) :   0.9580 B( 43-C , 44-C ) :   1.0777 B( 43-C , 92-H ) :   0.9568
B( 44-C , 45-C ) :   1.2760 B( 44-C , 50-C ) :   1.2884 B( 45-C , 46-C ) :   1.3657
B( 45-C , 93-H ) :   1.0095 B( 46-C , 47-F ) :   1.1202 B( 46-C , 48-C ) :   1.3211
B( 48-C , 49-C ) :   1.3000 B( 48-C , 52-C ) :   1.0117 B( 49-C , 50-C ) :   1.3861
B( 49-C , 94-H ) :   0.9990 B( 50-C , 51-F ) :   1.0807 B( 52-C , 53-C ) :   1.7530
B( 52-C , 95-H ) :   0.9392 B( 53-C , 54-C ) :   1.0353 B( 53-C , 62-C ) :   0.9161
B( 54-C , 55-C ) :   1.6598 B( 54-C , 60-C ) :   1.0014 B( 55-C , 56-C ) :   1.1396
B( 55-C , 58-C ) :   1.1403 B( 56-C , 57-N ) :   2.9664 B( 58-C , 59-N ) :   2.9765
B( 60-C , 61-C ) :   1.2137 B( 60-C , 67-C ) :   1.4373 B( 61-C , 62-C ) :   0.9479
B( 61-C , 64-C ) :   1.4673 B( 62-C , 63-O ) :   2.2321 B( 64-C , 65-C ) :   1.1806
B( 64-C , 96-H ) :   1.0171 B( 65-C , 66-C ) :   1.2556 B( 65-C , 71-C ) :   1.2409
B( 66-C , 67-C ) :   1.2108 B( 66-C , 68-C ) :   1.2366 B( 67-C , 97-H ) :   0.9905
B( 68-C , 69-C ) :   1.4913 B( 68-C , 98-H ) :   0.9976 B( 69-C , 70-C ) :   1.2586
B( 69-C , 99-H ) :   0.9880 B( 70-C , 71-C ) :   1.4895 B( 70-C ,100-H ) :   0.9888
B( 71-C ,101-H ) :   0.9985

-----------------------------------------------------------------------------
         ABSORPTION SPECTRUM VIA TRANSITION ELECTRIC DIPOLE MOMENTS
-----------------------------------------------------------------------------
State   Energy  Wavelength   fosc         T2         TX        TY        TZ
        (cm-1)    (nm)                  (au**2)     (au)      (au)      (au)
-----------------------------------------------------------------------------
   0   17111.1    584.4   0.815553718  15.69102   1.84677  -3.50270   0.10748
   1   20037.6    499.1   0.055302054   0.90860  -0.63741   0.70271  -0.09221
   2   23570.4    424.3   0.085256852   1.19080   0.02606  -0.02247  -1.09069
   3   25374.8    394.1   0.185463077   2.40619   0.91275  -1.24712   0.13335
   4   26851.6    372.4   0.060221923   0.73835   0.49033   0.65202  -0.26981
   5   27059.7    369.6   0.075480890   0.91831  -0.33600   0.51490  -0.73505
   6   27603.5    362.3   0.003460099   0.04127  -0.19943  -0.00047  -0.03864
   7   28234.6    354.2   0.030717694   0.35816   0.09425   0.54275  -0.23390
   8   28429.9    351.7   0.199321216   2.30809   0.81169  -1.26795   0.20387
   9   29036.7    344.4   0.026409581   0.29943   0.32161  -0.10004   0.43126
  10   29222.8    342.2   0.133604467   1.50513  -0.07055  -1.15415   0.40998
  11   29533.2    338.6   0.057358255   0.63938   0.79630  -0.05208  -0.05080
  12   29908.5    334.4   0.020354563   0.22405   0.14527  -0.27865   0.35398
  13   30304.2    330.0   0.226983464   2.46585   0.54702  -1.34141   0.60600
  14   30412.1    328.8   0.003467169   0.03753   0.05251   0.04989   0.17968
  15   31538.5    317.1   0.402246405   4.19882   0.75987  -1.50201   1.16850
  16   31970.3    312.8   0.017491307   0.18012   0.25827   0.22746  -0.24835
  17   32001.3    312.5   0.159510793   1.64096   0.28978   1.13204  -0.52486
  18   33257.0    300.7   0.055516044   0.54956  -0.26183   0.38704  -0.57550
  19   33706.8    296.7   0.063674700   0.62191   0.78050   0.09173   0.06568
  20   33906.1    294.9   0.276652419   2.68616   0.16772   1.09203  -1.21058
  21   34137.4    292.9   0.726478862   7.00597   2.13880   1.32756  -0.81798
  22   34393.4    290.8   0.606052062   5.80110   0.91349  -1.35574   1.76879
  23   34583.3    289.2   0.048519355   0.46187   0.62526  -0.21203   0.16113
  24   34956.3    286.1   0.435599071   4.10240   1.02575  -1.28634   1.18134
  25   35284.5    283.4   0.054842625   0.51169  -0.24288  -0.16923   0.65120
  26   36185.2    276.4   0.030631985   0.27869  -0.22951   0.30594  -0.36389
  27   36648.5    272.9   0.103657514   0.93115   0.25671  -0.49420   0.78805
  28   36810.0    271.7   0.041687625   0.37284   0.35530  -0.38334   0.31567
  29   37331.8    267.9   0.004890532   0.04313  -0.00833  -0.04227   0.20315
  30   37593.1    266.0   0.029184559   0.25558  -0.43080  -0.20149   0.17143
  31   37847.1    264.2   0.011199219   0.09742   0.08227  -0.30102  -0.00574
  32   38103.9    262.4   0.188666479   1.63005   0.72584  -0.77746   0.70624
  33   38302.0    261.1   0.183148059   1.57419   0.79924  -0.66419   0.70302
  34   38327.0    260.9   0.081469233   0.69979  -0.75590  -0.35086   0.07276
  35   38445.3    260.1   0.087957297   0.75319  -0.82400  -0.23530   0.13729
  36   38719.9    258.3   0.073669018   0.62636   0.63962  -0.27402   0.37705
  37   38797.7    257.7   0.063297295   0.53710   0.26688   0.38301  -0.56496
  38   39723.7    251.7   0.036423609   0.30186   0.49278  -0.24146  -0.02697
  39   40012.5    249.9   0.277220803   2.28090   0.78902  -1.09701   0.67447

FINAL SINGLE POINT ENERGY     -3252.962983520782

DIPOLE MOMENT
-------------
                                X             Y             Z
Electronic contribution:    -12.95405       0.53367      -8.74907
Nuclear contribution   :     15.77074       0.05414       9.78416
                        -----------------------------------------
Total Dipole Moment    :      2.81670       0.58782       1.03510
                        -----------------------------------------
Magnitude (a.u.)       :      3.05790
Magnitude (Debye)      :      7.77255

Rotational constants in cm-1:     0.003076     0.000229     0.000224
Rotational constants in MHz :    92.205641     6.850681     6.708897

                             ****ORCA TERMINATED NORMALLY****
TOTAL RUN TIME: 0 days 0 hours 9 minutes 24 seconds 96 msec
