                         Program Version 4.2.0 -  RELEASE  -
|  1> # ORCA input file
|  2> # SCF done       -213.932809328264          0.000678815169
|  3> ! CAM-B3LYP def2-SVP def2/J RIJCOSX Grid4 TightSCF
|  4> %maxcore 5000
|  5> %tddft
|  6>     Mode sTDDFT
|  7>     Ethresh 5.0
|  8>     maxcore 5000
|  9> end
| 10>
| 11> %pal
| 12>   nprocs 6
| 13>   end
| 14> * xyz 0 1
| 15>    C       -0.90690         1.36052        -4.40832
| 16>    C        0.39728         1.06257        -4.70342
| 17>    C        0.79053         0.21296        -5.75927
| 18>    N        1.16757        -0.46942        -6.60113
| 19>    C        1.51598         1.60836        -4.03877
| 20>    N        2.45583         2.05538        -3.55289
| 21>    C       -2.07557         0.92089        -5.16063
| 22>    C       -3.22176         1.60214        -4.65577
| 23>    C       -4.46726         1.41048        -5.18146
| 24>    C       -4.62866         0.50466        -6.25314
| 25>    C       -3.49029        -0.18941        -6.75702
| 26>    C       -2.21184         0.03337        -6.19475
| 27>    C       -3.66504        -1.09400        -7.82368
| 28>    C       -4.90287        -1.30240        -8.36936
| 29>    C       -6.02214        -0.61740        -7.87363
| 30>    C       -5.88805         0.26699        -6.83764
| 31>    C       -2.81648         2.47675        -3.54964
| 32>    O       -3.52904         3.24252        -2.92433
| 33>    C       -1.37693         2.24151        -3.35052
| 34>    C       -0.62981         2.67347        -2.29276
| 35>    C       -0.97930         3.52937        -1.22841
| 36>    S       -2.45869         4.42428        -1.10101
| 37>    C       -1.91888         5.20696         0.34484
| 38>    C       -0.64947         4.77521         0.72150
| 39>    C       -0.12637         3.82636        -0.15770
| 40>    C        1.19524         3.16174         0.06241
| 41>    N        1.04812         1.67020         0.07377
| 42>    O        2.05066         1.03590        -0.12818
| 43>    O       -0.03905         1.21312         0.32192
| 44>    C        1.79241         3.52838         1.42875
| 45>    C        1.62792         5.01963         1.68824
| 46>    C        0.13625         5.32093         1.86692
| 47>    N       -0.01122         6.79463         1.96475
| 48>    O        0.06577         7.27801         3.06677
| 49>    O       -0.15226         7.41598         0.93902
| 50>    C       -2.76080         6.11165         1.06152
| 51>    N       -3.63034         6.99059         0.47183
| 52>    C       -3.78885         7.28639        -0.93247
| 53>    C       -4.98677         6.56024        -1.53756
| 54>    C       -4.34789         7.74265         1.43022
| 55>    O       -5.15188         8.60268         1.14366
| 56>    C       -3.87278         7.23921         2.69486
| 57>    C       -2.89247         6.24630         2.44345
| 58>    C       -2.48799         5.72289         3.72855
| 59>    O       -1.71340         4.83203         4.03513
| 60>    N       -3.21909         6.45948         4.67199
| 61>    C       -2.94462         6.28256         6.07724
| 62>    C       -2.07677         7.41562         6.61847
| 63>    C       -4.06304         7.36323         4.06586
| 64>    C       -5.03816         8.23794         4.61219
| 65>    C       -5.39351         8.46705         5.89856
| 66>    C       -6.47780         9.32096         6.25343
| 67>    S       -6.93441         9.46865         7.92669
| 68>    C       -8.25243        10.51770         7.52820
| 69>    C       -9.21401        11.03458         8.50493
| 70>    O      -10.21030        11.62053         8.16481
| 71>    O       -8.93782        10.82847         9.80252
| 72>    C       -8.33204        10.72847         6.15754
| 73>    C       -7.31972        10.05725         5.45123
| 74>    C       -9.33984        11.57206         5.55155
| 75>    C      -10.09313        11.20047         4.49654
| 76>    C      -11.10274        12.00509         3.81606
| 77>    C      -11.24743        13.36021         3.91153
| 78>    C      -12.23201        14.09910         3.22016
| 79>    N      -13.01187        14.74869         2.68463
| 80>    C      -10.40570        14.20873         4.66452
| 81>    N       -9.73995        14.96259         5.21692
| 82>    C      -11.86655        11.11568         2.95321
| 83>    C      -11.29948         9.81004         3.02122
| 84>    C      -10.16571         9.80729         3.95753
| 85>    O       -9.47063         8.86295         4.25972
| 86>    C      -11.79608         8.76842         2.29018
| 87>    C      -12.90425         8.98752         1.44321
| 88>    C      -13.48590        10.28730         1.37890
| 89>    C      -12.95104        11.34612         2.14668
| 90>    C      -14.59561        10.49274         0.53337
| 91>    C      -15.10458         9.46695        -0.21532
| 92>    C      -14.52927         8.18854        -0.15316
| 93>    C      -13.45295         7.95387         0.65842
| 94>    H       -5.31859         1.94273        -4.78381
| 95>    H       -1.37107        -0.51023        -6.59558
| 96>    H       -2.80055        -1.61831        -8.20335
| 97>    H       -5.02594        -1.99664        -9.18687
| 98>    H       -6.99099        -0.79391        -8.31612
| 99>    H       -6.74609         0.79720        -6.45112
|100>    H        0.38752         2.30683        -2.25283
|101>    H        1.90898         3.39573        -0.73650
|102>    H        2.84530         3.24643         1.44930
|103>    H        1.26983         2.97542         2.21369
|104>    H        2.02197         5.59145         0.84403
|105>    H        2.17041         5.30602         2.58972
|106>    H       -0.22446         4.90855         2.82326
|107>    H       -2.86682         7.03671        -1.45998
|108>    H       -3.95718         8.36577        -0.99972
|109>    H       -4.85615         5.48180        -1.50183
|110>    H       -5.10324         6.85940        -2.57510
|111>    H       -5.88898         6.82879        -0.99381
|112>    H       -2.39988         5.33697         6.15559
|113>    H       -3.88254         6.18704         6.62961
|114>    H       -1.14239         7.45554         6.06350
|115>    H       -1.85428         7.24319         7.66788
|116>    H       -2.57510         8.37687         6.51596
|117>    H       -5.57772         8.76106         3.83381
|118>    H       -4.89014         7.99102         6.72558
|119>    H       -8.10846        10.35308         9.94719
|120>    H       -7.21046        10.12437         4.38537
|121>    H       -9.49951        12.53076         6.02675
|122>    H      -11.34448         7.78964         2.35637
|123>    H      -13.41557        12.31712         2.07988
|124>    H      -15.03401        11.47873         0.48739
|125>    H      -15.95367         9.63466        -0.86072
|126>    H      -14.94379         7.39100        -0.75149
|127>    H      -13.00572         6.97198         0.71089
|128> *
|129>
|130>                          ****END OF INPUT****

CARTESIAN COORDINATES (ANGSTROEM)
---------------------------------
  C     -0.906900    1.360520   -4.408320
  C      0.397280    1.062570   -4.703420
  C      0.790530    0.212960   -5.759270
  N      1.167570   -0.469420   -6.601130
  C      1.515980    1.608360   -4.038770
  N      2.455830    2.055380   -3.552890
  C     -2.075570    0.920890   -5.160630
  C     -3.221760    1.602140   -4.655770
  C     -4.467260    1.410480   -5.181460
  C     -4.628660    0.504660   -6.253140
  C     -3.490290   -0.189410   -6.757020
  C     -2.211840    0.033370   -6.194750
  C     -3.665040   -1.094000   -7.823680
  C     -4.902870   -1.302400   -8.369360
  C     -6.022140   -0.617400   -7.873630
  C     -5.888050    0.266990   -6.837640
  C     -2.816480    2.476750   -3.549640
  O     -3.529040    3.242520   -2.924330
  C     -1.376930    2.241510   -3.350520
  C     -0.629810    2.673470   -2.292760
  C     -0.979300    3.529370   -1.228410
  S     -2.458690    4.424280   -1.101010
  C     -1.918880    5.206960    0.344840
  C     -0.649470    4.775210    0.721500
  C     -0.126370    3.826360   -0.157700
  C      1.195240    3.161740    0.062410
  N      1.048120    1.670200    0.073770
  O      2.050660    1.035900   -0.128180
  O     -0.039050    1.213120    0.321920
  C      1.792410    3.528380    1.428750
  C      1.627920    5.019630    1.688240
  C      0.136250    5.320930    1.866920
  N     -0.011220    6.794630    1.964750
  O      0.065770    7.278010    3.066770
  O     -0.152260    7.415980    0.939020
  C     -2.760800    6.111650    1.061520
  N     -3.630340    6.990590    0.471830
  C     -3.788850    7.286390   -0.932470
  C     -4.986770    6.560240   -1.537560
  C     -4.347890    7.742650    1.430220
  O     -5.151880    8.602680    1.143660
  C     -3.872780    7.239210    2.694860
  C     -2.892470    6.246300    2.443450
  C     -2.487990    5.722890    3.728550
  O     -1.713400    4.832030    4.035130
  N     -3.219090    6.459480    4.671990
  C     -2.944620    6.282560    6.077240
  C     -2.076770    7.415620    6.618470
  C     -4.063040    7.363230    4.065860
  C     -5.038160    8.237940    4.612190
  C     -5.393510    8.467050    5.898560
  C     -6.477800    9.320960    6.253430
  S     -6.934410    9.468650    7.926690
  C     -8.252430   10.517700    7.528200
  C     -9.214010   11.034580    8.504930
  O    -10.210300   11.620530    8.164810
  O     -8.937820   10.828470    9.802520
  C     -8.332040   10.728470    6.157540
  C     -7.319720   10.057250    5.451230
  C     -9.339840   11.572060    5.551550
  C    -10.093130   11.200470    4.496540
  C    -11.102740   12.005090    3.816060
  C    -11.247430   13.360210    3.911530
  C    -12.232010   14.099100    3.220160
  N    -13.011870   14.748690    2.684630
  C    -10.405700   14.208730    4.664520
  N     -9.739950   14.962590    5.216920
  C    -11.866550   11.115680    2.953210
  C    -11.299480    9.810040    3.021220
  C    -10.165710    9.807290    3.957530
  O     -9.470630    8.862950    4.259720
  C    -11.796080    8.768420    2.290180
  C    -12.904250    8.987520    1.443210
  C    -13.485900   10.287300    1.378900
  C    -12.951040   11.346120    2.146680
  C    -14.595610   10.492740    0.533370
  C    -15.104580    9.466950   -0.215320
  C    -14.529270    8.188540   -0.153160
  C    -13.452950    7.953870    0.658420
  H     -5.318590    1.942730   -4.783810
  H     -1.371070   -0.510230   -6.595580
  H     -2.800550   -1.618310   -8.203350
  H     -5.025940   -1.996640   -9.186870
  H     -6.990990   -0.793910   -8.316120
  H     -6.746090    0.797200   -6.451120
  H      0.387520    2.306830   -2.252830
  H      1.908980    3.395730   -0.736500
  H      2.845300    3.246430    1.449300
  H      1.269830    2.975420    2.213690
  H      2.021970    5.591450    0.844030
  H      2.170410    5.306020    2.589720
  H     -0.224460    4.908550    2.823260
  H     -2.866820    7.036710   -1.459980
  H     -3.957180    8.365770   -0.999720
  H     -4.856150    5.481800   -1.501830
  H     -5.103240    6.859400   -2.575100
  H     -5.888980    6.828790   -0.993810
  H     -2.399880    5.336970    6.155590
  H     -3.882540    6.187040    6.629610
  H     -1.142390    7.455540    6.063500
  H     -1.854280    7.243190    7.667880
  H     -2.575100    8.376870    6.515960
  H     -5.577720    8.761060    3.833810
  H     -4.890140    7.991020    6.725580
  H     -8.108460   10.353080    9.947190
  H     -7.210460   10.124370    4.385370
  H     -9.499510   12.530760    6.026750
  H    -11.344480    7.789640    2.356370
  H    -13.415570   12.317120    2.079880
  H    -15.034010   11.478730    0.487390
  H    -15.953670    9.634660   -0.860720
  H    -14.943790    7.391000   -0.751490
  H    -13.005720    6.971980    0.710890

 Total Charge           Charge          ....    0
 Multiplicity           Mult            ....    1
 Number of Electrons    NEL             ....  556
 Basis Dimension        Dim             .... 1284

ORBITAL ENERGIES
----------------

  NO   OCC          E(Eh)            E(eV)
   0   2.0000     -88.986714     -2421.4516
   1   2.0000     -88.984519     -2421.3919
   2   2.0000     -19.270727      -524.3831
   3   2.0000     -19.254302      -523.9362
   4   2.0000     -19.254262      -523.9351
   5   2.0000     -19.252305      -523.8818
   6   2.0000     -19.251105      -523.8492
   7   2.0000     -19.233801      -523.3783
   8   2.0000     -19.219902      -523.0001
   9   2.0000     -19.208441      -522.6882
  10   2.0000     -19.202683      -522.5316
  11   2.0000     -19.198091      -522.4066
  12   2.0000     -14.652556      -398.7163
  13   2.0000     -14.649203      -398.6251
  14   2.0000     -14.463894      -393.5826
  15   2.0000     -14.463218      -393.5642
  16   2.0000     -14.425985      -392.5510
  17   2.0000     -14.421229      -392.4216
  18   2.0000     -14.416223      -392.2854
  19   2.0000     -14.414426      -392.2365
  20   2.0000     -10.417690      -283.4798
  21   2.0000     -10.386572      -282.6330
  22   2.0000     -10.381316      -282.4900
  23   2.0000     -10.380494      -282.4676
  24   2.0000     -10.371208      -282.2149
  25   2.0000     -10.359572      -281.8983
  26   2.0000     -10.350841      -281.6607
  27   2.0000     -10.350743      -281.6580
  28   2.0000     -10.349381      -281.6210
  29   2.0000     -10.348280      -281.5910
  30   2.0000     -10.344789      -281.4960
  31   2.0000     -10.341093      -281.3954
  32   2.0000     -10.336150      -281.2609
  33   2.0000     -10.332675      -281.1664
  34   2.0000     -10.331451      -281.1331
  35   2.0000     -10.329845      -281.0894
  36   2.0000     -10.329219      -281.0723
  37   2.0000     -10.328458      -281.0516
  38   2.0000     -10.325093      -280.9601
  39   2.0000     -10.323721      -280.9227
  40   2.0000     -10.320281      -280.8291
  41   2.0000     -10.318384      -280.7775
  42   2.0000     -10.317151      -280.7440
  43   2.0000     -10.316343      -280.7220
  44   2.0000     -10.314606      -280.6747
  45   2.0000     -10.313916      -280.6559
  46   2.0000     -10.313323      -280.6398
  47   2.0000     -10.312408      -280.6149
  48   2.0000     -10.311670      -280.5948
  49   2.0000     -10.310912      -280.5742
  50   2.0000     -10.308688      -280.5137
  51   2.0000     -10.305912      -280.4381
  52   2.0000     -10.305797      -280.4350
  53   2.0000     -10.305154      -280.4175
  54   2.0000     -10.304967      -280.4124
  55   2.0000     -10.304901      -280.4106
  56   2.0000     -10.304437      -280.3980
  57   2.0000     -10.303470      -280.3717
  58   2.0000     -10.303357      -280.3686
  59   2.0000     -10.303139      -280.3627
  60   2.0000     -10.299983      -280.2768
  61   2.0000     -10.299745      -280.2703
  62   2.0000     -10.299067      -280.2519
  63   2.0000     -10.298485      -280.2360
  64   2.0000     -10.297865      -280.2191
  65   2.0000     -10.297767      -280.2165
  66   2.0000     -10.293341      -280.0960
  67   2.0000     -10.292861      -280.0830
  68   2.0000     -10.292463      -280.0722
  69   2.0000     -10.291940      -280.0579
  70   2.0000     -10.290877      -280.0290
  71   2.0000     -10.288793      -279.9723
  72   2.0000     -10.288229      -279.9569
  73   2.0000     -10.287940      -279.9491
  74   2.0000     -10.287272      -279.9309
  75   2.0000     -10.274777      -279.5909
  76   2.0000     -10.270098      -279.4636
  77   2.0000     -10.268041      -279.4076
  78   2.0000     -10.258460      -279.1469
  79   2.0000      -8.082583      -219.9383
  80   2.0000      -8.077271      -219.7937
  81   2.0000      -6.051750      -164.6765
  82   2.0000      -6.047742      -164.5674
  83   2.0000      -6.046639      -164.5374
  84   2.0000      -6.044824      -164.4880
  85   2.0000      -6.041950      -164.4098
  86   2.0000      -6.039727      -164.3493
  87   2.0000      -1.336695       -36.3733
  88   2.0000      -1.332113       -36.2486
  89   2.0000      -1.193607       -32.4797
  90   2.0000      -1.157481       -31.4967
  91   2.0000      -1.152373       -31.3577
  92   2.0000      -1.148927       -31.2639
  93   2.0000      -1.143807       -31.1246
  94   2.0000      -1.135978       -30.9115
  95   2.0000      -1.135540       -30.8996
  96   2.0000      -1.107587       -30.1390
  97   2.0000      -1.073878       -29.2217
  98   2.0000      -1.065546       -28.9950
  99   2.0000      -1.027799       -27.9678
 100   2.0000      -1.023022       -27.8378
 101   2.0000      -1.018851       -27.7243
 102   2.0000      -1.011981       -27.5374
 103   2.0000      -1.007574       -27.4175
 104   2.0000      -1.001559       -27.2538
 105   2.0000      -0.999303       -27.1924
 106   2.0000      -0.993591       -27.0370
 107   2.0000      -0.980235       -26.6735
 108   2.0000      -0.972995       -26.4765
 109   2.0000      -0.967519       -26.3275
 110   2.0000      -0.945526       -25.7291
 111   2.0000      -0.937093       -25.4996
 112   2.0000      -0.931722       -25.3534
 113   2.0000      -0.930998       -25.3338
 114   2.0000      -0.923070       -25.1180
 115   2.0000      -0.913261       -24.8511
 116   2.0000      -0.906738       -24.6736
 117   2.0000      -0.892106       -24.2754
 118   2.0000      -0.888376       -24.1739
 119   2.0000      -0.885410       -24.0932
 120   2.0000      -0.882257       -24.0074
 121   2.0000      -0.879896       -23.9432
 122   2.0000      -0.863979       -23.5101
 123   2.0000      -0.858441       -23.3594
 124   2.0000      -0.853361       -23.2211
 125   2.0000      -0.842479       -22.9250
 126   2.0000      -0.836586       -22.7647
 127   2.0000      -0.834426       -22.7059
 128   2.0000      -0.830153       -22.5896
 129   2.0000      -0.825633       -22.4666
 130   2.0000      -0.817714       -22.2511
 131   2.0000      -0.803278       -21.8583
 132   2.0000      -0.788541       -21.4573
 133   2.0000      -0.774687       -21.0803
 134   2.0000      -0.771586       -20.9959
 135   2.0000      -0.764870       -20.8132
 136   2.0000      -0.763119       -20.7655
 137   2.0000      -0.738213       -20.0878
 138   2.0000      -0.735854       -20.0236
 139   2.0000      -0.729797       -19.8588
 140   2.0000      -0.726308       -19.7638
 141   2.0000      -0.717082       -19.5128
 142   2.0000      -0.713453       -19.4140
 143   2.0000      -0.709992       -19.3199
 144   2.0000      -0.707574       -19.2541
 145   2.0000      -0.706447       -19.2234
 146   2.0000      -0.704663       -19.1749
 147   2.0000      -0.700672       -19.0663
 148   2.0000      -0.696470       -18.9519
 149   2.0000      -0.690775       -18.7970
 150   2.0000      -0.685845       -18.6628
 151   2.0000      -0.683282       -18.5931
 152   2.0000      -0.674446       -18.3526
 153   2.0000      -0.670355       -18.2413
 154   2.0000      -0.659837       -17.9551
 155   2.0000      -0.652701       -17.7609
 156   2.0000      -0.647197       -17.6111
 157   2.0000      -0.645223       -17.5574
 158   2.0000      -0.642530       -17.4841
 159   2.0000      -0.639794       -17.4097
 160   2.0000      -0.639554       -17.4031
 161   2.0000      -0.635491       -17.2926
 162   2.0000      -0.630573       -17.1588
 163   2.0000      -0.627176       -17.0663
 164   2.0000      -0.620050       -16.8724
 165   2.0000      -0.615652       -16.7527
 166   2.0000      -0.613968       -16.7069
 167   2.0000      -0.608727       -16.5643
 168   2.0000      -0.606865       -16.5136
 169   2.0000      -0.602847       -16.4043
 170   2.0000      -0.595834       -16.2135
 171   2.0000      -0.594906       -16.1882
 172   2.0000      -0.587670       -15.9913
 173   2.0000      -0.583345       -15.8736
 174   2.0000      -0.581288       -15.8176
 175   2.0000      -0.573348       -15.6016
 176   2.0000      -0.571429       -15.5494
 177   2.0000      -0.565931       -15.3998
 178   2.0000      -0.563112       -15.3230
 179   2.0000      -0.560282       -15.2460
 180   2.0000      -0.557076       -15.1588
 181   2.0000      -0.553134       -15.0515
 182   2.0000      -0.550138       -14.9700
 183   2.0000      -0.548812       -14.9339
 184   2.0000      -0.548535       -14.9264
 185   2.0000      -0.546540       -14.8721
 186   2.0000      -0.545659       -14.8481
 187   2.0000      -0.542874       -14.7723
 188   2.0000      -0.541441       -14.7334
 189   2.0000      -0.537774       -14.6336
 190   2.0000      -0.537076       -14.6146
 191   2.0000      -0.536162       -14.5897
 192   2.0000      -0.530580       -14.4378
 193   2.0000      -0.530248       -14.4288
 194   2.0000      -0.529462       -14.4074
 195   2.0000      -0.526110       -14.3162
 196   2.0000      -0.525343       -14.2953
 197   2.0000      -0.523811       -14.2536
 198   2.0000      -0.522018       -14.2048
 199   2.0000      -0.520810       -14.1720
 200   2.0000      -0.517526       -14.0826
 201   2.0000      -0.515399       -14.0247
 202   2.0000      -0.514976       -14.0132
 203   2.0000      -0.513554       -13.9745
 204   2.0000      -0.507889       -13.8204
 205   2.0000      -0.505587       -13.7577
 206   2.0000      -0.502792       -13.6817
 207   2.0000      -0.500123       -13.6090
 208   2.0000      -0.499207       -13.5841
 209   2.0000      -0.497764       -13.5449
 210   2.0000      -0.495977       -13.4962
 211   2.0000      -0.494810       -13.4645
 212   2.0000      -0.488307       -13.2875
 213   2.0000      -0.487627       -13.2690
 214   2.0000      -0.482640       -13.1333
 215   2.0000      -0.481571       -13.1042
 216   2.0000      -0.475338       -12.9346
 217   2.0000      -0.472754       -12.8643
 218   2.0000      -0.472169       -12.8484
 219   2.0000      -0.468454       -12.7473
 220   2.0000      -0.468040       -12.7360
 221   2.0000      -0.466983       -12.7072
 222   2.0000      -0.462098       -12.5743
 223   2.0000      -0.459643       -12.5075
 224   2.0000      -0.457549       -12.4506
 225   2.0000      -0.454448       -12.3662
 226   2.0000      -0.452928       -12.3248
 227   2.0000      -0.450168       -12.2497
 228   2.0000      -0.449045       -12.2191
 229   2.0000      -0.448582       -12.2065
 230   2.0000      -0.446701       -12.1553
 231   2.0000      -0.444758       -12.1025
 232   2.0000      -0.444032       -12.0827
 233   2.0000      -0.443205       -12.0602
 234   2.0000      -0.441980       -12.0269
 235   2.0000      -0.440767       -11.9939
 236   2.0000      -0.438094       -11.9212
 237   2.0000      -0.435055       -11.8385
 238   2.0000      -0.434941       -11.8353
 239   2.0000      -0.433528       -11.7969
 240   2.0000      -0.432236       -11.7617
 241   2.0000      -0.430420       -11.7123
 242   2.0000      -0.429809       -11.6957
 243   2.0000      -0.426446       -11.6042
 244   2.0000      -0.422971       -11.5096
 245   2.0000      -0.420009       -11.4290
 246   2.0000      -0.417192       -11.3524
 247   2.0000      -0.414996       -11.2926
 248   2.0000      -0.410737       -11.1767
 249   2.0000      -0.409571       -11.1450
 250   2.0000      -0.407576       -11.0907
 251   2.0000      -0.401836       -10.9345
 252   2.0000      -0.393572       -10.7096
 253   2.0000      -0.389827       -10.6077
 254   2.0000      -0.389383       -10.5956
 255   2.0000      -0.387984       -10.5576
 256   2.0000      -0.385935       -10.5018
 257   2.0000      -0.382711       -10.4141
 258   2.0000      -0.380440       -10.3523
 259   2.0000      -0.379456       -10.3255
 260   2.0000      -0.377410       -10.2698
 261   2.0000      -0.367455        -9.9990
 262   2.0000      -0.364981        -9.9316
 263   2.0000      -0.361353        -9.8329
 264   2.0000      -0.356692        -9.7061
 265   2.0000      -0.347944        -9.4680
 266   2.0000      -0.341995        -9.3062
 267   2.0000      -0.340088        -9.2543
 268   2.0000      -0.337346        -9.1796
 269   2.0000      -0.325372        -8.8538
 270   2.0000      -0.324460        -8.8290
 271   2.0000      -0.322031        -8.7629
 272   2.0000      -0.314392        -8.5550
 273   2.0000      -0.310507        -8.4493
 274   2.0000      -0.308015        -8.3815
 275   2.0000      -0.296584        -8.0705
 276   2.0000      -0.294040        -8.0012
 277   2.0000      -0.250352        -6.8124
 278   0.0000      -0.112923        -3.0728
 279   0.0000      -0.091078        -2.4784
 280   0.0000      -0.082491        -2.2447
 281   0.0000      -0.067746        -1.8435
 282   0.0000      -0.058354        -1.5879

MULLIKEN ATOMIC CHARGES
-----------------------
   0 C :    0.310442
   1 C :   -0.333367
   2 C :   -0.181425
   3 N :    0.150032
   4 C :   -0.187833
   5 N :    0.151710
   6 C :    0.045869
   7 C :   -0.003904
   8 C :   -0.075698
   9 C :    0.094781
  10 C :    0.094645
  11 C :   -0.076106
  12 C :   -0.016387
  13 C :    0.035292
  14 C :    0.037614
  15 C :   -0.013689
  16 C :    0.176693
  17 O :   -0.176746
  18 C :   -0.094149
  19 C :   -0.047421
  20 C :   -0.048785
  21 S :    0.204507
  22 C :   -0.161301
  23 C :    0.054826
  24 C :   -0.043493
  25 C :    0.089432
  26 N :    0.173505
  27 O :   -0.212211
  28 O :   -0.211551
  29 C :    0.085947
  30 C :    0.080084
  31 C :    0.087800
  32 N :    0.189446
  33 O :   -0.220449
  34 O :   -0.219541
  35 C :    0.085082
  36 N :   -0.260684
  37 C :    0.097161
  38 C :    0.001532
  39 C :    0.161754
  40 O :   -0.191213
  41 C :   -0.045808
  42 C :   -0.036860
  43 C :    0.158291
  44 O :   -0.223159
  45 N :   -0.257363
  46 C :    0.100630
  47 C :   -0.001898
  48 C :    0.126529
  49 C :   -0.033727
  50 C :    0.084747
  51 C :   -0.099646
  52 S :    0.112326
  53 C :   -0.196111
  54 C :    0.188946
  55 O :   -0.179622
  56 O :   -0.151722
  57 C :    0.069541
  58 C :    0.063203
  59 C :   -0.006475
  60 C :   -0.090477
  61 C :    0.306239
  62 C :   -0.329231
  63 C :   -0.182298
  64 N :    0.151466
  65 C :   -0.195358
  66 N :    0.166788
  67 C :    0.054351
  68 C :   -0.011757
  69 C :    0.151266
  70 O :   -0.141505
  71 C :   -0.072684
  72 C :    0.096385
  73 C :    0.096222
  74 C :   -0.080757
  75 C :   -0.016655
  76 C :    0.035357
  77 C :    0.036432
  78 C :   -0.013552
  79 H :   -0.012332
  80 H :   -0.006192
  81 H :   -0.007342
  82 H :   -0.001102
  83 H :   -0.003384
  84 H :   -0.016758
  85 H :    0.017060
  86 H :    0.062645
  87 H :    0.040855
  88 H :    0.033595
  89 H :    0.025238
  90 H :    0.033291
  91 H :    0.076287
  92 H :    0.036486
  93 H :    0.038189
  94 H :    0.032498
  95 H :    0.020956
  96 H :    0.028859
  97 H :    0.044920
  98 H :    0.024257
  99 H :    0.038618
 100 H :    0.021537
 101 H :    0.020625
 102 H :    0.012298
 103 H :   -0.021324
 104 H :    0.181438
 105 H :    0.011293
 106 H :    0.058024
 107 H :   -0.012840
 108 H :   -0.007310
 109 H :   -0.008265
 110 H :   -0.003561
 111 H :   -0.004880
 112 H :   -0.017929
Sum of atomic charges:   -0.0000000

LOEWDIN ATOMIC CHARGES
----------------------
   0 C :    0.077861
   1 C :   -0.135212
   2 C :   -0.017449
   3 N :   -0.047665
   4 C :   -0.019204
   5 N :   -0.050784
   6 C :   -0.024929
   7 C :   -0.056236
   8 C :    0.035307
   9 C :   -0.008313
  10 C :   -0.005023
  11 C :    0.022740
  12 C :   -0.004005
  13 C :   -0.010728
  14 C :   -0.010328
  15 C :   -0.008505
  16 C :    0.088568
  17 O :   -0.165393
  18 C :   -0.089828
  19 C :    0.053065
  20 C :   -0.174420
  21 S :    0.571163
  22 C :   -0.172988
  23 C :   -0.042564
  24 C :   -0.039197
  25 C :    0.013086
  26 N :    0.266247
  27 O :   -0.185086
  28 O :   -0.194356
  29 C :   -0.013183
  30 C :   -0.013595
  31 C :    0.002550
  32 N :    0.278200
  33 O :   -0.191722
  34 O :   -0.199263
  35 C :    0.057283
  36 N :    0.006435
  37 C :    0.030810
  38 C :   -0.064929
  39 C :    0.082893
  40 O :   -0.189882
  41 C :   -0.107581
  42 C :   -0.129675
  43 C :    0.088262
  44 O :   -0.198283
  45 N :    0.004556
  46 C :    0.035719
  47 C :   -0.062317
  48 C :    0.075928
  49 C :   -0.015331
  50 C :   -0.021933
  51 C :   -0.154216
  52 S :    0.438119
  53 C :   -0.228668
  54 C :    0.068577
  55 O :   -0.152778
  56 O :   -0.026964
  57 C :   -0.024280
  58 C :   -0.006279
  59 C :    0.088677
  60 C :   -0.077707
  61 C :    0.076289
  62 C :   -0.125142
  63 C :   -0.015536
  64 N :   -0.048193
  65 C :   -0.021534
  66 N :   -0.041324
  67 C :   -0.024488
  68 C :   -0.056663
  69 C :    0.086545
  70 O :   -0.133221
  71 C :    0.035110
  72 C :   -0.007838
  73 C :   -0.004773
  74 C :    0.021092
  75 C :   -0.004560
  76 C :   -0.012273
  77 C :   -0.011835
  78 C :   -0.009093
  79 H :    0.039434
  80 H :    0.039985
  81 H :    0.035643
  82 H :    0.034477
  83 H :    0.033659
  84 H :    0.032184
  85 H :    0.043972
  86 H :    0.051482
  87 H :    0.041958
  88 H :    0.038301
  89 H :    0.031025
  90 H :    0.039944
  91 H :    0.044649
  92 H :    0.020867
  93 H :    0.036905
  94 H :    0.015089
  95 H :    0.031286
  96 H :    0.030259
  97 H :    0.038131
  98 H :    0.020226
  99 H :    0.036911
 100 H :    0.030106
 101 H :    0.021869
 102 H :    0.048942
 103 H :    0.028097
 104 H :    0.082597
 105 H :    0.039949
 106 H :    0.051950
 107 H :    0.039278
 108 H :    0.039411
 109 H :    0.035241
 110 H :    0.033620
 111 H :    0.032904
 112 H :    0.031840

  Mayer bond orders larger than 0.100000
B(  0-C ,  1-C ) :   1.6430 B(  0-C ,  6-C ) :   0.9915 B(  0-C , 18-C ) :   1.0582
B(  1-C ,  2-C ) :   1.1447 B(  1-C ,  4-C ) :   1.1416 B(  2-C ,  3-N ) :   2.9671
B(  4-C ,  5-N ) :   2.9700 B(  6-C ,  7-C ) :   1.2132 B(  6-C , 11-C ) :   1.4538
B(  7-C ,  8-C ) :   1.4665 B(  7-C , 16-C ) :   0.9646 B(  8-C ,  9-C ) :   1.1795
B(  8-C , 79-H ) :   1.0170 B(  9-C , 10-C ) :   1.2551 B(  9-C , 15-C ) :   1.2457
B( 10-C , 11-C ) :   1.2047 B( 10-C , 12-C ) :   1.2402 B( 11-C , 80-H ) :   0.9905
B( 12-C , 13-C ) :   1.4879 B( 12-C , 81-H ) :   0.9977 B( 13-C , 14-C ) :   1.2600
B( 13-C , 82-H ) :   0.9896 B( 14-C , 15-C ) :   1.4872 B( 14-C , 83-H ) :   0.9893
B( 15-C , 84-H ) :   0.9978 B( 16-C , 17-O ) :   2.1228 B( 16-C , 18-C ) :   0.9639
B( 18-C , 19-C ) :   1.5837 B( 19-C , 20-C ) :   1.2118 B( 19-C , 85-H ) :   0.9254
B( 20-C , 21-S ) :   1.1223 B( 20-C , 22-C ) :   0.1061 B( 20-C , 24-C ) :   1.4065
B( 21-S , 22-C ) :   1.1371 B( 22-C , 23-C ) :   1.4666 B( 22-C , 35-C ) :   1.0581
B( 23-C , 24-C ) :   1.4174 B( 23-C , 31-C ) :   0.9591 B( 24-C , 25-C ) :   0.9551
B( 25-C , 26-N ) :   0.8325 B( 25-C , 29-C ) :   1.0752 B( 25-C , 86-H ) :   0.8893
B( 26-N , 27-O ) :   1.5545 B( 26-N , 28-O ) :   1.5878 B( 27-O , 28-O ) :   0.2731
B( 29-C , 30-C ) :   1.1007 B( 29-C , 87-H ) :   0.9245 B( 29-C , 88-H ) :   0.9198
B( 30-C , 31-C ) :   1.0696 B( 30-C , 89-H ) :   0.9262 B( 30-C , 90-H ) :   0.9252
B( 31-C , 32-N ) :   0.8307 B( 31-C , 91-H ) :   0.8440 B( 32-N , 33-O ) :   1.5468
B( 32-N , 34-O ) :   1.5742 B( 33-O , 34-O ) :   0.2642 B( 35-C , 36-N ) :   1.2237
B( 35-C , 42-C ) :   1.3776 B( 36-N , 37-C ) :   0.9357 B( 36-N , 39-C ) :   1.0227
B( 37-C , 38-C ) :   1.1156 B( 37-C , 92-H ) :   0.9467 B( 37-C , 93-H ) :   0.9301
B( 38-C , 94-H ) :   0.9622 B( 38-C , 95-H ) :   0.9658 B( 38-C , 96-H ) :   0.9630
B( 39-C , 40-O ) :   2.1184 B( 39-C , 41-C ) :   0.9851 B( 41-C , 42-C ) :   1.2180
B( 41-C , 48-C ) :   1.3662 B( 42-C , 43-C ) :   0.9889 B( 43-C , 44-O ) :   1.9848
B( 43-C , 45-N ) :   1.0725 B( 44-O , 91-H ) :   0.1245 B( 45-N , 46-C ) :   0.9426
B( 45-N , 48-C ) :   1.1550 B( 46-C , 47-C ) :   1.1168 B( 46-C , 97-H ) :   0.9233
B( 46-C , 98-H ) :   0.9499 B( 47-C , 99-H ) :   0.9600 B( 47-C ,100-H ) :   0.9684
B( 47-C ,101-H ) :   0.9675 B( 48-C , 49-C ) :   1.1799 B( 49-C , 50-C ) :   1.6206
B( 49-C ,102-H ) :   0.9458 B( 50-C , 51-C ) :   1.1034 B( 50-C ,103-H ) :   0.9652
B( 51-C , 52-S ) :   1.1266 B( 51-C , 58-C ) :   1.5082 B( 52-S , 53-C ) :   1.1030
B( 53-C , 54-C ) :   0.9522 B( 53-C , 57-C ) :   1.5021 B( 54-C , 55-O ) :   2.1116
B( 54-C , 56-O ) :   1.2531 B( 56-O ,104-H ) :   0.9490 B( 57-C , 58-C ) :   1.2769
B( 57-C , 59-C ) :   1.0422 B( 58-C ,105-H ) :   0.9834 B( 59-C , 60-C ) :   1.7403
B( 59-C ,106-H ) :   0.9175 B( 60-C , 61-C ) :   1.0221 B( 60-C , 69-C ) :   0.9217
B( 61-C , 62-C ) :   1.6779 B( 61-C , 67-C ) :   1.0023 B( 62-C , 63-C ) :   1.1389
B( 62-C , 65-C ) :   1.1366 B( 63-C , 64-N ) :   2.9701 B( 65-C , 66-N ) :   2.9926
B( 67-C , 68-C ) :   1.2114 B( 67-C , 74-C ) :   1.4430 B( 68-C , 69-C ) :   0.9472
B( 68-C , 71-C ) :   1.4694 B( 69-C , 70-O ) :   2.2293 B( 71-C , 72-C ) :   1.1843
B( 71-C ,107-H ) :   1.0153 B( 72-C , 73-C ) :   1.2529 B( 72-C , 78-C ) :   1.2423
B( 73-C , 74-C ) :   1.2113 B( 73-C , 75-C ) :   1.2377 B( 74-C ,108-H ) :   0.9902
B( 75-C , 76-C ) :   1.4908 B( 75-C ,109-H ) :   0.9974 B( 76-C , 77-C ) :   1.2578
B( 76-C ,110-H ) :   0.9891 B( 77-C , 78-C ) :   1.4895 B( 77-C ,111-H ) :   0.9890
B( 78-C ,112-H ) :   0.9976

-----------------------------------------------------------------------------
         ABSORPTION SPECTRUM VIA TRANSITION ELECTRIC DIPOLE MOMENTS
-----------------------------------------------------------------------------
State   Energy  Wavelength   fosc         T2         TX        TY        TZ
        (cm-1)    (nm)                  (au**2)     (au)      (au)      (au)
-----------------------------------------------------------------------------
   0   15297.1    653.7   0.971532712  20.90860   1.51562  -2.15140  -3.73938
   1   21408.2    467.1   0.087718768   1.34893  -0.67295   0.19791   0.92569
   2   22277.8    448.9   0.105711627   1.56216  -0.92957   0.27765   0.78802
   3   24426.6    409.4   0.264139562   3.55997  -0.59437   1.20975   1.32031
   4   26004.2    384.6   0.248721209   3.14880   0.24829  -1.20989  -1.27410
   5   26540.2    376.8   0.020671458   0.25641   0.28578  -0.35861  -0.21481
   6   26764.6    373.6   0.114445724   1.40771   0.63158  -0.68158   0.73774
   7   26871.9    372.1   0.130856697   1.60314  -0.49620  -0.80577  -0.84123
   8   27515.3    363.4   0.059965886   0.71747  -0.40930  -0.53905  -0.50928
   9   27653.4    361.6   0.080108927   0.95369   0.71254   0.40252   0.53287
  10   27866.6    358.9   0.003943371   0.04659   0.19750   0.08538   0.01703
  11   28460.5    351.4   0.035221338   0.40742  -0.57751   0.20239  -0.18148
  12   28647.8    349.1   0.024395655   0.28035   0.16356   0.32961   0.38073
  13   28743.7    347.9   0.002234359   0.02559   0.06678   0.11685   0.08647
  14   29090.4    343.8   0.199698655   2.25996   1.14870  -0.70461  -0.66632
  15   29605.0    337.8   0.031071788   0.34552  -0.37353   0.44972   0.06126
  16   30154.0    331.6   0.035279591   0.38517   0.57400  -0.11969   0.20338
  17   31030.0    322.3   0.307575486   3.26321  -1.17118   1.00734  -0.93638
  18   31581.7    316.6   0.044325042   0.46205   0.60839  -0.16701   0.25303
  19   31634.3    316.1   0.061161762   0.63650   0.63145   0.48759   0.00476
  20   31958.2    312.9   0.039211340   0.40393   0.61810  -0.06795  -0.13139
  21   32198.1    310.6   0.047299154   0.48361   0.51811   0.44919   0.11579
  22   32534.3    307.4   0.451047004   4.56411   1.86767   0.44723   0.93590
  23   32712.3    305.7   0.136363226   1.37234   0.49711   0.43595   0.96705
  24   33373.5    299.6   0.084095289   0.82955  -0.07359   0.89004   0.17881
  25   33604.7    297.6   0.202811248   1.98686  -1.31108  -0.06077  -0.51405
  26   33655.6    297.1   0.001027241   0.01005  -0.03014   0.05675   0.07693
  27   33879.8    295.2   0.017630130   0.17131   0.37706  -0.06655   0.15719
  28   34155.2    292.8   0.174911491   1.68592  -1.17252   0.02963  -0.55698
  29   34474.5    290.1   0.843463436   8.05461   1.54283   1.69757   1.67109
  30   34773.7    287.6   0.314251148   2.97510   0.28219   1.27670   1.12494
  31   35198.2    284.1   0.067712491   0.63332   0.24502  -0.28354   0.70206
  32   35900.5    278.5   0.019774026   0.18133  -0.17091  -0.34990  -0.17231
  33   36062.9    277.3   0.108102152   0.98685  -0.66937   0.70483   0.20494
  34   36676.3    272.7   0.105428648   0.94634  -0.83889   0.03305  -0.49144
  35   36969.1    270.5   0.070970149   0.63199   0.57470  -0.47418  -0.27725
  36   36998.3    270.3   0.088263495   0.78537  -0.83574   0.16531  -0.24411
  37   37218.3    268.7   0.016804481   0.14864  -0.31515   0.17212   0.14036
  38   37544.3    266.4   0.003046603   0.02671  -0.16096   0.00117   0.02839
  39   37771.3    264.8   0.080424347   0.70097  -0.81321   0.13992   0.14170
  40   38008.0    263.1   0.218124415   1.88932  -0.76600  -0.26188  -1.11084
  41   38287.1    261.2   0.089818954   0.77231  -0.74829   0.40501   0.21987
  42   38372.9    260.6   0.028283368   0.24265  -0.05013  -0.40027  -0.28270
  43   38755.5    258.0   0.034696407   0.29473  -0.22985   0.49146  -0.01924
  44   38940.7    256.8   0.249714964   2.11114  -0.86386   1.12250  -0.32384
  45   39135.5    255.5   0.196948099   1.65675  -0.46149   0.67277   0.99557
  46   39325.0    254.3   0.063786681   0.53399   0.53554  -0.45997  -0.18874
  47   39604.5    252.5   0.000348402   0.00290  -0.04811   0.02405   0.00175
  48   39648.6    252.2   0.005798153   0.04814  -0.02154   0.01131  -0.21806

FINAL SINGLE POINT ENERGY     -4250.661105004870

DIPOLE MOMENT
-------------
                                X             Y             Z
Electronic contribution:     -0.98217      11.42707       8.08092
Nuclear contribution   :     -0.30055     -14.30928      -9.26491
                        -----------------------------------------
Total Dipole Moment    :     -1.28272      -2.88221      -1.18398
                        -----------------------------------------
Magnitude (a.u.)       :      3.36962
Magnitude (Debye)      :      8.56489

Rotational constants in cm-1:     0.001064     0.000334     0.000268
Rotational constants in MHz :    31.899850    10.022421     8.027848

                             ****ORCA TERMINATED NORMALLY****
TOTAL RUN TIME: 0 days 0 hours 13 minutes 39 seconds 921 msec
